Peptide + Mycolic Acid Membrane + Water
44182
    1LEU      N    1   2.061   3.598   1.409
    1LEU     H1    2   2.081   3.499   1.395
    1LEU     H2    3   2.141   3.640   1.456
    1LEU     H3    4   1.980   3.605   1.469
    1LEU     CA    5   2.034   3.663   1.278
    1LEU     HA    6   1.941   3.625   1.238
    1LEU     CB    7   2.025   3.815   1.297
    1LEU    HB1    8   2.041   3.864   1.202
    1LEU    HB2    9   2.105   3.847   1.362
    1LEU     CG   10   1.895   3.868   1.356
    1LEU     HG   11   1.882   3.830   1.457
    1LEU    CD1   12   1.774   3.834   1.272
    1LEU   HD11   13   1.685   3.874   1.321
    1LEU   HD12   14   1.784   3.878   1.173
    1LEU   HD13   15   1.761   3.727   1.264
    1LEU    CD2   16   1.907   4.019   1.360
    1LEU   HD21   17   1.809   4.061   1.382
    1LEU   HD22   18   1.977   4.048   1.438
    1LEU   HD23   19   1.940   4.059   1.265
    1LEU      C   20   2.145   3.635   1.176
    1LEU      O   21   2.251   3.586   1.214
    2ILE      N   22   2.129   3.679   1.050
    2ILE      H   23   2.037   3.712   1.021
    2ILE     CA   24   2.241   3.686   0.952
    2ILE     HA   25   2.316   3.618   0.990
    2ILE     CB   26   2.212   3.621   0.815
    2ILE     HB   27   2.308   3.593   0.772
    2ILE    CG2   28   2.133   3.492   0.835
    2ILE   HG21   29   2.125   3.436   0.742
    2ILE   HG22   30   2.184   3.428   0.907
    2ILE   HG23   31   2.034   3.514   0.872
    2ILE    CG1   32   2.146   3.718   0.715
    2ILE   HG11   33   2.212   3.802   0.697
    2ILE   HG12   34   2.054   3.757   0.757
    2ILE     CD   35   2.119   3.655   0.578
    2ILE    HD1   36   2.090   3.734   0.509
    2ILE    HD2   37   2.210   3.607   0.541
    2ILE    HD3   38   2.039   3.581   0.584
    2ILE      C   39   2.313   3.823   0.944
    2ILE      O   40   2.396   3.844   0.856
    3SER      N   41   2.286   3.916   1.037
    3SER      H   42   2.205   3.902   1.095
    3SER     CA   43   2.355   4.047   1.046
    3SER     HA   44   2.413   4.062   0.955
    3SER     CB   45   2.254   4.163   1.051
    3SER    HB1   46   2.307   4.258   1.049
    3SER    HB2   47   2.196   4.157   1.143
    3SER     OG   48   2.167   4.157   0.941
    3SER     HG   49   2.177   4.239   0.890
    3SER      C   50   2.458   4.060   1.160
    3SER      O   51   2.497   4.171   1.194
    4GLY      N   52   2.504   3.950   1.221
    4GLY      H   53   2.471   3.859   1.189
    4GLY     CA   54   2.582   3.955   1.346
    4GLY    HA1   55   2.512   3.969   1.428
    4GLY    HA2   56   2.643   4.045   1.345
    4GLY      C   57   2.674   3.837   1.380
    4GLY      O   58   2.742   3.844   1.481
    5LEU      N   59   2.680   3.731   1.299
    5LEU      H   60   2.614   3.727   1.223
    5LEU     CA   61   2.788   3.631   1.297
    5LEU     HA   62   2.828   3.620   1.398
    5LEU     CB   63   2.729   3.494   1.254
    5LEU    HB1   64   2.669   3.510   1.166
    5LEU    HB2   65   2.660   3.461   1.331
    5LEU     CG   66   2.823   3.376   1.218
    5LEU     HG   67   2.911   3.412   1.166
    5LEU    CD1   68   2.754   3.273   1.128
    5LEU   HD11   69   2.824   3.194   1.104
    5LEU   HD12   70   2.668   3.230   1.177
    5LEU   HD13   71   2.723   3.320   1.034
    5LEU    CD2   72   2.864   3.296   1.340
    5LEU   HD21   73   2.918   3.207   1.312
    5LEU   HD22   74   2.930   3.357   1.401
    5LEU   HD23   75   2.776   3.265   1.396
    5LEU      C   76   2.906   3.679   1.209
    5LEU      O   77   3.021   3.645   1.237
    6ALA      N   78   2.881   3.756   1.102
    6ALA      H   79   2.785   3.778   1.080
    6ALA     CA   80   2.984   3.790   1.004
    6ALA     HA   81   3.076   3.809   1.057
    6ALA     CB   82   3.005   3.664   0.920
    6ALA    HB1   83   3.088   3.676   0.852
    6ALA    HB2   84   3.027   3.578   0.984
    6ALA    HB3   85   2.916   3.641   0.862
    6ALA      C   86   2.957   3.917   0.918
    6ALA      O   87   2.963   3.911   0.795
    7ALA      N   88   2.934   4.033   0.980
    7ALA      H   89   2.927   4.029   1.081
    7ALA     CA   90   2.884   4.158   0.917
    7ALA     HA   91   2.791   4.133   0.867
    7ALA     CB   92   2.848   4.258   1.027
    7ALA    HB1   93   2.807   4.349   0.983
    7ALA    HB2   94   2.773   4.215   1.093
    7ALA    HB3   95   2.936   4.284   1.085
    7ALA      C   96   2.972   4.224   0.808
    7ALA      O   97   2.934   4.329   0.756
    8ASN      N   98   3.084   4.164   0.770
    8ASN      H   99   3.105   4.077   0.817
    8ASN     CA  100   3.173   4.206   0.661
    8ASN     HA  101   3.126   4.288   0.606
    8ASN     CB  102   3.304   4.257   0.721
    8ASN    HB1  103   3.380   4.263   0.644
    8ASN    HB2  104   3.339   4.186   0.795
    8ASN     CG  105   3.297   4.392   0.788
    8ASN    OD1  106   3.220   4.478   0.751
    8ASN    ND2  107   3.380   4.415   0.887
    8ASN   HD21  108   3.452   4.347   0.911
    8ASN   HD22  109   3.380   4.509   0.925
    8ASN      C  110   3.196   4.094   0.557
    8ASN      O  111   3.280   4.111   0.468
    9PHE      N  112   3.121   3.984   0.562
    9PHE      H  113   3.052   3.976   0.636
    9PHE     CA  114   3.129   3.872   0.467
    9PHE     HA  115   3.221   3.880   0.409
    9PHE     CB  116   3.138   3.739   0.543
    9PHE    HB1  117   3.115   3.657   0.475
    9PHE    HB2  118   3.064   3.740   0.622
    9PHE     CG  119   3.272   3.709   0.604
    9PHE    CD1  120   3.366   3.630   0.536
    9PHE    HD1  121   3.343   3.589   0.439
    9PHE    CE1  122   3.492   3.606   0.592
    9PHE    HE1  123   3.566   3.549   0.538
    9PHE     CZ  124   3.522   3.657   0.720
    9PHE     HZ  125   3.619   3.639   0.764
    9PHE    CE2  126   3.426   3.729   0.791
    9PHE    HE2  127   3.447   3.764   0.890
    9PHE    CD2  128   3.302   3.759   0.732
    9PHE    HD2  129   3.231   3.820   0.783
    9PHE      C  130   3.015   3.869   0.364
    9PHE      O  131   3.046   3.856   0.246
   10LEU      N  132   2.887   3.887   0.401
   10LEU      H  133   2.868   3.876   0.500
   10LEU     CA  134   2.776   3.876   0.304
   10LEU     HA  135   2.780   3.775   0.266
   10LEU     CB  136   2.636   3.894   0.366
   10LEU    HB1  137   2.561   3.889   0.286
   10LEU    HB2  138   2.628   3.993   0.412
   10LEU     CG  139   2.601   3.789   0.471
   10LEU     HG  140   2.674   3.800   0.550
   10LEU    CD1  141   2.604   3.645   0.422
   10LEU   HD11  142   2.590   3.578   0.506
   10LEU   HD12  143   2.526   3.628   0.347
   10LEU   HD13  144   2.700   3.621   0.379
   10LEU    CD2  145   2.461   3.809   0.527
   10LEU   HD21  146   2.446   3.743   0.613
   10LEU   HD22  147   2.451   3.911   0.559
   10LEU   HD23  148   2.386   3.789   0.451
   10LEU      C  149   2.788   3.961   0.177
   10LEU      O  150   2.771   3.903   0.072
   11PRO      N  151   2.827   4.091   0.178
   11PRO     CD  152   2.809   4.184   0.287
   11PRO    HD1  153   2.881   4.164   0.365
   11PRO    HD2  154   2.708   4.177   0.326
   11PRO     CG  155   2.833   4.325   0.232
   11PRO    HG1  156   2.917   4.369   0.284
   11PRO    HG2  157   2.744   4.387   0.247
   11PRO     CB  158   2.864   4.310   0.084
   11PRO    HB1  159   2.963   4.347   0.061
   11PRO    HB2  160   2.790   4.365   0.026
   11PRO     CA  161   2.853   4.160   0.053
   11PRO     HA  162   2.763   4.149  12.855
   11PRO      C  163   2.971   4.102  12.834
   11PRO      O  164   2.975   4.124  12.713
   12GLN      N  165   3.060   4.021   0.029
   12GLN      H  166   3.055   4.006   0.129
   12GLN     CA  167   3.154   3.936  12.815
   12GLN     HA  168   3.188   3.993  12.728
   12GLN     CB  169   3.281   3.903   0.034
   12GLN    HB1  170   3.346   3.845  12.831
   12GLN    HB2  171   3.256   3.839   0.119
   12GLN     CG  172   3.357   4.027   0.085
   12GLN    HG1  173   3.301   4.072   0.166
   12GLN    HG2  174   3.367   4.100   0.005
   12GLN     CD  175   3.496   3.994   0.139
   12GLN    OE1  176   3.558   3.895   0.103
   12GLN    NE2  177   3.552   4.076   0.224
   12GLN   HE21  178   3.516   4.169   0.235
   12GLN   HE22  179   3.639   4.047   0.268
   12GLN      C  180   3.088   3.808  12.761
   12GLN      O  181   3.117   3.772  12.646
   13ILE      N  182   2.994   3.743  12.833
   13ILE      H  183   2.976   3.774   0.066
   13ILE     CA  184   2.906   3.637  12.775
   13ILE     HA  185   2.970   3.584  12.707
   13ILE     CB  186   2.866   3.523   0.010
   13ILE     HB  187   2.817   3.566   0.098
   13ILE    CG2  188   2.771   3.423  12.806
   13ILE   HG21  189   2.751   3.336   0.006
   13ILE   HG22  190   2.675   3.471  12.791
   13ILE   HG23  191   2.812   3.389  12.711
   13ILE    CG1  192   2.994   3.446   0.050
   13ILE   HG11  193   3.057   3.513   0.104
   13ILE   HG12  194   3.046   3.417  12.822
   13ILE     CD  195   2.977   3.317   0.132
   13ILE    HD1  196   3.075   3.282   0.163
   13ILE    HD2  197   2.914   3.337   0.218
   13ILE    HD3  198   2.932   3.238   0.072
   13ILE      C  199   2.792   3.695  12.686
   13ILE      O  200   2.733   3.623  12.606
   14LEU      N  201   2.780   3.827  12.676
   14LEU      H  202   2.818   3.881  12.753
   14LEU     CA  203   2.697   3.897  12.578
   14LEU     HA  204   2.618   3.830  12.546
   14LEU     CB  205   2.633   4.016  12.653
   14LEU    HB1  206   2.711   4.090  12.669
   14LEU    HB2  207   2.599   3.980  12.750
   14LEU     CG  208   2.515   4.091  12.589
   14LEU     HG  209   2.553   4.147  12.505
   14LEU    CD1  210   2.401   4.001  12.544
   14LEU   HD11  211   2.329   4.060  12.487
   14LEU   HD12  212   2.440   3.922  12.482
   14LEU   HD13  213   2.351   3.956  12.630
   14LEU    CD2  214   2.455   4.190  12.689
   14LEU   HD21  215   2.381   4.252  12.638
   14LEU   HD22  216   2.403   4.136  12.768
   14LEU   HD23  217   2.533   4.254  12.731
   14LEU      C  218   2.780   3.935  12.453
   14LEU      O  219   2.746   3.897  12.340
   15LYS      N  220   2.896   3.999  12.472
   15LYS      H  221   2.918   4.028  12.567
   15LYS     CA  222   2.982   4.054  12.364
   15LYS     HA  223   2.919   4.117  12.302
   15LYS     CB  224   3.087   4.148  12.426
   15LYS    HB1  225   3.157   4.089  12.486
   15LYS    HB2  226   3.036   4.218  12.491
   15LYS     CG  227   3.166   4.231  12.323
   15LYS    HG1  228   3.096   4.288  12.261
   15LYS    HG2  229   3.223   4.164  12.259
   15LYS     CD  230   3.262   4.328  12.393
   15LYS    HD1  231   3.308   4.278  12.478
   15LYS    HD2  232   3.207   4.414  12.429
   15LYS     CE  233   3.373   4.372  12.296
   15LYS    HE1  234   3.330   4.437  12.220
   15LYS    HE2  235   3.413   4.283  12.247
   15LYS     NZ  236   3.483   4.442  12.367
   15LYS    HZ1  237   3.556   4.472  12.303
   15LYS    HZ2  238   3.450   4.528  12.412
   15LYS    HZ3  239   3.525   4.384  12.440
   15LYS      C  240   3.043   3.948  12.271
   15LYS      O  241   3.076   3.980  12.157
   16LYS      N  242   3.052   3.821  12.312
   16LYS      H  243   3.021   3.803  12.406
   16LYS     CA  244   3.097   3.703  12.235
   16LYS     HA  245   3.132   3.736  12.137
   16LYS     CB  246   3.220   3.642  12.309
   16LYS    HB1  247   3.194   3.618  12.411
   16LYS    HB2  248   3.293   3.723  12.316
   16LYS     CG  249   3.297   3.522  12.250
   16LYS    HG1  250   3.394   3.556  12.216
   16LYS    HG2  251   3.243   3.481  12.165
   16LYS     CD  252   3.325   3.412  12.354
   16LYS    HD1  253   3.230   3.375  12.388
   16LYS    HD2  254   3.374   3.458  12.439
   16LYS     CE  255   3.404   3.288  12.311
   16LYS    HE1  256   3.343   3.226  12.245
   16LYS    HE2  257   3.423   3.228  12.401
   16LYS     NZ  258   3.532   3.318  12.244
   16LYS    HZ1  259   3.586   3.232  12.234
   16LYS    HZ2  260   3.517   3.359  12.152
   16LYS    HZ3  261   3.589   3.380  12.300
   16LYS      C  262   2.980   3.604  12.205
   16LYS      O  263   3.004   3.485  12.184
   17ILE      N  264   2.853   3.650  12.203
   17ILE      H  265   2.834   3.743  12.238
   17ILE     CA  266   2.745   3.577  12.132
   17ILE     HA  267   2.795   3.499  12.077
   17ILE     CB  268   2.647   3.494  12.219
   17ILE     HB  269   2.599   3.426  12.150
   17ILE    CG2  270   2.722   3.407  12.321
   17ILE   HG21  271   2.654   3.337  12.369
   17ILE   HG22  272   2.799   3.348  12.271
   17ILE   HG23  273   2.766   3.469  12.398
   17ILE    CG1  274   2.536   3.572  12.290
   17ILE   HG11  275   2.502   3.652  12.226
   17ILE   HG12  276   2.574   3.617  12.382
   17ILE     CD  277   2.416   3.482  12.321
   17ILE    HD1  278   2.343   3.535  12.382
   17ILE    HD2  279   2.368   3.451  12.228
   17ILE    HD3  280   2.445   3.393  12.376
   17ILE      C  281   2.683   3.656  12.016
   17ILE      O  282   2.673   3.599  11.908
   18ALA      N  283   2.660   3.787  12.029
   18ALA      H  284   2.657   3.829  12.121
   18ALA     CA  285   2.629   3.872  11.912
   18ALA     HA  286   2.575   3.808  11.843
   18ALA     CB  287   2.531   3.984  11.947
   18ALA    HB1  288   2.508   4.041  11.857
   18ALA    HB2  289   2.437   3.942  11.983
   18ALA    HB3  290   2.572   4.051  12.021
   18ALA      C  291   2.753   3.920  11.833
   18ALA      O  292   2.746   4.020  11.761
   19ARG      N  293   2.869   3.852  11.843
   19ARG      H  294   2.871   3.771  11.904
   19ARG     CA  295   2.983   3.871  11.750
   19ARG     HA  296   2.979   3.972  11.711
   19ARG     CB  297   3.119   3.857  11.822
   19ARG    HB1  298   3.134   3.757  11.860
   19ARG    HB2  299   3.121   3.925  11.906
   19ARG     CG  300   3.233   3.892  11.724
   19ARG    HG1  301   3.203   3.980  11.667
   19ARG    HG2  302   3.243   3.809  11.654
   19ARG     CD  303   3.372   3.920  11.780
   19ARG    HD1  304   3.435   3.946  11.695
   19ARG    HD2  305   3.414   3.831  11.825
   19ARG     NE  306   3.371   4.033  11.875
   19ARG     HE  307   3.281   4.070  11.902
   19ARG     CZ  308   3.476   4.108  11.905
   19ARG    NH1  309   3.597   4.078  11.866
   19ARG   HH11  310   3.613   3.992  11.815
   19ARG   HH12  311   3.670   4.147  11.867
   19ARG    NH2  312   3.461   4.218  11.972
   19ARG   HH21  313   3.367   4.256  11.981
   19ARG   HH22  314   3.537   4.283  11.970
   19ARG      C  315   2.971   3.780  11.626
   19ARG      O  316   3.024   3.813  11.520
   20LYS      N  317   2.901   3.667  11.640
   20LYS      H  318   2.866   3.649  11.734
   20LYS     CA  319   2.888   3.557  11.543
   20LYS     HA  320   2.973   3.559  11.474
   20LYS     CB  321   2.895   3.426  11.624
   20LYS    HB1  322   2.826   3.433  11.708
   20LYS    HB2  323   2.996   3.415  11.664
   20LYS     CG  324   2.860   3.300  11.544
   20LYS    HG1  325   2.921   3.296  11.454
   20LYS    HG2  326   2.755   3.306  11.517
   20LYS     CD  327   2.876   3.170  11.623
   20LYS    HD1  328   2.807   3.170  11.707
   20LYS    HD2  329   2.977   3.164  11.661
   20LYS     CE  330   2.849   3.048  11.535
   20LYS    HE1  331   2.836   2.961  11.600
   20LYS    HE2  332   2.937   3.029  11.474
   20LYS     NZ  333   2.731   3.060  11.447
   20LYS    HZ1  334   2.714   2.971  11.400
   20LYS    HZ2  335   2.649   3.085  11.501
   20LYS    HZ3  336   2.745   3.131  11.376
   20LYS      C  337   2.763   3.566  11.454
   20LYS      O  338   2.748   3.486  11.361
   21SER      N  339   2.669   3.655  11.485
   21SER      H  340   2.690   3.725  11.555
   21SER     CA  341   2.533   3.661  11.429
   21SER     HA  342   2.495   3.560  11.415
   21SER     CB  343   2.439   3.734  11.523
   21SER    HB1  344   2.380   3.662  11.578
   21SER    HB2  345   2.369   3.796  11.466
   21SER     OG  346   2.510   3.815  11.615
   21SER     HG  347   2.443   3.869  11.662
   21SER      C  348   2.523   3.724  11.291
   21SER    OC1  349   2.569   3.840  11.277
   21SER    OC2  350   2.463   3.657  11.206
   22MYC   HH15  351   0.706   6.197   6.631
   22MYC    C80  352   0.670   6.243   6.724
   22MYC   H100  353   0.732   6.331   6.745
   22MYC   H101  354   0.567   6.276   6.708
   22MYC    C79  355   0.678   6.142   6.841
   22MYC   H102  356   0.781   6.108   6.851
   22MYC   H103  357   0.617   6.055   6.816
   22MYC    C78  358   0.630   6.203   6.974
   22MYC   HH14  359   0.525   6.236   6.964
   22MYC   H104  360   0.689   6.292   6.996
   22MYC    C77  361   0.640   6.105   7.093
   22MYC   H106  362   0.744   6.072   7.103
   22MYC   H107  363   0.579   6.016   7.073
   22MYC    C76  364   0.594   6.170   7.225
   22MYC   H108  365   0.489   6.199   7.216
   22MYC   H109  366   0.651   6.262   7.241
   22MYC    C75  367   0.612   6.078   7.348
   22MYC   H110  368   0.717   6.047   7.355
   22MYC   H111  369   0.551   5.987   7.335
   22MYC    C74  370   0.571   6.149   7.478
   22MYC   H112  371   0.465   6.175   7.474
   22MYC   H113  372   0.626   6.243   7.486
   22MYC    C73  373   0.598   6.066   7.605
   22MYC   HH13  374   0.704   6.037   7.607
   22MYC   H114  375   0.539   5.973   7.602
   22MYC    C72  376   0.565   6.144   7.733
   22MYC   H115  377   0.458   6.168   7.734
   22MYC   H116  378   0.618   6.240   7.731
   22MYC    C71  379   0.602   6.070   7.863
   22MYC   H117  380   0.709   6.047   7.862
   22MYC   H118  381   0.548   5.975   7.868
   22MYC    C70  382   0.568   6.155   7.987
   22MYC   H119  383   0.460   6.173   7.989
   22MYC   H120  384   0.617   6.253   7.978
   22MYC    C69  385   0.611   6.090   8.120
   22MYC   H121  386   0.720   6.078   8.122
   22MYC   H122  387   0.567   5.990   8.127
   22MYC    C68  388   0.565   6.174   8.240
   22MYC   HH12  389   0.456   6.186   8.235
   22MYC   H123  390   0.608   6.275   8.233
   22MYC    C67  391   0.603   6.113   8.376
   22MYC   H124  392   0.712   6.115   8.389
   22MYC   H125  393   0.571   6.008   8.379
   22MYC    C66  394   0.535   6.188   8.493
   22MYC   H126  395   0.427   6.184   8.479
   22MYC   H127  396   0.564   6.294   8.489
   22MYC    C65  397   0.571   6.131   8.631
   22MYC   H128  398   0.677   6.148   8.651
   22MYC   H129  399   0.556   6.022   8.630
   22MYC    C64  400   0.486   6.192   8.743
   22MYC   H130  401   0.380   6.168   8.725
   22MYC   H131  402   0.495   6.302   8.740
   22MYC    C63  403   0.527   6.142   8.882
   22MYC   HH11  404   0.632   6.169   8.901
   22MYC   H132  405   0.521   6.032   8.885
   22MYC    C62  406   0.439   6.200   8.995
   22MYC   H133  407   0.335   6.170   8.979
   22MYC   H134  408   0.443   6.309   8.992
   22MYC    C61  409   0.485   6.151   9.133
   22MYC   H135  410   0.591   6.176   9.146
   22MYC   H136  411   0.477   6.042   9.138
   22MYC    C60  412   0.404   6.211   9.247
   22MYC   H137  413   0.298   6.186   9.241
   22MYC    C58  414   0.465   6.218   9.384
   22MYC   H138  415   0.569   6.187   9.392
   22MYC    C59  416   0.437   6.345   9.308
   22MYC   H139  417   0.355   6.408   9.342
   22MYC   H140  418   0.522   6.400   9.267
   22MYC    C57  419   0.385   6.178   9.507
   22MYC   HH10  420   0.376   6.068   9.510
   22MYC   H141  421   0.282   6.217   9.500
   22MYC    C56  422   0.450   6.227   9.637
   22MYC   H142  423   0.456   6.337   9.634
   22MYC   H143  424   0.553   6.190   9.641
   22MYC    C55  425   0.375   6.183   9.763
   22MYC   H144  426   0.373   6.073   9.768
   22MYC   H145  427   0.271   6.217   9.758
   22MYC    C54  428   0.441   6.238   9.891
   22MYC   H146  429   0.441   6.347   9.886
   22MYC   H147  430   0.545   6.205   9.895
   22MYC    C53  431   0.370   6.193  10.020
   22MYC   H148  432   0.379   6.084  10.029
   22MYC   H149  433   0.262   6.216  10.012
   22MYC    C52  434   0.426   6.261  10.147
   22MYC    H99  435   0.406   6.369  10.143
   22MYC   H150  436   0.535   6.247  10.150
   22MYC    C51  437   0.363   6.201  10.274
   22MYC    H97  438   0.389   6.094  10.278
   22MYC    H98  439   0.254   6.207  10.268
   22MYC    C50  440   0.408   6.268  10.406
   22MYC    H95  441   0.364   6.368  10.414
   22MYC    H96  442   0.517   6.281  10.405
   22MYC    C49  443   0.368   6.181  10.527
   22MYC    H93  444   0.416   6.083  10.514
   22MYC    H94  445   0.260   6.163  10.524
   22MYC    C48  446   0.406   6.237  10.666
   22MYC    H91  447   0.338   6.319  10.692
   22MYC    H92  448   0.507   6.278  10.664
   22MYC    C47  449   0.398   6.125  10.773
   22MYC    H89  450   0.473   6.049  10.750
   22MYC    H90  451   0.300   6.077  10.767
   22MYC    C46  452   0.418   6.173  10.918
   22MYC    H87  453   0.341   6.247  10.942
   22MYC    H88  454   0.515   6.223  10.925
   22MYC    C45  455   0.412   6.056  11.019
   22MYC    H85  456   0.499   5.990  11.004
   22MYC    H86  457   0.323   5.995  10.998
   22MYC    C44  458   0.406   6.098  11.167
   22MYC    H83  459   0.401   6.008  11.229
   22MYC    H84  460   0.312   6.152  11.184
   22MYC    C18  461   0.524   6.184  11.212
   22MYC    H31  462   0.618   6.131  11.204
   22MYC    C17  463   0.523   6.332  11.183
   22MYC    H30  464   0.431   6.371  11.140
   22MYC    C19  465   0.513   6.282  11.326
   22MYC    H32  466   0.417   6.292  11.376
   22MYC    H33  467   0.600   6.295  11.390
   22MYC    C16  468   0.648   6.399  11.127
   22MYC    H28  469   0.688   6.341  11.043
   22MYC    H29  470   0.728   6.399  11.203
   22MYC    C15  471   0.623   0.094  11.080
   22MYC    H26  472   0.719   0.145  11.069
   22MYC    H27  473   0.567   0.148  11.157
   22MYC    C14  474   0.548   0.102  10.945
   22MYC    H24  475   0.449   0.057  10.955
   22MYC    H25  476   0.603   0.044  10.870
   22MYC    C13  477   0.532   0.247  10.894
   22MYC    H22  478   0.631   0.293  10.884
   22MYC    H23  479   0.476   0.306  10.968
   22MYC    C12  480   0.460   0.254  10.758
   22MYC    H20  481   0.360   0.211  10.767
   22MYC    H21  482   0.515   0.191  10.687
   22MYC    C11  483   0.449   0.398  10.702
   22MYC    H18  484   0.549   0.442  10.698
   22MYC    H19  485   0.392   0.459  10.773
   22MYC    C10  486   0.383   0.409  10.563
   22MYC    H16  487   0.382   0.515  10.534
   22MYC    H17  488   0.278   0.377  10.569
   22MYC     C9  489   0.456   0.328  10.453
   22MYC    H14  490   0.441   0.221  10.472
   22MYC    H15  491   0.563   0.348  10.460
   22MYC     C8  492   0.409   0.359  10.309
   22MYC    H12  493   0.427   0.465  10.287
   22MYC    H13  494   0.301   0.342  10.301
   22MYC     C7  495   0.483   0.272  10.206
   22MYC    H10  496   0.457   0.166  10.223
   22MYC    H11  497   0.591   0.281  10.223
   22MYC     C6  498   0.453   0.308  10.059
   22MYC     H8  499   0.480   0.413  10.041
   22MYC     H9  500   0.346   0.297  10.040
   22MYC     C5  501   0.532   0.217   9.961
   22MYC     H6  502   0.489   0.116   9.962
   22MYC     H7  503   0.633   0.205  10.003
   22MYC     C4  504   0.550   0.269   9.816
   22MYC     H4  505   0.638   0.218   9.776
   22MYC     H5  506   0.577   0.375   9.818
   22MYC     C2  507   0.436   0.246   9.712
   22MYC     H2  508   0.489   0.231   9.617
   22MYC     O3  509   0.364   0.125   9.740
   22MYC     H3  510   0.332   0.131   9.832
   22MYC     C1  511   0.338   0.365   9.687
   22MYC     H1  512   0.402   0.452   9.666
   22MYC    C81  513   0.252   0.401   9.809
   22MYC    O82  514   0.163   0.331   9.854
   22MYC    O83  515   0.277   0.524   9.860
   22MYC   H105  516   0.214   0.536   9.933
   22MYC    C20  517   0.246   0.346   9.562
   22MYC    H34  518   0.181   0.259   9.578
   22MYC    H35  519   0.180   0.433   9.553
   22MYC    C21  520   0.323   0.328   9.429
   22MYC    H36  521   0.393   0.412   9.417
   22MYC    H37  522   0.382   0.236   9.432
   22MYC    C22  523   0.232   0.321   9.305
   22MYC    H38  524   0.157   0.242   9.319
   22MYC    H39  525   0.176   0.415   9.296
   22MYC    C23  526   0.312   0.295   9.176
   22MYC    H40  527   0.396   0.365   9.170
   22MYC    H41  528   0.354   0.194   9.180
   22MYC    C24  529   0.226   0.310   9.049
   22MYC    H42  530   0.140   0.242   9.055
   22MYC    H43  531   0.187   0.412   9.046
   22MYC    C25  532   0.303   0.281   8.918
   22MYC    H44  533   0.398   0.337   8.918
   22MYC    H45  534   0.329   0.175   8.914
   22MYC    C26  535   0.220   0.320   8.794
   22MYC    H46  536   0.126   0.265   8.796
   22MYC    H47  537   0.195   0.427   8.801
   22MYC    C27  538   0.291   0.294   8.660
   22MYC    H48  539   0.389   0.344   8.659
   22MYC    H49  540   0.310   0.186   8.650
   22MYC    C28  541   0.206   0.342   8.541
   22MYC    H50  542   0.106   0.299   8.549
   22MYC    H51  543   0.195   0.451   8.547
   22MYC    C29  544   0.265   0.306   8.403
   22MYC    H52  545   0.365   0.349   8.393
   22MYC    H53  546   0.276   0.197   8.397
   22MYC    C30  547   0.175   0.354   8.287
   22MYC    H54  548   0.074   0.314   8.301
   22MYC    H55  549   0.166   0.464   8.292
   22MYC    C31  550   0.228   0.313   8.149
   22MYC    H56  551   0.328   0.354   8.134
   22MYC    H57  552   0.237   0.204   8.145
   22MYC    C32  553   0.136   0.359   8.033
   22MYC    H58  554   0.036   0.317   8.048
   22MYC    H59  555   0.126   0.469   8.036
   22MYC    C33  556   0.189   0.316   7.895
   22MYC    H60  557   0.290   0.357   7.881
   22MYC    H61  558   0.198   0.207   7.893
   22MYC    C34  559   0.100   0.361   7.777
   22MYC    H62  560   6.448   0.321   7.791
   22MYC    H63  561   0.092   0.470   7.777
   22MYC    C35  562   0.156   0.313   7.642
   22MYC    H64  563   0.259   0.349   7.631
   22MYC    H65  564   0.161   0.203   7.643
   22MYC    C36  565   0.074   0.358   7.519
   22MYC    H66  566   6.421   0.320   7.527
   22MYC    H67  567   0.069   0.467   7.516
   22MYC    C37  568   0.137   0.305   7.388
   22MYC    H68  569   0.241   0.340   7.383
   22MYC    H69  570   0.141   0.196   7.392
   22MYC    C38  571   0.064   0.347   7.259
   22MYC    H70  572   6.412   0.307   7.260
   22MYC    H71  573   0.056   0.456   7.254
   22MYC    C39  574   0.138   0.296   7.133
   22MYC    H72  575   0.238   0.340   7.130
   22MYC    H73  576   0.151   0.187   7.142
   22MYC    C40  577   0.066   0.325   7.000
   22MYC    H74  578   6.418   0.276   7.001
   22MYC    H75  579   0.048   0.433   6.990
   22MYC    C41  580   0.147   0.275   6.878
   22MYC    H76  581   0.241   0.332   6.872
   22MYC    H77  582   0.174   0.170   6.893
   22MYC    C42  583   0.071   0.288   6.744
   22MYC    H78  584   6.429   0.229   6.749
   22MYC    H79  585   0.043   0.393   6.728
   22MYC    C43  586   0.154   0.239   6.623
   22MYC    H80  587   0.095   0.247   6.531
   22MYC    H81  588   0.184   0.134   6.637
   22MYC    H82  589   0.245   0.299   6.612
   23MYC   HH15  590   1.134   6.382   6.561
   23MYC    C80  591   1.157   6.438   6.653
   23MYC   H100  592   1.260   6.414   6.683
   23MYC   H101  593   1.152   0.096   6.630
   23MYC    C79  594   1.059   6.401   6.765
   23MYC   H102  595   1.067   6.293   6.785
   23MYC   H103  596   0.957   6.420   6.731
   23MYC    C78  597   1.084   0.029   6.896
   23MYC   HH14  598   1.069   0.136   6.877
   23MYC   H104  599   1.188   0.016   6.926
   23MYC    C77  600   0.991   6.434   7.011
   23MYC   H106  601   1.007   6.327   7.028
   23MYC   H107  602   0.887   6.447   6.981
   23MYC    C76  603   1.016   0.061   7.142
   23MYC   H108  604   0.988   0.166   7.128
   23MYC   H109  605   1.123   0.059   7.165
   23MYC    C75  606   0.938   0.002   7.261
   23MYC   H110  607   0.965   6.345   7.271
   23MYC   H111  608   0.831   0.006   7.241
   23MYC    C74  609   0.968   0.073   7.394
   23MYC   H112  610   0.927   0.175   7.391
   23MYC   H113  611   1.077   0.083   7.407
   23MYC    C73  612   0.911   6.448   7.516
   23MYC   HH13  613   0.951   6.346   7.516
   23MYC   H114  614   0.802   6.439   7.506
   23MYC    C72  615   0.945   0.065   7.650
   23MYC   H115  616   0.889   0.159   7.659
   23MYC   H116  617   1.052   0.090   7.653
   23MYC    C71  618   0.913   6.424   7.770
   23MYC   H117  619   0.972   6.332   7.762
   23MYC   H118  620   0.807   6.394   7.766
   23MYC    C70  621   0.940   0.041   7.906
   23MYC   H119  622   0.869   0.123   7.921
   23MYC   H120  623   1.041   0.085   7.906
   23MYC    C69  624   0.930   6.391   8.023
   23MYC   H121  625   1.010   6.316   8.013
   23MYC   H122  626   0.835   6.337   8.017
   23MYC    C68  627   0.940   0.009   8.160
   23MYC   HH12  628   0.855   0.077   8.174
   23MYC   H123  629   1.031   0.069   8.165
   23MYC    C67  630   0.942   6.356   8.275
   23MYC   H124  631   1.030   6.292   8.265
   23MYC   H125  632   0.854   6.292   8.269
   23MYC    C66  633   0.945   6.424   8.414
   23MYC   H126  634   0.855   0.036   8.426
   23MYC   H127  635   1.031   0.042   8.419
   23MYC    C65  636   0.953   6.322   8.528
   23MYC   H128  637   1.038   6.255   8.512
   23MYC   H129  638   0.863   6.260   8.528
   23MYC    C64  639   0.968   6.391   8.665
   23MYC   H130  640   0.883   0.008   8.682
   23MYC   H131  641   1.059   0.003   8.665
   23MYC    C63  642   0.977   6.290   8.781
   23MYC   HH11  643   1.057   6.219   8.760
   23MYC   H132  644   0.884   6.231   8.785
   23MYC    C62  645   1.003   6.357   8.917
   23MYC   H133  646   1.011   0.016   8.904
   23MYC   H134  647   1.100   6.324   8.955
   23MYC    C61  648   0.895   6.327   9.022
   23MYC   H135  649   0.891   6.219   9.039
   23MYC   H136  650   0.796   6.356   8.983
   23MYC    C60  651   0.920   6.401   9.153
   23MYC   H137  652   0.894   0.056   9.147
   23MYC    C58  653   0.900   6.331   9.285
   23MYC   H138  654   0.873   6.226   9.280
   23MYC    C59  655   1.039   6.366   9.239
   23MYC   H139  656   1.090   6.448   9.290
   23MYC   H140  657   1.103   6.284   9.208
   23MYC    C57  658   0.836   6.402   9.403
   23MYC   HH10  659   0.727   6.395   9.395
   23MYC   H141  660   0.862   0.059   9.402
   23MYC    C56  661   0.882   6.340   9.536
   23MYC   H142  662   0.990   6.353   9.546
   23MYC   H143  663   0.862   6.232   9.534
   23MYC    C55  664   0.811   6.402   9.658
   23MYC   H144  665   0.703   6.394   9.645
   23MYC   H145  666   0.836   0.059   9.663
   23MYC    C54  667   0.853   6.332   9.789
   23MYC   H146  668   0.962   6.335   9.797
   23MYC   H147  669   0.823   6.227   9.785
   23MYC    C53  670   0.791   6.398   9.913
   23MYC   H148  671   0.681   6.395   9.907
   23MYC   H149  672   0.817   0.055   9.914
   23MYC    C52  673   0.838   6.334  10.044
   23MYC    H99  674   0.945   6.312  10.037
   23MYC   H150  675   0.786   6.238  10.058
   23MYC    C51  676   0.814   6.425  10.166
   23MYC    H97  677   0.707   6.447  10.175
   23MYC    H98  678   0.864   0.071  10.148
   23MYC    C50  679   0.867   6.364  10.296
   23MYC    H95  680   0.970   6.331  10.281
   23MYC    H96  681   0.807   6.276  10.321
   23MYC    C49  682   0.863   0.014  10.414
   23MYC    H93  683   0.761   0.050  10.428
   23MYC    H94  684   0.925   0.102  10.389
   23MYC    C48  685   0.915   6.401  10.544
   23MYC    H91  686   1.015   6.360  10.528
   23MYC    H92  687   0.850   6.317  10.571
   23MYC    C47  688   0.919   0.050  10.663
   23MYC    H89  689   0.824   0.104  10.670
   23MYC    H90  690   0.998   0.124  10.645
   23MYC    C46  691   0.945   6.426  10.796
   23MYC    H87  692   1.028   6.356  10.783
   23MYC    H88  693   0.857   6.365  10.820
   23MYC    C45  694   0.974   0.071  10.915
   23MYC    H85  695   0.913   0.040  11.001
   23MYC    H86  696   0.943   0.173  10.890
   23MYC    C44  697   1.122   0.072  10.959
   23MYC    H83  698   1.138   0.158  11.025
   23MYC    H84  699   1.186   0.087  10.871
   23MYC    C18  700   1.164   6.394  11.032
   23MYC    H31  701   1.155   6.306  10.970
   23MYC    C17  702   1.277   6.397  11.132
   23MYC    H30  703   1.319   0.045  11.155
   23MYC    C19  704   1.135   6.373  11.178
   23MYC    H32  705   1.086   0.003  11.233
   23MYC    H33  706   1.108   6.272  11.210
   23MYC    C16  707   1.382   6.287  11.138
   23MYC    H28  708   1.337   6.188  11.128
   23MYC    H29  709   1.429   6.290  11.237
   23MYC    C15  710   1.492   6.305  11.031
   23MYC    H26  711   1.584   6.257  11.067
   23MYC    H27  712   1.515   6.412  11.020
   23MYC    C14  713   1.457   6.243  10.894
   23MYC    H24  714   1.349   6.238  10.880
   23MYC    H25  715   1.493   6.139  10.892
   23MYC    C13  716   1.517   6.321  10.774
   23MYC    H22  717   1.623   6.339  10.793
   23MYC    H23  718   1.468   6.419  10.768
   23MYC    C12  719   1.501   6.246  10.641
   23MYC    H20  720   1.398   6.211  10.631
   23MYC    H21  721   1.565   6.157  10.644
   23MYC    C11  722   1.539   6.330  10.516
   23MYC    H18  723   1.572   6.262  10.437
   23MYC    H19  724   1.626   6.392  10.540
   23MYC    C10  725   1.424   6.420  10.464
   23MYC    H16  726   1.467   0.058  10.414
   23MYC    H17  727   1.366   0.009  10.549
   23MYC     C9  728   1.327   6.350  10.366
   23MYC    H14  729   1.235   6.409  10.358
   23MYC    H15  730   1.298   6.252  10.406
   23MYC     C8  731   1.387   6.334  10.224
   23MYC    H12  732   1.486   6.285  10.231
   23MYC    H13  733   1.404   6.433  10.181
   23MYC     C7  734   1.300   6.250  10.128
   23MYC    H10  735   1.200   6.295  10.121
   23MYC    H11  736   1.288   6.150  10.171
   23MYC     C6  737   1.362   6.239   9.987
   23MYC     H8  738   1.467   6.208   9.997
   23MYC     H9  739   1.362   6.337   9.940
   23MYC     C5  740   1.289   6.136   9.898
   23MYC     H6  741   1.183   6.162   9.889
   23MYC     H7  742   1.294   6.040   9.949
   23MYC     C4  743   1.352   6.118   9.758
   23MYC     H4  744   1.314   6.023   9.718
   23MYC     H5  745   1.460   6.102   9.771
   23MYC     C2  746   1.326   6.227   9.649
   23MYC     H2  747   1.273   6.175   9.568
   23MYC     O3  748   1.240   6.331   9.696
   23MYC     H3  749   1.289   6.382   9.763
   23MYC     C1  750   1.457   6.286   9.587
   23MYC     H1  751   1.525   6.201   9.577
   23MYC    C81  752   1.526   6.389   9.680
   23MYC    O82  753   1.498   0.058   9.682
   23MYC    O83  754   1.624   6.339   9.758
   23MYC   H105  755   1.659   6.416   9.806
   23MYC    C20  756   1.435   6.349   9.448
   23MYC    H34  757   1.356   6.425   9.453
   23MYC    H35  758   1.528   6.403   9.421
   23MYC    C21  759   1.403   6.249   9.335
   23MYC    H36  760   1.471   6.163   9.341
   23MYC    H37  761   1.301   6.212   9.345
   23MYC    C22  762   1.421   6.318   9.198
   23MYC    H38  763   1.355   6.405   9.193
   23MYC    H39  764   1.524   6.355   9.191
   23MYC    C23  765   1.393   6.228   9.076
   23MYC    H40  766   1.447   6.133   9.085
   23MYC    H41  767   1.286   6.205   9.071
   23MYC    C24  768   1.438   6.301   8.948
   23MYC    H42  769   1.399   6.404   8.951
   23MYC    H43  770   1.547   6.309   8.948
   23MYC    C25  771   1.392   6.236   8.818
   23MYC    H44  772   1.424   6.131   8.814
   23MYC    H45  773   1.282   6.237   8.814
   23MYC    C26  774   1.448   6.312   8.696
   23MYC    H46  775   1.453   6.419   8.720
   23MYC    H47  776   1.551   6.279   8.678
   23MYC    C27  777   1.364   6.296   8.569
   23MYC    H48  778   1.356   6.190   8.542
   23MYC    H49  779   1.263   6.333   8.587
   23MYC    C28  780   1.426   6.373   8.451
   23MYC    H50  781   1.449   0.026   8.483
   23MYC    H51  782   1.522   6.326   8.425
   23MYC    C29  783   1.336   6.379   8.327
   23MYC    H52  784   1.299   6.279   8.303
   23MYC    H53  785   1.248   6.442   8.349
   23MYC    C30  786   1.412   6.436   8.207
   23MYC    H54  787   1.453   0.085   8.232
   23MYC    H55  788   1.497   6.370   8.186
   23MYC    C31  789   1.326   6.449   8.080
   23MYC    H56  790   1.265   6.359   8.066
   23MYC    H57  791   1.257   0.084   8.091
   23MYC    C32  792   1.415   0.019   7.957
   23MYC    H58  793   1.482   0.105   7.973
   23MYC    H59  794   1.480   6.381   7.946
   23MYC    C33  795   1.338   0.041   7.826
   23MYC    H60  796   1.259   6.415   7.815
   23MYC    H61  797   1.290   0.139   7.828
   23MYC    C34  798   1.434   0.032   7.705
   23MYC    H62  799   1.522   0.094   7.724
   23MYC    H63  800   1.469   6.378   7.696
   23MYC    C35  801   1.371   0.076   7.573
   23MYC    H64  802   1.276   0.023   7.556
   23MYC    H65  803   1.348   0.183   7.578
   23MYC    C36  804   1.465   0.048   7.454
   23MYC    H66  805   1.567   0.080   7.480
   23MYC    H67  806   1.469   6.390   7.436
   23MYC    C37  807   1.423   0.121   7.326
   23MYC    H68  808   1.317   0.101   7.306
   23MYC    H69  809   1.433   0.229   7.341
   23MYC    C38  810   1.506   0.078   7.203
   23MYC    H70  811   1.613   0.091   7.224
   23MYC    H71  812   1.489   6.421   7.186
   23MYC    C39  813   1.468   0.157   7.077
   23MYC    H72  814   1.359   0.156   7.066
   23MYC    H73  815   1.499   0.262   7.090
   23MYC    C40  816   1.532   0.100   6.949
   23MYC    H74  817   1.641   0.103   6.957
   23MYC    H75  818   1.503   6.445   6.939
   23MYC    C41  819   1.488   0.177   6.823
   23MYC    H76  820   1.378   0.185   6.823
   23MYC    H77  821   1.527   0.279   6.828
   23MYC    C42  822   1.532   0.111   6.692
   23MYC    H78  823   1.642   0.103   6.691
   23MYC    H79  824   1.493   0.009   6.688
   23MYC    C43  825   1.486   0.188   6.567
   23MYC    H80  826   1.510   0.132   6.476
   23MYC    H81  827   1.535   0.286   6.562
   23MYC    H82  828   1.377   0.204   6.569
   24MYC   HH15  829   1.709   5.992   6.662
   24MYC    C80  830   1.718   6.043   6.758
   24MYC   H100  831   1.686   6.147   6.745
   24MYC   H101  832   1.650   5.994   6.829
   24MYC    C79  833   1.864   6.037   6.809
   24MYC   H102  834   1.930   6.075   6.729
   24MYC   H103  835   1.892   5.933   6.826
   24MYC    C78  836   1.890   6.120   6.937
   24MYC   HH14  837   1.868   6.226   6.917
   24MYC   H104  838   1.997   6.115   6.960
   24MYC    C77  839   1.810   6.074   7.060
   24MYC   H106  840   1.823   5.966   7.074
   24MYC   H107  841   1.703   6.092   7.044
   24MYC    C76  842   1.854   6.147   7.189
   24MYC   H108  843   1.842   6.255   7.175
   24MYC   H109  844   1.961   6.128   7.205
   24MYC    C75  845   1.777   6.103   7.315
   24MYC   H110  846   1.780   5.994   7.325
   24MYC   H111  847   1.671   6.132   7.305
   24MYC    C74  848   1.836   6.167   7.442
   24MYC   H112  849   1.833   6.276   7.432
   24MYC   H113  850   1.941   6.138   7.450
   24MYC    C73  851   1.764   6.127   7.572
   24MYC   HH13  852   1.764   6.017   7.581
   24MYC   H114  853   1.659   6.159   7.568
   24MYC    C72  854   1.832   6.189   7.695
   24MYC   H115  855   1.823   6.298   7.691
   24MYC   H116  856   1.939   6.165   7.691
   24MYC    C71  857   1.776   6.138   7.829
   24MYC   H117  858   1.785   6.029   7.832
   24MYC   H118  859   1.670   6.162   7.837
   24MYC    C70  860   1.852   6.199   7.949
   24MYC   H119  861   1.817   6.302   7.965
   24MYC   H120  862   1.959   6.205   7.926
   24MYC    C69  863   1.835   6.118   8.078
   24MYC   H121  864   1.873   6.016   8.061
   24MYC   H122  865   1.729   6.109   8.102
   24MYC    C68  866   1.910   6.179   8.197
   24MYC   HH12  867   1.867   6.278   8.220
   24MYC   H123  868   2.015   6.196   8.171
   24MYC    C67  869   1.903   6.090   8.322
   24MYC   H124  870   1.964   6.001   8.307
   24MYC   H125  871   1.799   6.056   8.335
   24MYC    C66  872   1.946   6.162   8.451
   24MYC   H126  873   1.886   6.253   8.462
   24MYC   H127  874   2.051   6.193   8.443
   24MYC    C65  875   1.928   6.072   8.575
   24MYC   H128  876   2.013   6.003   8.583
   24MYC   H129  877   1.838   6.010   8.562
   24MYC    C64  878   1.912   6.151   8.706
   24MYC   H130  879   1.832   6.225   8.694
   24MYC   H131  880   2.005   6.207   8.727
   24MYC    C63  881   1.878   6.059   8.824
   24MYC   HH11  882   1.962   5.990   8.841
   24MYC   H132  883   1.791   5.998   8.799
   24MYC    C62  884   1.849   6.136   8.954
   24MYC   H133  885   1.761   6.201   8.939
   24MYC   H134  886   1.934   6.202   8.976
   24MYC    C61  887   1.824   6.041   9.072
   24MYC   H135  888   1.911   5.975   9.082
   24MYC   H136  889   1.738   5.977   9.050
   24MYC    C60  890   1.800   6.115   9.203
   24MYC   H137  891   1.698   6.151   9.213
   24MYC    C58  892   1.870   6.069   9.328
   24MYC   H138  893   1.944   5.989   9.317
   24MYC    C59  894   1.907   6.202   9.266
   24MYC   H139  895   1.875   6.292   9.316
   24MYC   H140  896   2.003   6.209   9.216
   24MYC    C57  897   1.799   6.063   9.462
   24MYC   HH10  898   1.751   5.965   9.474
   24MYC   H141  899   1.719   6.138   9.466
   24MYC    C56  900   1.898   6.088   9.578
   24MYC   H142  901   1.936   6.191   9.568
   24MYC   H143  902   1.984   6.021   9.568
   24MYC    C55  903   1.835   6.070   9.717
   24MYC   H144  904   1.819   5.963   9.736
   24MYC   H145  905   1.736   6.116   9.720
   24MYC    C54  906   1.923   6.128   9.829
   24MYC   H146  907   1.931   6.236   9.814
   24MYC   H147  908   2.024   6.086   9.822
   24MYC    C53  909   1.866   6.101   9.969
   24MYC   H148  910   1.864   5.993   9.987
   24MYC   H149  911   1.762   6.135   9.973
   24MYC    C52  912   1.946   6.171  10.080
   24MYC    H99  913   1.939   6.279  10.067
   24MYC   H150  914   2.052   6.144  10.072
   24MYC    C51  915   1.896   6.133  10.221
   24MYC    H97  916   1.916   6.027  10.239
   24MYC    H98  917   1.787   6.146  10.225
   24MYC    C50  918   1.960   6.217  10.333
   24MYC    H95  919   1.931   6.322  10.320
   24MYC    H96  920   2.069   6.212  10.325
   24MYC    C49  921   1.917   6.168  10.473
   24MYC    H93  922   1.963   6.071  10.493
   24MYC    H94  923   1.808   6.153  10.473
   24MYC    C48  924   1.953   6.267  10.586
   24MYC    H91  925   1.900   6.361  10.568
   24MYC    H92  926   2.060   6.288  10.583
   24MYC    C47  927   1.914   6.212  10.724
   24MYC    H89  928   1.977   6.126  10.747
   24MYC    H90  929   1.810   6.176  10.721
   24MYC    C46  930   1.927   6.316  10.837
   24MYC    H87  931   1.862   6.401  10.813
   24MYC    H88  932   2.029   6.354  10.839
   24MYC    C45  933   1.887   6.260  10.975
   24MYC    H85  934   1.963   6.189  11.009
   24MYC    H86  935   1.794   6.203  10.965
   24MYC    C44  936   1.865   6.369  11.082
   24MYC    H83  937   1.824   6.323  11.172
   24MYC    H84  938   1.789   6.439  11.046
   24MYC    C18  939   1.992   6.445  11.118
   24MYC    H31  940   2.068   6.381  11.162
   24MYC    C17  941   2.041   0.112  11.036
   24MYC    H30  942   1.978   0.142  10.953
   24MYC    C19  943   1.984   0.135  11.174
   24MYC    H32  944   1.886   0.181  11.181
   24MYC    H33  945   2.052   0.159  11.255
   24MYC    C16  946   2.191   0.130  11.008
   24MYC    H28  947   2.232   0.037  10.969
   24MYC    H29  948   2.243   0.149  11.102
   24MYC    C15  949   2.223   0.245  10.911
   24MYC    H26  950   2.330   0.269  10.918
   24MYC    H27  951   2.169   0.334  10.944
   24MYC    C14  952   2.189   0.215  10.763
   24MYC    H24  953   2.181   0.311  10.711
   24MYC    H25  954   2.090   0.168  10.757
   24MYC    C13  955   2.292   0.127  10.687
   24MYC    H22  956   2.296   0.028  10.732
   24MYC    H23  957   2.391   0.172  10.698
   24MYC    C12  958   2.257   0.114  10.537
   24MYC    H20  959   2.223   0.212  10.502
   24MYC    H21  960   2.173   0.046  10.526
   24MYC    C11  961   2.374   0.066  10.446
   24MYC    H18  962   2.344   6.424  10.395
   24MYC    H19  963   2.461   0.041  10.507
   24MYC    C10  964   2.416   0.172  10.340
   24MYC    H16  965   2.509   0.141  10.292
   24MYC    H17  966   2.438   0.266  10.392
   24MYC     C9  967   2.310   0.200  10.230
   24MYC    H14  968   2.329   0.300  10.188
   24MYC    H15  969   2.210   0.204  10.274
   24MYC     C8  970   2.311   0.098  10.113
   24MYC    H12  971   2.309   6.446  10.153
   24MYC    H13  972   2.406   0.109  10.059
   24MYC     C7  973   2.193   0.118  10.016
   24MYC    H10  974   2.179   0.225   9.997
   24MYC    H11  975   2.101   0.082  10.064
   24MYC     C6  976   2.212   0.046   9.881
   24MYC     H8  977   2.237   6.390   9.898
   24MYC     H9  978   2.297   0.092   9.831
   24MYC     C5  979   2.087   0.054   9.791
   24MYC     H6  980   2.059   0.159   9.776
   24MYC     H7  981   2.004   0.010   9.846
   24MYC     C4  982   2.096   6.430   9.654
   24MYC     H4  983   1.993   6.415   9.621
   24MYC     H5  984   2.137   6.329   9.669
   24MYC     C2  985   2.170   0.049   9.534
   24MYC     H2  986   2.108   0.024   9.447
   24MYC     O3  987   2.170   0.191   9.548
   24MYC     H3  988   2.236   0.214   9.616
   24MYC     C1  989   2.314   6.446   9.500
   24MYC     H1  990   2.306   6.337   9.492
   24MYC    C81  991   2.417   0.026   9.610
   24MYC    O82  992   2.457   0.138   9.635
   24MYC    O83  993   2.479   6.367   9.660
   24MYC   H105  994   2.550   6.401   9.717
   24MYC    C20  995   2.369   0.051   9.366
   24MYC    H34  996   2.366   0.161   9.366
   24MYC    H35  997   2.475   0.024   9.358
   24MYC    C21  998   2.297   6.448   9.240
   24MYC    H36  999   2.304   6.339   9.238
   24MYC    H37 1000   2.190   0.023   9.244
   24MYC    C22 1001   2.356   0.057   9.111
   24MYC    H38 1002   2.336   0.165   9.108
   24MYC    H39 1003   2.465   0.044   9.110
   24MYC    C23 1004   2.297   6.441   8.985
   24MYC    H40 1005   2.327   6.335   8.984
   24MYC    H41 1006   2.188   6.443   8.989
   24MYC    C24 1007   2.343   0.059   8.855
   24MYC    H42 1008   2.294   0.156   8.846
   24MYC    H43 1009   2.451   0.078   8.859
   24MYC    C25 1010   2.312   6.423   8.731
   24MYC    H44 1011   2.376   6.334   8.733
   24MYC    H45 1012   2.209   6.388   8.735
   24MYC    C26 1013   2.334   0.049   8.598
   24MYC    H46 1014   2.263   0.132   8.593
   24MYC    H47 1015   2.435   0.093   8.597
   24MYC    C27 1016   2.316   6.408   8.475
   24MYC    H48 1017   2.400   6.338   8.469
   24MYC    H49 1018   2.225   6.348   8.487
   24MYC    C28 1019   2.307   0.038   8.344
   24MYC    H50 1020   2.223   0.109   8.352
   24MYC    H51 1021   2.398   0.098   8.332
   24MYC    C29 1022   2.286   6.400   8.219
   24MYC    H52 1023   2.375   6.337   8.204
   24MYC    H53 1024   2.201   6.332   8.236
   24MYC    C30 1025   2.260   0.036   8.094
   24MYC    H54 1026   2.170   0.097   8.111
   24MYC    H55 1027   2.344   0.105   8.080
   24MYC    C31 1028   2.240   6.404   7.965
   24MYC    H56 1029   2.329   6.343   7.946
   24MYC    H57 1030   2.155   6.335   7.977
   24MYC    C32 1031   2.214   0.047   7.844
   24MYC    H58 1032   2.125   0.107   7.864
   24MYC    H59 1033   2.298   0.116   7.834
   24MYC    C33 1034   2.196   6.422   7.711
   24MYC    H60 1035   2.282   6.357   7.693
   24MYC    H61 1036   2.108   6.357   7.718
   24MYC    C34 1037   2.180   0.069   7.592
   24MYC    H62 1038   2.096   0.137   7.612
   24MYC    H63 1039   2.270   0.131   7.583
   24MYC    C35 1040   2.154   6.447   7.458
   24MYC    H64 1041   2.237   6.377   7.438
   24MYC    H65 1042   2.063   6.387   7.467
   24MYC    C36 1043   2.140   0.095   7.339
   24MYC    H66 1044   2.066   0.171   7.364
   24MYC    H67 1045   2.236   0.146   7.323
   24MYC    C37 1046   2.098   0.023   7.210
   24MYC    H68 1047   2.172   6.396   7.185
   24MYC    H69 1048   2.003   6.422   7.228
   24MYC    C38 1049   2.081   0.117   7.089
   24MYC    H70 1050   2.013   0.199   7.116
   24MYC    H71 1051   2.178   0.162   7.064
   24MYC    C39 1052   2.025   0.044   6.966
   24MYC    H72 1053   2.093   6.411   6.939
   24MYC    H73 1054   1.929   6.448   6.993
   24MYC    C40 1055   2.004   0.134   6.843
   24MYC    H74 1056   1.934   0.215   6.869
   24MYC    H75 1057   2.099   0.181   6.815
   24MYC    C41 1058   1.949   0.057   6.721
   24MYC    H76 1059   2.021   6.429   6.693
   24MYC    H77 1060   1.856   0.005   6.750
   24MYC    C42 1061   1.920   0.146   6.599
   24MYC    H78 1062   1.847   0.223   6.626
   24MYC    H79 1063   2.012   0.199   6.570
   24MYC    C43 1064   1.867   0.067   6.478
   24MYC    H80 1065   1.842   0.135   6.395
   24MYC    H81 1066   1.776   0.012   6.504
   24MYC    H82 1067   1.942   6.446   6.442
   25MYC   HH15 1068   2.959   6.159   6.751
   25MYC    C80 1069   2.876   6.194   6.814
   25MYC   H100 1070   2.890   6.302   6.831
   25MYC   H101 1071   2.783   6.180   6.759
   25MYC    C79 1072   2.874   6.118   6.948
   25MYC   H102 1073   2.968   6.137   7.001
   25MYC   H103 1074   2.871   6.010   6.927
   25MYC    C78 1075   2.754   6.156   7.037
   25MYC   HH14 1076   2.661   6.127   6.986
   25MYC   H104 1077   2.751   6.265   7.049
   25MYC    C77 1078   2.758   6.091   7.177
   25MYC   H106 1079   2.844   6.130   7.233
   25MYC   H107 1080   2.775   5.983   7.166
   25MYC    C76 1081   2.629   6.114   7.258
   25MYC   H108 1082   2.545   6.071   7.203
   25MYC   H109 1083   2.610   6.222   7.266
   25MYC    C75 1084   2.633   6.053   7.400
   25MYC   H110 1085   2.709   6.103   7.460
   25MYC   H111 1086   2.662   5.947   7.392
   25MYC    C74 1087   2.496   6.062   7.472
   25MYC   H112 1088   2.420   6.015   7.408
   25MYC   H113 1089   2.467   6.167   7.483
   25MYC    C73 1090   2.493   5.994   7.611
   25MYC   HH13 1091   2.554   6.051   7.681
   25MYC   H114 1092   2.538   5.894   7.603
   25MYC    C72 1093   2.349   5.978   7.666
   25MYC   H115 1094   2.290   5.923   7.592
   25MYC   H116 1095   2.302   6.077   7.675
   25MYC    C71 1096   2.341   5.903   7.801
   25MYC   H117 1097   2.418   5.826   7.805
   25MYC   H118 1098   2.244   5.851   7.806
   25MYC    C70 1099   2.352   5.995   7.925
   25MYC   H119 1100   2.266   6.064   7.926
   25MYC   H120 1101   2.442   6.057   7.917
   25MYC    C69 1102   2.356   5.916   8.057
   25MYC   H121 1103   2.448   5.857   8.060
   25MYC   H122 1104   2.272   5.846   8.061
   25MYC    C68 1105   2.350   6.008   8.181
   25MYC   HH12 1106   2.250   6.053   8.188
   25MYC   H123 1107   2.422   6.089   8.169
   25MYC    C67 1108   2.381   5.933   8.312
   25MYC   H124 1109   2.479   5.886   8.304
   25MYC   H125 1110   2.308   5.852   8.327
   25MYC    C66 1111   2.380   6.026   8.435
   25MYC   H126 1112   2.278   6.064   8.451
   25MYC   H127 1113   2.444   6.112   8.415
   25MYC    C65 1114   2.430   5.956   8.563
   25MYC   H128 1115   2.532   5.920   8.546
   25MYC   H129 1116   2.368   5.868   8.583
   25MYC    C64 1117   2.430   6.049   8.686
   25MYC   H130 1118   2.328   6.086   8.703
   25MYC   H131 1119   2.493   6.137   8.665
   25MYC    C63 1120   2.482   5.979   8.813
   25MYC   HH11 1121   2.586   5.948   8.797
   25MYC   H132 1122   2.423   5.888   8.829
   25MYC    C62 1123   2.473   6.067   8.938
   25MYC   H133 1124   2.369   6.099   8.952
   25MYC   H134 1125   2.533   6.158   8.925
   25MYC    C61 1126   2.520   5.993   9.065
   25MYC   H135 1127   2.625   5.965   9.053
   25MYC   H136 1128   2.464   5.899   9.074
   25MYC    C60 1129   2.500   6.074   9.192
   25MYC   H137 1130   2.398   6.109   9.203
   25MYC    C58 1131   2.570   6.032   9.318
   25MYC   H138 1132   2.642   5.950   9.310
   25MYC    C59 1133   2.608   6.161   9.251
   25MYC   H139 1134   2.578   6.254   9.298
   25MYC   H140 1135   2.703   6.165   9.199
   25MYC    C57 1136   2.491   6.027   9.448
   25MYC   HH10 1137   2.435   5.932   9.451
   25MYC   H141 1138   2.416   6.107   9.449
   25MYC    C56 1139   2.578   6.038   9.574
   25MYC   H142 1140   2.633   6.133   9.572
   25MYC   H143 1141   2.652   5.958   9.576
   25MYC    C55 1142   2.491   6.032   9.701
   25MYC   H144 1143   2.439   5.935   9.703
   25MYC   H145 1144   2.413   6.108   9.695
   25MYC    C54 1145   2.569   6.050   9.832
   25MYC   H146 1146   2.624   6.145   9.829
   25MYC   H147 1147   2.643   5.970   9.843
   25MYC    C53 1148   2.473   6.051   9.953
   25MYC   H148 1149   2.416   5.957   9.954
   25MYC   H149 1150   2.401   6.132   9.940
   25MYC    C52 1151   2.544   6.068  10.088
   25MYC    H99 1152   2.601   6.162  10.088
   25MYC   H150 1153   2.615   5.987  10.104
   25MYC    C51 1154   2.442   6.071  10.204
   25MYC    H97 1155   2.388   5.975  10.207
   25MYC    H98 1156   2.367   6.149  10.184
   25MYC    C50 1157   2.505   6.098  10.341
   25MYC    H95 1158   2.560   6.193  10.337
   25MYC    H96 1159   2.578   6.019  10.365
   25MYC    C49 1160   2.400   6.105  10.453
   25MYC    H93 1161   2.350   6.008  10.462
   25MYC    H94 1162   2.322   6.178  10.425
   25MYC    C48 1163   2.459   6.146  10.589
   25MYC    H91 1164   2.505   6.246  10.580
   25MYC    H92 1165   2.538   6.076  10.617
   25MYC    C47 1166   2.352   6.149  10.700
   25MYC    H89 1167   2.307   6.050  10.709
   25MYC    H90 1168   2.272   6.218  10.671
   25MYC    C46 1169   2.409   6.192  10.837
   25MYC    H87 1170   2.453   6.292  10.827
   25MYC    H88 1171   2.490   6.123  10.865
   25MYC    C45 1172   2.301   6.194  10.946
   25MYC    H85 1173   2.256   6.095  10.955
   25MYC    H86 1174   2.221   6.262  10.915
   25MYC    C44 1175   2.351   6.238  11.085
   25MYC    H83 1176   2.264   6.258  11.149
   25MYC    H84 1177   2.404   6.334  11.075
   25MYC    C18 1178   2.442   6.137  11.154
   25MYC    H31 1179   2.477   6.058  11.089
   25MYC    C17 1180   2.539   6.186  11.260
   25MYC    H30 1181   2.532   6.290  11.289
   25MYC    C19 1182   2.422   6.099  11.300
   25MYC    H32 1183   2.339   6.146  11.352
   25MYC    H33 1184   2.445   5.998  11.330
   25MYC    C16 1185   2.682   6.135  11.260
   25MYC    H28 1186   2.687   6.033  11.220
   25MYC    H29 1187   2.717   6.130  11.364
   25MYC    C15 1188   2.779   6.226  11.181
   25MYC    H26 1189   2.882   6.189  11.194
   25MYC    H27 1190   2.776   6.327  11.223
   25MYC    C14 1191   2.748   6.234  11.029
   25MYC    H24 1192   2.642   6.256  11.015
   25MYC    H25 1193   2.766   6.136  10.983
   25MYC    C13 1194   2.828   6.343  10.956
   25MYC    H22 1195   2.935   6.320  10.960
   25MYC    H23 1196   2.813   6.438  11.008
   25MYC    C12 1197   2.784   6.360  10.809
   25MYC    H20 1198   2.675   6.374  10.805
   25MYC    H21 1199   2.807   6.268  10.754
   25MYC    C11 1200   2.851   0.031  10.740
   25MYC    H18 1201   2.960   0.015  10.737
   25MYC    H19 1202   2.834   0.121  10.801
   25MYC    C10 1203   2.800   0.059  10.597
   25MYC    H16 1204   2.846   0.151  10.562
   25MYC    H17 1205   2.691   0.077  10.600
   25MYC     C9 1206   2.830   6.395  10.497
   25MYC    H14 1207   2.773   6.306  10.522
   25MYC    H15 1208   2.936   6.369  10.504
   25MYC     C8 1209   2.798   6.435  10.351
   25MYC    H12 1210   2.846   0.081  10.330
   25MYC    H13 1211   2.690   6.449  10.340
   25MYC     C7 1212   2.848   6.330  10.249
   25MYC    H10 1213   2.789   6.238  10.258
   25MYC    H11 1214   2.952   6.304  10.273
   25MYC     C6 1215   2.842   6.382  10.104
   25MYC     H8 1216   2.891   0.031  10.101
   25MYC     H9 1217   2.737   6.398  10.075
   25MYC     C5 1218   2.912   6.288  10.003
   25MYC     H6 1219   2.846   6.203   9.979
   25MYC     H7 1220   3.001   6.245  10.051
   25MYC     C4 1221   2.959   6.358   9.874
   25MYC     H4 1222   3.043   6.300   9.833
   25MYC     H5 1223   3.001   0.006   9.901
   25MYC     C2 1224   2.854   6.375   9.760
   25MYC     H2 1225   2.836   6.274   9.720
   25MYC     O3 1226   2.730   6.426   9.811
   25MYC     H3 1227   2.751   0.053   9.867
   25MYC     C1 1228   2.908   0.015   9.645
   25MYC     H1 1229   3.012   6.433   9.630
   25MYC    C81 1230   2.909   0.165   9.683
   25MYC    O82 1231   2.811   0.237   9.682
   25MYC    O83 1232   3.026   0.209   9.736
   25MYC   H105 1233   3.011   0.302   9.758
   25MYC    C20 1234   2.834   6.440   9.511
   25MYC    H34 1235   2.823   6.332   9.494
   25MYC    H35 1236   2.732   0.032   9.516
   25MYC    C21 1237   2.909   0.050   9.390
   25MYC    H36 1238   2.920   0.158   9.403
   25MYC    H37 1239   3.011   0.008   9.387
   25MYC    C22 1240   2.840   0.023   9.255
   25MYC    H38 1241   2.821   6.365   9.245
   25MYC    H39 1242   2.742   0.073   9.253
   25MYC    C23 1243   2.925   0.069   9.135
   25MYC    H40 1244   2.957   0.173   9.152
   25MYC    H41 1245   3.016   0.008   9.129
   25MYC    C24 1246   2.849   0.062   9.001
   25MYC    H42 1247   2.806   6.412   8.988
   25MYC    H43 1248   2.766   0.133   9.003
   25MYC    C25 1249   2.941   0.094   8.880
   25MYC    H44 1250   3.002   0.182   8.903
   25MYC    H45 1251   3.010   0.010   8.865
   25MYC    C26 1252   2.862   0.120   8.751
   25MYC    H46 1253   2.790   0.039   8.734
   25MYC    H47 1254   2.804   0.213   8.763
   25MYC    C27 1255   2.953   0.133   8.628
   25MYC    H48 1256   3.034   0.205   8.649
   25MYC    H49 1257   3.001   0.036   8.608
   25MYC    C28 1258   2.877   0.179   8.502
   25MYC    H50 1259   2.787   0.119   8.490
   25MYC    H51 1260   2.845   0.283   8.515
   25MYC    C29 1261   2.962   0.168   8.374
   25MYC    H52 1262   3.056   0.224   8.386
   25MYC    H53 1263   2.990   0.062   8.360
   25MYC    C30 1264   2.888   0.218   8.249
   25MYC    H54 1265   2.789   0.172   8.244
   25MYC    H55 1266   2.873   0.326   8.256
   25MYC    C31 1267   2.964   0.185   8.119
   25MYC    H56 1268   3.064   0.230   8.122
   25MYC    H57 1269   2.978   0.077   8.112
   25MYC    C32 1270   2.891   0.235   7.992
   25MYC    H58 1271   2.790   0.192   7.990
   25MYC    H59 1272   2.880   0.344   7.997
   25MYC    C33 1273   2.966   0.196   7.864
   25MYC    H60 1274   3.066   0.242   7.864
   25MYC    H61 1275   2.981   0.087   7.862
   25MYC    C34 1276   2.892   0.237   7.735
   25MYC    H62 1277   2.794   0.188   7.733
   25MYC    H63 1278   2.874   0.345   7.737
   25MYC    C35 1279   2.971   0.200   7.608
   25MYC    H64 1280   3.067   0.254   7.609
   25MYC    H65 1281   2.994   0.093   7.610
   25MYC    C36 1282   2.896   0.234   7.479
   25MYC    H66 1283   2.800   0.181   7.478
   25MYC    H67 1284   2.873   0.341   7.477
   25MYC    C37 1285   2.976   0.196   7.353
   25MYC    H68 1286   3.075   0.243   7.357
   25MYC    H69 1287   2.991   0.087   7.351
   25MYC    C38 1288   2.906   0.240   7.223
   25MYC    H70 1289   2.804   0.200   7.221
   25MYC    H71 1290   2.898   0.349   7.222
   25MYC    C39 1291   2.979   0.193   7.095
   25MYC    H72 1292   3.086   0.219   7.102
   25MYC    H73 1293   2.973   0.084   7.089
   25MYC    C40 1294   2.920   0.256   6.968
   25MYC    H74 1295   2.811   0.243   6.968
   25MYC    H75 1296   2.940   0.363   6.968
   25MYC    C41 1297   2.977   0.194   6.838
   25MYC    H76 1298   3.086   0.205   6.837
   25MYC    H77 1299   2.955   0.087   6.837
   25MYC    C42 1300   2.917   0.259   6.711
   25MYC    H78 1301   2.808   0.257   6.717
   25MYC    H79 1302   2.947   0.365   6.707
   25MYC    C43 1303   2.961   0.190   6.581
   25MYC    H80 1304   2.915   0.240   6.495
   25MYC    H81 1305   2.930   0.085   6.581
   25MYC    H82 1306   3.070   0.195   6.569
   26MYC   HH15 1307   3.627   6.095   6.576
   26MYC    C80 1308   3.577   6.122   6.669
   26MYC   H100 1309   3.548   6.228   6.663
   26MYC   H101 1310   3.485   6.061   6.678
   26MYC    C79 1311   3.669   6.098   6.789
   26MYC   H102 1312   3.760   6.159   6.778
   26MYC   H103 1313   3.701   5.993   6.789
   26MYC    C78 1314   3.603   6.131   6.924
   26MYC   HH14 1315   3.513   6.068   6.937
   26MYC   H104 1316   3.569   6.235   6.923
   26MYC    C77 1317   3.696   6.110   7.045
   26MYC   H106 1318   3.783   6.176   7.035
   26MYC   H107 1319   3.734   6.007   7.045
   26MYC    C76 1320   3.627   6.138   7.180
   26MYC   H108 1321   3.548   6.063   7.196
   26MYC   H109 1322   3.577   6.236   7.176
   26MYC    C75 1323   3.725   6.136   7.299
   26MYC   H110 1324   3.795   6.219   7.289
   26MYC   H111 1325   3.783   6.044   7.297
   26MYC    C74 1326   3.654   6.147   7.436
   26MYC   H112 1327   3.596   6.055   7.453
   26MYC   H113 1328   3.582   6.230   7.433
   26MYC    C73 1329   3.752   6.169   7.553
   26MYC   HH13 1330   3.793   6.271   7.546
   26MYC   H114 1331   3.835   6.099   7.544
   26MYC    C72 1332   3.685   6.150   7.690
   26MYC   H115 1333   3.652   6.046   7.699
   26MYC   H116 1334   3.595   6.213   7.696
   26MYC    C71 1335   3.778   6.185   7.808
   26MYC   H117 1336   3.795   6.294   7.810
   26MYC   H118 1337   3.876   6.137   7.793
   26MYC    C70 1338   3.720   6.140   7.944
   26MYC   H119 1339   3.712   6.030   7.944
   26MYC   H120 1340   3.618   6.179   7.954
   26MYC    C69 1341   3.805   6.185   8.064
   26MYC   H121 1342   3.807   6.294   8.068
   26MYC   H122 1343   3.908   6.151   8.052
   26MYC    C68 1344   3.749   6.130   8.197
   26MYC   HH12 1345   3.756   6.020   8.197
   26MYC   H123 1346   3.643   6.155   8.205
   26MYC    C67 1347   3.822   6.185   8.321
   26MYC   H124 1348   3.813   6.295   8.322
   26MYC   H125 1349   3.929   6.162   8.314
   26MYC    C66 1350   3.766   6.128   8.452
   26MYC   H126 1351   3.783   6.020   8.455
   26MYC   H127 1352   3.658   6.143   8.456
   26MYC    C65 1353   3.830   6.192   8.577
   26MYC   H128 1354   3.806   6.300   8.578
   26MYC   H129 1355   3.939   6.184   8.571
   26MYC    C64 1356   3.781   6.128   8.708
   26MYC   H130 1357   3.813   6.023   8.711
   26MYC   H131 1358   3.672   6.128   8.711
   26MYC    C63 1359   3.835   6.200   8.833
   26MYC   HH11 1360   3.791   6.301   8.837
   26MYC   H132 1361   3.943   6.212   8.825
   26MYC    C62 1362   3.803   6.124   8.963
   26MYC   H133 1363   3.857   6.029   8.963
   26MYC   H134 1364   3.696   6.101   8.967
   26MYC    C61 1365   3.841   6.204   9.089
   26MYC   H135 1366   3.775   6.292   9.097
   26MYC   H136 1367   3.943   6.243   9.078
   26MYC    C60 1368   3.833   6.121   9.216
   26MYC   H137 1369   3.917   6.052   9.225
   26MYC    C58 1370   3.777   6.179   9.343
   26MYC   H138 1371   3.736   6.279   9.337
   26MYC    C59 1372   3.701   6.072   9.269
   26MYC   H139 1373   3.699   5.972   9.311
   26MYC   H140 1374   3.610   6.101   9.216
   26MYC    C57 1375   3.841   6.149   9.478
   26MYC   HH10 1376   3.924   6.219   9.494
   26MYC   H141 1377   3.884   6.048   9.478
   26MYC    C56 1378   3.740   6.162   9.593
   26MYC   H142 1379   3.658   6.091   9.578
   26MYC   H143 1380   3.696   6.263   9.591
   26MYC    C55 1381   3.803   6.138   9.732
   26MYC   H144 1382   3.891   6.203   9.743
   26MYC   H145 1383   3.838   6.034   9.739
   26MYC    C54 1384   3.704   6.166   9.846
   26MYC   H146 1385   3.617   6.099   9.836
   26MYC   H147 1386   3.666   6.268   9.834
   26MYC    C53 1387   3.763   6.151   9.987
   26MYC   H148 1388   3.859   6.204   9.992
   26MYC   H149 1389   3.784   6.045  10.006
   26MYC    C52 1390   3.669   6.207  10.096
   26MYC    H99 1391   3.568   6.170  10.078
   26MYC   H150 1392   3.665   6.316  10.086
   26MYC    C51 1393   3.712   6.171  10.239
   26MYC    H97 1394   3.816   6.201  10.255
   26MYC    H98 1395   3.708   6.062  10.251
   26MYC    C50 1396   3.623   6.238  10.346
   26MYC    H95 1397   3.518   6.219  10.323
   26MYC    H96 1398   3.638   6.347  10.341
   26MYC    C49 1399   3.654   6.187  10.488
   26MYC    H93 1400   3.762   6.192  10.506
   26MYC    H94 1401   3.625   6.082  10.494
   26MYC    C48 1402   3.581   6.267  10.599
   26MYC    H91 1403   3.474   6.269  10.578
   26MYC    H92 1404   3.616   6.371  10.597
   26MYC    C47 1405   3.605   6.207  10.738
   26MYC    H89 1406   3.713   6.197  10.756
   26MYC    H90 1407   3.564   6.105  10.740
   26MYC    C46 1408   3.545   6.290  10.853
   26MYC    H87 1409   3.443   6.320  10.827
   26MYC    H88 1410   3.603   6.383  10.863
   26MYC    C45 1411   3.544   6.213  10.987
   26MYC    H85 1412   3.646   6.184  11.014
   26MYC    H86 1413   3.488   6.120  10.972
   26MYC    C44 1414   3.479   6.291  11.104
   26MYC    H83 1415   3.458   6.221  11.186
   26MYC    H84 1416   3.382   6.330  11.071
   26MYC    C18 1417   3.567   6.405  11.155
   26MYC    H31 1418   3.643   6.435  11.085
   26MYC    C17 1419   3.506   0.065  11.240
   26MYC    H30 1420   3.402   0.054  11.267
   26MYC    C19 1421   3.603   6.416  11.302
   26MYC    H32 1422   3.564   6.341  11.369
   26MYC    H33 1423   3.702   0.002  11.326
   26MYC    C16 1424   3.548   0.210  11.219
   26MYC    H28 1425   3.654   0.214  11.192
   26MYC    H29 1426   3.539   0.261  11.315
   26MYC    C15 1427   3.467   0.289  11.115
   26MYC    H26 1428   3.517   0.385  11.098
   26MYC    H27 1429   3.368   0.311  11.155
   26MYC    C14 1430   3.452   0.215  10.980
   26MYC    H24 1431   3.390   0.126  10.995
   26MYC    H25 1432   3.550   0.181  10.946
   26MYC    C13 1433   3.388   0.301  10.869
   26MYC    H22 1434   3.459   0.380  10.839
   26MYC    H23 1435   3.298   0.351  10.907
   26MYC    C12 1436   3.351   0.215  10.747
   26MYC    H20 1437   3.267   0.150  10.774
   26MYC    H21 1438   3.435   0.149  10.723
   26MYC    C11 1439   3.315   0.296  10.622
   26MYC    H18 1440   3.404   0.350  10.588
   26MYC    H19 1441   3.240   0.372  10.646
   26MYC    C10 1442   3.261   0.205  10.509
   26MYC    H16 1443   3.153   0.192  10.520
   26MYC    H17 1444   3.305   0.105  10.522
   26MYC     C9 1445   3.295   0.254  10.367
   26MYC    H14 1446   3.402   0.278  10.364
   26MYC    H15 1447   3.241   0.347  10.345
   26MYC     C8 1448   3.263   0.147  10.261
   26MYC    H12 1449   3.155   0.142  10.243
   26MYC    H13 1450   3.293   0.050  10.300
   26MYC     C7 1451   3.338   0.171  10.128
   26MYC    H10 1452   3.436   0.214  10.150
   26MYC    H11 1453   3.284   0.246  10.067
   26MYC     C6 1454   3.359   0.041  10.047
   26MYC     H8 1455   3.265   0.012   9.997
   26MYC     H9 1456   3.383   6.409  10.116
   26MYC     C5 1457   3.474   0.051   9.946
   26MYC     H6 1458   3.505   6.400   9.919
   26MYC     H7 1459   3.562   0.096   9.996
   26MYC     C4 1460   3.444   0.131   9.818
   26MYC     H4 1461   3.534   0.187   9.791
   26MYC     H5 1462   3.366   0.206   9.836
   26MYC     C2 1463   3.404   0.040   9.700
   26MYC     H2 1464   3.475   6.406   9.699
   26MYC     O3 1465   3.272   6.438   9.719
   26MYC     H3 1466   3.211   0.064   9.722
   26MYC     C1 1467   3.417   0.108   9.561
   26MYC     H1 1468   3.516   0.156   9.562
   26MYC    C81 1469   3.312   0.220   9.540
   26MYC    O82 1470   3.200   0.201   9.498
   26MYC    O83 1471   3.351   0.342   9.583
   26MYC   H105 1472   3.274   0.400   9.568
   26MYC    C20 1473   3.412   0.004   9.447
   26MYC    H34 1474   3.474   6.367   9.474
   26MYC    H35 1475   3.310   6.417   9.437
   26MYC    C21 1476   3.462   0.059   9.313
   26MYC    H36 1477   3.431   0.163   9.300
   26MYC    H37 1478   3.572   0.058   9.312
   26MYC    C22 1479   3.408   6.427   9.195
   26MYC    H38 1480   3.424   6.320   9.213
   26MYC    H39 1481   3.300   6.442   9.189
   26MYC    C23 1482   3.473   0.016   9.061
   26MYC    H40 1483   3.482   0.125   9.054
   26MYC    H41 1484   3.575   6.424   9.058
   26MYC    C24 1485   3.392   6.415   8.941
   26MYC    H42 1486   3.366   6.309   8.956
   26MYC    H43 1487   3.297   0.021   8.937
   26MYC    C25 1488   3.468   6.431   8.809
   26MYC    H44 1489   3.510   0.082   8.803
   26MYC    H45 1490   3.552   6.360   8.808
   26MYC    C26 1491   3.378   6.406   8.687
   26MYC    H46 1492   3.326   6.310   8.697
   26MYC    H47 1493   3.301   0.035   8.683
   26MYC    C27 1494   3.459   6.406   8.557
   26MYC    H48 1495   3.523   0.045   8.554
   26MYC    H49 1496   3.525   6.318   8.556
   26MYC    C28 1497   3.371   6.405   8.431
   26MYC    H50 1498   3.300   6.322   8.436
   26MYC    H51 1499   3.311   0.048   8.429
   26MYC    C29 1500   3.455   6.393   8.303
   26MYC    H52 1501   3.560   6.415   8.325
   26MYC    H53 1502   3.451   6.289   8.268
   26MYC    C30 1503   3.408   0.037   8.190
   26MYC    H54 1504   3.303   0.018   8.167
   26MYC    H55 1505   3.415   0.141   8.224
   26MYC    C31 1506   3.493   0.019   8.064
   26MYC    H56 1507   3.599   0.031   8.089
   26MYC    H57 1508   3.480   6.366   8.029
   26MYC    C32 1509   3.457   0.116   7.951
   26MYC    H58 1510   3.349   0.112   7.933
   26MYC    H59 1511   3.482   0.219   7.981
   26MYC    C33 1512   3.531   0.080   7.821
   26MYC    H60 1513   3.640   0.088   7.837
   26MYC    H61 1514   3.510   6.425   7.798
   26MYC    C34 1515   3.490   0.167   7.701
   26MYC    H62 1516   3.381   0.176   7.699
   26MYC    H63 1517   3.531   0.267   7.713
   26MYC    C35 1518   3.537   0.106   7.568
   26MYC    H64 1519   3.647   0.101   7.566
   26MYC    H65 1520   3.501   0.002   7.562
   26MYC    C36 1521   3.487   0.183   7.445
   26MYC    H66 1522   3.381   0.207   7.458
   26MYC    H67 1523   3.541   0.278   7.437
   26MYC    C37 1524   3.504   0.102   7.315
   26MYC    H68 1525   3.610   0.079   7.300
   26MYC    H69 1526   3.451   0.007   7.325
   26MYC    C38 1527   3.451   0.176   7.191
   26MYC    H70 1528   3.350   0.215   7.211
   26MYC    H71 1529   3.515   0.262   7.170
   26MYC    C39 1530   3.444   0.085   7.067
   26MYC    H72 1531   3.543   0.039   7.050
   26MYC    H73 1532   3.373   0.003   7.085
   26MYC    C40 1533   3.403   0.161   6.939
   26MYC    H74 1534   3.307   0.212   6.956
   26MYC    H75 1535   3.478   0.238   6.918
   26MYC    C41 1536   3.389   0.068   6.816
   26MYC    H76 1537   3.479   0.005   6.809
   26MYC    H77 1538   3.304   6.450   6.832
   26MYC    C42 1539   3.370   0.145   6.684
   26MYC    H78 1540   3.279   0.206   6.690
   26MYC    H79 1541   3.454   0.214   6.670
   26MYC    C43 1542   3.362   0.052   6.561
   26MYC    H80 1543   3.349   0.111   6.470
   26MYC    H81 1544   3.276   6.434   6.570
   26MYC    H82 1545   3.453   6.443   6.551
   27MYC   HH15 1546   4.502   6.160   6.623
   27MYC    C80 1547   4.450   6.192   6.714
   27MYC   H100 1548   4.364   6.255   6.685
   27MYC   H101 1549   4.411   6.103   6.764
   27MYC    C79 1550   4.546   6.270   6.806
   27MYC   H102 1551   4.589   6.354   6.751
   27MYC   H103 1552   4.629   6.203   6.834
   27MYC    C78 1553   4.477   6.323   6.933
   27MYC   HH14 1554   4.418   6.242   6.978
   27MYC   H104 1555   4.406   6.402   6.906
   27MYC    C77 1556   4.576   6.376   7.039
   27MYC   H106 1557   4.636   0.007   6.996
   27MYC   H107 1558   4.645   6.295   7.065
   27MYC    C76 1559   4.506   6.427   7.167
   27MYC   H108 1560   4.429   6.355   7.196
   27MYC   H109 1561   4.455   0.072   7.145
   27MYC    C75 1562   4.603   6.446   7.285
   27MYC   H110 1563   4.679   0.070   7.259
   27MYC   H111 1564   4.655   6.351   7.303
   27MYC    C74 1565   4.531   0.039   7.415
   27MYC   H112 1566   4.443   6.425   7.430
   27MYC   H113 1567   4.494   0.142   7.404
   27MYC    C73 1568   4.621   0.029   7.539
   27MYC   HH13 1569   4.709   0.094   7.526
   27MYC   H114 1570   4.659   6.376   7.548
   27MYC    C72 1571   4.549   0.067   7.670
   27MYC   H115 1572   4.456   0.008   7.678
   27MYC   H116 1573   4.520   0.172   7.666
   27MYC    C71 1574   4.635   0.041   7.795
   27MYC   H117 1575   4.729   0.098   7.786
   27MYC   H118 1576   4.662   6.384   7.798
   27MYC    C70 1577   4.565   0.078   7.926
   27MYC   H119 1578   4.470   0.023   7.934
   27MYC   H120 1579   4.539   0.185   7.925
   27MYC    C69 1580   4.651   0.047   8.050
   27MYC   H121 1581   4.746   0.103   8.043
   27MYC   H122 1582   4.677   6.390   8.049
   27MYC    C68 1583   4.581   0.080   8.183
   27MYC   HH12 1584   4.486   0.025   8.188
   27MYC   H123 1585   4.557   0.187   8.186
   27MYC    C67 1586   4.667   0.044   8.305
   27MYC   H124 1587   4.758   0.106   8.307
   27MYC   H125 1588   4.700   6.389   8.296
   27MYC    C66 1589   4.592   0.060   8.438
   27MYC   H126 1590   4.498   0.003   8.432
   27MYC   H127 1591   4.564   0.165   8.452
   27MYC    C65 1592   4.672   0.010   8.560
   27MYC   H128 1593   4.760   0.075   8.575
   27MYC   H129 1594   4.709   6.359   8.540
   27MYC    C64 1595   4.586   0.007   8.688
   27MYC   H130 1596   4.495   6.399   8.667
   27MYC   H131 1597   4.554   0.109   8.712
   27MYC    C63 1598   4.657   6.395   8.810
   27MYC   HH11 1599   4.745   0.006   8.836
   27MYC   H132 1600   4.693   6.295   8.784
   27MYC    C62 1601   4.562   6.386   8.930
   27MYC   H133 1602   4.473   6.329   8.900
   27MYC   H134 1603   4.527   0.037   8.955
   27MYC    C61 1604   4.622   6.321   9.056
   27MYC   H135 1605   4.711   6.376   9.087
   27MYC   H136 1606   4.653   6.219   9.033
   27MYC    C60 1607   4.518   6.319   9.167
   27MYC   H137 1608   4.428   6.266   9.138
   27MYC    C58 1609   4.553   6.314   9.314
   27MYC   H138 1610   4.658   6.315   9.342
   27MYC    C59 1611   4.499   6.442   9.253
   27MYC   H139 1612   4.397   0.021   9.276
   27MYC   H140 1613   4.568   0.075   9.240
   27MYC    C57 1614   4.466   6.232   9.410
   27MYC   HH10 1615   4.515   6.137   9.432
   27MYC   H141 1616   4.372   6.207   9.359
   27MYC    C56 1617   4.431   6.306   9.540
   27MYC   H142 1618   4.332   6.271   9.574
   27MYC   H143 1619   4.419   6.414   9.520
   27MYC    C55 1620   4.531   6.286   9.655
   27MYC   H144 1621   4.633   6.309   9.621
   27MYC   H145 1622   4.530   6.180   9.685
   27MYC    C54 1623   4.495   6.374   9.777
   27MYC   H146 1624   4.388   6.362   9.798
   27MYC   H147 1625   4.511   0.029   9.751
   27MYC    C53 1626   4.574   6.340   9.905
   27MYC   H148 1627   4.682   6.343   9.885
   27MYC   H149 1628   4.550   6.237   9.935
   27MYC    C52 1629   4.539   6.436  10.020
   27MYC    H99 1630   4.430   6.442  10.031
   27MYC   H150 1631   4.575   0.087   9.995
   27MYC    C51 1632   4.599   6.393  10.156
   27MYC    H97 1633   4.708   6.382  10.146
   27MYC    H98 1634   4.560   6.293  10.182
   27MYC    C50 1635   4.566   0.042  10.270
   27MYC    H95 1636   4.457   0.055  10.275
   27MYC    H96 1637   4.609   0.140  10.247
   27MYC    C49 1638   4.618   6.443  10.407
   27MYC    H93 1639   4.726   6.427  10.401
   27MYC    H94 1640   4.573   6.345  10.428
   27MYC    C48 1641   4.586   0.092  10.522
   27MYC    H91 1642   4.479   0.112  10.525
   27MYC    H92 1643   4.636   0.187  10.501
   27MYC    C47 1644   4.632   0.040  10.660
   27MYC    H89 1645   4.622   0.122  10.733
   27MYC    H90 1646   4.739   0.016  10.656
   27MYC    C46 1647   4.552   6.368  10.712
   27MYC    H87 1648   4.481   6.334  10.635
   27MYC    H88 1649   4.491   6.400  10.797
   27MYC    C45 1650   4.640   6.248  10.754
   27MYC    H85 1651   4.701   6.276  10.840
   27MYC    H86 1652   4.709   6.224  10.672
   27MYC    C44 1653   4.559   6.121  10.787
   27MYC    H83 1654   4.630   6.037  10.798
   27MYC    H84 1655   4.495   6.095  10.702
   27MYC    C18 1656   4.474   6.132  10.913
   27MYC    H31 1657   4.452   6.234  10.942
   27MYC    C17 1658   4.365   6.031  10.939
   27MYC    H30 1659   4.356   5.949  10.868
   27MYC    C19 1660   4.487   6.033  11.026
   27MYC    H32 1661   4.560   5.953  11.014
   27MYC    H33 1662   4.477   6.070  11.127
   27MYC    C16 1663   4.230   6.074  10.995
   27MYC    H28 1664   4.246   6.160  11.061
   27MYC    H29 1665   4.190   5.994  11.059
   27MYC    C15 1666   4.125   6.111  10.889
   27MYC    H26 1667   4.028   6.116  10.938
   27MYC    H27 1668   4.119   6.031  10.814
   27MYC    C14 1669   4.153   6.246  10.818
   27MYC    H24 1670   4.247   6.240  10.763
   27MYC    H25 1671   4.166   6.323  10.895
   27MYC    C13 1672   4.040   6.288  10.722
   27MYC    H22 1673   3.944   6.277  10.774
   27MYC    H23 1674   4.038   6.221  10.636
   27MYC    C12 1675   4.053   6.435  10.676
   27MYC    H20 1676   4.147   6.448  10.620
   27MYC    H21 1677   4.062   0.048  10.766
   27MYC    C11 1678   3.933   0.037  10.594
   27MYC    H18 1679   3.933   0.147  10.598
   27MYC    H19 1680   3.841   0.005  10.643
   27MYC    C10 1681   3.930   6.444  10.445
   27MYC    H16 1682   3.833   0.027  10.404
   27MYC    H17 1683   3.931   6.335  10.438
   27MYC     C9 1684   4.044   0.052  10.359
   27MYC    H14 1685   4.132   6.437  10.368
   27MYC    H15 1686   4.073   0.151  10.396
   27MYC     C8 1687   4.004   0.066  10.210
   27MYC    H12 1688   3.924   0.140  10.202
   27MYC    H13 1689   3.964   6.421  10.173
   27MYC     C7 1690   4.121   0.109  10.119
   27MYC    H10 1691   4.195   0.028  10.114
   27MYC    H11 1692   4.172   0.196  10.163
   27MYC     C6 1693   4.075   0.146   9.976
   27MYC     H8 1694   4.010   0.234   9.983
   27MYC     H9 1695   4.016   0.064   9.935
   27MYC     C5 1696   4.193   0.178   9.881
   27MYC     H6 1697   4.255   0.089   9.868
   27MYC     H7 1698   4.257   0.253   9.930
   27MYC     C4 1699   4.152   0.235   9.743
   27MYC     H4 1700   4.244   0.273   9.696
   27MYC     H5 1701   4.090   0.324   9.760
   27MYC     C2 1702   4.083   0.142   9.638
   27MYC     H2 1703   4.138   0.160   9.545
   27MYC     O3 1704   4.097   0.004   9.671
   27MYC     H3 1705   4.035   6.434   9.743
   27MYC     C1 1706   3.933   0.178   9.608
   27MYC     H1 1707   3.928   0.287   9.601
   27MYC    C81 1708   3.840   0.137   9.724
   27MYC    O82 1709   3.806   0.023   9.748
   27MYC    O83 1710   3.805   0.239   9.805
   27MYC   H105 1711   3.751   0.199   9.876
   27MYC    C20 1712   3.880   0.122   9.473
   27MYC    H34 1713   3.897   0.014   9.469
   27MYC    H35 1714   3.771   0.136   9.469
   27MYC    C21 1715   3.942   0.190   9.349
   27MYC    H36 1716   3.923   0.298   9.353
   27MYC    H37 1717   4.051   0.177   9.351
   27MYC    C22 1718   3.891   0.135   9.215
   27MYC    H38 1719   3.906   0.026   9.213
   27MYC    H39 1720   3.783   0.153   9.206
   27MYC    C23 1721   3.965   0.198   9.095
   27MYC    H40 1722   3.943   0.306   9.091
   27MYC    H41 1723   4.073   0.189   9.110
   27MYC    C24 1724   3.929   0.135   8.959
   27MYC    H42 1725   3.945   0.026   8.965
   27MYC    H43 1726   3.822   0.151   8.938
   27MYC    C25 1727   4.014   0.191   8.843
   27MYC    H44 1728   3.993   0.298   8.831
   27MYC    H45 1729   4.120   0.182   8.869
   27MYC    C26 1730   3.989   0.118   8.710
   27MYC    H46 1731   4.012   0.012   8.723
   27MYC    H47 1732   3.882   0.125   8.685
   27MYC    C27 1733   4.072   0.175   8.593
   27MYC    H48 1734   4.047   0.280   8.578
   27MYC    H49 1735   4.179   0.171   8.619
   27MYC    C28 1736   4.050   0.096   8.463
   27MYC    H50 1737   4.085   6.443   8.477
   27MYC    H51 1738   3.942   0.091   8.443
   27MYC    C29 1739   4.120   0.157   8.340
   27MYC    H52 1740   4.085   0.260   8.326
   27MYC    H53 1741   4.229   0.162   8.358
   27MYC    C30 1742   4.092   0.075   8.213
   27MYC    H54 1743   4.135   6.425   8.225
   27MYC    H55 1744   3.984   0.063   8.203
   27MYC    C31 1745   4.147   0.138   8.084
   27MYC    H56 1746   4.109   0.241   8.074
   27MYC    H57 1747   4.256   0.145   8.089
   27MYC    C32 1748   4.105   0.056   7.960
   27MYC    H58 1749   4.147   6.405   7.968
   27MYC    H59 1750   3.996   0.045   7.961
   27MYC    C33 1751   4.147   0.118   7.825
   27MYC    H60 1752   4.113   0.222   7.821
   27MYC    H61 1753   4.257   0.119   7.818
   27MYC    C34 1754   4.087   0.039   7.707
   27MYC    H62 1755   4.122   6.385   7.711
   27MYC    H63 1756   3.978   0.037   7.719
   27MYC    C35 1757   4.121   0.098   7.569
   27MYC    H64 1758   4.099   0.206   7.569
   27MYC    H65 1759   4.228   0.086   7.548
   27MYC    C36 1760   4.038   0.031   7.458
   27MYC    H66 1761   4.058   6.373   7.457
   27MYC    H67 1762   3.931   0.043   7.481
   27MYC    C37 1763   4.064   0.088   7.317
   27MYC    H68 1764   4.062   0.197   7.321
   27MYC    H69 1765   4.165   0.059   7.284
   27MYC    C38 1766   3.960   0.039   7.215
   27MYC    H70 1767   3.961   6.379   7.210
   27MYC    H71 1768   3.860   0.068   7.250
   27MYC    C39 1769   3.981   0.096   7.073
   27MYC    H72 1770   3.997   0.204   7.079
   27MYC    H73 1771   4.071   0.052   7.030
   27MYC    C40 1772   3.860   0.068   6.981
   27MYC    H74 1773   3.840   6.410   6.978
   27MYC    H75 1774   3.771   0.116   7.024
   27MYC    C41 1775   3.880   0.120   6.837
   27MYC    H76 1776   3.907   0.226   6.840
   27MYC    H77 1777   3.964   0.066   6.791
   27MYC    C42 1778   3.755   0.102   6.749
   27MYC    H78 1779   3.726   6.445   6.747
   27MYC    H79 1780   3.672   0.156   6.795
   27MYC    C43 1781   3.773   0.152   6.605
   27MYC    H80 1782   3.680   0.136   6.548
   27MYC    H81 1783   3.854   0.097   6.555
   27MYC    H82 1784   3.796   0.259   6.604
   28MYC   HH15 1785   5.542   0.115   6.611
   28MYC    C80 1786   5.482   0.087   6.698
   28MYC   H100 1787   5.383   0.133   6.687
   28MYC   H101 1788   5.471   6.428   6.699
   28MYC    C79 1789   5.550   0.136   6.827
   28MYC   H102 1790   5.565   0.245   6.821
   28MYC   H103 1791   5.650   0.091   6.834
   28MYC    C78 1792   5.470   0.102   6.955
   28MYC   HH14 1793   5.453   6.444   6.959
   28MYC   H104 1794   5.372   0.150   6.949
   28MYC    C77 1795   5.542   0.147   7.084
   28MYC   H106 1796   5.559   0.255   7.080
   28MYC   H107 1797   5.641   0.099   7.088
   28MYC    C76 1798   5.464   0.112   7.212
   28MYC   H108 1799   5.441   0.005   7.213
   28MYC   H109 1800   5.368   0.166   7.212
   28MYC    C75 1801   5.543   0.148   7.340
   28MYC   H110 1802   5.563   0.255   7.341
   28MYC   H111 1803   5.640   0.097   7.337
   28MYC    C74 1804   5.471   0.108   7.470
   28MYC   H112 1805   5.446   0.001   7.467
   28MYC   H113 1806   5.376   0.163   7.477
   28MYC    C73 1807   5.556   0.137   7.595
   28MYC   HH13 1808   5.580   0.244   7.598
   28MYC   H114 1809   5.652   0.084   7.586
   28MYC    C72 1810   5.489   0.097   7.728
   28MYC   H115 1811   5.465   6.439   7.726
   28MYC   H116 1812   5.394   0.150   7.737
   28MYC    C71 1813   5.578   0.128   7.850
   28MYC   H117 1814   5.605   0.234   7.847
   28MYC   H118 1815   5.671   0.071   7.842
   28MYC    C70 1816   5.510   0.097   7.985
   28MYC   H119 1817   5.485   6.440   7.990
   28MYC   H120 1818   5.415   0.152   7.991
   28MYC    C69 1819   5.598   0.136   8.105
   28MYC   H121 1820   5.625   0.242   8.096
   28MYC   H122 1821   5.692   0.079   8.101
   28MYC    C68 1822   5.530   0.113   8.241
   28MYC   HH12 1823   5.508   0.006   8.253
   28MYC   H123 1824   5.434   0.165   8.242
   28MYC    C67 1825   5.616   0.162   8.359
   28MYC   H124 1826   5.636   0.269   8.347
   28MYC   H125 1827   5.713   0.111   8.357
   28MYC    C66 1828   5.549   0.138   8.496
   28MYC   H126 1829   5.536   0.031   8.511
   28MYC   H127 1830   5.449   0.183   8.495
   28MYC    C65 1831   5.630   0.198   8.613
   28MYC   H128 1832   5.637   0.307   8.600
   28MYC   H129 1833   5.732   0.158   8.610
   28MYC    C64 1834   5.566   0.166   8.750
   28MYC   H130 1835   5.570   0.058   8.767
   28MYC   H131 1836   5.460   0.194   8.747
   28MYC    C63 1837   5.631   0.238   8.870
   28MYC   HH11 1838   5.575   0.208   8.959
   28MYC   H132 1839   5.617   0.346   8.859
   28MYC    C62 1840   5.782   0.208   8.891
   28MYC   H133 1841   5.838   0.247   8.805
   28MYC   H134 1842   5.799   0.100   8.894
   28MYC    C61 1843   5.841   0.273   9.019
   28MYC   H135 1844   5.812   0.379   9.023
   28MYC   H136 1845   5.950   0.272   9.011
   28MYC    C60 1846   5.801   0.202   9.149
   28MYC   H137 1847   5.843   0.102   9.154
   28MYC    C58 1848   5.789   0.279   9.278
   28MYC   H138 1849   5.798   0.387   9.273
   28MYC    C59 1850   5.666   0.222   9.213
   28MYC   H139 1851   5.619   0.135   9.259
   28MYC   H140 1852   5.596   0.293   9.170
   28MYC    C57 1853   5.841   0.223   9.410
   28MYC   HH10 1854   5.938   0.268   9.433
   28MYC   H141 1855   5.857   0.115   9.402
   28MYC    C56 1856   5.743   0.251   9.527
   28MYC   H142 1857   5.647   0.203   9.506
   28MYC   H143 1858   5.725   0.359   9.534
   28MYC    C55 1859   5.796   0.200   9.662
   28MYC   H144 1860   5.892   0.249   9.685
   28MYC   H145 1861   5.816   0.092   9.654
   28MYC    C54 1862   5.697   0.222   9.778
   28MYC   H146 1863   5.610   0.158   9.763
   28MYC   H147 1864   5.663   0.326   9.776
   28MYC    C53 1865   5.759   0.193   9.917
   28MYC   H148 1866   5.841   0.264   9.935
   28MYC   H149 1867   5.802   0.093   9.917
   28MYC    C52 1868   5.655   0.204  10.030
   28MYC    H99 1869   5.582   0.123  10.019
   28MYC   H150 1870   5.600   0.298  10.020
   28MYC    C51 1871   5.716   0.198  10.172
   28MYC    H97 1872   5.774   0.289  10.190
   28MYC    H98 1873   5.785   0.114  10.179
   28MYC    C50 1874   5.607   0.183  10.281
   28MYC    H95 1875   5.560   0.085  10.270
   28MYC    H96 1876   5.528   0.257  10.264
   28MYC    C49 1877   5.660   0.198  10.425
   28MYC    H93 1878   5.695   0.301  10.441
   28MYC    H94 1879   5.747   0.133  10.439
   28MYC    C48 1880   5.553   0.163  10.531
   28MYC    H91 1881   5.522   0.059  10.515
   28MYC    H92 1882   5.465   0.226  10.516
   28MYC    C47 1883   5.602   0.178  10.677
   28MYC    H89 1884   5.620   0.283  10.699
   28MYC    H90 1885   5.698   0.126  10.687
   28MYC    C46 1886   5.502   0.119  10.779
   28MYC    H87 1887   5.480   0.016  10.750
   28MYC    H88 1888   5.408   0.175  10.774
   28MYC    C45 1889   5.555   0.121  10.924
   28MYC    H85 1890   5.558   0.223  10.962
   28MYC    H86 1891   5.658   0.084  10.924
   28MYC    C44 1892   5.473   0.031  11.021
   28MYC    H83 1893   5.533   0.013  11.111
   28MYC    H84 1894   5.459   6.383  10.974
   28MYC    C18 1895   5.337   0.088  11.061
   28MYC    H31 1896   5.293   0.152  10.986
   28MYC    C17 1897   5.241   0.003  11.141
   28MYC    H30 1898   5.276   6.355  11.173
   28MYC    C19 1899   5.307   0.121  11.206
   28MYC    H32 1900   5.383   0.101  11.281
   28MYC    H33 1901   5.245   0.208  11.227
   28MYC    C16 1902   5.091   0.005  11.112
   28MYC    H28 1903   5.062   0.098  11.063
   28MYC    H29 1904   5.037   0.002  11.207
   28MYC    C15 1905   5.042   6.336  11.026
   28MYC    H26 1906   4.933   6.339  11.024
   28MYC    H27 1907   5.069   6.242  11.076
   28MYC    C14 1908   5.094   6.334  10.881
   28MYC    H24 1909   5.203   6.328  10.880
   28MYC    H25 1910   5.067   6.428  10.831
   28MYC    C13 1911   5.035   6.216  10.802
   28MYC    H22 1912   4.926   6.222  10.804
   28MYC    H23 1913   5.062   6.123  10.853
   28MYC    C12 1914   5.080   6.206  10.655
   28MYC    H20 1915   5.190   6.203  10.651
   28MYC    H21 1916   5.048   6.295  10.600
   28MYC    C11 1917   5.024   6.079  10.586
   28MYC    H18 1918   4.914   6.087  10.579
   28MYC    H19 1919   5.045   5.993  10.650
   28MYC    C10 1920   5.082   6.050  10.446
   28MYC    H16 1921   5.063   5.944  10.423
   28MYC    H17 1922   5.192   6.061  10.450
   28MYC     C9 1923   5.025   6.136  10.331
   28MYC    H14 1924   5.037   6.242  10.354
   28MYC    H15 1925   4.918   6.116  10.322
   28MYC     C8 1926   5.096   6.104  10.197
   28MYC    H12 1927   5.107   5.995  10.187
   28MYC    H13 1928   5.197   6.146  10.200
   28MYC     C7 1929   5.022   6.156  10.072
   28MYC    H10 1930   5.002   6.263  10.082
   28MYC    H11 1931   4.925   6.106  10.063
   28MYC     C6 1932   5.106   6.132   9.944
   28MYC     H8 1933   5.139   6.027   9.941
   28MYC     H9 1934   5.197   6.193   9.950
   28MYC     C5 1935   5.034   6.165   9.811
   28MYC     H6 1936   5.111   6.173   9.733
   28MYC     H7 1937   4.989   6.265   9.818
   28MYC     C4 1938   4.926   6.062   9.768
   28MYC     H4 1939   4.826   6.105   9.788
   28MYC     H5 1940   4.933   5.971   9.829
   28MYC     C2 1941   4.937   6.024   9.618
   28MYC     H2 1942   4.946   6.118   9.564
   28MYC     O3 1943   5.056   5.947   9.599
   28MYC     H3 1944   5.112   5.958   9.678
   28MYC     C1 1945   4.814   5.948   9.560
   28MYC     H1 1946   4.729   6.016   9.571
   28MYC    C81 1947   4.781   5.820   9.640
   28MYC    O82 1948   4.847   5.717   9.636
   28MYC    O83 1949   4.669   5.829   9.715
   28MYC   H105 1950   4.661   5.742   9.760
   28MYC    C20 1951   4.828   5.915   9.408
   28MYC    H34 1952   4.898   5.832   9.395
   28MYC    H35 1953   4.731   5.880   9.371
   28MYC    C21 1954   4.875   6.033   9.319
   28MYC    H36 1955   4.813   6.121   9.339
   28MYC    H37 1956   4.979   6.059   9.347
   28MYC    C22 1957   4.872   6.001   9.169
   28MYC    H38 1958   4.922   5.905   9.151
   28MYC    H39 1959   4.768   5.990   9.137
   28MYC    C23 1960   4.940   6.110   9.082
   28MYC    H40 1961   4.896   6.208   9.106
   28MYC    H41 1962   5.047   6.116   9.108
   28MYC    C24 1963   4.926   6.082   8.932
   28MYC    H42 1964   4.971   5.984   8.909
   28MYC    H43 1965   4.819   6.074   8.907
   28MYC    C25 1966   4.990   6.189   8.841
   28MYC    H44 1967   4.947   6.287   8.865
   28MYC    H45 1968   5.098   6.195   8.861
   28MYC    C26 1969   4.966   6.157   8.692
   28MYC    H46 1970   5.011   6.060   8.669
   28MYC    H47 1971   4.858   6.147   8.675
   28MYC    C27 1972   5.022   6.262   8.594
   28MYC    H48 1973   4.981   6.361   8.617
   28MYC    H49 1974   5.131   6.269   8.605
   28MYC    C28 1975   4.988   6.225   8.448
   28MYC    H50 1976   5.027   6.124   8.427
   28MYC    H51 1977   4.879   6.218   8.438
   28MYC    C29 1978   5.042   6.322   8.341
   28MYC    H52 1979   5.006   6.424   8.362
   28MYC    H53 1980   5.151   6.324   8.346
   28MYC    C30 1981   4.996   6.279   8.200
   28MYC    H54 1982   5.025   6.174   8.184
   28MYC    H55 1983   4.887   6.282   8.195
   28MYC    C31 1984   5.054   6.364   8.085
   28MYC    H56 1985   5.029   0.020   8.100
   28MYC    H57 1986   5.164   6.356   8.086
   28MYC    C32 1987   5.000   6.316   7.949
   28MYC    H58 1988   5.014   6.208   7.941
   28MYC    H59 1989   4.892   6.335   7.945
   28MYC    C33 1990   5.066   6.383   7.827
   28MYC    H60 1991   5.050   0.042   7.831
   28MYC    H61 1992   5.175   6.366   7.832
   28MYC    C34 1993   5.012   6.327   7.695
   28MYC    H62 1994   5.018   6.217   7.697
   28MYC    H63 1995   4.905   6.352   7.686
   28MYC    C35 1996   5.087   6.378   7.570
   28MYC    H64 1997   5.074   0.037   7.563
   28MYC    H65 1998   5.194   6.359   7.583
   28MYC    C36 1999   5.038   6.311   7.440
   28MYC    H66 2000   5.049   6.202   7.450
   28MYC    H67 2001   4.931   6.332   7.427
   28MYC    C37 2002   5.116   6.359   7.316
   28MYC    H68 2003   5.103   0.017   7.305
   28MYC    H69 2004   5.223   6.340   7.331
   28MYC    C38 2005   5.070   6.289   7.187
   28MYC    H70 2006   5.084   6.180   7.197
   28MYC    H71 2007   4.963   6.306   7.172
   28MYC    C39 2008   5.148   6.339   7.063
   28MYC    H72 2009   5.139   6.448   7.058
   28MYC    H73 2010   5.254   6.315   7.075
   28MYC    C40 2011   5.097   6.278   6.931
   28MYC    H74 2012   5.106   6.169   6.934
   28MYC    H75 2013   4.990   6.301   6.920
   28MYC    C41 2014   5.173   6.333   6.809
   28MYC    H76 2015   5.176   6.442   6.814
   28MYC    H77 2016   5.277   6.298   6.812
   28MYC    C42 2017   5.110   6.292   6.674
   28MYC    H78 2018   5.111   6.183   6.665
   28MYC    H79 2019   5.005   6.323   6.673
   28MYC    C43 2020   5.182   6.354   6.553
   28MYC    H80 2021   5.133   6.323   6.460
   28MYC    H81 2022   5.287   6.322   6.550
   28MYC    H82 2023   5.179   0.013   6.559
   29MYC   HH15 2024   5.650   6.193   6.561
   29MYC    C80 2025   5.717   6.213   6.645
   29MYC   H100 2026   5.813   6.164   6.624
   29MYC   H101 2027   5.735   6.321   6.650
   29MYC    C79 2028   5.657   6.161   6.776
   29MYC   H102 2029   5.640   6.053   6.768
   29MYC   H103 2030   5.559   6.207   6.791
   29MYC    C78 2031   5.746   6.189   6.899
   29MYC   HH14 2032   5.762   6.298   6.907
   29MYC   H104 2033   5.844   6.143   6.884
   29MYC    C77 2034   5.686   6.137   7.031
   29MYC   H106 2035   5.681   6.027   7.027
   29MYC   H107 2036   5.583   6.174   7.041
   29MYC    C76 2037   5.767   6.181   7.154
   29MYC   H108 2038   5.766   6.290   7.161
   29MYC   H109 2039   5.872   6.151   7.141
   29MYC    C75 2040   5.715   6.120   7.286
   29MYC   H110 2041   5.739   6.013   7.288
   29MYC   H111 2042   5.605   6.128   7.288
   29MYC    C74 2043   5.772   6.190   7.410
   29MYC   H112 2044   5.734   6.293   7.413
   29MYC   H113 2045   5.881   6.197   7.402
   29MYC    C73 2046   5.736   6.118   7.541
   29MYC   HH13 2047   5.798   6.028   7.550
   29MYC   H114 2048   5.632   6.086   7.538
   29MYC    C72 2049   5.757   6.207   7.665
   29MYC   H115 2050   5.679   6.285   7.666
   29MYC   H116 2051   5.853   6.258   7.659
   29MYC    C71 2052   5.751   6.128   7.797
   29MYC   H117 2053   5.837   6.060   7.801
   29MYC   H118 2054   5.660   6.066   7.798
   29MYC    C70 2055   5.750   6.219   7.920
   29MYC   H119 2056   5.655   6.272   7.925
   29MYC   H120 2057   5.829   6.295   7.910
   29MYC    C69 2058   5.772   6.142   8.052
   29MYC   H121 2059   5.870   6.093   8.049
   29MYC   H122 2060   5.697   6.063   8.060
   29MYC    C68 2061   5.763   6.234   8.175
   29MYC   HH12 2062   5.663   6.277   8.180
   29MYC   H123 2063   5.834   6.317   8.164
   29MYC    C67 2064   5.793   6.159   8.306
   29MYC   H124 2065   5.896   6.121   8.305
   29MYC   H125 2066   5.726   6.072   8.313
   29MYC    C66 2067   5.772   6.249   8.430
   29MYC   H126 2068   5.671   6.291   8.426
   29MYC   H127 2069   5.842   6.333   8.427
   29MYC    C65 2070   5.789   6.172   8.562
   29MYC   H128 2071   5.892   6.137   8.571
   29MYC   H129 2072   5.725   6.083   8.559
   29MYC    C64 2073   5.752   6.257   8.684
   29MYC   H130 2074   5.655   6.305   8.666
   29MYC   H131 2075   5.826   6.336   8.698
   29MYC    C63 2076   5.740   6.172   8.813
   29MYC   HH11 2077   5.836   6.122   8.831
   29MYC   H132 2078   5.665   6.094   8.797
   29MYC    C62 2079   5.702   6.256   8.936
   29MYC   H133 2080   5.621   6.325   8.911
   29MYC   H134 2081   5.789   6.316   8.966
   29MYC    C61 2082   5.657   6.169   9.054
   29MYC   H135 2083   5.727   6.085   9.067
   29MYC   H136 2084   5.559   6.125   9.031
   29MYC    C60 2085   5.647   6.249   9.183
   29MYC   H137 2086   5.582   6.335   9.175
   29MYC    C58 2087   5.652   6.180   9.317
   29MYC   H138 2088   5.666   6.072   9.317
   29MYC    C59 2089   5.769   6.264   9.271
   29MYC   H139 2090   5.784   6.360   9.319
   29MYC   H140 2091   5.860   6.212   9.243
   29MYC    C57 2092   5.566   6.227   9.434
   29MYC   HH10 2093   5.471   6.173   9.434
   29MYC   H141 2094   5.543   6.334   9.424
   29MYC    C56 2095   5.640   6.203   9.567
   29MYC   H142 2096   5.735   6.257   9.565
   29MYC   H143 2097   5.663   6.096   9.576
   29MYC    C55 2098   5.561   6.246   9.693
   29MYC   H144 2099   5.472   6.183   9.704
   29MYC   H145 2100   5.528   6.350   9.682
   29MYC    C54 2101   5.650   6.235   9.818
   29MYC   H146 2102   5.732   6.307   9.811
   29MYC   H147 2103   5.696   6.135   9.820
   29MYC    C53 2104   5.576   6.253   9.951
   29MYC   H148 2105   5.502   6.173   9.962
   29MYC   H149 2106   5.521   6.348   9.951
   29MYC    C52 2107   5.674   6.251  10.070
   29MYC    H99 2108   5.732   6.344  10.071
   29MYC   H150 2109   5.745   6.168  10.057
   29MYC    C51 2110   5.603   6.232  10.206
   29MYC    H97 2111   5.555   6.134  10.207
   29MYC    H98 2112   5.523   6.307  10.216
   29MYC    C50 2113   5.699   6.243  10.326
   29MYC    H95 2114   5.738   6.345  10.333
   29MYC    H96 2115   5.785   6.177  10.311
   29MYC    C49 2116   5.629   6.205  10.457
   29MYC    H93 2117   5.598   6.100  10.451
   29MYC    H94 2118   5.537   6.264  10.467
   29MYC    C48 2119   5.715   6.226  10.584
   29MYC    H91 2120   5.738   6.332  10.595
   29MYC    H92 2121   5.810   6.172  10.572
   29MYC    C47 2122   5.641   6.174  10.709
   29MYC    H89 2123   5.622   6.067  10.696
   29MYC    H90 2124   5.544   6.223  10.717
   29MYC    C46 2125   5.719   6.195  10.840
   29MYC    H87 2126   5.730   6.303  10.858
   29MYC    H88 2127   5.819   6.153  10.830
   29MYC    C45 2128   5.647   6.129  10.960
   29MYC    H85 2129   5.646   6.020  10.948
   29MYC    H86 2130   5.542   6.161  10.960
   29MYC    C44 2131   5.707   6.165  11.098
   29MYC    H83 2132   5.639   6.128  11.175
   29MYC    H84 2133   5.708   6.274  11.108
   29MYC    C18 2134   5.847   6.109  11.123
   29MYC    H31 2135   5.889   6.053  11.039
   29MYC    C17 2136   5.944   6.189  11.208
   29MYC    H30 2137   5.904   6.280  11.253
   29MYC    C19 2138   5.888   6.060  11.261
   29MYC    H32 2139   5.817   6.068  11.343
   29MYC    H33 2140   5.956   5.975  11.267
   29MYC    C16 2141   6.091   6.201  11.174
   29MYC    H28 2142   6.132   6.105  11.140
   29MYC    H29 2143   6.146   6.226  11.266
   29MYC    C15 2144   6.122   6.310  11.069
   29MYC    H26 2145   6.230   6.329  11.072
   29MYC    H27 2146   6.073   6.403  11.097
   29MYC    C14 2147   6.081   6.274  10.925
   29MYC    H24 2148   5.984   6.319  10.903
   29MYC    H25 2149   6.069   6.166  10.915
   29MYC    C13 2150   6.185   6.322  10.822
   29MYC    H22 2151   6.280   6.270  10.843
   29MYC    H23 2152   6.204   6.429  10.834
   29MYC    C12 2153   6.143   6.293  10.677
   29MYC    H20 2154   6.079   6.376  10.642
   29MYC    H21 2155   6.082   6.202  10.674
   29MYC    C11 2156   6.264   6.275  10.583
   29MYC    H18 2157   6.322   6.188  10.617
   29MYC    H19 2158   6.330   6.362  10.589
   29MYC    C10 2159   6.222   6.251  10.437
   29MYC    H16 2160   6.137   6.182  10.435
   29MYC    H17 2161   6.305   6.202  10.384
   29MYC     C9 2162   6.186   6.381  10.361
   29MYC    H14 2163   6.278   6.438  10.345
   29MYC    H15 2164   6.120   6.444  10.422
   29MYC     C8 2165   6.117   6.351  10.227
   29MYC    H12 2166   6.009   6.365  10.238
   29MYC    H13 2167   6.133   6.246  10.200
   29MYC     C7 2168   6.168   6.438  10.110
   29MYC    H10 2169   6.277   6.426  10.102
   29MYC    H11 2170   6.149   0.094  10.131
   29MYC     C6 2171   6.102   6.398   9.978
   29MYC     H8 2172   5.997   6.429   9.979
   29MYC     H9 2173   6.103   6.288   9.969
   29MYC     C5 2174   6.173   0.006   9.854
   29MYC     H6 2175   6.278   6.425   9.856
   29MYC     H7 2176   6.171   0.115   9.860
   29MYC     C4 2177   6.104   6.409   9.724
   29MYC     H4 2178   6.004   0.001   9.723
   29MYC     H5 2179   6.090   6.300   9.727
   29MYC     C2 2180   6.173   6.446   9.591
   29MYC     H2 2181   6.093   6.446   9.516
   29MYC     O3 2182   6.228   0.128   9.598
   29MYC     H3 2183   6.307   0.124   9.656
   29MYC     C1 2184   6.281   6.345   9.541
   29MYC     H1 2185   6.230   6.248   9.531
   29MYC    C81 2186   6.397   6.324   9.641
   29MYC    O82 2187   0.027   6.411   9.672
   29MYC    O83 2188   6.405   6.200   9.693
   29MYC   H105 2189   0.031   6.202   9.754
   29MYC    C20 2190   6.339   6.380   9.401
   29MYC    H34 2191   6.398   0.022   9.408
   29MYC    H35 2192   6.408   6.301   9.372
   29MYC    C21 2193   6.232   6.397   9.291
   29MYC    H36 2194   6.168   6.307   9.288
   29MYC    H37 2195   6.166   0.032   9.315
   29MYC    C22 2196   6.293   6.421   9.153
   29MYC    H38 2197   6.357   0.061   9.157
   29MYC    H39 2198   6.358   6.337   9.127
   29MYC    C23 2199   6.187   6.439   9.043
   29MYC    H40 2200   6.123   6.350   9.040
   29MYC    H41 2201   6.123   0.075   9.067
   29MYC    C24 2202   6.251   0.011   8.905
   29MYC    H42 2203   6.310   0.104   8.907
   29MYC    H43 2204   6.322   6.379   8.886
   29MYC    C25 2205   6.150   0.017   8.790
   29MYC    H44 2206   6.093   6.373   8.788
   29MYC    H45 2207   6.078   0.098   8.807
   29MYC    C26 2208   6.221   0.037   8.655
   29MYC    H46 2209   6.268   0.136   8.653
   29MYC    H47 2210   6.302   6.413   8.646
   29MYC    C27 2211   6.128   0.022   8.533
   29MYC    H48 2212   6.083   6.372   8.534
   29MYC    H49 2213   6.046   0.095   8.539
   29MYC    C28 2214   6.206   0.041   8.402
   29MYC    H50 2215   6.244   0.144   8.398
   29MYC    H51 2216   6.294   6.425   8.402
   29MYC    C29 2217   6.123   0.012   8.276
   29MYC    H52 2218   6.087   6.359   8.280
   29MYC    H53 2219   6.035   0.078   8.274
   29MYC    C30 2220   6.206   0.033   8.148
   29MYC    H54 2221   6.241   0.137   8.144
   29MYC    H55 2222   6.295   6.419   8.152
   29MYC    C31 2223   6.127   0.001   8.020
   29MYC    H56 2224   6.093   6.347   8.023
   29MYC    H57 2225   6.038   0.065   8.015
   29MYC    C32 2226   6.213   0.022   7.893
   29MYC    H58 2227   6.249   0.126   7.890
   29MYC    H59 2228   6.301   6.407   7.898
   29MYC    C33 2229   6.135   6.441   7.764
   29MYC    H60 2230   6.096   6.339   7.769
   29MYC    H61 2231   6.048   0.059   7.757
   29MYC    C34 2232   6.222   0.006   7.638
   29MYC    H62 2233   6.262   0.108   7.632
   29MYC    H63 2234   6.307   6.388   7.645
   29MYC    C35 2235   6.142   6.425   7.509
   29MYC    H64 2236   6.094   6.327   7.520
   29MYC    H65 2237   6.062   0.049   7.498
   29MYC    C36 2238   6.230   6.424   7.382
   29MYC    H66 2239   6.278   0.071   7.370
   29MYC    H67 2240   6.309   6.349   7.395
   29MYC    C37 2241   6.147   6.390   7.257
   29MYC    H68 2242   6.088   6.299   7.276
   29MYC    H69 2243   6.075   0.021   7.238
   29MYC    C38 2244   6.233   6.367   7.131
   29MYC    H70 2245   6.292   0.007   7.110
   29MYC    H71 2246   6.303   6.285   7.150
   29MYC    C39 2247   6.146   6.332   7.009
   29MYC    H72 2248   6.079   6.249   7.035
   29MYC    H73 2249   6.082   6.418   6.984
   29MYC    C40 2250   6.227   6.292   6.884
   29MYC    H74 2251   6.294   6.374   6.855
   29MYC    H75 2252   6.291   6.206   6.909
   29MYC    C41 2253   6.136   6.255   6.766
   29MYC    H76 2254   6.067   6.175   6.798
   29MYC    H77 2255   6.074   6.341   6.740
   29MYC    C42 2256   6.213   6.207   6.641
   29MYC    H78 2257   6.280   6.286   6.607
   29MYC    H79 2258   6.274   6.120   6.667
   29MYC    C43 2259   6.117   6.169   6.527
   29MYC    H80 2260   6.172   6.134   6.440
   29MYC    H81 2261   6.057   6.256   6.499
   29MYC    H82 2262   6.049   6.088   6.559
   30MYC   HH15 2263   6.280   0.790   6.634
   30MYC    C80 2264   6.345   0.791   6.722
   30MYC   H100 2265   6.402   0.697   6.723
   30MYC   H101 2266   6.416   0.874   6.712
   30MYC    C79 2267   6.261   0.805   6.850
   30MYC   H102 2268   6.190   0.722   6.856
   30MYC   H103 2269   6.202   0.898   6.845
   30MYC    C78 2270   6.346   0.806   6.978
   30MYC   HH14 2271   6.416   0.891   6.974
   30MYC   H104 2272   6.406   0.715   6.982
   30MYC    C77 2273   6.262   0.816   7.107
   30MYC   H106 2274   6.190   0.734   7.110
   30MYC   H107 2275   6.205   0.910   7.107
   30MYC    C76 2276   6.351   0.810   7.233
   30MYC   H108 2277   6.423   0.892   7.230
   30MYC   H109 2278   6.408   0.717   7.232
   30MYC    C75 2279   6.271   0.818   7.365
   30MYC   H110 2280   6.198   0.736   7.369
   30MYC   H111 2281   6.216   0.912   7.369
   30MYC    C74 2282   6.365   0.809   7.488
   30MYC   H112 2283   6.441   0.887   7.481
   30MYC   H113 2284   6.417   0.712   7.485
   30MYC    C73 2285   6.291   0.822   7.622
   30MYC   HH13 2286   6.215   0.744   7.631
   30MYC   H114 2287   6.239   0.919   7.625
   30MYC    C72 2288   6.388   0.813   7.742
   30MYC   H115 2289   0.018   0.888   7.730
   30MYC   H116 2290   6.436   0.714   7.741
   30MYC    C71 2291   6.318   0.834   7.877
   30MYC   H117 2292   6.237   0.761   7.888
   30MYC   H118 2293   6.271   0.934   7.878
   30MYC    C70 2294   6.414   0.821   7.996
   30MYC   H119 2295   0.046   0.893   7.985
   30MYC   H120 2296   0.009   0.721   7.996
   30MYC    C69 2297   6.343   0.845   8.131
   30MYC   H121 2298   6.258   0.777   8.140
   30MYC   H122 2299   6.303   0.947   8.133
   30MYC    C68 2300   6.436   0.825   8.252
   30MYC   HH12 2301   0.072   0.893   8.244
   30MYC   H123 2302   0.027   0.723   8.249
   30MYC    C67 2303   6.365   0.848   8.386
   30MYC   H124 2304   6.276   0.784   8.392
   30MYC   H125 2305   6.329   0.952   8.390
   30MYC    C66 2306   0.006   0.821   8.506
   30MYC   H126 2307   0.095   0.885   8.500
   30MYC   H127 2308   0.040   0.717   8.503
   30MYC    C65 2309   6.385   0.847   8.641
   30MYC   H128 2310   6.298   0.781   8.650
   30MYC   H129 2311   6.349   0.950   8.644
   30MYC    C64 2312   0.030   0.823   8.760
   30MYC   H130 2313   0.118   0.887   8.749
   30MYC   H131 2314   0.064   0.719   8.760
   30MYC    C63 2315   6.414   0.854   8.896
   30MYC   HH11 2316   6.329   0.786   8.912
   30MYC   H132 2317   6.373   0.956   8.894
   30MYC    C62 2318   0.064   0.841   9.013
   30MYC   H133 2319   0.148   0.909   8.996
   30MYC   H134 2320   0.104   0.739   9.015
   30MYC    C61 2321   6.450   0.873   9.149
   30MYC   H135 2322   6.369   0.801   9.167
   30MYC   H136 2323   6.402   0.972   9.144
   30MYC    C60 2324   0.100   0.871   9.263
   30MYC   H137 2325   0.164   0.959   9.263
   30MYC    C58 2326   0.060   0.814   9.396
   30MYC   H138 2327   6.411   0.768   9.401
   30MYC    C59 2328   0.164   0.743   9.313
   30MYC   H139 2329   0.267   0.748   9.345
   30MYC   H140 2330   0.135   0.650   9.264
   30MYC    C57 2331   0.095   0.887   9.525
   30MYC   HH10 2332   0.034   0.978   9.531
   30MYC   H141 2333   0.200   0.920   9.523
   30MYC    C56 2334   0.070   0.802   9.650
   30MYC   H142 2335   0.138   0.716   9.651
   30MYC   H143 2336   6.418   0.761   9.645
   30MYC    C55 2337   0.084   0.882   9.781
   30MYC   H144 2338   0.028   0.976   9.771
   30MYC   H145 2339   0.189   0.908   9.797
   30MYC    C54 2340   0.030   0.805   9.903
   30MYC   H146 2341   0.088   0.713   9.917
   30MYC   H147 2342   6.376   0.775   9.883
   30MYC    C53 2343   0.033   0.887  10.034
   30MYC   H148 2344   6.431   0.982  10.018
   30MYC   H149 2345   0.136   0.910  10.061
   30MYC    C52 2346   6.413   0.812  10.149
   30MYC    H99 2347   0.017   0.718  10.168
   30MYC   H150 2348   6.312   0.784  10.118
   30MYC    C51 2349   6.404   0.892  10.281
   30MYC    H97 2350   6.359   0.990  10.261
   30MYC    H98 2351   0.055   0.909  10.321
   30MYC    C50 2352   6.318   0.817  10.385
   30MYC    H95 2353   6.363   0.719  10.406
   30MYC    H96 2354   6.220   0.796  10.342
   30MYC    C49 2355   6.296   0.892  10.518
   30MYC    H93 2356   6.213   0.843  10.571
   30MYC    H94 2357   6.263   0.995  10.497
   30MYC    C48 2358   6.419   0.896  10.612
   30MYC    H91 2359   0.048   0.958  10.568
   30MYC    H92 2360   0.010   0.794  10.621
   30MYC    C47 2361   6.383   0.948  10.753
   30MYC    H89 2362   6.298   0.891  10.791
   30MYC    H90 2363   6.351   1.052  10.746
   30MYC    C46 2364   0.050   0.936  10.853
   30MYC    H87 2365   0.133   0.999  10.819
   30MYC    H88 2366   0.086   0.833  10.853
   30MYC    C45 2367   0.010   0.976  10.997
   30MYC    H85 2368   6.380   0.910  11.033
   30MYC    H86 2369   6.416   1.077  10.995
   30MYC    C44 2370   0.126   0.975  11.099
   30MYC    H83 2371   0.089   1.019  11.193
   30MYC    H84 2372   0.205   1.042  11.064
   30MYC    C18 2373   0.182   0.837  11.130
   30MYC    H31 2374   0.144   0.759  11.064
   30MYC    C17 2375   0.326   0.821  11.175
   30MYC    H30 2376   0.383   0.912  11.193
   30MYC    C19 2377   0.214   0.794  11.272
   30MYC    H32 2378   0.198   0.866  11.351
   30MYC    H33 2379   0.193   0.690  11.299
   30MYC    C16 2380   0.412   0.708  11.119
   30MYC    H28 2381   0.349   0.621  11.096
   30MYC    H29 2382   0.482   0.674  11.195
   30MYC    C15 2383   0.492   0.747  10.993
   30MYC    H26 2384   0.553   0.661  10.962
   30MYC    H27 2385   0.561   0.829  11.017
   30MYC    C14 2386   0.401   0.790  10.875
   30MYC    H24 2387   0.355   0.886  10.899
   30MYC    H25 2388   0.320   0.717  10.865
   30MYC    C13 2389   0.475   0.802  10.740
   30MYC    H22 2390   0.528   0.709  10.720
   30MYC    H23 2391   0.549   0.882  10.747
   30MYC    C12 2392   0.376   0.830  10.624
   30MYC    H20 2393   0.325   0.925  10.643
   30MYC    H21 2394   0.299   0.752  10.623
   30MYC    C11 2395   0.442   0.835  10.484
   30MYC    H18 2396   0.362   0.845  10.410
   30MYC    H19 2397   0.493   0.740  10.464
   30MYC    C10 2398   0.541   0.952  10.467
   30MYC    H16 2399   0.631   0.935  10.527
   30MYC    H17 2400   0.494   1.043  10.506
   30MYC     C9 2401   0.582   0.979  10.320
   30MYC    H14 2402   0.635   1.075  10.315
   30MYC    H15 2403   0.490   0.992  10.263
   30MYC     C8 2404   0.673   0.869  10.256
   30MYC    H12 2405   0.703   0.797  10.333
   30MYC    H13 2406   0.765   0.916  10.221
   30MYC     C7 2407   0.607   0.793  10.139
   30MYC    H10 2408   0.514   0.746  10.175
   30MYC    H11 2409   0.673   0.712  10.108
   30MYC     C6 2410   0.575   0.883  10.016
   30MYC     H8 2411   0.669   0.922   9.975
   30MYC     H9 2412   0.518   0.970  10.048
   30MYC     C5 2413   0.492   0.812   9.907
   30MYC     H6 2414   0.428   0.886   9.858
   30MYC     H7 2415   0.424   0.740   9.955
   30MYC     C4 2416   0.573   0.738   9.797
   30MYC     H4 2417   0.501   0.677   9.741
   30MYC     H5 2418   0.644   0.668   9.842
   30MYC     C2 2419   0.645   0.834   9.697
   30MYC     H2 2420   0.590   0.929   9.697
   30MYC     O3 2421   0.779   0.859   9.741
   30MYC     H3 2422   0.830   0.777   9.729
   30MYC     C1 2423   0.645   0.782   9.551
   30MYC     H1 2424   0.539   0.770   9.524
   30MYC    C81 2425   0.712   0.643   9.540
   30MYC    O82 2426   0.831   0.622   9.555
   30MYC    O83 2427   0.626   0.540   9.519
   30MYC   H105 2428   0.681   0.461   9.514
   30MYC    C20 2429   0.707   0.884   9.450
   30MYC    H34 2430   0.702   0.985   9.493
   30MYC    H35 2431   0.814   0.863   9.437
   30MYC    C21 2432   0.637   0.891   9.312
   30MYC    H36 2433   0.536   0.931   9.326
   30MYC    H37 2434   0.692   0.963   9.250
   30MYC    C22 2435   0.627   0.758   9.234
   30MYC    H38 2436   0.727   0.718   9.215
   30MYC    H39 2437   0.573   0.684   9.294
   30MYC    C23 2438   0.551   0.776   9.100
   30MYC    H40 2439   0.452   0.818   9.121
   30MYC    H41 2440   0.606   0.849   9.039
   30MYC    C24 2441   0.534   0.644   9.021
   30MYC    H42 2442   0.633   0.608   8.989
   30MYC    H43 2443   0.492   0.568   9.087
   30MYC    C25 2444   0.442   0.656   8.897
   30MYC    H44 2445   0.435   0.558   8.848
   30MYC    H45 2446   0.341   0.682   8.931
   30MYC    C26 2447   0.488   0.761   8.793
   30MYC    H46 2448   0.489   0.860   8.841
   30MYC    H47 2449   0.592   0.740   8.764
   30MYC    C27 2450   0.398   0.769   8.668
   30MYC    H48 2451   0.297   0.733   8.692
   30MYC    H49 2452   0.388   0.874   8.641
   30MYC    C28 2453   0.451   0.692   8.546
   30MYC    H50 2454   0.555   0.721   8.527
   30MYC    H51 2455   0.452   0.584   8.567
   30MYC    C29 2456   0.367   0.719   8.419
   30MYC    H52 2457   0.268   0.675   8.431
   30MYC    H53 2458   0.353   0.827   8.407
   30MYC    C30 2459   0.432   0.664   8.290
   30MYC    H54 2460   0.534   0.705   8.281
   30MYC    H55 2461   0.442   0.556   8.297
   30MYC    C31 2462   0.353   0.700   8.162
   30MYC    H56 2463   0.253   0.655   8.168
   30MYC    H57 2464   0.339   0.809   8.157
   30MYC    C32 2465   0.423   0.652   8.034
   30MYC    H58 2466   0.522   0.699   8.028
   30MYC    H59 2467   0.439   0.544   8.040
   30MYC    C33 2468   0.345   0.684   7.905
   30MYC    H60 2469   0.246   0.636   7.909
   30MYC    H61 2470   0.328   0.792   7.899
   30MYC    C34 2471   0.420   0.637   7.779
   30MYC    H62 2472   0.519   0.684   7.777
   30MYC    H63 2473   0.437   0.529   7.786
   30MYC    C35 2474   0.347   0.668   7.647
   30MYC    H64 2475   0.246   0.625   7.649
   30MYC    H65 2476   0.337   0.776   7.635
   30MYC    C36 2477   0.424   0.610   7.525
   30MYC    H66 2478   0.527   0.647   7.527
   30MYC    H67 2479   0.429   0.501   7.535
   30MYC    C37 2480   0.361   0.646   7.389
   30MYC    H68 2481   0.256   0.613   7.388
   30MYC    H69 2482   0.361   0.755   7.377
   30MYC    C38 2483   0.437   0.580   7.272
   30MYC    H70 2484   0.543   0.604   7.280
   30MYC    H71 2485   0.428   0.471   7.280
   30MYC    C39 2486   0.386   0.625   7.133
   30MYC    H72 2487   0.279   0.605   7.125
   30MYC    H73 2488   0.400   0.734   7.124
   30MYC    C40 2489   0.461   0.554   7.018
   30MYC    H74 2490   0.569   0.566   7.033
   30MYC    H75 2491   0.439   0.447   7.022
   30MYC    C41 2492   0.423   0.609   6.879
   30MYC    H76 2493   0.315   0.602   6.865
   30MYC    H77 2494   0.449   0.716   6.874
   30MYC    C42 2495   0.495   0.535   6.764
   30MYC    H78 2496   0.603   0.538   6.780
   30MYC    H79 2497   0.465   0.429   6.765
   30MYC    C43 2498   0.464   0.594   6.625
   30MYC    H80 2499   0.514   0.537   6.547
   30MYC    H81 2500   0.498   0.698   6.619
   30MYC    H82 2501   0.356   0.592   6.605
   31MYC   HH15 2502   0.924   0.851   6.655
   31MYC    C80 2503   0.949   0.801   6.749
   31MYC   H100 2504   0.938   0.693   6.735
   31MYC   H101 2505   1.054   0.823   6.773
   31MYC    C79 2506   0.856   0.850   6.862
   31MYC   H102 2507   0.752   0.828   6.835
   31MYC   H103 2508   0.865   0.959   6.870
   31MYC    C78 2509   0.889   0.786   6.998
   31MYC   HH14 2510   0.994   0.806   7.022
   31MYC   H104 2511   0.877   0.677   6.992
   31MYC    C77 2512   0.801   0.840   7.113
   31MYC   H106 2513   0.696   0.815   7.094
   31MYC   H107 2514   0.808   0.949   7.116
   31MYC    C76 2515   0.842   0.783   7.251
   31MYC   H108 2516   0.949   0.801   7.265
   31MYC   H109 2517   0.827   0.675   7.251
   31MYC    C75 2518   0.765   0.847   7.369
   31MYC   H110 2519   0.658   0.825   7.359
   31MYC   H111 2520   0.777   0.956   7.365
   31MYC    C74 2521   0.815   0.794   7.504
   31MYC   H112 2522   0.924   0.808   7.509
   31MYC   H113 2523   0.797   0.686   7.511
   31MYC    C73 2524   0.752   0.864   7.626
   31MYC   HH13 2525   0.643   0.849   7.625
   31MYC   H114 2526   0.770   0.972   7.620
   31MYC    C72 2527   0.811   0.811   7.758
   31MYC   H115 2528   0.920   0.823   7.755
   31MYC   H116 2529   0.791   0.703   7.765
   31MYC    C71 2530   0.756   0.880   7.884
   31MYC   H117 2531   0.648   0.862   7.892
   31MYC   H118 2532   0.772   0.988   7.877
   31MYC    C70 2533   0.828   0.826   8.010
   31MYC   H119 2534   0.935   0.845   8.000
   31MYC   H120 2535   0.815   0.717   8.015
   31MYC    C69 2536   0.779   0.888   8.143
   31MYC   H121 2537   0.676   0.857   8.162
   31MYC   H122 2538   0.781   0.997   8.136
   31MYC    C68 2539   0.870   0.842   8.259
   31MYC   HH12 2540   0.970   0.883   8.243
   31MYC   H123 2541   0.879   0.733   8.256
   31MYC    C67 2542   0.821   0.883   8.399
   31MYC   H124 2543   0.727   0.832   8.422
   31MYC   H125 2544   0.802   0.991   8.402
   31MYC    C66 2545   0.928   0.848   8.505
   31MYC   H126 2546   1.016   0.911   8.488
   31MYC   H127 2547   0.960   0.744   8.491
   31MYC    C65 2548   0.882   0.864   8.652
   31MYC   H128 2549   0.809   0.785   8.676
   31MYC   H129 2550   0.832   0.961   8.665
   31MYC    C64 2551   1.003   0.855   8.747
   31MYC   H130 2552   1.068   0.942   8.728
   31MYC   H131 2553   1.062   0.766   8.723
   31MYC    C63 2554   0.967   0.851   8.897
   31MYC   HH11 2555   0.921   0.754   8.920
   31MYC   H132 2556   0.893   0.929   8.920
   31MYC    C62 2557   1.093   0.872   8.983
   31MYC   H133 2558   1.127   0.976   8.969
   31MYC   H134 2559   1.174   0.807   8.947
   31MYC    C61 2560   1.073   0.846   9.133
   31MYC   H135 2561   1.060   0.738   9.149
   31MYC   H136 2562   0.980   0.894   9.167
   31MYC    C60 2563   1.190   0.899   9.215
   31MYC   H137 2564   1.185   1.006   9.228
   31MYC    C58 2565   1.250   0.817   9.327
   31MYC   H138 2566   1.214   0.715   9.341
   31MYC    C59 2567   1.329   0.841   9.201
   31MYC   H139 2568   1.413   0.910   9.207
   31MYC   H140 2569   1.344   0.757   9.135
   31MYC    C57 2570   1.287   0.886   9.458
   31MYC   HH10 2571   1.276   0.994   9.450
   31MYC   H141 2572   1.392   0.866   9.481
   31MYC    C56 2573   1.199   0.836   9.575
   31MYC   H142 2574   1.216   0.728   9.587
   31MYC   H143 2575   1.093   0.848   9.549
   31MYC    C55 2576   1.227   0.907   9.708
   31MYC   H144 2577   1.192   1.011   9.702
   31MYC   H145 2578   1.335   0.911   9.727
   31MYC    C54 2579   1.158   0.835   9.825
   31MYC   H146 2580   1.202   0.735   9.835
   31MYC   H147 2581   1.052   0.820   9.801
   31MYC    C53 2582   1.169   0.908   9.960
   31MYC   H148 2583   1.112   1.001   9.955
   31MYC   H149 2584   1.274   0.934   9.979
   31MYC    C52 2585   1.117   0.820  10.076
   31MYC    H99 2586   1.182   0.732  10.086
   31MYC   H150 2587   1.017   0.784  10.051
   31MYC    C51 2588   1.111   0.896  10.210
   31MYC    H97 2589   1.034   0.973  10.202
   31MYC    H98 2590   1.206   0.947  10.228
   31MYC    C50 2591   1.080   0.802  10.328
   31MYC    H95 2592   1.169   0.743  10.351
   31MYC    H96 2593   1.000   0.733  10.301
   31MYC    C49 2594   1.037   0.881  10.453
   31MYC    H93 2595   0.938   0.923  10.434
   31MYC    H94 2596   1.106   0.965  10.469
   31MYC    C48 2597   1.033   0.797  10.582
   31MYC    H91 2598   1.136   0.774  10.613
   31MYC    H92 2599   0.984   0.701  10.563
   31MYC    C47 2600   0.959   0.872  10.695
   31MYC    H89 2601   0.851   0.872  10.673
   31MYC    H90 2602   0.991   0.976  10.695
   31MYC    C46 2603   0.983   0.814  10.836
   31MYC    H87 2604   1.091   0.818  10.857
   31MYC    H88 2605   0.953   0.709  10.839
   31MYC    C45 2606   0.905   0.893  10.943
   31MYC    H85 2607   0.801   0.860  10.944
   31MYC    H86 2608   0.904   0.999  10.916
   31MYC    C44 2609   0.965   0.883  11.085
   31MYC    H83 2610   0.910   0.953  11.150
   31MYC    H84 2611   1.068   0.919  11.084
   31MYC    C18 2612   0.958   0.744  11.149
   31MYC    H31 2613   0.877   0.683  11.111
   31MYC    C17 2614   1.082   0.674  11.201
   31MYC    H30 2615   1.177   0.726  11.191
   31MYC    C19 2616   0.984   0.735  11.297
   31MYC    H32 2617   1.015   0.826  11.349
   31MYC    H33 2618   0.920   0.669  11.355
   31MYC    C16 2619   1.097   0.522  11.200
   31MYC    H28 2620   1.000   0.475  11.179
   31MYC    H29 2621   1.124   0.489  11.301
   31MYC    C15 2622   1.203   0.468  11.102
   31MYC    H26 2623   1.224   0.363  11.128
   31MYC    H27 2624   1.297   0.523  11.114
   31MYC    C14 2625   1.158   0.474  10.954
   31MYC    H24 2626   1.143   0.579  10.926
   31MYC    H25 2627   1.062   0.423  10.943
   31MYC    C13 2628   1.260   0.411  10.858
   31MYC    H22 2629   1.281   0.308  10.888
   31MYC    H23 2630   1.355   0.466  10.864
   31MYC    C12 2631   1.211   0.412  10.711
   31MYC    H20 2632   1.197   0.517  10.680
   31MYC    H21 2633   1.114   0.363  10.705
   31MYC    C11 2634   1.310   0.344  10.615
   31MYC    H18 2635   1.304   0.235  10.626
   31MYC    H19 2636   1.412   0.372  10.644
   31MYC    C10 2637   1.290   0.384  10.467
   31MYC    H16 2638   1.373   0.345  10.407
   31MYC    H17 2639   1.295   0.493  10.459
   31MYC     C9 2640   1.158   0.334  10.402
   31MYC    H14 2641   1.074   0.352  10.469
   31MYC    H15 2642   1.165   0.226  10.386
   31MYC     C8 2643   1.132   0.406  10.269
   31MYC    H12 2644   1.221   0.399  10.205
   31MYC    H13 2645   1.116   0.513  10.289
   31MYC     C7 2646   1.011   0.353  10.190
   31MYC    H10 2647   0.924   0.343  10.256
   31MYC    H11 2648   1.036   0.251  10.155
   31MYC     C6 2649   0.974   0.445  10.071
   31MYC     H8 2650   1.064   0.496  10.035
   31MYC     H9 2651   0.906   0.523  10.107
   31MYC     C5 2652   0.906   0.371   9.952
   31MYC     H6 2653   0.856   0.444   9.887
   31MYC     H7 2654   0.829   0.306   9.993
   31MYC     C4 2655   1.004   0.285   9.869
   31MYC     H4 2656   0.949   0.201   9.825
   31MYC     H5 2657   1.078   0.240   9.936
   31MYC     C2 2658   1.076   0.355   9.750
   31MYC     H2 2659   1.001   0.362   9.670
   31MYC     O3 2660   1.117   0.487   9.784
   31MYC     H3 2661   1.202   0.481   9.831
   31MYC     C1 2662   1.198   0.273   9.698
   31MYC     H1 2663   1.162   0.169   9.685
   31MYC    C81 2664   1.311   0.269   9.803
   31MYC    O82 2665   1.382   0.365   9.829
   31MYC    O83 2666   1.313   0.158   9.880
   31MYC   H105 2667   1.387   0.172   9.942
   31MYC    C20 2668   1.251   0.320   9.560
   31MYC    H34 2669   1.288   0.424   9.568
   31MYC    H35 2670   1.338   0.259   9.533
   31MYC    C21 2671   1.147   0.312   9.445
   31MYC    H36 2672   1.099   0.214   9.447
   31MYC    H37 2673   1.069   0.387   9.462
   31MYC    C22 2674   1.209   0.336   9.306
   31MYC    H38 2675   1.260   0.433   9.304
   31MYC    H39 2676   1.284   0.259   9.287
   31MYC    C23 2677   1.104   0.333   9.193
   31MYC    H40 2678   1.042   0.243   9.203
   31MYC    H41 2679   1.037   0.419   9.203
   31MYC    C24 2680   1.168   0.333   9.053
   31MYC    H42 2681   1.235   0.420   9.045
   31MYC    H43 2682   1.229   0.243   9.042
   31MYC    C25 2683   1.065   0.339   8.938
   31MYC    H44 2684   0.992   0.258   8.950
   31MYC    H45 2685   1.010   0.434   8.944
   31MYC    C26 2686   1.132   0.327   8.800
   31MYC    H46 2687   1.212   0.402   8.792
   31MYC    H47 2688   1.180   0.228   8.792
   31MYC    C27 2689   1.035   0.346   8.682
   31MYC    H48 2690   0.955   0.270   8.687
   31MYC    H49 2691   0.987   0.444   8.690
   31MYC    C28 2692   1.107   0.336   8.546
   31MYC    H50 2693   1.191   0.406   8.545
   31MYC    H51 2694   1.149   0.235   8.535
   31MYC    C29 2695   1.016   0.367   8.425
   31MYC    H52 2696   0.932   0.296   8.423
   31MYC    H53 2697   0.973   0.467   8.437
   31MYC    C30 2698   1.094   0.360   8.292
   31MYC    H54 2699   1.180   0.427   8.298
   31MYC    H55 2700   1.133   0.259   8.279
   31MYC    C31 2701   1.009   0.398   8.169
   31MYC    H56 2702   0.921   0.333   8.163
   31MYC    H57 2703   0.973   0.501   8.180
   31MYC    C32 2704   1.090   0.386   8.039
   31MYC    H58 2705   1.182   0.446   8.048
   31MYC    H59 2706   1.122   0.282   8.027
   31MYC    C33 2707   1.014   0.430   7.912
   31MYC    H60 2708   0.919   0.376   7.906
   31MYC    H61 2709   0.990   0.537   7.920
   31MYC    C34 2710   1.097   0.405   7.785
   31MYC    H62 2711   1.194   0.454   7.795
   31MYC    H63 2712   1.116   0.297   7.777
   31MYC    C35 2713   1.029   0.453   7.655
   31MYC    H64 2714   0.930   0.408   7.646
   31MYC    H65 2715   1.016   0.562   7.659
   31MYC    C36 2716   1.114   0.415   7.531
   31MYC    H66 2717   1.215   0.456   7.543
   31MYC    H67 2718   1.124   0.306   7.527
   31MYC    C37 2719   1.055   0.465   7.398
   31MYC    H68 2720   0.953   0.427   7.386
   31MYC    H69 2721   1.049   0.574   7.399
   31MYC    C38 2722   1.141   0.420   7.277
   31MYC    H70 2723   1.244   0.454   7.292
   31MYC    H71 2724   1.144   0.311   7.274
   31MYC    C39 2725   1.090   0.474   7.142
   31MYC    H72 2726   0.986   0.443   7.127
   31MYC    H73 2727   1.090   0.584   7.146
   31MYC    C40 2728   1.176   0.427   7.023
   31MYC    H74 2729   1.281   0.451   7.042
   31MYC    H75 2730   1.169   0.317   7.016
   31MYC    C41 2731   1.133   0.490   6.889
   31MYC    H76 2732   1.027   0.470   6.872
   31MYC    H77 2733   1.145   0.599   6.896
   31MYC    C42 2734   1.215   0.437   6.769
   31MYC    H78 2735   1.322   0.450   6.789
   31MYC    H79 2736   1.197   0.330   6.758
   31MYC    C43 2737   1.181   0.508   6.637
   31MYC    H80 2738   1.240   0.466   6.555
   31MYC    H81 2739   1.203   0.615   6.643
   31MYC    H82 2740   1.074   0.496   6.613
   32MYC   HH15 2741   1.557   0.688   6.644
   32MYC    C80 2742   1.633   0.700   6.723
   32MYC   H100 2743   1.732   0.688   6.678
   32MYC   H101 2744   1.625   0.802   6.763
   32MYC    C79 2745   1.610   0.596   6.835
   32MYC   H102 2746   1.619   0.495   6.792
   32MYC   H103 2747   1.508   0.607   6.872
   32MYC    C78 2748   1.709   0.611   6.952
   32MYC   HH14 2749   1.703   0.714   6.990
   32MYC   H104 2750   1.812   0.596   6.917
   32MYC    C77 2751   1.680   0.513   7.068
   32MYC   H106 2752   1.707   0.411   7.037
   32MYC   H107 2753   1.573   0.513   7.088
   32MYC    C76 2754   1.755   0.549   7.198
   32MYC   H108 2755   1.738   0.655   7.219
   32MYC   H109 2756   1.864   0.537   7.184
   32MYC    C75 2757   1.709   0.466   7.320
   32MYC   H110 2758   1.750   0.364   7.313
   32MYC   H111 2759   1.600   0.456   7.316
   32MYC    C74 2760   1.748   0.530   7.455
   32MYC   H112 2761   1.719   0.636   7.453
   32MYC   H113 2762   1.856   0.527   7.468
   32MYC    C73 2763   1.679   0.463   7.575
   32MYC   HH13 2764   1.722   0.364   7.592
   32MYC   H114 2765   1.572   0.447   7.552
   32MYC    C72 2766   1.688   0.547   7.704
   32MYC   H115 2767   1.645   0.646   7.686
   32MYC   H116 2768   1.794   0.562   7.730
   32MYC    C71 2769   1.615   0.482   7.824
   32MYC   H117 2770   1.665   0.388   7.849
   32MYC   H118 2771   1.512   0.457   7.794
   32MYC    C70 2772   1.609   0.573   7.948
   32MYC   H119 2773   1.547   0.661   7.927
   32MYC   H120 2774   1.710   0.610   7.971
   32MYC    C69 2775   1.554   0.499   8.072
   32MYC   H121 2776   1.620   0.414   8.093
   32MYC   H122 2777   1.455   0.458   8.049
   32MYC    C68 2778   1.544   0.588   8.198
   32MYC   HH12 2779   1.463   0.661   8.185
   32MYC   H123 2780   1.637   0.645   8.209
   32MYC    C67 2781   1.520   0.505   8.325
   32MYC   H124 2782   1.602   0.432   8.334
   32MYC   H125 2783   1.428   0.447   8.315
   32MYC    C66 2784   1.514   0.588   8.455
   32MYC   H126 2785   1.421   0.647   8.457
   32MYC   H127 2786   1.598   0.659   8.457
   32MYC    C65 2787   1.521   0.498   8.580
   32MYC   H128 2788   1.611   0.436   8.573
   32MYC   H129 2789   1.435   0.429   8.581
   32MYC    C64 2790   1.525   0.575   8.714
   32MYC   H130 2791   1.429   0.625   8.731
   32MYC   H131 2792   1.602   0.653   8.708
   32MYC    C63 2793   1.557   0.480   8.831
   32MYC   HH11 2794   1.650   0.426   8.808
   32MYC   H132 2795   1.478   0.404   8.840
   32MYC    C62 2796   1.575   0.551   8.967
   32MYC   H133 2797   1.478   0.589   9.002
   32MYC   H134 2798   1.642   0.637   8.955
   32MYC    C61 2799   1.636   0.456   9.073
   32MYC   H135 2800   1.732   0.420   9.036
   32MYC   H136 2801   1.571   0.368   9.084
   32MYC    C60 2802   1.658   0.522   9.208
   32MYC   H137 2803   1.691   0.625   9.200
   32MYC    C58 2804   1.577   0.483   9.330
   32MYC   H138 2805   1.506   0.401   9.319
   32MYC    C59 2806   1.723   0.443   9.320
   32MYC   H139 2807   1.796   0.495   9.381
   32MYC   H140 2808   1.745   0.338   9.302
   32MYC    C57 2809   1.530   0.588   9.430
   32MYC   HH10 2810   1.420   0.586   9.434
   32MYC   H141 2811   1.557   0.689   9.395
   32MYC    C56 2812   1.587   0.567   9.571
   32MYC   H142 2813   1.694   0.591   9.571
   32MYC   H143 2814   1.577   0.462   9.600
   32MYC    C55 2815   1.518   0.654   9.678
   32MYC   H144 2816   1.413   0.623   9.688
   32MYC   H145 2817   1.518   0.759   9.646
   32MYC    C54 2818   1.587   0.645   9.816
   32MYC   H146 2819   1.688   0.687   9.809
   32MYC   H147 2820   1.598   0.540   9.845
   32MYC    C53 2821   1.508   0.719   9.926
   32MYC   H148 2822   1.410   0.672   9.937
   32MYC   H149 2823   1.491   0.822   9.895
   32MYC    C52 2824   1.580   0.719  10.062
   32MYC    H99 2825   1.678   0.766  10.051
   32MYC   H150 2826   1.597   0.616  10.094
   32MYC    C51 2827   1.499   0.793  10.171
   32MYC    H97 2828   1.403   0.742  10.186
   32MYC    H98 2829   1.476   0.895  10.136
   32MYC    C50 2830   1.573   0.802  10.306
   32MYC    H95 2831   1.667   0.857  10.291
   32MYC    H96 2832   1.601   0.701  10.338
   32MYC    C49 2833   1.489   0.869  10.416
   32MYC    H93 2834   1.399   0.809  10.434
   32MYC    H94 2835   1.455   0.967  10.380
   32MYC    C48 2836   1.566   0.888  10.548
   32MYC    H91 2837   1.647   0.960  10.533
   32MYC    H92 2838   1.613   0.793  10.576
   32MYC    C47 2839   1.475   0.935  10.664
   32MYC    H89 2840   1.395   0.861  10.679
   32MYC    H90 2841   1.427   1.029  10.636
   32MYC    C46 2842   1.552   0.954  10.797
   32MYC    H87 2843   1.630   1.030  10.782
   32MYC    H88 2844   1.602   0.860  10.823
   32MYC    C45 2845   1.460   0.998  10.913
   32MYC    H85 2846   1.386   0.919  10.934
   32MYC    H86 2847   1.403   1.086  10.882
   32MYC    C44 2848   1.534   1.033  11.044
   32MYC    H83 2849   1.463   1.080  11.113
   32MYC    H84 2850   1.610   1.110  11.022
   32MYC    C18 2851   1.599   0.914  11.115
   32MYC    H31 2852   1.526   0.840  11.147
   32MYC    C17 2853   1.733   0.861  11.070
   32MYC    H30 2854   1.781   0.916  10.989
   32MYC    C19 2855   1.721   0.933  11.202
   32MYC    H32 2856   1.763   1.032  11.210
   32MYC    H33 2857   1.730   0.873  11.293
   32MYC    C16 2858   1.760   0.711  11.065
   32MYC    H28 2859   1.694   0.665  10.990
   32MYC    H29 2860   1.733   0.665  11.161
   32MYC    C15 2861   1.906   0.675  11.033
   32MYC    H26 2862   1.921   0.567  11.051
   32MYC    H27 2863   1.973   0.728  11.102
   32MYC    C14 2864   1.947   0.707  10.887
   32MYC    H24 2865   1.947   0.816  10.873
   32MYC    H25 2866   1.872   0.666  10.819
   32MYC    C13 2867   2.086   0.653  10.849
   32MYC    H22 2868   2.087   0.544  10.860
   32MYC    H23 2869   2.162   0.693  10.917
   32MYC    C12 2870   2.124   0.691  10.704
   32MYC    H20 2871   2.125   0.800  10.694
   32MYC    H21 2872   2.045   0.654  10.638
   32MYC    C11 2873   2.260   0.634  10.659
   32MYC    H18 2874   2.258   0.525  10.668
   32MYC    H19 2875   2.338   0.670  10.727
   32MYC    C10 2876   2.298   0.672  10.515
   32MYC    H16 2877   2.396   0.628  10.492
   32MYC    H17 2878   2.310   0.780  10.507
   32MYC     C9 2879   2.196   0.624  10.409
   32MYC    H14 2880   2.103   0.682  10.418
   32MYC    H15 2881   2.171   0.519  10.428
   32MYC     C8 2882   2.249   0.638  10.265
   32MYC    H12 2883   2.342   0.580  10.256
   32MYC    H13 2884   2.274   0.743  10.245
   32MYC     C7 2885   2.148   0.588  10.160
   32MYC    H10 2886   2.061   0.655  10.157
   32MYC    H11 2887   2.111   0.489  10.190
   32MYC     C6 2888   2.211   0.578  10.020
   32MYC     H8 2889   2.301   0.515  10.027
   32MYC     H9 2890   2.244   0.678   9.990
   32MYC     C5 2891   2.116   0.519   9.914
   32MYC     H6 2892   2.044   0.594   9.882
   32MYC     H7 2893   2.058   0.438   9.960
   32MYC     C4 2894   2.190   0.458   9.792
   32MYC     H4 2895   2.120   0.392   9.740
   32MYC     H5 2896   2.269   0.392   9.830
   32MYC     C2 2897   2.247   0.556   9.685
   32MYC     H2 2898   2.164   0.574   9.615
   32MYC     O3 2899   2.284   0.683   9.740
   32MYC     H3 2900   2.366   0.670   9.791
   32MYC     C1 2901   2.367   0.497   9.604
   32MYC     H1 2902   2.341   0.393   9.582
   32MYC    C81 2903   2.497   0.496   9.688
   32MYC    O82 2904   2.570   0.592   9.699
   32MYC    O83 2905   2.514   0.388   9.767
   32MYC   H105 2906   2.596   0.404   9.816
   32MYC    C20 2907   2.391   0.571   9.470
   32MYC    H34 2908   2.404   0.678   9.490
   32MYC    H35 2909   2.485   0.535   9.427
   32MYC    C21 2910   2.280   0.554   9.363
   32MYC    H36 2911   2.276   0.448   9.333
   32MYC    H37 2912   2.182   0.581   9.403
   32MYC    C22 2913   2.307   0.642   9.239
   32MYC    H38 2914   2.280   0.746   9.262
   32MYC    H39 2915   2.415   0.642   9.218
   32MYC    C23 2916   2.233   0.596   9.113
   32MYC    H40 2917   2.264   0.494   9.089
   32MYC    H41 2918   2.125   0.594   9.132
   32MYC    C24 2919   2.262   0.688   8.993
   32MYC    H42 2920   2.211   0.784   9.007
   32MYC    H43 2921   2.369   0.709   8.988
   32MYC    C25 2922   2.219   0.626   8.858
   32MYC    H44 2923   2.274   0.533   8.843
   32MYC    H45 2924   2.112   0.601   8.862
   32MYC    C26 2925   2.245   0.721   8.740
   32MYC    H46 2926   2.186   0.812   8.752
   32MYC    H47 2927   2.351   0.751   8.740
   32MYC    C27 2928   2.211   0.656   8.604
   32MYC    H48 2929   2.274   0.567   8.590
   32MYC    H49 2930   2.107   0.622   8.606
   32MYC    C28 2931   2.232   0.753   8.486
   32MYC    H50 2932   2.171   0.843   8.502
   32MYC    H51 2933   2.337   0.784   8.483
   32MYC    C29 2934   2.194   0.689   8.352
   32MYC    H52 2935   2.257   0.600   8.335
   32MYC    H53 2936   2.090   0.654   8.357
   32MYC    C30 2937   2.208   0.785   8.233
   32MYC    H54 2938   2.145   0.873   8.250
   32MYC    H55 2939   2.312   0.820   8.226
   32MYC    C31 2940   2.168   0.719   8.100
   32MYC    H56 2941   2.234   0.632   8.082
   32MYC    H57 2942   2.066   0.680   8.108
   32MYC    C32 2943   2.175   0.814   7.979
   32MYC    H58 2944   2.105   0.896   7.994
   32MYC    H59 2945   2.276   0.857   7.972
   32MYC    C33 2946   2.143   0.741   7.848
   32MYC    H60 2947   2.216   0.661   7.833
   32MYC    H61 2948   2.045   0.692   7.856
   32MYC    C34 2949   2.142   0.832   7.723
   32MYC    H62 2950   2.058   0.902   7.730
   32MYC    H63 2951   2.234   0.891   7.721
   32MYC    C35 2952   2.131   0.749   7.594
   32MYC    H64 2953   2.220   0.685   7.587
   32MYC    H65 2954   2.045   0.682   7.601
   32MYC    C36 2955   2.119   0.833   7.465
   32MYC    H66 2956   2.018   0.875   7.459
   32MYC    H67 2957   2.189   0.917   7.469
   32MYC    C37 2958   2.149   0.747   7.341
   32MYC    H68 2959   2.256   0.723   7.341
   32MYC    H69 2960   2.095   0.652   7.348
   32MYC    C38 2961   2.113   0.814   7.207
   32MYC    H70 2962   2.003   0.818   7.198
   32MYC    H71 2963   2.149   0.917   7.205
   32MYC    C39 2964   2.172   0.736   7.087
   32MYC    H72 2965   2.281   0.751   7.087
   32MYC    H73 2966   2.154   0.629   7.102
   32MYC    C40 2967   2.114   0.778   6.951
   32MYC    H74 2968   2.006   0.757   6.950
   32MYC    H75 2969   2.126   0.886   6.937
   32MYC    C41 2970   2.182   0.703   6.834
   32MYC    H76 2971   2.288   0.731   6.829
   32MYC    H77 2972   2.179   0.595   6.854
   32MYC    C42 2973   2.116   0.729   6.697
   32MYC    H78 2974   2.009   0.704   6.703
   32MYC    H79 2975   2.123   0.836   6.673
   32MYC    C43 2976   2.180   0.647   6.583
   32MYC    H80 2977   2.126   0.664   6.489
   32MYC    H81 2978   2.176   0.540   6.606
   32MYC    H82 2979   2.285   0.675   6.569
   33MYC   HH15 2980   3.319   0.530   6.608
   33MYC    C80 2981   3.260   0.549   6.698
   33MYC   H100 2982   3.212   0.647   6.689
   33MYC   H101 2983   3.181   0.473   6.704
   33MYC    C79 2984   3.350   0.543   6.823
   33MYC   H102 2985   3.428   0.619   6.814
   33MYC   H103 2986   3.400   0.446   6.826
   33MYC    C78 2987   3.273   0.565   6.955
   33MYC   HH14 2988   3.193   0.490   6.963
   33MYC   H104 2989   3.224   0.663   6.952
   33MYC    C77 2990   3.363   0.557   7.080
   33MYC   H106 2991   3.440   0.636   7.074
   33MYC   H107 2992   3.416   0.461   7.080
   33MYC    C76 2993   3.285   0.572   7.212
   33MYC   H108 2994   3.205   0.497   7.214
   33MYC   H109 2995   3.237   0.671   7.213
   33MYC    C75 2996   3.373   0.557   7.338
   33MYC   H110 2997   3.448   0.637   7.341
   33MYC   H111 2998   3.427   0.462   7.332
   33MYC    C74 2999   3.289   0.560   7.467
   33MYC   H112 3000   3.213   0.481   7.462
   33MYC   H113 3001   3.235   0.655   7.473
   33MYC    C73 3002   3.371   0.542   7.597
   33MYC   HH13 3003   3.441   0.626   7.608
   33MYC   H114 3004   3.431   0.451   7.589
   33MYC    C72 3005   3.280   0.533   7.721
   33MYC   H115 3006   3.213   0.447   7.710
   33MYC   H116 3007   3.217   0.623   7.725
   33MYC    C71 3008   3.356   0.520   7.855
   33MYC   H117 3009   3.422   0.606   7.868
   33MYC   H118 3010   3.419   0.430   7.853
   33MYC    C70 3011   3.259   0.511   7.975
   33MYC   H119 3012   3.196   0.422   7.964
   33MYC   H120 3013   3.192   0.598   7.972
   33MYC    C69 3014   3.329   0.507   8.112
   33MYC   H121 3015   3.396   0.593   8.121
   33MYC   H122 3016   3.391   0.417   8.119
   33MYC    C68 3017   3.228   0.508   8.229
   33MYC   HH12 3018   3.167   0.417   8.227
   33MYC   H123 3019   3.159   0.593   8.216
   33MYC    C67 3020   3.295   0.521   8.367
   33MYC   H124 3021   3.360   0.610   8.367
   33MYC   H125 3022   3.360   0.435   8.385
   33MYC    C66 3023   3.193   0.534   8.483
   33MYC   H126 3024   3.142   0.438   8.497
   33MYC   H127 3025   3.117   0.608   8.456
   33MYC    C65 3026   3.260   0.577   8.615
   33MYC   H128 3027   3.313   0.672   8.598
   33MYC   H129 3028   3.336   0.504   8.643
   33MYC    C64 3029   3.162   0.595   8.733
   33MYC   H130 3030   3.136   0.496   8.773
   33MYC   H131 3031   3.069   0.640   8.697
   33MYC    C63 3032   3.220   0.684   8.845
   33MYC   HH11 3033   3.236   0.784   8.804
   33MYC   H132 3034   3.319   0.646   8.875
   33MYC    C62 3035   3.131   0.693   8.970
   33MYC   H133 3036   3.145   0.604   9.032
   33MYC   H134 3037   3.025   0.695   8.941
   33MYC    C61 3038   3.159   0.819   9.054
   33MYC   H135 3039   3.126   0.907   8.998
   33MYC   H136 3040   3.268   0.830   9.067
   33MYC    C60 3041   3.092   0.818   9.191
   33MYC   H137 3042   2.990   0.779   9.187
   33MYC    C58 3043   3.173   0.792   9.316
   33MYC   H138 3044   3.280   0.781   9.304
   33MYC    C59 3045   3.115   0.929   9.291
   33MYC   H139 3046   3.031   0.961   9.352
   33MYC   H140 3047   3.184   1.008   9.262
   33MYC    C57 3048   3.120   0.703   9.427
   33MYC   HH10 3049   3.139   0.598   9.402
   33MYC   H141 3050   3.011   0.714   9.436
   33MYC    C56 3051   3.185   0.735   9.563
   33MYC   H142 3052   3.166   0.840   9.588
   33MYC   H143 3053   3.294   0.724   9.555
   33MYC    C55 3054   3.132   0.645   9.677
   33MYC   H144 3055   3.156   0.541   9.655
   33MYC   H145 3056   3.023   0.653   9.680
   33MYC    C54 3057   3.188   0.683   9.816
   33MYC   H146 3058   3.172   0.790   9.834
   33MYC   H147 3059   3.297   0.667   9.817
   33MYC    C53 3060   3.123   0.601   9.929
   33MYC   H148 3061   3.148   0.495   9.917
   33MYC   H149 3062   3.014   0.609   9.919
   33MYC    C52 3063   3.162   0.649  10.070
   33MYC    H99 3064   3.144   0.756  10.079
   33MYC   H150 3065   3.270   0.632  10.086
   33MYC    C51 3066   3.083   0.575  10.180
   33MYC    H97 3067   3.104   0.468  10.174
   33MYC    H98 3068   2.975   0.587  10.161
   33MYC    C50 3069   3.113   0.625  10.323
   33MYC    H95 3070   3.094   0.732  10.329
   33MYC    H96 3071   3.220   0.610  10.345
   33MYC    C49 3072   3.028   0.552  10.430
   33MYC    H93 3073   3.043   0.443  10.420
   33MYC    H94 3074   2.922   0.571  10.410
   33MYC    C48 3075   3.061   0.594  10.574
   33MYC    H91 3076   3.035   0.699  10.587
   33MYC    H92 3077   3.169   0.585  10.591
   33MYC    C47 3078   2.985   0.509  10.679
   33MYC    H89 3079   3.008   0.403  10.663
   33MYC    H90 3080   2.877   0.519  10.661
   33MYC    C46 3081   3.017   0.546  10.825
   33MYC    H87 3082   3.000   0.653  10.840
   33MYC    H88 3083   3.123   0.528  10.844
   33MYC    C45 3084   2.934   0.467  10.929
   33MYC    H85 3085   2.984   0.473  11.027
   33MYC    H86 3086   2.933   0.361  10.901
   33MYC    C44 3087   2.787   0.516  10.946
   33MYC    H83 3088   2.730   0.437  10.995
   33MYC    H84 3089   2.741   0.530  10.847
   33MYC    C18 3090   2.775   0.645  11.027
   33MYC    H31 3091   2.829   0.728  10.982
   33MYC    C17 3092   2.650   0.680  11.103
   33MYC    H30 3093   2.568   0.608  11.101
   33MYC    C19 3094   2.774   0.638  11.178
   33MYC    H32 3095   2.774   0.540  11.225
   33MYC    H33 3096   2.830   0.715  11.231
   33MYC    C16 3097   2.601   0.824  11.119
   33MYC    H28 3098   2.686   0.893  11.122
   33MYC    H29 3099   2.552   0.832  11.217
   33MYC    C15 3100   2.500   0.872  11.012
   33MYC    H26 3101   2.459   0.968  11.045
   33MYC    H27 3102   2.417   0.801  11.007
   33MYC    C14 3103   2.559   0.890  10.871
   33MYC    H24 3104   2.583   0.792  10.829
   33MYC    H25 3105   2.653   0.947  10.879
   33MYC    C13 3106   2.464   0.965  10.774
   33MYC    H22 3107   2.446   1.066  10.814
   33MYC    H23 3108   2.368   0.914  10.770
   33MYC    C12 3109   2.522   0.977  10.631
   33MYC    H20 3110   2.530   0.876  10.589
   33MYC    H21 3111   2.623   1.018  10.638
   33MYC    C11 3112   2.437   1.064  10.536
   33MYC    H18 3113   2.432   1.166  10.576
   33MYC    H19 3114   2.335   1.025  10.535
   33MYC    C10 3115   2.489   1.069  10.390
   33MYC    H16 3116   2.417   1.125  10.330
   33MYC    H17 3117   2.492   0.967  10.349
   33MYC     C9 3118   2.628   1.136  10.376
   33MYC    H14 3119   2.701   1.077  10.432
   33MYC    H15 3120   2.624   1.234  10.424
   33MYC     C8 3121   2.678   1.153  10.232
   33MYC    H12 3122   2.752   1.234  10.231
   33MYC    H13 3123   2.595   1.186  10.168
   33MYC     C7 3124   2.743   1.028  10.168
   33MYC    H10 3125   2.667   0.949  10.156
   33MYC    H11 3126   2.821   0.988  10.233
   33MYC     C6 3127   2.805   1.062  10.030
   33MYC     H8 3128   2.884   1.136  10.044
   33MYC     H9 3129   2.729   1.111   9.968
   33MYC     C5 3130   2.865   0.941   9.955
   33MYC     H6 3131   2.801   0.853   9.964
   33MYC     H7 3132   2.960   0.915  10.003
   33MYC     C4 3133   2.893   0.972   9.805
   33MYC     H4 3134   2.988   0.925   9.778
   33MYC     H5 3135   2.909   1.079   9.793
   33MYC     C2 3136   2.787   0.924   9.701
   33MYC     H2 3137   2.827   0.957   9.604
   33MYC     O3 3138   2.785   0.782   9.700
   33MYC     H3 3139   2.708   0.752   9.751
   33MYC     C1 3140   2.642   0.984   9.712
   33MYC     H1 3141   2.652   1.093   9.712
   33MYC    C81 3142   2.564   0.945   9.839
   33MYC    O82 3143   2.550   0.831   9.879
   33MYC    O83 3144   2.488   1.046   9.888
   33MYC   H105 3145   2.431   1.005   9.956
   33MYC    C20 3146   2.552   0.950   9.590
   33MYC    H34 3147   2.543   0.842   9.580
   33MYC    H35 3148   2.451   0.988   9.610
   33MYC    C21 3149   2.599   1.009   9.455
   33MYC    H36 3150   2.621   1.116   9.467
   33MYC    H37 3151   2.692   0.960   9.424
   33MYC    C22 3152   2.494   0.992   9.343
   33MYC    H38 3153   2.472   0.885   9.329
   33MYC    H39 3154   2.400   1.040   9.374
   33MYC    C23 3155   2.541   1.052   9.209
   33MYC    H40 3156   2.571   1.156   9.225
   33MYC    H41 3157   2.630   0.998   9.176
   33MYC    C24 3158   2.434   1.048   9.097
   33MYC    H42 3159   2.404   0.944   9.080
   33MYC    H43 3160   2.345   1.104   9.129
   33MYC    C25 3161   2.490   1.109   8.967
   33MYC    H44 3162   2.521   1.212   8.988
   33MYC    H45 3163   2.580   1.053   8.939
   33MYC    C26 3164   2.392   1.110   8.848
   33MYC    H46 3165   2.353   1.009   8.831
   33MYC    H47 3166   2.307   1.175   8.871
   33MYC    C27 3167   2.463   1.160   8.721
   33MYC    H48 3168   2.506   1.259   8.740
   33MYC    H49 3169   2.548   1.092   8.700
   33MYC    C28 3170   2.375   1.167   8.595
   33MYC    H50 3171   2.326   1.070   8.579
   33MYC    H51 3172   2.295   1.241   8.611
   33MYC    C29 3173   2.457   1.205   8.470
   33MYC    H52 3174   2.507   1.301   8.487
   33MYC    H53 3175   2.536   1.130   8.456
   33MYC    C30 3176   2.373   1.213   8.341
   33MYC    H54 3177   2.318   1.118   8.329
   33MYC    H55 3178   2.298   1.293   8.351
   33MYC    C31 3179   2.459   1.238   8.215
   33MYC    H56 3180   2.512   1.333   8.225
   33MYC    H57 3181   2.535   1.159   8.208
   33MYC    C32 3182   2.375   1.238   8.086
   33MYC    H58 3183   2.316   1.146   8.082
   33MYC    H59 3184   2.304   1.322   8.089
   33MYC    C33 3185   2.460   1.248   7.957
   33MYC    H60 3186   2.515   1.343   7.956
   33MYC    H61 3187   2.535   1.168   7.958
   33MYC    C34 3188   2.374   1.236   7.830
   33MYC    H62 3189   2.316   1.143   7.836
   33MYC    H63 3190   2.303   1.319   7.826
   33MYC    C35 3191   2.456   1.234   7.699
   33MYC    H64 3192   2.514   1.327   7.690
   33MYC    H65 3193   2.528   1.151   7.703
   33MYC    C36 3194   2.366   1.217   7.574
   33MYC    H66 3195   2.306   1.126   7.587
   33MYC    H67 3196   2.297   1.301   7.569
   33MYC    C37 3197   2.444   1.206   7.442
   33MYC    H68 3198   2.508   1.295   7.429
   33MYC    H69 3199   2.511   1.119   7.446
   33MYC    C38 3200   2.351   1.193   7.319
   33MYC    H70 3201   2.283   1.109   7.335
   33MYC    H71 3202   2.289   1.284   7.312
   33MYC    C39 3203   2.426   1.172   7.186
   33MYC    H72 3204   2.498   1.253   7.171
   33MYC    H73 3205   2.483   1.078   7.192
   33MYC    C40 3206   2.330   1.166   7.064
   33MYC    H74 3207   2.253   1.091   7.083
   33MYC    H75 3208   2.279   1.263   7.055
   33MYC    C41 3209   2.402   1.132   6.932
   33MYC    H76 3210   2.482   1.205   6.915
   33MYC    H77 3211   2.449   1.034   6.941
   33MYC    C42 3212   2.307   1.132   6.810
   33MYC    H78 3213   2.224   1.063   6.828
   33MYC    H79 3214   2.263   1.232   6.798
   33MYC    C43 3215   2.377   1.092   6.679
   33MYC    H80 3216   2.305   1.092   6.596
   33MYC    H81 3217   2.420   0.992   6.687
   33MYC    H82 3218   2.457   1.163   6.655
   34MYC   HH15 3219   3.620   0.668   6.693
   34MYC    C80 3220   3.719   0.623   6.677
   34MYC   H100 3221   3.719   0.575   6.578
   34MYC   H101 3222   3.793   0.703   6.676
   34MYC    C79 3223   3.751   0.519   6.786
   34MYC   H102 3224   3.852   0.479   6.768
   34MYC   H103 3225   3.681   0.435   6.777
   34MYC    C78 3226   3.744   0.577   6.929
   34MYC   HH14 3227   3.642   0.614   6.947
   34MYC   H104 3228   3.811   0.663   6.936
   34MYC    C77 3229   3.781   0.475   7.039
   34MYC   H106 3230   3.886   0.444   7.026
   34MYC   H107 3231   3.719   0.384   7.027
   34MYC    C76 3232   3.761   0.532   7.180
   34MYC   H108 3233   3.655   0.554   7.195
   34MYC   H109 3234   3.815   0.627   7.188
   34MYC    C75 3235   3.808   0.438   7.294
   34MYC   H110 3236   3.917   0.423   7.285
   34MYC   H111 3237   3.760   0.340   7.283
   34MYC    C74 3238   3.775   0.497   7.432
   34MYC   H112 3239   3.666   0.504   7.442
   34MYC   H113 3240   3.814   0.599   7.438
   34MYC    C73 3241   3.831   0.416   7.551
   34MYC   HH13 3242   3.940   0.420   7.549
   34MYC   H114 3243   3.801   0.311   7.542
   34MYC    C72 3244   3.779   0.473   7.685
   34MYC   H115 3245   3.670   0.465   7.686
   34MYC   H116 3246   3.803   0.580   7.689
   34MYC    C71 3247   3.836   0.405   7.810
   34MYC   H117 3248   3.942   0.433   7.822
   34MYC   H118 3249   3.833   0.296   7.799
   34MYC    C70 3250   3.756   0.445   7.936
   34MYC   H119 3251   3.655   0.404   7.927
   34MYC   H120 3252   3.746   0.554   7.938
   34MYC    C69 3253   3.819   0.400   8.069
   34MYC   H121 3254   3.911   0.457   8.087
   34MYC   H122 3255   3.846   0.294   8.063
   34MYC    C68 3256   3.721   0.421   8.186
   34MYC   HH12 3257   3.638   0.350   8.176
   34MYC   H123 3258   3.678   0.522   8.180
   34MYC    C67 3259   3.786   0.403   8.324
   34MYC   H124 3260   3.860   0.483   8.339
   34MYC   H125 3261   3.840   0.308   8.329
   34MYC    C66 3262   3.682   0.408   8.438
   34MYC   H126 3263   3.624   0.314   8.437
   34MYC   H127 3264   3.611   0.489   8.420
   34MYC    C65 3265   3.746   0.428   8.576
   34MYC   H128 3266   3.794   0.526   8.578
   34MYC   H129 3267   3.824   0.353   8.592
   34MYC    C64 3268   3.644   0.419   8.691
   34MYC   H130 3269   3.611   0.315   8.702
   34MYC   H131 3270   3.556   0.479   8.666
   34MYC    C63 3271   3.702   0.470   8.823
   34MYC   HH11 3272   3.726   0.576   8.813
   34MYC   H132 3273   3.797   0.419   8.844
   34MYC    C62 3274   3.609   0.450   8.943
   34MYC   H133 3275   3.594   0.343   8.960
   34MYC   H134 3276   3.510   0.494   8.922
   34MYC    C61 3277   3.667   0.515   9.070
   34MYC   H135 3278   3.671   0.623   9.056
   34MYC   H136 3279   3.770   0.481   9.083
   34MYC    C60 3280   3.589   0.481   9.196
   34MYC   H137 3281   3.581   0.374   9.212
   34MYC    C58 3282   3.608   0.568   9.317
   34MYC   H138 3283   3.667   0.659   9.304
   34MYC    C59 3284   3.474   0.565   9.248
   34MYC   H139 3285   3.392   0.514   9.297
   34MYC   H140 3286   3.445   0.651   9.188
   34MYC    C57 3287   3.637   0.499   9.449
   34MYC   HH10 3288   3.742   0.467   9.449
   34MYC   H141 3289   3.578   0.407   9.456
   34MYC    C56 3290   3.611   0.586   9.573
   34MYC   H142 3291   3.505   0.613   9.577
   34MYC   H143 3292   3.669   0.678   9.567
   34MYC    C55 3293   3.649   0.508   9.700
   34MYC   H144 3294   3.756   0.484   9.695
   34MYC   H145 3295   3.595   0.413   9.701
   34MYC    C54 3296   3.622   0.581   9.833
   34MYC   H146 3297   3.516   0.607   9.840
   34MYC   H147 3298   3.680   0.674   9.837
   34MYC    C53 3299   3.661   0.491   9.952
   34MYC   H148 3300   3.768   0.468   9.945
   34MYC   H149 3301   3.607   0.396   9.944
   34MYC    C52 3302   3.633   0.551  10.090
   34MYC    H99 3303   3.525   0.568  10.101
   34MYC   H150 3304   3.682   0.649  10.097
   34MYC    C51 3305   3.683   0.459  10.203
   34MYC    H97 3306   3.790   0.440  10.187
   34MYC    H98 3307   3.632   0.362  10.197
   34MYC    C50 3308   3.663   0.519  10.342
   34MYC    H95 3309   3.556   0.523  10.364
   34MYC    H96 3310   3.700   0.623  10.342
   34MYC    C49 3311   3.735   0.441  10.454
   34MYC    H93 3312   3.840   0.427  10.425
   34MYC    H94 3313   3.690   0.341  10.463
   34MYC    C48 3314   3.729   0.514  10.589
   34MYC    H91 3315   3.625   0.518  10.624
   34MYC    H92 3316   3.762   0.618  10.574
   34MYC    C47 3317   3.818   0.450  10.697
   34MYC    H89 3318   3.921   0.448  10.661
   34MYC    H90 3319   3.787   0.346  10.713
   34MYC    C46 3320   3.813   0.526  10.832
   34MYC    H87 3321   3.711   0.519  10.872
   34MYC    H88 3322   3.834   0.632  10.814
   34MYC    C45 3323   3.914   0.472  10.935
   34MYC    H85 3324   4.014   0.509  10.910
   34MYC    H86 3325   3.918   0.363  10.926
   34MYC    C44 3326   3.881   0.506  11.083
   34MYC    H83 3327   3.949   0.447  11.146
   34MYC    H84 3328   3.780   0.471  11.106
   34MYC    C18 3329   3.896   0.654  11.122
   34MYC    H31 3330   3.964   0.708  11.058
   34MYC    C17 3331   3.784   0.732  11.189
   34MYC    H30 3332   3.691   0.679  11.208
   34MYC    C19 3333   3.903   0.687  11.269
   34MYC    H32 3334   3.888   0.607  11.341
   34MYC    H33 3335   3.973   0.764  11.301
   34MYC    C16 3336   3.764   0.882  11.168
   34MYC    H28 3337   3.857   0.929  11.134
   34MYC    H29 3338   3.741   0.928  11.265
   34MYC    C15 3339   3.651   0.919  11.070
   34MYC    H26 3340   3.632   1.027  11.077
   34MYC    H27 3341   3.558   0.869  11.103
   34MYC    C14 3342   3.681   0.882  10.923
   34MYC    H24 3343   3.707   0.776  10.919
   34MYC    H25 3344   3.768   0.939  10.888
   34MYC    C13 3345   3.561   0.907  10.830
   34MYC    H22 3346   3.537   1.014  10.830
   34MYC    H23 3347   3.473   0.855  10.872
   34MYC    C12 3348   3.582   0.860  10.685
   34MYC    H20 3349   3.619   0.757  10.686
   34MYC    H21 3350   3.660   0.922  10.637
   34MYC    C11 3351   3.451   0.866  10.604
   34MYC    H18 3352   3.412   0.968  10.608
   34MYC    H19 3353   3.378   0.802  10.654
   34MYC    C10 3354   3.456   0.822  10.456
   34MYC    H16 3355   3.355   0.833  10.416
   34MYC    H17 3356   3.480   0.716  10.451
   34MYC     C9 3357   3.554   0.902  10.367
   34MYC    H14 3358   3.656   0.862  10.381
   34MYC    H15 3359   3.556   1.007  10.399
   34MYC     C8 3360   3.515   0.896  10.218
   34MYC    H12 3361   3.418   0.946  10.206
   34MYC    H13 3362   3.500   0.792  10.188
   34MYC     C7 3363   3.618   0.962  10.124
   34MYC    H10 3364   3.708   0.900  10.119
   34MYC    H11 3365   3.647   1.059  10.167
   34MYC     C6 3366   3.562   0.986   9.982
   34MYC     H8 3367   3.469   1.043   9.991
   34MYC     H9 3368   3.536   0.889   9.937
   34MYC     C5 3369   3.660   1.062   9.890
   34MYC     H6 3370   3.735   0.993   9.850
   34MYC     H7 3371   3.714   1.136   9.950
   34MYC     C4 3372   3.590   1.139   9.775
   34MYC     H4 3373   3.658   1.219   9.742
   34MYC     H5 3374   3.503   1.191   9.816
   34MYC     C2 3375   3.550   1.058   9.649
   34MYC     H2 3376   3.643   1.022   9.602
   34MYC     O3 3377   3.471   0.944   9.685
   34MYC     H3 3378   3.525   0.887   9.742
   34MYC     C1 3379   3.474   1.146   9.545
   34MYC     H1 3380   3.542   1.228   9.519
   34MYC    C81 3381   3.346   1.209   9.604
   34MYC    O82 3382   3.247   1.146   9.637
   34MYC    O83 3383   3.349   1.344   9.612
   34MYC   H105 3384   3.263   1.369   9.650
   34MYC    C20 3385   3.440   1.073   9.413
   34MYC    H34 3386   3.378   0.985   9.434
   34MYC    H35 3387   3.377   1.141   9.353
   34MYC    C21 3388   3.561   1.032   9.326
   34MYC    H36 3389   3.628   1.118   9.312
   34MYC    H37 3390   3.618   0.953   9.377
   34MYC    C22 3391   3.514   0.981   9.188
   34MYC    H38 3392   3.452   0.893   9.203
   34MYC    H39 3393   3.451   1.058   9.143
   34MYC    C23 3394   3.628   0.947   9.090
   34MYC    H40 3395   3.692   1.035   9.077
   34MYC    H41 3396   3.689   0.866   9.131
   34MYC    C24 3397   3.570   0.905   8.953
   34MYC    H42 3398   3.513   0.811   8.965
   34MYC    H43 3399   3.498   0.981   8.921
   34MYC    C25 3400   3.675   0.887   8.843
   34MYC    H44 3401   3.733   0.980   8.834
   34MYC    H45 3402   3.745   0.807   8.869
   34MYC    C26 3403   3.609   0.857   8.707
   34MYC    H46 3404   3.556   0.761   8.712
   34MYC    H47 3405   3.533   0.934   8.687
   34MYC    C27 3406   3.707   0.855   8.589
   34MYC    H48 3407   3.769   0.946   8.592
   34MYC    H49 3408   3.775   0.769   8.598
   34MYC    C28 3409   3.634   0.850   8.453
   34MYC    H50 3410   3.569   0.761   8.450
   34MYC    H51 3411   3.567   0.938   8.447
   34MYC    C29 3412   3.728   0.849   8.331
   34MYC    H52 3413   3.806   0.924   8.345
   34MYC    H53 3414   3.777   0.751   8.325
   34MYC    C30 3415   3.652   0.879   8.201
   34MYC    H54 3416   3.564   0.814   8.194
   34MYC    H55 3417   3.615   0.982   8.203
   34MYC    C31 3418   3.738   0.859   8.075
   34MYC    H56 3419   3.835   0.909   8.088
   34MYC    H57 3420   3.759   0.752   8.064
   34MYC    C32 3421   3.671   0.913   7.947
   34MYC    H58 3422   3.563   0.889   7.949
   34MYC    H59 3423   3.679   1.022   7.947
   34MYC    C33 3424   3.732   0.855   7.818
   34MYC    H60 3425   3.841   0.846   7.830
   34MYC    H61 3426   3.692   0.754   7.803
   34MYC    C34 3427   3.703   0.941   7.694
   34MYC    H62 3428   3.595   0.961   7.687
   34MYC    H63 3429   3.752   1.038   7.707
   34MYC    C35 3430   3.751   0.877   7.562
   34MYC    H64 3431   3.851   0.835   7.576
   34MYC    H65 3432   3.684   0.794   7.537
   34MYC    C36 3433   3.754   0.979   7.447
   34MYC    H66 3434   3.657   1.030   7.442
   34MYC    H67 3435   3.829   1.056   7.470
   34MYC    C37 3436   3.785   0.918   7.309
   34MYC    H68 3437   3.881   0.865   7.312
   34MYC    H69 3438   3.708   0.844   7.285
   34MYC    C38 3439   3.788   1.027   7.200
   34MYC    H70 3440   3.699   1.090   7.212
   34MYC    H71 3441   3.875   1.091   7.216
   34MYC    C39 3442   3.790   0.973   7.055
   34MYC    H72 3443   3.889   0.933   7.032
   34MYC    H73 3444   3.718   0.890   7.046
   34MYC    C40 3445   3.753   1.083   6.954
   34MYC    H74 3446   3.656   1.126   6.983
   34MYC    H75 3447   3.826   1.165   6.961
   34MYC    C41 3448   3.743   1.035   6.808
   34MYC    H76 3449   3.843   1.007   6.773
   34MYC    H77 3450   3.680   0.945   6.803
   34MYC    C42 3451   3.684   1.143   6.715
   34MYC    H78 3452   3.584   1.170   6.750
   34MYC    H79 3453   3.745   1.234   6.721
   34MYC    C43 3454   3.675   1.099   6.568
   34MYC    H80 3455   3.629   1.178   6.507
   34MYC    H81 3456   3.614   1.009   6.559
   34MYC    H82 3457   3.774   1.079   6.528
   35MYC   HH15 3458   4.038   0.854   6.555
   35MYC    C80 3459   4.104   0.881   6.639
   35MYC   H100 3460   4.208   0.881   6.603
   35MYC   H101 3461   4.078   0.983   6.671
   35MYC    C79 3462   4.086   0.782   6.756
   35MYC   H102 3463   4.112   0.681   6.722
   35MYC   H103 3464   3.980   0.781   6.784
   35MYC    C78 3465   4.169   0.820   6.880
   35MYC   HH14 3466   4.148   0.924   6.905
   35MYC   H104 3467   4.276   0.814   6.855
   35MYC    C77 3468   4.140   0.731   7.002
   35MYC   H106 3469   4.179   0.630   6.985
   35MYC   H107 3470   4.032   0.721   7.015
   35MYC    C76 3471   4.199   0.789   7.132
   35MYC   H108 3472   4.164   0.892   7.143
   35MYC   H109 3473   4.309   0.793   7.124
   35MYC    C75 3474   4.160   0.710   7.258
   35MYC   H110 3475   4.202   0.609   7.253
   35MYC   H111 3476   4.051   0.698   7.261
   35MYC    C74 3477   4.207   0.779   7.388
   35MYC   H112 3478   4.170   0.882   7.389
   35MYC   H113 3479   4.316   0.784   7.389
   35MYC    C73 3480   4.157   0.708   7.516
   35MYC   HH13 3481   4.191   0.604   7.515
   35MYC   H114 3482   4.047   0.707   7.515
   35MYC    C72 3483   4.207   0.777   7.645
   35MYC   H115 3484   4.181   0.883   7.641
   35MYC   H116 3485   4.316   0.770   7.649
   35MYC    C71 3486   4.146   0.715   7.772
   35MYC   H117 3487   4.169   0.607   7.775
   35MYC   H118 3488   4.037   0.724   7.768
   35MYC    C70 3489   4.198   0.781   7.902
   35MYC   H119 3490   4.178   0.889   7.898
   35MYC   H120 3491   4.306   0.768   7.908
   35MYC    C69 3492   4.132   0.721   8.028
   35MYC   H121 3493   4.152   0.613   8.031
   35MYC   H122 3494   4.023   0.733   8.021
   35MYC    C68 3495   4.181   0.785   8.159
   35MYC   HH12 3496   4.154   0.892   8.160
   35MYC   H123 3497   4.291   0.781   8.162
   35MYC    C67 3498   4.124   0.715   8.283
   35MYC   H124 3499   4.157   0.611   8.284
   35MYC   H125 3500   4.014   0.714   8.277
   35MYC    C66 3501   4.165   0.782   8.416
   35MYC   H126 3502   4.118   0.880   8.424
   35MYC   H127 3503   4.274   0.798   8.416
   35MYC    C65 3504   4.128   0.696   8.539
   35MYC   H128 3505   4.185   0.602   8.535
   35MYC   H129 3506   4.022   0.670   8.535
   35MYC    C64 3507   4.157   0.767   8.673
   35MYC   H130 3508   4.085   0.850   8.686
   35MYC   H131 3509   4.257   0.812   8.670
   35MYC    C63 3510   4.148   0.673   8.795
   35MYC   HH11 3511   4.227   0.597   8.786
   35MYC   H132 3512   4.052   0.620   8.794
   35MYC    C62 3513   4.164   0.747   8.929
   35MYC   H133 3514   4.077   0.812   8.944
   35MYC   H134 3515   4.252   0.811   8.925
   35MYC    C61 3516   4.178   0.652   9.050
   35MYC   H135 3517   4.268   0.591   9.037
   35MYC   H136 3518   4.093   0.583   9.052
   35MYC    C60 3519   4.184   0.728   9.182
   35MYC   H137 3520   4.091   0.779   9.205
   35MYC    C58 3521   4.264   0.676   9.300
   35MYC   H138 3522   4.322   0.586   9.285
   35MYC    C59 3523   4.311   0.798   9.224
   35MYC   H139 3524   4.301   0.895   9.273
   35MYC   H140 3525   4.399   0.788   9.161
   35MYC    C57 3526   4.211   0.690   9.442
   35MYC   HH10 3527   4.151   0.781   9.450
   35MYC   H141 3528   4.295   0.700   9.511
   35MYC    C56 3529   4.124   0.569   9.484
   35MYC   H142 3530   4.187   0.480   9.492
   35MYC   H143 3531   4.050   0.549   9.406
   35MYC    C55 3532   4.049   0.591   9.618
   35MYC   H144 3533   3.985   0.504   9.636
   35MYC   H145 3534   3.981   0.677   9.607
   35MYC    C54 3535   4.140   0.612   9.740
   35MYC   H146 3536   4.198   0.704   9.727
   35MYC   H147 3537   4.213   0.530   9.746
   35MYC    C53 3538   4.062   0.621   9.873
   35MYC   H148 3539   4.002   0.530   9.886
   35MYC   H149 3540   3.992   0.706   9.867
   35MYC    C52 3541   4.154   0.639   9.995
   35MYC    H99 3542   4.221   0.724   9.977
   35MYC   H150 3543   4.217   0.550  10.006
   35MYC    C51 3544   4.076   0.664  10.127
   35MYC    H97 3545   4.009   0.579  10.146
   35MYC    H98 3546   4.014   0.753  10.115
   35MYC    C50 3547   4.170   0.682  10.248
   35MYC    H95 3548   4.246   0.757  10.224
   35MYC    H96 3549   4.224   0.588  10.267
   35MYC    C49 3550   4.096   0.725  10.377
   35MYC    H93 3551   4.017   0.653  10.400
   35MYC    H94 3552   4.048   0.822  10.359
   35MYC    C48 3553   4.191   0.737  10.498
   35MYC    H91 3554   4.278   0.799  10.470
   35MYC    H92 3555   4.230   0.638  10.523
   35MYC    C47 3556   4.125   0.799  10.623
   35MYC    H89 3557   4.034   0.744  10.648
   35MYC    H90 3558   4.095   0.902  10.600
   35MYC    C46 3559   4.220   0.799  10.745
   35MYC    H87 3560   4.317   0.841  10.715
   35MYC    H88 3561   4.238   0.696  10.775
   35MYC    C45 3562   4.166   0.880  10.866
   35MYC    H85 3563   4.068   0.841  10.896
   35MYC    H86 3564   4.151   0.984  10.835
   35MYC    C44 3565   4.262   0.879  10.987
   35MYC    H83 3566   4.235   0.961  11.054
   35MYC    H84 3567   4.364   0.902  10.951
   35MYC    C18 3568   4.264   0.748  11.065
   35MYC    H31 3569   4.222   0.664  11.011
   35MYC    C17 3570   4.381   0.719  11.157
   35MYC    H30 3571   4.454   0.799  11.170
   35MYC    C19 3572   4.245   0.745  11.215
   35MYC    H32 3573   4.229   0.839  11.268
   35MYC    H33 3574   4.192   0.660  11.258
   35MYC    C16 3575   4.446   0.581  11.161
   35MYC    H28 3576   4.371   0.502  11.149
   35MYC    H29 3577   4.491   0.566  11.260
   35MYC    C15 3578   4.554   0.563  11.053
   35MYC    H26 3579   4.622   0.483  11.085
   35MYC    H27 3580   4.615   0.654  11.048
   35MYC    C14 3581   4.499   0.526  10.913
   35MYC    H24 3582   4.404   0.577  10.894
   35MYC    H25 3583   4.479   0.419  10.910
   35MYC    C13 3584   4.596   0.564  10.800
   35MYC    H22 3585   4.699   0.550  10.833
   35MYC    H23 3586   4.586   0.672  10.779
   35MYC    C12 3587   4.576   0.484  10.670
   35MYC    H20 3588   4.474   0.498  10.632
   35MYC    H21 3589   4.587   0.377  10.693
   35MYC    C11 3590   4.679   0.521  10.561
   35MYC    H18 3591   4.688   0.438  10.490
   35MYC    H19 3592   4.778   0.531  10.608
   35MYC    C10 3593   4.646   0.653  10.486
   35MYC    H16 3594   4.740   0.699  10.452
   35MYC    H17 3595   4.602   0.725  10.555
   35MYC     C9 3596   4.553   0.636  10.363
   35MYC    H14 3597   4.519   0.735  10.331
   35MYC    H15 3598   4.464   0.579  10.392
   35MYC     C8 3599   4.624   0.567  10.245
   35MYC    H12 3600   4.653   0.465  10.273
   35MYC    H13 3601   4.718   0.621  10.225
   35MYC     C7 3602   4.543   0.559  10.115
   35MYC    H10 3603   4.502   0.658  10.090
   35MYC    H11 3604   4.458   0.490  10.128
   35MYC     C6 3605   4.632   0.511   9.999
   35MYC     H8 3606   4.682   0.418  10.029
   35MYC     H9 3607   4.712   0.585   9.984
   35MYC     C5 3608   4.560   0.486   9.865
   35MYC     H6 3609   4.490   0.568   9.844
   35MYC     H7 3610   4.501   0.395   9.874
   35MYC     C4 3611   4.661   0.471   9.748
   35MYC     H4 3612   4.624   0.394   9.679
   35MYC     H5 3613   4.756   0.432   9.788
   35MYC     C2 3614   4.688   0.600   9.665
   35MYC     H2 3615   4.604   0.610   9.596
   35MYC     O3 3616   4.691   0.716   9.749
   35MYC     H3 3617   4.779   0.721   9.790
   35MYC     C1 3618   4.819   0.590   9.582
   35MYC     H1 3619   4.822   0.489   9.539
   35MYC    C81 3620   4.947   0.605   9.667
   35MYC    O82 3621   4.977   0.705   9.730
   35MYC    O83 3622   5.034   0.503   9.654
   35MYC   H105 3623   5.110   0.526   9.711
   35MYC    C20 3624   4.823   0.688   9.461
   35MYC    H34 3625   4.792   0.788   9.492
   35MYC    H35 3626   4.927   0.696   9.427
   35MYC    C21 3627   4.737   0.639   9.343
   35MYC    H36 3628   4.763   0.534   9.322
   35MYC    H37 3629   4.631   0.641   9.369
   35MYC    C22 3630   4.760   0.721   9.215
   35MYC    H38 3631   4.718   0.821   9.227
   35MYC    H39 3632   4.868   0.733   9.198
   35MYC    C23 3633   4.698   0.654   9.091
   35MYC    H40 3634   4.731   0.549   9.085
   35MYC    H41 3635   4.588   0.651   9.100
   35MYC    C24 3636   4.737   0.724   8.960
   35MYC    H42 3637   4.702   0.828   8.963
   35MYC    H43 3638   4.847   0.728   8.954
   35MYC    C25 3639   4.682   0.654   8.835
   35MYC    H44 3640   4.711   0.549   8.836
   35MYC    H45 3641   4.573   0.658   8.835
   35MYC    C26 3642   4.736   0.719   8.706
   35MYC    H46 3643   4.711   0.826   8.706
   35MYC    H47 3644   4.845   0.711   8.704
   35MYC    C27 3645   4.679   0.655   8.578
   35MYC    H48 3646   4.698   0.547   8.579
   35MYC    H49 3647   4.570   0.669   8.576
   35MYC    C28 3648   4.741   0.715   8.451
   35MYC    H50 3649   4.733   0.825   8.455
   35MYC    H51 3650   4.848   0.691   8.448
   35MYC    C29 3651   4.673   0.666   8.322
   35MYC    H52 3652   4.676   0.556   8.319
   35MYC    H53 3653   4.568   0.696   8.323
   35MYC    C30 3654   4.740   0.722   8.195
   35MYC    H54 3655   4.747   0.831   8.202
   35MYC    H55 3656   4.843   0.683   8.188
   35MYC    C31 3657   4.662   0.685   8.067
   35MYC    H56 3658   4.649   0.576   8.063
   35MYC    H57 3659   4.562   0.730   8.072
   35MYC    C32 3660   4.733   0.732   7.939
   35MYC    H58 3661   4.751   0.840   7.944
   35MYC    H59 3662   4.830   0.683   7.931
   35MYC    C33 3663   4.649   0.701   7.813
   35MYC    H60 3664   4.624   0.594   7.813
   35MYC    H61 3665   4.555   0.757   7.818
   35MYC    C34 3666   4.722   0.735   7.682
   35MYC    H62 3667   4.749   0.842   7.681
   35MYC    H63 3668   4.816   0.679   7.677
   35MYC    C35 3669   4.636   0.703   7.558
   35MYC    H64 3670   4.602   0.599   7.565
   35MYC    H65 3671   4.547   0.767   7.558
   35MYC    C36 3672   4.712   0.720   7.425
   35MYC    H66 3673   4.744   0.825   7.414
   35MYC    H67 3674   4.803   0.659   7.427
   35MYC    C37 3675   4.626   0.680   7.304
   35MYC    H68 3676   4.586   0.579   7.320
   35MYC    H69 3677   4.540   0.747   7.296
   35MYC    C38 3678   4.704   0.682   7.171
   35MYC    H70 3679   4.741   0.784   7.152
   35MYC    H71 3680   4.791   0.617   7.179
   35MYC    C39 3681   4.617   0.637   7.051
   35MYC    H72 3682   4.575   0.538   7.072
   35MYC    H73 3683   4.533   0.707   7.040
   35MYC    C40 3684   4.696   0.631   6.919
   35MYC    H74 3685   4.745   0.728   6.901
   35MYC    H75 3686   4.776   0.557   6.928
   35MYC    C41 3687   4.607   0.597   6.798
   35MYC    H76 3688   4.556   0.501   6.816
   35MYC    H77 3689   4.529   0.673   6.788
   35MYC    C42 3690   4.686   0.587   6.666
   35MYC    H78 3691   4.745   0.678   6.652
   35MYC    H79 3692   4.757   0.504   6.671
   35MYC    C43 3693   4.595   0.568   6.543
   35MYC    H80 3694   4.655   0.559   6.452
   35MYC    H81 3695   4.528   0.654   6.531
   35MYC    H82 3696   4.534   0.478   6.553
   36MYC   HH15 3697   5.118   0.306   6.550
   36MYC    C80 3698   5.161   0.369   6.628
   36MYC   H100 3699   5.271   0.362   6.622
   36MYC   H101 3700   5.132   0.473   6.609
   36MYC    C79 3701   5.112   0.324   6.766
   36MYC   H102 3702   5.138   0.218   6.780
   36MYC   H103 3703   5.002   0.329   6.768
   36MYC    C78 3704   5.170   0.407   6.883
   36MYC   HH14 3705   5.145   0.513   6.868
   36MYC   H104 3706   5.279   0.398   6.882
   36MYC    C77 3707   5.117   0.361   7.020
   36MYC   H106 3708   5.137   0.254   7.031
   36MYC   H107 3709   5.008   0.374   7.022
   36MYC    C76 3710   5.179   0.437   7.138
   36MYC   H108 3711   5.156   0.544   7.130
   36MYC   H109 3712   5.288   0.426   7.135
   36MYC    C75 3713   5.127   0.384   7.273
   36MYC   H110 3714   5.140   0.275   7.275
   36MYC   H111 3715   5.019   0.403   7.280
   36MYC    C74 3716   5.196   0.444   7.396
   36MYC   H112 3717   5.179   0.553   7.399
   36MYC   H113 3718   5.305   0.428   7.389
   36MYC    C73 3719   5.144   0.380   7.526
   36MYC   HH13 3720   5.155   0.271   7.518
   36MYC   H114 3721   5.036   0.400   7.534
   36MYC    C72 3722   5.214   0.428   7.655
   36MYC   H115 3723   5.199   0.536   7.667
   36MYC   H116 3724   5.322   0.410   7.647
   36MYC    C71 3725   5.158   0.353   7.778
   36MYC   H117 3726   5.176   0.246   7.765
   36MYC   H118 3727   5.049   0.367   7.781
   36MYC    C70 3728   5.218   0.399   7.912
   36MYC   H119 3729   5.197   0.506   7.926
   36MYC   H120 3730   5.327   0.387   7.910
   36MYC    C69 3731   5.159   0.319   8.030
   36MYC   H121 3732   5.189   0.214   8.021
   36MYC   H122 3733   5.050   0.322   8.025
   36MYC    C68 3734   5.203   0.373   8.167
   36MYC   HH12 3735   5.165   0.476   8.179
   36MYC   H123 3736   5.313   0.379   8.172
   36MYC    C67 3737   5.151   0.287   8.284
   36MYC   H124 3738   5.194   0.186   8.277
   36MYC   H125 3739   5.042   0.275   8.275
   36MYC    C66 3740   5.183   0.347   8.422
   36MYC   H126 3741   5.132   0.444   8.432
   36MYC   H127 3742   5.291   0.367   8.430
   36MYC    C65 3743   5.140   0.255   8.538
   36MYC   H128 3744   5.196   0.161   8.533
   36MYC   H129 3745   5.034   0.230   8.527
   36MYC    C64 3746   5.161   0.319   8.677
   36MYC   H130 3747   5.101   0.410   8.684
   36MYC   H131 3748   5.266   0.349   8.688
   36MYC    C63 3749   5.123   0.224   8.792
   36MYC   HH11 3750   5.189   0.136   8.790
   36MYC   H132 3751   5.021   0.187   8.776
   36MYC    C62 3752   5.130   0.290   8.932
   36MYC   H133 3753   5.063   0.376   8.934
   36MYC   H134 3754   5.232   0.328   8.949
   36MYC    C61 3755   5.092   0.193   9.046
   36MYC   H135 3756   5.164   0.110   9.047
   36MYC   H136 3757   4.994   0.149   9.025
   36MYC    C60 3758   5.088   0.260   9.182
   36MYC   H137 3759   5.011   0.337   9.188
   36MYC    C58 3760   5.117   0.182   9.309
   36MYC   H138 3761   5.151   0.079   9.298
   36MYC    C59 3762   5.214   0.287   9.260
   36MYC   H139 3763   5.221   0.379   9.317
   36MYC   H140 3764   5.309   0.253   9.217
   36MYC    C57 3765   5.038   0.205   9.437
   36MYC   HH10 3766   4.968   0.289   9.424
   36MYC   H141 3767   5.108   0.235   9.516
   36MYC    C56 3768   4.960   0.080   9.484
   36MYC   H142 3769   5.031   6.448   9.500
   36MYC   H143 3770   4.892   0.047   9.404
   36MYC    C55 3771   4.877   0.098   9.614
   36MYC   H144 3772   4.834   0.001   9.641
   36MYC   H145 3773   4.792   0.165   9.594
   36MYC    C54 3774   4.958   0.153   9.733
   36MYC   H146 3775   4.977   0.259   9.717
   36MYC   H147 3776   5.056   0.103   9.737
   36MYC    C53 3777   4.889   0.136   9.871
   36MYC   H148 3778   4.889   0.030   9.897
   36MYC   H149 3779   4.784   0.168   9.864
   36MYC    C52 3780   4.959   0.217   9.983
   36MYC    H99 3781   4.924   0.321   9.979
   36MYC   H150 3782   5.067   0.220   9.964
   36MYC    C51 3783   4.937   0.159  10.124
   36MYC    H97 3784   4.988   0.062  10.130
   36MYC    H98 3785   4.830   0.140  10.139
   36MYC    C50 3786   4.988   0.251  10.238
   36MYC    H95 3787   4.918   0.335  10.249
   36MYC    H96 3788   5.085   0.293  10.210
   36MYC    C49 3789   5.002   0.177  10.373
   36MYC    H93 3790   5.084   0.106  10.364
   36MYC    H94 3791   4.911   0.119  10.392
   36MYC    C48 3792   5.027   0.271  10.493
   36MYC    H91 3793   4.935   0.327  10.513
   36MYC    H92 3794   5.104   0.345  10.466
   36MYC    C47 3795   5.072   0.196  10.621
   36MYC    H89 3796   5.173   0.158  10.604
   36MYC    H90 3797   5.008   0.109  10.637
   36MYC    C46 3798   5.073   0.284  10.748
   36MYC    H87 3799   5.109   0.385  10.723
   36MYC    H88 3800   5.145   0.242  10.819
   36MYC    C45 3801   4.934   0.293  10.818
   36MYC    H85 3802   4.910   0.196  10.862
   36MYC    H86 3803   4.858   0.312  10.742
   36MYC    C44 3804   4.923   0.403  10.926
   36MYC    H83 3805   4.818   0.408  10.956
   36MYC    H84 3806   4.946   0.500  10.881
   36MYC    C18 3807   5.008   0.384  11.051
   36MYC    H31 3808   5.099   0.327  11.033
   36MYC    C17 3809   5.019   0.494  11.155
   36MYC    H30 3810   4.961   0.584  11.139
   36MYC    C19 3811   4.940   0.369  11.185
   36MYC    H32 3812   4.833   0.383  11.192
   36MYC    H33 3813   4.982   0.297  11.255
   36MYC    C16 3814   5.148   0.520  11.232
   36MYC    H28 3815   5.204   0.427  11.242
   36MYC    H29 3816   5.123   0.551  11.334
   36MYC    C15 3817   5.241   0.625  11.168
   36MYC    H26 3818   5.335   0.625  11.224
   36MYC    H27 3819   5.197   0.725  11.181
   36MYC    C14 3820   5.269   0.602  11.018
   36MYC    H24 3821   5.182   0.634  10.960
   36MYC    H25 3822   5.283   0.495  10.999
   36MYC    C13 3823   5.395   0.676  10.970
   36MYC    H22 3824   5.482   0.630  11.018
   36MYC    H23 3825   5.392   0.781  11.004
   36MYC    C12 3826   5.411   0.673  10.817
   36MYC    H20 3827   5.346   0.750  10.773
   36MYC    H21 3828   5.377   0.576  10.779
   36MYC    C11 3829   5.557   0.695  10.773
   36MYC    H18 3830   5.615   0.607  10.803
   36MYC    H19 3831   5.600   0.780  10.828
   36MYC    C10 3832   5.576   0.721  10.622
   36MYC    H16 3833   5.683   0.716  10.599
   36MYC    H17 3834   5.543   0.823  10.599
   36MYC     C9 3835   5.500   0.623  10.530
   36MYC    H14 3836   5.392   0.633  10.546
   36MYC    H15 3837   5.527   0.519  10.554
   36MYC     C8 3838   5.530   0.650  10.381
   36MYC    H12 3839   5.635   0.625  10.361
   36MYC    H13 3840   5.518   0.757  10.361
   36MYC     C7 3841   5.440   0.571  10.284
   36MYC    H10 3842   5.335   0.600  10.300
   36MYC    H11 3843   5.447   0.464  10.305
   36MYC     C6 3844   5.479   0.600  10.139
   36MYC     H8 3845   5.585   0.575  10.125
   36MYC     H9 3846   5.469   0.708  10.121
   36MYC     C5 3847   5.396   0.525  10.032
   36MYC     H6 3848   5.290   0.548  10.046
   36MYC     H7 3849   5.406   0.417  10.047
   36MYC     C4 3850   5.444   0.564   9.890
   36MYC     H4 3851   5.488   0.475   9.843
   36MYC     H5 3852   5.525   0.637   9.897
   36MYC     C2 3853   5.336   0.620   9.793
   36MYC     H2 3854   5.275   0.535   9.762
   36MYC     O3 3855   5.253   0.715   9.861
   36MYC     H3 3856   5.192   0.754   9.796
   36MYC     C1 3857   5.400   0.685   9.666
   36MYC     H1 3858   5.486   0.621   9.642
   36MYC    C81 3859   5.456   0.827   9.695
   36MYC    O82 3860   5.388   0.928   9.699
   36MYC    O83 3861   5.589   0.830   9.718
   36MYC   H105 3862   5.611   0.924   9.730
   36MYC    C20 3863   5.305   0.684   9.544
   36MYC    H34 3864   5.271   0.581   9.528
   36MYC    H35 3865   5.217   0.745   9.565
   36MYC    C21 3866   5.373   0.733   9.415
   36MYC    H36 3867   5.394   0.841   9.423
   36MYC    H37 3868   5.470   0.683   9.403
   36MYC    C22 3869   5.289   0.708   9.289
   36MYC    H38 3870   5.266   0.601   9.282
   36MYC    H39 3871   5.193   0.760   9.297
   36MYC    C23 3872   5.361   0.751   9.161
   36MYC    H40 3873   5.379   0.859   9.165
   36MYC    H41 3874   5.460   0.703   9.157
   36MYC    C24 3875   5.284   0.717   9.032
   36MYC    H42 3876   5.267   0.608   9.028
   36MYC    H43 3877   5.185   0.765   9.035
   36MYC    C25 3878   5.360   0.761   8.906
   36MYC    H44 3879   5.375   0.870   8.910
   36MYC    H45 3880   5.459   0.715   8.906
   36MYC    C26 3881   5.287   0.725   8.775
   36MYC    H46 3882   5.275   0.616   8.769
   36MYC    H47 3883   5.187   0.770   8.775
   36MYC    C27 3884   5.366   0.775   8.652
   36MYC    H48 3885   5.380   0.883   8.660
   36MYC    H49 3886   5.466   0.729   8.652
   36MYC    C28 3887   5.296   0.744   8.519
   36MYC    H50 3888   5.277   0.636   8.512
   36MYC    H51 3889   5.199   0.795   8.515
   36MYC    C29 3890   5.382   0.787   8.398
   36MYC    H52 3891   5.413   0.891   8.411
   36MYC    H53 3892   5.473   0.726   8.395
   36MYC    C30 3893   5.307   0.774   8.264
   36MYC    H54 3894   5.258   0.677   8.258
   36MYC    H55 3895   5.228   0.850   8.259
   36MYC    C31 3896   5.401   0.790   8.143
   36MYC    H56 3897   5.466   0.877   8.157
   36MYC    H57 3898   5.467   0.702   8.138
   36MYC    C32 3899   5.326   0.806   8.009
   36MYC    H58 3900   5.245   0.731   8.004
   36MYC    H59 3901   5.278   0.905   8.007
   36MYC    C33 3902   5.418   0.789   7.888
   36MYC    H60 3903   5.505   0.855   7.899
   36MYC    H61 3904   5.456   0.686   7.886
   36MYC    C34 3905   5.349   0.820   7.754
   36MYC    H62 3906   5.255   0.763   7.747
   36MYC    H63 3907   5.322   0.927   7.751
   36MYC    C35 3908   5.438   0.786   7.633
   36MYC    H64 3909   5.532   0.842   7.641
   36MYC    H65 3910   5.463   0.680   7.637
   36MYC    C36 3911   5.372   0.817   7.497
   36MYC    H66 3912   5.276   0.764   7.490
   36MYC    H67 3913   5.349   0.924   7.491
   36MYC    C37 3914   5.462   0.776   7.379
   36MYC    H68 3915   5.553   0.837   7.381
   36MYC    H69 3916   5.492   0.672   7.392
   36MYC    C38 3917   5.394   0.791   7.241
   36MYC    H70 3918   5.306   0.726   7.238
   36MYC    H71 3919   5.360   0.894   7.227
   36MYC    C39 3920   5.490   0.753   7.126
   36MYC    H72 3921   5.568   0.830   7.118
   36MYC    H73 3922   5.541   0.659   7.151
   36MYC    C40 3923   5.420   0.737   6.989
   36MYC    H74 3924   5.347   0.656   6.996
   36MYC    H75 3925   5.365   0.828   6.965
   36MYC    C41 3926   5.520   0.705   6.876
   36MYC    H76 3927   5.582   0.794   6.858
   36MYC    H77 3928   5.588   0.625   6.909
   36MYC    C42 3929   5.453   0.663   6.744
   36MYC    H78 3930   5.394   0.572   6.761
   36MYC    H79 3931   5.384   0.741   6.711
   36MYC    C43 3932   5.555   0.634   6.632
   36MYC    H80 3933   5.503   0.596   6.542
   36MYC    H81 3934   5.628   0.559   6.663
   36MYC    H82 3935   5.609   0.725   6.604
   37MYC   HH15 3936   6.014   0.370   6.613
   37MYC    C80 3937   6.101   0.436   6.628
   37MYC   H100 3938   6.173   0.417   6.547
   37MYC   H101 3939   6.067   0.540   6.620
   37MYC    C79 3940   6.166   0.410   6.765
   37MYC   H102 3941   6.254   0.475   6.775
   37MYC   H103 3942   6.202   0.306   6.768
   37MYC    C78 3943   6.071   0.433   6.884
   37MYC   HH14 3944   5.985   0.366   6.875
   37MYC   H104 3945   6.033   0.536   6.881
   37MYC    C77 3946   6.141   0.409   7.019
   37MYC   H106 3947   6.228   0.475   7.026
   37MYC   H107 3948   6.178   0.306   7.022
   37MYC    C76 3949   6.051   0.433   7.141
   37MYC   H108 3950   5.965   0.365   7.137
   37MYC   H109 3951   6.012   0.535   7.139
   37MYC    C75 3952   6.128   0.410   7.272
   37MYC   H110 3953   6.215   0.477   7.273
   37MYC   H111 3954   6.167   0.308   7.274
   37MYC    C74 3955   6.046   0.434   7.399
   37MYC   H112 3956   5.963   0.362   7.404
   37MYC   H113 3957   6.002   0.534   7.397
   37MYC    C73 3958   6.134   0.420   7.524
   37MYC   HH13 3959   6.217   0.491   7.517
   37MYC   H114 3960   6.178   0.320   7.526
   37MYC    C72 3961   6.060   0.444   7.657
   37MYC   H115 3962   5.981   0.369   7.669
   37MYC   H116 3963   6.011   0.542   7.654
   37MYC    C71 3964   6.157   0.438   7.775
   37MYC   H117 3965   6.236   0.514   7.762
   37MYC   H118 3966   6.206   0.340   7.776
   37MYC    C70 3967   6.088   0.461   7.911
   37MYC   H119 3968   6.011   0.385   7.926
   37MYC   H120 3969   6.039   0.559   7.911
   37MYC    C69 3970   6.189   0.455   8.026
   37MYC   H121 3971   6.265   0.533   8.013
   37MYC   H122 3972   6.241   0.359   8.023
   37MYC    C68 3973   6.122   0.471   8.163
   37MYC   HH12 3974   6.045   0.394   8.175
   37MYC   H123 3975   6.072   0.569   8.168
   37MYC    C67 3976   6.223   0.460   8.278
   37MYC   H124 3977   6.296   0.542   8.271
   37MYC   H125 3978   6.280   0.366   8.268
   37MYC    C66 3979   6.155   0.462   8.415
   37MYC   H126 3980   6.083   0.379   8.421
   37MYC   H127 3981   6.098   0.555   8.426
   37MYC    C65 3982   6.255   0.451   8.530
   37MYC   H128 3983   6.321   0.539   8.530
   37MYC   H129 3984   6.319   0.363   8.515
   37MYC    C64 3985   6.185   0.439   8.666
   37MYC   H130 3986   6.126   0.346   8.668
   37MYC   H131 3987   6.115   0.522   8.678
   37MYC    C63 3988   6.284   0.439   8.783
   37MYC   HH11 3989   6.337   0.535   8.785
   37MYC   H132 3990   6.360   0.361   8.767
   37MYC    C62 3991   6.214   0.415   8.917
   37MYC   H133 3992   6.178   0.311   8.921
   37MYC   H134 3993   6.126   0.480   8.923
   37MYC    C61 3994   6.305   0.442   9.037
   37MYC   H135 3995   6.335   0.548   9.035
   37MYC   H136 3996   6.397   0.383   9.027
   37MYC    C60 3997   6.238   0.408   9.168
   37MYC   H137 3998   6.241   0.302   9.190
   37MYC    C58 3999   6.244   0.504   9.284
   37MYC   H138 4000   6.291   0.601   9.267
   37MYC    C59 4001   6.113   0.481   9.213
   37MYC   H139 4002   6.038   0.423   9.265
   37MYC   H140 4003   6.075   0.561   9.151
   37MYC    C57 4004   6.267   0.453   9.425
   37MYC   HH10 4005   6.375   0.452   9.446
   37MYC   H141 4006   6.234   0.349   9.431
   37MYC    C56 4007   6.194   0.536   9.531
   37MYC   H142 4008   6.088   0.547   9.503
   37MYC   H143 4009   6.237   0.637   9.536
   37MYC    C55 4010   6.202   0.469   9.669
   37MYC   H144 4011   6.307   0.452   9.695
   37MYC   H145 4012   6.154   0.371   9.663
   37MYC    C54 4013   6.134   0.549   9.781
   37MYC   H146 4014   6.030   0.570   9.753
   37MYC   H147 4015   6.186   0.644   9.794
   37MYC    C53 4016   6.137   0.471   9.914
   37MYC   H148 4017   6.241   0.451   9.942
   37MYC   H149 4018   6.088   0.374   9.900
   37MYC    C52 4019   6.067   0.546  10.029
   37MYC    H99 4020   5.962   0.564  10.002
   37MYC   H150 4021   6.115   0.643  10.043
   37MYC    C51 4022   6.074   0.466  10.160
   37MYC    H97 4023   6.179   0.451  10.187
   37MYC    H98 4024   6.030   0.366  10.144
   37MYC    C50 4025   6.000   0.535  10.276
   37MYC    H95 4026   5.894   0.543  10.252
   37MYC    H96 4027   6.039   0.636  10.289
   37MYC    C49 4028   6.018   0.456  10.407
   37MYC    H93 4029   6.125   0.451  10.432
   37MYC    H94 4030   5.984   0.353  10.392
   37MYC    C48 4031   5.941   0.517  10.526
   37MYC    H91 4032   5.834   0.514  10.505
   37MYC    H92 4033   5.970   0.622  10.539
   37MYC    C47 4034   5.971   0.440  10.657
   37MYC    H89 4035   6.077   0.453  10.683
   37MYC    H90 4036   5.955   0.333  10.640
   37MYC    C46 4037   5.884   0.485  10.776
   37MYC    H87 4038   5.779   0.468  10.749
   37MYC    H88 4039   5.897   0.592  10.793
   37MYC    C45 4040   5.917   0.407  10.904
   37MYC    H85 4041   6.023   0.424  10.930
   37MYC    H86 4042   5.908   0.300  10.882
   37MYC    C44 4043   5.827   0.439  11.025
   37MYC    H83 4044   5.824   0.349  11.088
   37MYC    H84 4045   5.724   0.456  10.992
   37MYC    C18 4046   5.876   0.555  11.112
   37MYC    H31 4047   5.984   0.555  11.126
   37MYC    C17 4048   5.806   0.689  11.120
   37MYC    H30 4049   5.718   0.703  11.059
   37MYC    C19 4050   5.794   0.590  11.233
   37MYC    H32 4051   5.697   0.542  11.246
   37MYC    H33 4052   5.847   0.610  11.326
   37MYC    C16 4053   5.881   0.820  11.149
   37MYC    H28 4054   5.989   0.803  11.152
   37MYC    H29 4055   5.854   0.855  11.250
   37MYC    C15 4056   5.848   0.933  11.050
   37MYC    H26 4057   5.888   1.027  11.089
   37MYC    H27 4058   5.739   0.945  11.045
   37MYC    C14 4059   5.904   0.909  10.909
   37MYC    H24 4060   5.877   0.808  10.874
   37MYC    H25 4061   6.014   0.914  10.913
   37MYC    C13 4062   5.852   1.012  10.808
   37MYC    H22 4063   5.873   1.112  10.846
   37MYC    H23 4064   5.743   1.001  10.800
   37MYC    C12 4065   5.914   0.996  10.668
   37MYC    H20 4066   5.890   0.897  10.628
   37MYC    H21 4067   6.023   1.003  10.677
   37MYC    C11 4068   5.864   1.106  10.571
   37MYC    H18 4069   5.879   1.203  10.618
   37MYC    H19 4070   5.756   1.095  10.554
   37MYC    C10 4071   5.938   1.105  10.436
   37MYC    H16 4072   6.046   1.096  10.454
   37MYC    H17 4073   5.923   1.203  10.388
   37MYC     C9 4074   5.894   0.995  10.337
   37MYC    H14 4075   5.789   1.011  10.311
   37MYC    H15 4076   5.901   0.896  10.385
   37MYC     C8 4077   5.981   0.996  10.210
   37MYC    H12 4078   6.081   0.958  10.234
   37MYC    H13 4079   5.995   1.100  10.179
   37MYC     C7 4080   5.922   0.917  10.092
   37MYC    H10 4081   5.822   0.955  10.070
   37MYC    H11 4082   5.911   0.811  10.118
   37MYC     C6 4083   6.011   0.931   9.966
   37MYC     H8 4084   6.104   0.874   9.979
   37MYC     H9 4085   6.039   1.036   9.957
   37MYC     C5 4086   5.942   0.889   9.835
   37MYC     H6 4087   5.846   0.942   9.828
   37MYC     H7 4088   5.917   0.782   9.839
   37MYC     C4 4089   6.030   0.918   9.710
   37MYC     H4 4090   6.099   0.834   9.697
   37MYC     H5 4091   6.093   1.005   9.729
   37MYC     C2 4092   5.955   0.942   9.576
   37MYC     H2 4093   6.030   0.923   9.498
   37MYC     O3 4094   5.850   0.847   9.560
   37MYC     H3 4095   5.872   0.769   9.612
   37MYC     C1 4096   5.904   1.089   9.554
   37MYC     H1 4097   5.995   1.150   9.553
   37MYC    C81 4098   5.816   1.143   9.668
   37MYC    O82 4099   5.700   1.112   9.687
   37MYC    O83 4100   5.879   1.233   9.747
   37MYC   H105 4101   5.813   1.261   9.813
   37MYC    C20 4102   5.834   1.112   9.417
   37MYC    H34 4103   5.746   1.046   9.410
   37MYC    H35 4104   5.797   1.215   9.413
   37MYC    C21 4105   5.926   1.089   9.295
   37MYC    H36 4106   6.013   1.156   9.301
   37MYC    H37 4107   5.964   0.986   9.297
   37MYC    C22 4108   5.854   1.111   9.161
   37MYC    H38 4109   5.763   1.050   9.158
   37MYC    H39 4110   5.823   1.216   9.153
   37MYC    C23 4111   5.943   1.074   9.041
   37MYC    H40 4112   6.031   1.140   9.039
   37MYC    H41 4113   5.980   0.972   9.055
   37MYC    C24 4114   5.869   1.083   8.906
   37MYC    H42 4115   5.771   1.035   8.916
   37MYC    H43 4116   5.852   1.189   8.881
   37MYC    C25 4117   5.947   1.015   8.793
   37MYC    H44 4118   6.044   1.064   8.779
   37MYC    H45 4119   5.967   0.911   8.821
   37MYC    C26 4120   5.870   1.017   8.660
   37MYC    H46 4121   5.769   0.977   8.676
   37MYC    H47 4122   5.859   1.120   8.626
   37MYC    C27 4123   5.938   0.933   8.550
   37MYC    H48 4124   6.040   0.971   8.534
   37MYC    H49 4125   5.947   0.829   8.582
   37MYC    C28 4126   5.859   0.940   8.418
   37MYC    H50 4127   5.757   0.905   8.435
   37MYC    H51 4128   5.852   1.045   8.388
   37MYC    C29 4129   5.922   0.858   8.304
   37MYC    H52 4130   6.029   0.880   8.297
   37MYC    H53 4131   5.912   0.751   8.326
   37MYC    C30 4132   5.854   0.892   8.171
   37MYC    H54 4133   5.746   0.874   8.179
   37MYC    H55 4134   5.867   0.999   8.152
   37MYC    C31 4135   5.909   0.814   8.050
   37MYC    H56 4136   6.019   0.813   8.053
   37MYC    H57 4137   5.876   0.709   8.056
   37MYC    C32 4138   5.862   0.877   7.919
   37MYC    H58 4139   5.753   0.889   7.921
   37MYC    H59 4140   5.905   0.978   7.912
   37MYC    C33 4141   5.901   0.798   7.793
   37MYC    H60 4142   6.008   0.773   7.796
   37MYC    H61 4143   5.845   0.703   7.792
   37MYC    C34 4144   5.871   0.877   7.665
   37MYC    H62 4145   5.768   0.916   7.670
   37MYC    H63 4146   5.937   0.964   7.662
   37MYC    C35 4147   5.888   0.795   7.537
   37MYC    H64 4148   5.987   0.748   7.536
   37MYC    H65 4149   5.814   0.714   7.535
   37MYC    C36 4150   5.873   0.882   7.411
   37MYC    H66 4151   5.779   0.937   7.416
   37MYC    H67 4152   5.954   0.955   7.409
   37MYC    C37 4153   5.877   0.799   7.281
   37MYC    H68 4154   5.968   0.739   7.279
   37MYC    H69 4155   5.792   0.730   7.280
   37MYC    C38 4156   5.872   0.887   7.156
   37MYC    H70 4157   5.782   0.949   7.157
   37MYC    H71 4158   5.958   0.956   7.157
   37MYC    C39 4159   5.876   0.805   7.026
   37MYC    H72 4160   5.966   0.743   7.024
   37MYC    H73 4161   5.790   0.737   7.023
   37MYC    C40 4162   5.875   0.894   6.900
   37MYC    H74 4163   5.782   0.952   6.898
   37MYC    H75 4164   5.957   0.966   6.907
   37MYC    C41 4165   5.888   0.814   6.770
   37MYC    H76 4166   5.981   0.755   6.774
   37MYC    H77 4167   5.806   0.742   6.762
   37MYC    C42 4168   5.891   0.904   6.645
   37MYC    H78 4169   5.794   0.952   6.632
   37MYC    H79 4170   5.965   0.983   6.659
   37MYC    C43 4171   5.927   0.826   6.518
   37MYC    H80 4172   5.925   0.892   6.431
   37MYC    H81 4173   5.855   0.744   6.500
   37MYC    H82 4174   6.027   0.782   6.526
   38MYC   HH15 4175   0.032   1.259   6.609
   38MYC    C80 4176   0.059   1.310   6.702
   38MYC   H100 4177   0.165   1.338   6.696
   38MYC   H101 4178  -0.001   1.402   6.710
   38MYC    C79 4179   0.034   1.218   6.823
   38MYC   H102 4180   0.096   1.128   6.812
   38MYC   H103 4181   6.380   1.184   6.823
   38MYC    C78 4182   0.066   1.286   6.958
   38MYC   HH14 4183   6.449   1.373   6.972
   38MYC   H104 4184   0.168   1.325   6.953
   38MYC    C77 4185   0.053   1.192   7.079
   38MYC   H106 4186   0.107   1.099   7.057
   38MYC   H107 4187   6.398   1.164   7.095
   38MYC    C76 4188   0.111   1.254   7.207
   38MYC   H108 4189   0.052   1.342   7.236
   38MYC   H109 4190   0.212   1.291   7.185
   38MYC    C75 4191   0.120   1.156   7.326
   38MYC   H110 4192   0.144   1.055   7.290
   38MYC   H111 4193   0.022   1.150   7.376
   38MYC    C74 4194   0.228   1.199   7.427
   38MYC   H112 4195   0.210   1.303   7.458
   38MYC   H113 4196   0.326   1.198   7.376
   38MYC    C73 4197   0.237   1.109   7.552
   38MYC   HH13 4198   0.250   1.004   7.522
   38MYC   H114 4199   0.142   1.116   7.607
   38MYC    C72 4200   0.353   1.151   7.644
   38MYC   H115 4201   0.347   1.259   7.662
   38MYC   H116 4202   0.449   1.133   7.593
   38MYC    C71 4203   0.353   1.078   7.779
   38MYC   H117 4204   0.379   0.972   7.764
   38MYC   H118 4205   0.251   1.080   7.820
   38MYC    C70 4206   0.449   1.140   7.882
   38MYC   H119 4207   0.427   1.247   7.890
   38MYC   H120 4208   0.553   1.131   7.847
   38MYC    C69 4209   0.436   1.076   8.022
   38MYC   H121 4210   0.493   0.982   8.024
   38MYC   H122 4211   0.331   1.050   8.041
   38MYC    C68 4212   0.485   1.169   8.135
   38MYC   HH12 4213   0.425   1.261   8.133
   38MYC   H123 4214   0.589   1.198   8.116
   38MYC    C67 4215   0.473   1.104   8.274
   38MYC   H124 4216   0.552   1.029   8.285
   38MYC   H125 4217   0.377   1.052   8.283
   38MYC    C66 4218   0.484   1.206   8.390
   38MYC   H126 4219   0.399   1.276   8.383
   38MYC   H127 4220   0.575   1.265   8.379
   38MYC    C65 4221   0.482   1.138   8.528
   38MYC   H128 4222   0.567   1.070   8.535
   38MYC   H129 4223   0.391   1.078   8.537
   38MYC    C64 4224   0.487   1.238   8.646
   38MYC   H130 4225   0.401   1.305   8.640
   38MYC   H131 4226   0.577   1.301   8.637
   38MYC    C63 4227   0.488   1.167   8.783
   38MYC   HH11 4228   0.575   1.101   8.789
   38MYC   H132 4229   0.399   1.104   8.791
   38MYC    C62 4230   0.492   1.266   8.902
   38MYC   H133 4231   0.406   1.334   8.895
   38MYC   H134 4232   0.582   1.328   8.894
   38MYC    C61 4233   0.490   1.196   9.039
   38MYC   H135 4234   0.577   1.130   9.047
   38MYC   H136 4235   0.401   1.132   9.046
   38MYC    C60 4236   0.490   1.296   9.154
   38MYC   H137 4237   0.399   1.357   9.156
   38MYC    C58 4238   0.553   1.264   9.288
   38MYC   H138 4239   0.607   1.170   9.297
   38MYC    C59 4240   0.617   1.365   9.197
   38MYC   H139 4241   0.611   1.470   9.224
   38MYC   H140 4242   0.709   1.336   9.147
   38MYC    C57 4243   0.483   1.303   9.418
   38MYC   HH10 4244   0.423   1.393   9.403
   38MYC   H141 4245   0.559   1.327   9.494
   38MYC    C56 4246   0.393   1.189   9.470
   38MYC   H142 4247   0.454   1.100   9.489
   38MYC   H143 4248   0.322   1.162   9.390
   38MYC    C55 4249   0.312   1.222   9.597
   38MYC   H144 4250   0.240   1.141   9.613
   38MYC   H145 4251   0.253   1.313   9.578
   38MYC    C54 4252   0.395   1.242   9.725
   38MYC   H146 4253   0.444   1.340   9.722
   38MYC   H147 4254   0.473   1.166   9.731
   38MYC    C53 4255   0.306   1.233   9.852
   38MYC   H148 4256   0.270   1.130   9.861
   38MYC   H149 4257   0.217   1.296   9.839
   38MYC    C52 4258   0.376   1.275   9.983
   38MYC    H99 4259   0.388   1.384   9.983
   38MYC   H150 4260   0.477   1.231   9.988
   38MYC    C51 4261   0.296   1.230  10.108
   38MYC    H97 4262   0.317   1.125  10.127
   38MYC    H98 4263   0.189   1.237  10.087
   38MYC    C50 4264   0.325   1.313  10.235
   38MYC    H95 4265   0.285   1.414  10.221
   38MYC    H96 4266   0.434   1.324  10.249
   38MYC    C49 4267   0.264   1.250  10.362
   38MYC    H93 4268   0.322   1.162  10.389
   38MYC    H94 4269   0.163   1.214  10.339
   38MYC    C48 4270   0.256   1.346  10.483
   38MYC    H91 4271   0.188   1.429  10.457
   38MYC    H92 4272   0.354   1.390  10.503
   38MYC    C47 4273   0.203   1.276  10.610
   38MYC    H89 4274   0.277   1.201  10.642
   38MYC    H90 4275   0.111   1.222  10.586
   38MYC    C46 4276   0.175   1.373  10.728
   38MYC    H87 4277   0.104   1.450  10.695
   38MYC    H88 4278   0.268   1.424  10.757
   38MYC    C45 4279   0.116   1.299  10.851
   38MYC    H85 4280   0.189   1.226  10.888
   38MYC    H86 4281   0.030   1.241  10.817
   38MYC    C44 4282   0.069   1.389  10.967
   38MYC    H83 4283   0.009   1.328  11.035
   38MYC    H84 4284   0.002   1.466  10.927
   38MYC    C18 4285   0.182   1.452  11.048
   38MYC    H31 4286   0.253   1.379  11.085
   38MYC    C17 4287   0.233   1.592  11.019
   38MYC    H30 4288   0.182   1.649  10.942
   38MYC    C19 4289   0.151   1.565  11.143
   38MYC    H32 4290   0.049   1.602  11.145
   38MYC    H33 4291   0.202   1.565  11.239
   38MYC    C16 4292   0.382   1.623  11.031
   38MYC    H28 4293   0.441   1.531  11.024
   38MYC    H29 4294   0.402   1.664  11.131
   38MYC    C15 4295   0.437   1.724  10.928
   38MYC    H26 4296   0.544   1.738  10.948
   38MYC    H27 4297   0.388   1.820  10.945
   38MYC    C14 4298   0.421   1.684  10.779
   38MYC    H24 4299   0.315   1.666  10.757
   38MYC    H25 4300   0.474   1.591  10.759
   38MYC    C13 4301   0.474   1.795  10.685
   38MYC    H22 4302   0.583   1.789  10.679
   38MYC    H23 4303   0.450   1.892  10.729
   38MYC    C12 4304   0.413   1.793  10.543
   38MYC    H20 4305   0.304   1.795  10.551
   38MYC    H21 4306   0.439   1.700  10.492
   38MYC    C11 4307   0.458   1.915  10.459
   38MYC    H18 4308   0.559   1.897  10.420
   38MYC    H19 4309   0.465   2.003  10.523
   38MYC    C10 4310   0.363   1.951  10.342
   38MYC    H16 4311   0.401   2.043  10.295
   38MYC    H17 4312   0.264   1.975  10.381
   38MYC     C9 4313   0.350   1.842  10.234
   38MYC    H14 4314   0.298   1.755  10.276
   38MYC    H15 4315   0.450   1.809  10.204
   38MYC     C8 4316   0.273   1.892  10.110
   38MYC    H12 4317   0.322   1.982  10.072
   38MYC    H13 4318   0.171   1.920  10.138
   38MYC     C7 4319   0.268   1.786   9.998
   38MYC    H10 4320   0.207   1.701  10.031
   38MYC    H11 4321   0.370   1.749   9.983
   38MYC     C6 4322   0.213   1.841   9.865
   38MYC     H8 4323   0.270   1.929   9.834
   38MYC     H9 4324   0.111   1.877   9.881
   38MYC     C5 4325   0.210   1.737   9.750
   38MYC     H6 4326   0.170   1.785   9.660
   38MYC     H7 4327   0.139   1.658   9.777
   38MYC     C4 4328   0.346   1.668   9.715
   38MYC     H4 4329   0.322   1.586   9.646
   38MYC     H5 4330   0.389   1.620   9.803
   38MYC     C2 4331   0.452   1.759   9.646
   38MYC     H2 4332   0.402   1.804   9.560
   38MYC     O3 4333   0.496   1.862   9.734
   38MYC     H3 4334   0.419   1.919   9.754
   38MYC     C1 4335   0.576   1.679   9.595
   38MYC     H1 4336   0.535   1.585   9.554
   38MYC    C81 4337   0.671   1.637   9.710
   38MYC    O82 4338   0.758   1.708   9.757
   38MYC    O83 4339   0.650   1.511   9.756
   38MYC   H105 4340   0.714   1.500   9.829
   38MYC    C20 4341   0.652   1.751   9.481
   38MYC    H34 4342   0.678   1.853   9.511
   38MYC    H35 4343   0.746   1.698   9.463
   38MYC    C21 4344   0.571   1.754   9.349
   38MYC    H36 4345   0.532   1.653   9.330
   38MYC    H37 4346   0.483   1.818   9.361
   38MYC    C22 4347   0.649   1.802   9.226
   38MYC    H38 4348   0.671   1.909   9.236
   38MYC    H39 4349   0.744   1.749   9.218
   38MYC    C23 4350   0.566   1.777   9.098
   38MYC    H40 4351   0.549   1.670   9.088
   38MYC    H41 4352   0.467   1.824   9.110
   38MYC    C24 4353   0.630   1.829   8.968
   38MYC    H42 4354   0.640   1.938   8.974
   38MYC    H43 4355   0.731   1.788   8.957
   38MYC    C25 4356   0.543   1.792   8.847
   38MYC    H44 4357   0.533   1.683   8.844
   38MYC    H45 4358   0.442   1.833   8.861
   38MYC    C26 4359   0.598   1.841   8.712
   38MYC    H46 4360   0.601   1.950   8.711
   38MYC    H47 4361   0.700   1.804   8.697
   38MYC    C27 4362   0.508   1.791   8.597
   38MYC    H48 4363   0.499   1.682   8.604
   38MYC    H49 4364   0.407   1.832   8.610
   38MYC    C28 4365   0.559   1.827   8.456
   38MYC    H50 4366   0.563   1.937   8.445
   38MYC    H51 4367   0.660   1.789   8.442
   38MYC    C29 4368   0.466   1.768   8.349
   38MYC    H52 4369   0.456   1.660   8.366
   38MYC    H53 4370   0.365   1.810   8.360
   38MYC    C30 4371   0.514   1.790   8.204
   38MYC    H54 4372   0.522   1.898   8.185
   38MYC    H55 4373   0.613   1.746   8.191
   38MYC    C31 4374   0.416   1.727   8.103
   38MYC    H56 4375   0.407   1.620   8.123
   38MYC    H57 4376   0.317   1.771   8.117
   38MYC    C32 4377   0.460   1.748   7.957
   38MYC    H58 4378   0.468   1.855   7.937
   38MYC    H59 4379   0.559   1.704   7.942
   38MYC    C33 4380   0.362   1.684   7.856
   38MYC    H60 4381   0.363   1.575   7.868
   38MYC    H61 4382   0.260   1.718   7.878
   38MYC    C34 4383   0.397   1.721   7.711
   38MYC    H62 4384   0.387   1.830   7.700
   38MYC    H63 4385   0.502   1.696   7.693
   38MYC    C35 4386   0.311   1.651   7.605
   38MYC    H64 4387   0.334   1.543   7.605
   38MYC    H65 4388   0.204   1.661   7.630
   38MYC    C36 4389   0.336   1.710   7.465
   38MYC    H66 4390   0.292   1.811   7.461
   38MYC    H67 4391   0.445   1.724   7.452
   38MYC    C37 4392   0.284   1.626   7.348
   38MYC    H68 4393   0.334   1.528   7.349
   38MYC    H69 4394   0.176   1.608   7.360
   38MYC    C38 4395   0.310   1.697   7.213
   38MYC    H70 4396   0.243   1.783   7.205
   38MYC    H71 4397   0.412   1.737   7.214
   38MYC    C39 4398   0.295   1.607   7.089
   38MYC    H72 4399   0.364   1.522   7.099
   38MYC    H73 4400   0.194   1.566   7.085
   38MYC    C40 4401   0.326   1.684   6.959
   38MYC    H74 4402   0.247   1.759   6.943
   38MYC    H75 4403   0.420   1.739   6.972
   38MYC    C41 4404   0.338   1.594   6.835
   38MYC    H76 4405   0.419   1.522   6.851
   38MYC    H77 4406   0.246   1.536   6.822
   38MYC    C42 4407   0.366   1.674   6.706
   38MYC    H78 4408   0.280   1.739   6.685
   38MYC    H79 4409   0.452   1.740   6.723
   38MYC    C43 4410   0.395   1.585   6.584
   38MYC    H80 4411   0.411   1.647   6.495
   38MYC    H81 4412   0.311   1.518   6.564
   38MYC    H82 4413   0.485   1.525   6.600
   39MYC   HH15 4414   1.231   1.765   6.657
   39MYC    C80 4415   1.276   1.742   6.755
   39MYC   H100 4416   1.311   1.638   6.753
   39MYC   H101 4417   1.363   1.807   6.769
   39MYC    C79 4418   1.174   1.762   6.868
   39MYC   H102 4419   1.085   1.702   6.847
   39MYC   H103 4420   1.142   1.867   6.867
   39MYC    C78 4421   1.229   1.726   7.007
   39MYC   HH14 4422   1.322   1.781   7.024
   39MYC   H104 4423   1.254   1.619   7.009
   39MYC    C77 4424   1.131   1.757   7.122
   39MYC   H106 4425   1.035   1.707   7.103
   39MYC   H107 4426   1.111   1.865   7.123
   39MYC    C76 4427   1.185   1.715   7.259
   39MYC   H108 4428   1.286   1.755   7.272
   39MYC   H109 4429   1.194   1.605   7.263
   39MYC    C75 4430   1.098   1.763   7.377
   39MYC   H110 4431   0.996   1.724   7.366
   39MYC   H111 4432   1.092   1.872   7.374
   39MYC    C74 4433   1.154   1.719   7.514
   39MYC   H112 4434   1.261   1.745   7.519
   39MYC   H113 4435   1.148   1.610   7.522
   39MYC    C73 4436   1.082   1.785   7.633
   39MYC   HH13 4437   0.975   1.759   7.630
   39MYC   H114 4438   1.089   1.894   7.624
   39MYC    C72 4439   1.140   1.742   7.769
   39MYC   H115 4440   1.249   1.759   7.769
   39MYC   H116 4441   1.125   1.634   7.783
   39MYC    C71 4442   1.077   1.818   7.888
   39MYC   H117 4443   0.969   1.802   7.887
   39MYC   H118 4444   1.094   1.925   7.874
   39MYC    C70 4445   1.135   1.775   8.024
   39MYC   H119 4446   1.243   1.791   8.025
   39MYC   H120 4447   1.119   1.667   8.038
   39MYC    C69 4448   1.071   1.851   8.141
   39MYC   H121 4449   0.962   1.836   8.139
   39MYC   H122 4450   1.089   1.959   8.128
   39MYC    C68 4451   1.125   1.808   8.279
   39MYC   HH12 4452   1.234   1.825   8.282
   39MYC   H123 4453   1.109   1.700   8.292
   39MYC    C67 4454   1.059   1.884   8.395
   39MYC   H124 4455   0.950   1.865   8.394
   39MYC   H125 4456   1.073   1.991   8.381
   39MYC    C66 4457   1.116   1.843   8.532
   39MYC   H126 4458   1.225   1.857   8.531
   39MYC   H127 4459   1.098   1.736   8.550
   39MYC    C65 4460   1.056   1.924   8.649
   39MYC   H128 4461   0.949   1.903   8.658
   39MYC   H129 4462   1.066   2.032   8.628
   39MYC    C64 4463   1.127   1.893   8.782
   39MYC   H130 4464   1.235   1.906   8.768
   39MYC   H131 4465   1.111   1.787   8.807
   39MYC    C63 4466   1.081   1.981   8.900
   39MYC   HH11 4467   0.976   1.958   8.925
   39MYC   H132 4468   1.086   2.087   8.872
   39MYC    C62 4469   1.170   1.957   9.024
   39MYC   H133 4470   1.273   1.981   8.998
   39MYC   H134 4471   1.167   1.850   9.049
   39MYC    C61 4472   1.129   2.037   9.149
   39MYC   H135 4473   1.027   2.011   9.178
   39MYC   H136 4474   1.129   2.144   9.125
   39MYC    C60 4475   1.226   2.010   9.263
   39MYC   H137 4476   1.325   2.051   9.244
   39MYC    C58 4477   1.182   2.002   9.407
   39MYC   H138 4478   1.075   2.013   9.427
   39MYC    C59 4479   1.223   1.876   9.333
   39MYC   H139 4480   1.318   1.831   9.357
   39MYC   H140 4481   1.144   1.806   9.306
   39MYC    C57 4482   1.268   2.054   9.521
   39MYC   HH10 4483   1.222   2.145   9.561
   39MYC   H141 4484   1.368   2.082   9.486
   39MYC    C56 4485   1.282   1.950   9.634
   39MYC   H142 4486   1.350   1.870   9.601
   39MYC   H143 4487   1.184   1.903   9.651
   39MYC    C55 4488   1.333   2.007   9.767
   39MYC   H144 4489   1.266   2.089   9.798
   39MYC   H145 4490   1.433   2.050   9.754
   39MYC    C54 4491   1.336   1.900   9.879
   39MYC   H146 4492   1.408   1.822   9.852
   39MYC   H147 4493   1.237   1.852   9.884
   39MYC    C53 4494   1.371   1.958  10.017
   39MYC   H148 4495   1.305   2.044  10.038
   39MYC   H149 4496   1.474   1.996  10.016
   39MYC    C52 4497   1.355   1.855  10.131
   39MYC    H99 4498   1.421   1.769  10.112
   39MYC   H150 4499   1.252   1.817  10.131
   39MYC    C51 4500   1.386   1.915  10.269
   39MYC    H97 4501   1.328   2.007  10.283
   39MYC    H98 4502   1.492   1.944  10.273
   39MYC    C50 4503   1.356   1.819  10.386
   39MYC    H95 4504   1.415   1.728  10.374
   39MYC    H96 4505   1.250   1.789  10.381
   39MYC    C49 4506   1.385   1.883  10.523
   39MYC    H93 4507   1.331   1.978  10.531
   39MYC    H94 4508   1.492   1.906  10.530
   39MYC    C48 4509   1.345   1.792  10.641
   39MYC    H91 4510   1.399   1.697  10.634
   39MYC    H92 4511   1.239   1.769  10.634
   39MYC    C47 4512   1.374   1.856  10.779
   39MYC    H89 4513   1.323   1.952  10.784
   39MYC    H90 4514   1.482   1.876  10.787
   39MYC    C46 4515   1.329   1.768  10.897
   39MYC    H87 4516   1.385   1.674  10.895
   39MYC    H88 4517   1.223   1.744  10.884
   39MYC    C45 4518   1.349   1.837  11.035
   39MYC    H85 4519   1.284   1.925  11.040
   39MYC    H86 4520   1.452   1.875  11.041
   39MYC    C44 4521   1.324   1.746  11.157
   39MYC    H83 4522   1.354   1.801  11.247
   39MYC    H84 4523   1.391   1.660  11.151
   39MYC    C18 4524   1.179   1.699  11.175
   39MYC    H31 4525   1.112   1.779  11.203
   39MYC    C17 4526   1.122   1.590  11.088
   39MYC    H30 4527   1.191   1.547  11.016
   39MYC    C19 4528   1.150   1.563  11.234
   39MYC    H32 4529   1.234   1.499  11.257
   39MYC    H33 4530   1.066   1.555  11.302
   39MYC    C16 4531   0.979   1.597  11.034
   39MYC    H28 4532   0.968   1.686  10.971
   39MYC    H29 4533   0.906   1.605  11.115
   39MYC    C15 4534   0.948   1.472  10.950
   39MYC    H26 4535   0.948   1.383  11.014
   39MYC    H27 4536   1.030   1.460  10.878
   39MYC    C14 4537   0.816   1.477  10.869
   39MYC    H24 4538   0.810   1.572  10.814
   39MYC    H25 4539   0.730   1.472  10.936
   39MYC    C13 4540   0.812   1.359  10.769
   39MYC    H22 4541   0.807   1.265  10.824
   39MYC    H23 4542   0.907   1.360  10.715
   39MYC    C12 4543   0.698   1.364  10.665
   39MYC    H20 4544   0.706   1.457  10.608
   39MYC    H21 4545   0.602   1.369  10.717
   39MYC    C11 4546   0.698   1.243  10.569
   39MYC    H18 4547   0.619   1.258  10.494
   39MYC    H19 4548   0.670   1.155  10.628
   39MYC    C10 4549   0.832   1.213  10.497
   39MYC    H16 4550   0.821   1.119  10.441
   39MYC    H17 4551   0.910   1.193  10.570
   39MYC     C9 4552   0.879   1.321  10.397
   39MYC    H14 4553   0.864   1.420  10.440
   39MYC    H15 4554   0.815   1.316  10.308
   39MYC     C8 4555   1.028   1.305  10.358
   39MYC    H12 4556   1.047   1.201  10.329
   39MYC    H13 4557   1.090   1.323  10.447
   39MYC     C7 4558   1.077   1.398  10.245
   39MYC    H10 4559   1.184   1.382  10.231
   39MYC    H11 4560   1.064   1.503  10.274
   39MYC     C6 4561   1.004   1.372  10.111
   39MYC     H8 4562   0.904   1.418  10.115
   39MYC     H9 4563   0.989   1.264  10.099
   39MYC     C5 4564   1.078   1.425   9.986
   39MYC     H6 4565   1.179   1.381   9.983
   39MYC     H7 4566   1.091   1.534   9.993
   39MYC     C4 4567   1.002   1.390   9.857
   39MYC     H4 4568   0.905   1.442   9.859
   39MYC     H5 4569   0.979   1.282   9.857
   39MYC     C2 4570   1.075   1.425   9.726
   39MYC     H2 4571   1.105   1.531   9.732
   39MYC     O3 4572   1.193   1.344   9.713
   39MYC     H3 4573   1.164   1.253   9.696
   39MYC     C1 4574   0.984   1.410   9.600
   39MYC     H1 4575   0.905   1.484   9.611
   39MYC    C81 4576   0.914   1.272   9.593
   39MYC    O82 4577   0.793   1.257   9.601
   39MYC    O83 4578   0.996   1.165   9.579
   39MYC   H105 4579   0.938   1.087   9.582
   39MYC    C20 4580   1.058   1.443   9.468
   39MYC    H34 4581   1.124   1.529   9.483
   39MYC    H35 4582   1.123   1.359   9.440
   39MYC    C21 4583   0.962   1.475   9.351
   39MYC    H36 4584   0.883   1.400   9.347
   39MYC    H37 4585   0.914   1.572   9.371
   39MYC    C22 4586   1.033   1.481   9.215
   39MYC    H38 4587   1.123   1.542   9.222
   39MYC    H39 4588   1.065   1.380   9.189
   39MYC    C23 4589   0.943   1.539   9.103
   39MYC    H40 4590   0.837   1.532   9.131
   39MYC    H41 4591   0.965   1.645   9.090
   39MYC    C24 4592   0.962   1.465   8.969
   39MYC    H42 4593   1.068   1.468   8.941
   39MYC    H43 4594   0.935   1.360   8.982
   39MYC    C25 4595   0.879   1.525   8.853
   39MYC    H44 4596   0.773   1.533   8.883
   39MYC    H45 4597   0.914   1.627   8.832
   39MYC    C26 4598   0.889   1.439   8.726
   39MYC    H46 4599   0.994   1.411   8.710
   39MYC    H47 4600   0.833   1.345   8.742
   39MYC    C27 4601   0.837   1.509   8.599
   39MYC    H48 4602   0.733   1.542   8.614
   39MYC    H49 4603   0.897   1.599   8.582
   39MYC    C28 4604   0.845   1.417   8.476
   39MYC    H50 4605   0.941   1.365   8.476
   39MYC    H51 4606   0.767   1.340   8.484
   39MYC    C29 4607   0.831   1.493   8.342
   39MYC    H52 4608   0.742   1.557   8.345
   39MYC    H53 4609   0.918   1.558   8.330
   39MYC    C30 4610   0.821   1.397   8.222
   39MYC    H54 4611   0.892   1.315   8.235
   39MYC    H55 4612   0.721   1.353   8.221
   39MYC    C31 4613   0.848   1.465   8.087
   39MYC    H56 4614   0.784   1.553   8.076
   39MYC    H57 4615   0.952   1.500   8.087
   39MYC    C32 4616   0.826   1.370   7.967
   39MYC    H58 4617   0.873   1.273   7.988
   39MYC    H59 4618   0.718   1.352   7.955
   39MYC    C33 4619   0.884   1.427   7.836
   39MYC    H60 4620   0.838   1.524   7.815
   39MYC    H61 4621   0.991   1.443   7.850
   39MYC    C34 4622   0.863   1.333   7.715
   39MYC    H62 4623   0.905   1.234   7.738
   39MYC    H63 4624   0.756   1.320   7.697
   39MYC    C35 4625   0.930   1.388   7.588
   39MYC    H64 4626   0.885   1.485   7.563
   39MYC    H65 4627   1.036   1.406   7.608
   39MYC    C36 4628   0.918   1.294   7.466
   39MYC    H66 4629   0.968   1.199   7.490
   39MYC    H67 4630   0.813   1.272   7.446
   39MYC    C37 4631   0.983   1.355   7.340
   39MYC    H68 4632   0.928   1.446   7.312
   39MYC    H69 4633   1.085   1.385   7.363
   39MYC    C38 4634   0.986   1.258   7.220
   39MYC    H70 4635   1.041   1.168   7.248
   39MYC    H71 4636   0.884   1.226   7.195
   39MYC    C39 4637   1.052   1.321   7.095
   39MYC    H72 4638   0.993   1.407   7.062
   39MYC    H73 4639   1.151   1.360   7.124
   39MYC    C40 4640   1.069   1.222   6.978
   39MYC    H74 4641   1.119   1.132   7.014
   39MYC    H75 4642   0.970   1.192   6.942
   39MYC    C41 4643   1.151   1.282   6.861
   39MYC    H76 4644   1.100   1.371   6.823
   39MYC    H77 4645   1.248   1.315   6.900
   39MYC    C42 4646   1.174   1.182   6.746
   39MYC    H78 4647   1.215   1.089   6.786
   39MYC    H79 4648   1.077   1.157   6.699
   39MYC    C43 4649   1.270   1.237   6.638
   39MYC    H80 4650   1.282   1.164   6.557
   39MYC    H81 4651   1.368   1.257   6.681
   39MYC    H82 4652   1.231   1.330   6.595
   40MYC   HH15 4653   2.082   1.920   6.607
   40MYC    C80 4654   2.132   1.893   6.701
   40MYC   H100 4655   2.202   1.811   6.681
   40MYC   H101 4656   2.190   1.980   6.735
   40MYC    C79 4657   2.028   1.852   6.805
   40MYC   H102 4658   1.971   1.767   6.767
   40MYC   H103 4659   1.957   1.935   6.819
   40MYC    C78 4660   2.090   1.816   6.942
   40MYC   HH14 4661   2.147   1.902   6.980
   40MYC   H104 4662   2.160   1.733   6.929
   40MYC    C77 4663   1.983   1.776   7.046
   40MYC   H106 4664   1.927   1.689   7.009
   40MYC   H107 4665   1.912   1.858   7.058
   40MYC    C76 4666   2.043   1.742   7.184
   40MYC   H108 4667   2.104   1.826   7.218
   40MYC   H109 4668   2.111   1.656   7.173
   40MYC    C75 4669   1.936   1.709   7.289
   40MYC   H110 4670   1.877   1.622   7.257
   40MYC   H111 4671   1.867   1.794   7.297
   40MYC    C74 4672   1.997   1.681   7.428
   40MYC   H112 4673   2.056   1.767   7.459
   40MYC   H113 4674   2.065   1.596   7.420
   40MYC    C73 4675   1.891   1.650   7.536
   40MYC   HH13 4676   1.836   1.559   7.508
   40MYC   H114 4677   1.818   1.732   7.539
   40MYC    C72 4678   1.953   1.633   7.675
   40MYC   H115 4679   2.007   1.725   7.702
   40MYC   H116 4680   2.027   1.552   7.672
   40MYC    C71 4681   1.850   1.602   7.785
   40MYC   H117 4682   1.801   1.506   7.764
   40MYC   H118 4683   1.771   1.679   7.784
   40MYC    C70 4684   1.913   1.598   7.925
   40MYC   H119 4685   1.966   1.693   7.943
   40MYC   H120 4686   1.989   1.519   7.929
   40MYC    C69 4687   1.811   1.576   8.039
   40MYC   H121 4688   1.763   1.478   8.027
   40MYC   H122 4689   1.732   1.652   8.030
   40MYC    C68 4690   1.876   1.586   8.178
   40MYC   HH12 4691   1.934   1.679   8.184
   40MYC   H123 4692   1.947   1.503   8.191
   40MYC    C67 4693   1.774   1.584   8.294
   40MYC   H124 4694   1.721   1.488   8.294
   40MYC   H125 4695   1.700   1.663   8.277
   40MYC    C66 4696   1.842   1.607   8.430
   40MYC   H126 4697   1.903   1.698   8.425
   40MYC   H127 4698   1.910   1.523   8.451
   40MYC    C65 4699   1.742   1.621   8.547
   40MYC   H128 4700   1.685   1.528   8.557
   40MYC   H129 4701   1.670   1.701   8.524
   40MYC    C64 4702   1.813   1.653   8.680
   40MYC   H130 4703   1.870   1.745   8.669
   40MYC   H131 4704   1.884   1.573   8.703
   40MYC    C63 4705   1.715   1.669   8.798
   40MYC   HH11 4706   1.657   1.576   8.809
   40MYC   H132 4707   1.644   1.749   8.776
   40MYC    C62 4708   1.787   1.699   8.931
   40MYC   H133 4709   1.845   1.792   8.920
   40MYC   H134 4710   1.859   1.619   8.952
   40MYC    C61 4711   1.690   1.713   9.050
   40MYC   H135 4712   1.625   1.625   9.052
   40MYC   H136 4713   1.625   1.800   9.034
   40MYC    C60 4714   1.762   1.727   9.183
   40MYC   H137 4715   1.824   1.817   9.188
   40MYC    C58 4716   1.695   1.682   9.310
   40MYC   H138 4717   1.598   1.636   9.299
   40MYC    C59 4718   1.813   1.605   9.256
   40MYC   H139 4719   1.908   1.614   9.309
   40MYC   H140 4720   1.794   1.507   9.212
   40MYC    C57 4721   1.708   1.760   9.440
   40MYC   HH10 4722   1.640   1.846   9.439
   40MYC   H141 4723   1.810   1.800   9.450
   40MYC    C56 4724   1.676   1.670   9.561
   40MYC   H142 4725   1.736   1.579   9.554
   40MYC   H143 4726   1.571   1.640   9.557
   40MYC    C55 4727   1.705   1.737   9.697
   40MYC   H144 4728   1.644   1.827   9.708
   40MYC   H145 4729   1.810   1.767   9.701
   40MYC    C54 4730   1.677   1.641   9.815
   40MYC   H146 4731   1.733   1.547   9.799
   40MYC   H147 4732   1.571   1.615   9.816
   40MYC    C53 4733   1.717   1.699   9.952
   40MYC   H148 4734   1.661   1.792   9.968
   40MYC   H149 4735   1.823   1.724   9.951
   40MYC    C52 4736   1.688   1.601  10.067
   40MYC    H99 4737   1.744   1.508  10.050
   40MYC   H150 4738   1.582   1.575  10.067
   40MYC    C51 4739   1.726   1.659  10.205
   40MYC    H97 4740   1.675   1.755  10.218
   40MYC    H98 4741   1.834   1.678  10.208
   40MYC    C50 4742   1.688   1.566  10.322
   40MYC    H95 4743   1.742   1.471  10.312
   40MYC    H96 4744   1.580   1.543  10.316
   40MYC    C49 4745   1.718   1.629  10.459
   40MYC    H93 4746   1.671   1.728  10.464
   40MYC    H94 4747   1.827   1.645  10.466
   40MYC    C48 4748   1.670   1.544  10.578
   40MYC    H91 4749   1.724   1.448  10.579
   40MYC    H92 4750   1.564   1.520  10.564
   40MYC    C47 4751   1.687   1.615  10.714
   40MYC    H89 4752   1.635   1.556  10.791
   40MYC    H90 4753   1.637   1.712  10.710
   40MYC    C46 4754   1.833   1.635  10.758
   40MYC    H87 4755   1.887   1.692  10.681
   40MYC    H88 4756   1.883   1.538  10.763
   40MYC    C45 4757   1.848   1.711  10.893
   40MYC    H85 4758   1.749   1.731  10.936
   40MYC    H86 4759   1.893   1.809  10.873
   40MYC    C44 4760   1.935   1.636  10.996
   40MYC    H83 4761   1.960   1.705  11.077
   40MYC    H84 4762   2.030   1.607  10.949
   40MYC    C18 4763   1.866   1.512  11.054
   40MYC    H31 4764   1.782   1.477  10.994
   40MYC    C17 4765   1.945   1.404  11.124
   40MYC    H30 4766   2.052   1.420  11.135
   40MYC    C19 4767   1.855   1.495  11.204
   40MYC    H32 4768   1.903   1.569  11.267
   40MYC    H33 4769   1.762   1.455  11.243
   40MYC    C16 4770   1.908   1.257  11.113
   40MYC    H28 4771   1.800   1.246  11.097
   40MYC    H29 4772   1.930   1.209  11.209
   40MYC    C15 4773   1.983   1.180  11.002
   40MYC    H26 4774   1.958   1.074  11.014
   40MYC    H27 4775   2.091   1.189  11.018
   40MYC    C14 4776   1.951   1.223  10.858
   40MYC    H24 4777   1.997   1.321  10.839
   40MYC    H25 4778   1.843   1.235  10.845
   40MYC    C13 4779   2.003   1.120  10.756
   40MYC    H22 4780   1.941   1.030  10.763
   40MYC    H23 4781   2.106   1.090  10.783
   40MYC    C12 4782   2.005   1.170  10.611
   40MYC    H20 4783   2.082   1.246  10.600
   40MYC    H21 4784   1.909   1.217  10.587
   40MYC    C11 4785   2.032   1.056  10.510
   40MYC    H18 4786   1.945   0.989  10.507
   40MYC    H19 4787   2.115   0.994  10.547
   40MYC    C10 4788   2.067   1.104  10.367
   40MYC    H16 4789   2.084   1.015  10.304
   40MYC    H17 4790   2.162   1.158  10.370
   40MYC     C9 4791   1.961   1.194  10.298
   40MYC    H14 4792   1.994   1.209  10.194
   40MYC    H15 4793   1.961   1.293  10.344
   40MYC     C8 4794   1.817   1.137  10.301
   40MYC    H12 4795   1.767   1.172  10.392
   40MYC    H13 4796   1.821   1.027  10.309
   40MYC     C7 4797   1.730   1.173  10.179
   40MYC    H10 4798   1.736   1.280  10.159
   40MYC    H11 4799   1.625   1.151  10.204
   40MYC     C6 4800   1.769   1.093  10.053
   40MYC     H8 4801   1.770   0.986  10.079
   40MYC     H9 4802   1.871   1.119  10.024
   40MYC     C5 4803   1.674   1.113   9.933
   40MYC     H6 4804   1.672   1.219   9.903
   40MYC     H7 4805   1.572   1.087   9.964
   40MYC     C4 4806   1.712   1.024   9.812
   40MYC     H4 4807   1.621   1.001   9.756
   40MYC     H5 4808   1.748   0.927   9.850
   40MYC     C2 4809   1.815   1.082   9.710
   40MYC     H2 4810   1.757   1.144   9.640
   40MYC     O3 4811   1.911   1.167   9.774
   40MYC     H3 4812   1.979   1.110   9.814
   40MYC     C1 4813   1.888   0.971   9.629
   40MYC     H1 4814   1.810   0.907   9.584
   40MYC    C81 4815   1.974   0.879   9.717
   40MYC    O82 4816   2.058   0.918   9.796
   40MYC    O83 4817   1.967   0.748   9.682
   40MYC   H105 4818   2.038   0.705   9.733
   40MYC    C20 4819   1.973   1.023   9.511
   40MYC    H34 4820   2.043   1.100   9.546
   40MYC    H35 4821   2.035   0.940   9.474
   40MYC    C21 4822   1.890   1.078   9.393
   40MYC    H36 4823   1.814   1.004   9.366
   40MYC    H37 4824   1.837   1.169   9.423
   40MYC    C22 4825   1.977   1.108   9.269
   40MYC    H38 4826   2.047   1.188   9.293
   40MYC    H39 4827   2.037   1.019   9.246
   40MYC    C23 4828   1.893   1.146   9.146
   40MYC    H40 4829   1.821   1.066   9.125
   40MYC    H41 4830   1.836   1.237   9.166
   40MYC    C24 4831   1.981   1.167   9.021
   40MYC    H42 4832   2.044   1.255   9.036
   40MYC    H43 4833   2.048   1.082   9.009
   40MYC    C25 4834   1.899   1.184   8.892
   40MYC    H44 4835   1.834   1.096   8.879
   40MYC    H45 4836   1.833   1.271   8.900
   40MYC    C26 4837   1.988   1.199   8.767
   40MYC    H46 4838   2.040   1.296   8.771
   40MYC    H47 4839   2.065   1.121   8.768
   40MYC    C27 4840   1.908   1.189   8.635
   40MYC    H48 4841   1.854   1.094   8.634
   40MYC    H49 4842   1.833   1.269   8.632
   40MYC    C28 4843   1.998   1.197   8.511
   40MYC    H50 4844   2.047   1.296   8.508
   40MYC    H51 4845   2.077   1.122   8.518
   40MYC    C29 4846   1.920   1.174   8.380
   40MYC    H52 4847   1.876   1.074   8.382
   40MYC    H53 4848   1.836   1.246   8.375
   40MYC    C30 4849   2.007   1.189   8.254
   40MYC    H54 4850   2.052   1.290   8.254
   40MYC    H55 4851   2.089   1.117   8.258
   40MYC    C31 4852   1.927   1.168   8.125
   40MYC    H56 4853   1.892   1.064   8.121
   40MYC    H57 4854   1.838   1.232   8.127
   40MYC    C32 4855   2.008   1.200   7.998
   40MYC    H58 4856   2.045   1.303   8.004
   40MYC    H59 4857   2.096   1.134   7.993
   40MYC    C33 4858   1.925   1.182   7.870
   40MYC    H60 4859   1.894   1.077   7.861
   40MYC    H61 4860   1.834   1.242   7.878
   40MYC    C34 4861   2.001   1.224   7.742
   40MYC    H62 4862   2.032   1.329   7.751
   40MYC    H63 4863   2.092   1.164   7.732
   40MYC    C35 4864   1.915   1.207   7.616
   40MYC    H64 4865   1.888   1.101   7.606
   40MYC    H65 4866   1.821   1.263   7.628
   40MYC    C36 4867   1.984   1.254   7.487
   40MYC    H66 4868   2.006   1.361   7.494
   40MYC    H67 4869   2.080   1.202   7.476
   40MYC    C37 4870   1.898   1.226   7.362
   40MYC    H68 4871   1.880   1.118   7.356
   40MYC    H69 4872   1.800   1.275   7.374
   40MYC    C38 4873   1.962   1.274   7.230
   40MYC    H70 4874   1.969   1.384   7.231
   40MYC    H71 4875   2.064   1.235   7.223
   40MYC    C39 4876   1.881   1.228   7.108
   40MYC    H72 4877   1.876   1.118   7.108
   40MYC    H73 4878   1.777   1.264   7.117
   40MYC    C40 4879   1.939   1.275   6.973
   40MYC    H74 4880   1.937   1.385   6.969
   40MYC    H75 4881   2.043   1.243   6.965
   40MYC    C41 4882   1.859   1.218   6.853
   40MYC    H76 4883   1.861   1.109   6.858
   40MYC    H77 4884   1.755   1.250   6.861
   40MYC    C42 4885   1.915   1.263   6.716
   40MYC    H78 4886   1.915   1.372   6.711
   40MYC    H79 4887   2.019   1.230   6.707
   40MYC    C43 4888   1.833   1.207   6.598
   40MYC    H80 4889   1.730   1.243   6.602
   40MYC    H81 4890   1.832   1.097   6.601
   40MYC    H82 4891   1.877   1.238   6.503
   41MYC   HH15 4892   3.064   1.539   6.670
   41MYC    C80 4893   2.988   1.534   6.748
   41MYC   H100 4894   2.910   1.608   6.725
   41MYC   H101 4895   2.942   1.434   6.746
   41MYC    C79 4896   3.050   1.562   6.886
   41MYC   H102 4897   3.092   1.664   6.886
   41MYC   H103 4898   3.133   1.493   6.903
   41MYC    C78 4899   2.949   1.548   7.001
   41MYC   HH14 4900   2.914   1.444   7.006
   41MYC   H104 4901   2.861   1.610   6.980
   41MYC    C77 4902   3.006   1.589   7.139
   41MYC   H106 4903   3.035   1.694   7.136
   41MYC   H107 4904   3.097   1.531   7.159
   41MYC    C76 4905   2.905   1.566   7.254
   41MYC   H108 4906   2.879   1.460   7.258
   41MYC   H109 4907   2.812   1.620   7.232
   41MYC    C75 4908   2.959   1.611   7.391
   41MYC   H110 4909   2.989   1.717   7.386
   41MYC   H111 4910   3.049   1.553   7.413
   41MYC    C74 4911   2.856   1.592   7.504
   41MYC   H112 4912   2.817   1.489   7.499
   41MYC   H113 4913   2.770   1.659   7.489
   41MYC    C73 4914   2.916   1.615   7.644
   41MYC   HH13 4915   2.940   1.722   7.657
   41MYC   H114 4916   3.011   1.561   7.650
   41MYC    C72 4917   2.824   1.568   7.759
   41MYC   H115 4918   2.780   1.471   7.731
   41MYC   H116 4919   2.741   1.638   7.772
   41MYC    C71 4920   2.901   1.551   7.891
   41MYC   H117 4921   2.930   1.649   7.931
   41MYC   H118 4922   2.994   1.496   7.870
   41MYC    C70 4923   2.822   1.473   7.999
   41MYC   H119 4924   2.765   1.392   7.951
   41MYC   H120 4925   2.750   1.539   8.048
   41MYC    C69 4926   2.916   1.409   8.103
   41MYC   H121 4927   2.976   1.488   8.151
   41MYC   H122 4928   2.987   1.343   8.051
   41MYC    C68 4929   2.844   1.328   8.212
   41MYC   HH12 4930   2.768   1.263   8.166
   41MYC   H123 4931   2.791   1.397   8.278
   41MYC    C67 4932   2.942   1.239   8.292
   41MYC   H124 4933   3.037   1.292   8.306
   41MYC   H125 4934   2.965   1.150   8.231
   41MYC    C66 4935   2.889   1.193   8.429
   41MYC   H126 4936   2.952   1.111   8.464
   41MYC   H127 4937   2.787   1.154   8.419
   41MYC    C65 4938   2.892   1.306   8.534
   41MYC   H128 4939   2.826   1.388   8.504
   41MYC   H129 4940   2.994   1.348   8.539
   41MYC    C64 4941   2.852   1.259   8.674
   41MYC   H130 4942   2.912   1.171   8.701
   41MYC   H131 4943   2.747   1.227   8.673
   41MYC    C63 4944   2.872   1.367   8.782
   41MYC   HH11 4945   2.814   1.457   8.756
   41MYC   H132 4946   2.978   1.397   8.783
   41MYC    C62 4947   2.832   1.318   8.922
   41MYC   H133 4948   2.878   1.221   8.940
   41MYC   H134 4949   2.723   1.303   8.924
   41MYC    C61 4950   2.872   1.415   9.035
   41MYC   H135 4951   2.824   1.512   9.020
   41MYC   H136 4952   2.981   1.432   9.029
   41MYC    C60 4953   2.838   1.359   9.172
   41MYC   H137 4954   2.853   1.251   9.178
   41MYC    C58 4955   2.874   1.437   9.295
   41MYC   H138 4956   2.913   1.538   9.281
   41MYC    C59 4957   2.729   1.416   9.259
   41MYC   H139 4958   2.671   1.348   9.320
   41MYC   H140 4959   2.674   1.502   9.221
   41MYC    C57 4960   2.940   1.365   9.412
   41MYC   HH10 4961   3.048   1.375   9.402
   41MYC   H141 4962   2.918   1.257   9.408
   41MYC    C56 4963   2.895   1.419   9.548
   41MYC   H142 4964   2.790   1.393   9.565
   41MYC   H143 4965   2.901   1.528   9.548
   41MYC    C55 4966   2.981   1.363   9.663
   41MYC   H144 4967   3.086   1.388   9.645
   41MYC   H145 4968   2.974   1.254   9.664
   41MYC    C54 4969   2.940   1.419   9.800
   41MYC   H146 4970   2.838   1.387   9.822
   41MYC   H147 4971   2.940   1.529   9.796
   41MYC    C53 4972   3.033   1.373   9.914
   41MYC   H148 4973   3.135   1.406   9.895
   41MYC   H149 4974   3.034   1.263   9.917
   41MYC    C52 4975   2.987   1.428  10.051
   41MYC    H99 4976   2.879   1.409  10.062
   41MYC   H150 4977   3.001   1.536  10.052
   41MYC    C51 4978   3.060   1.365  10.171
   41MYC    H97 4979   3.167   1.388  10.166
   41MYC    H98 4980   3.050   1.256  10.166
   41MYC    C50 4981   3.002   1.414  10.305
   41MYC    H95 4982   2.892   1.405  10.303
   41MYC    H96 4983   3.024   1.521  10.318
   41MYC    C49 4984   3.055   1.337  10.427
   41MYC    H93 4985   3.159   1.366  10.445
   41MYC    H94 4986   3.055   1.229  10.405
   41MYC    C48 4987   2.971   1.361  10.554
   41MYC    H91 4988   2.869   1.324  10.535
   41MYC    H92 4989   2.964   1.469  10.573
   41MYC    C47 4990   3.026   1.291  10.680
   41MYC    H89 4991   3.120   1.340  10.709
   41MYC    H90 4992   3.052   1.187  10.655
   41MYC    C46 4993   2.928   1.290  10.799
   41MYC    H87 4994   2.841   1.228  10.772
   41MYC    H88 4995   2.890   1.391  10.817
   41MYC    C45 4996   2.991   1.236  10.929
   41MYC    H85 4997   3.055   1.314  10.973
   41MYC    H86 4998   3.057   1.152  10.904
   41MYC    C44 4999   2.891   1.185  11.034
   41MYC    H83 5000   2.949   1.145  11.119
   41MYC    H84 5001   2.838   1.099  10.993
   41MYC    C18 5002   2.791   1.286  11.086
   41MYC    H31 5003   2.838   1.372  11.134
   41MYC    C17 5004   2.657   1.310  11.020
   41MYC    H30 5005   2.638   1.252  10.929
   41MYC    C19 5006   2.664   1.234  11.149
   41MYC    H32 5007   2.644   1.127  11.144
   41MYC    H33 5008   2.630   1.282  11.241
   41MYC    C16 5009   2.588   1.446  11.020
   41MYC    H28 5010   2.644   1.517  10.958
   41MYC    H29 5011   2.588   1.487  11.121
   41MYC    C15 5012   2.441   1.437  10.971
   41MYC    H26 5013   2.384   1.518  11.018
   41MYC    H27 5014   2.395   1.344  11.006
   41MYC    C14 5015   2.429   1.449  10.818
   41MYC    H24 5016   2.483   1.366  10.771
   41MYC    H25 5017   2.478   1.542  10.789
   41MYC    C13 5018   2.284   1.450  10.764
   41MYC    H22 5019   2.228   1.531  10.812
   41MYC    H23 5020   2.235   1.356  10.793
   41MYC    C12 5021   2.276   1.466  10.610
   41MYC    H20 5022   2.172   1.451  10.579
   41MYC    H21 5023   2.334   1.387  10.563
   41MYC    C11 5024   2.321   1.604  10.558
   41MYC    H18 5025   2.422   1.628  10.594
   41MYC    H19 5026   2.254   1.681  10.599
   41MYC    C10 5027   2.322   1.618  10.404
   41MYC    H16 5028   2.326   1.724  10.379
   41MYC    H17 5029   2.227   1.580  10.363
   41MYC     C9 5030   2.440   1.547  10.334
   41MYC    H14 5031   2.434   1.438  10.351
   41MYC    H15 5032   2.534   1.581  10.381
   41MYC     C8 5033   2.447   1.574  10.183
   41MYC    H12 5034   2.443   1.683  10.166
   41MYC    H13 5035   2.358   1.531  10.135
   41MYC     C7 5036   2.574   1.518  10.116
   41MYC    H10 5037   2.577   1.410  10.128
   41MYC    H11 5038   2.662   1.558  10.169
   41MYC     C6 5039   2.588   1.554   9.966
   41MYC     H8 5040   2.691   1.530   9.935
   41MYC     H9 5041   2.577   1.662   9.953
   41MYC     C5 5042   2.490   1.480   9.872
   41MYC     H6 5043   2.387   1.508   9.899
   41MYC     H7 5044   2.499   1.372   9.887
   41MYC     C4 5045   2.516   1.514   9.724
   41MYC     H4 5046   2.622   1.498   9.703
   41MYC     H5 5047   2.499   1.622   9.709
   41MYC     C2 5048   2.435   1.437   9.616
   41MYC     H2 5049   2.478   1.471   9.521
   41MYC     O3 5050   2.460   1.296   9.627
   41MYC     H3 5051   2.404   1.262   9.699
   41MYC     C1 5052   2.281   1.468   9.611
   41MYC     H1 5053   2.270   1.577   9.614
   41MYC    C81 5054   2.202   1.411   9.731
   41MYC    O82 5055   2.207   1.296   9.768
   41MYC    O83 5056   2.105   1.495   9.776
   41MYC   H105 5057   2.053   1.442   9.839
   41MYC    C20 5058   2.212   1.424   9.479
   41MYC    H34 5059   2.202   1.314   9.476
   41MYC    H35 5060   2.110   1.464   9.479
   41MYC    C21 5061   2.285   1.470   9.350
   41MYC    H36 5062   2.326   1.570   9.366
   41MYC    H37 5063   2.369   1.403   9.332
   41MYC    C22 5064   2.196   1.475   9.225
   41MYC    H38 5065   2.135   1.384   9.218
   41MYC    H39 5066   2.126   1.560   9.234
   41MYC    C23 5067   2.279   1.490   9.096
   41MYC    H40 5068   2.356   1.567   9.112
   41MYC    H41 5069   2.332   1.396   9.077
   41MYC    C24 5070   2.196   1.529   8.972
   41MYC    H42 5071   2.115   1.457   8.957
   41MYC    H43 5072   2.149   1.627   8.989
   41MYC    C25 5073   2.283   1.535   8.845
   41MYC    H44 5074   2.367   1.602   8.863
   41MYC    H45 5075   2.325   1.435   8.826
   41MYC    C26 5076   2.206   1.582   8.720
   41MYC    H46 5077   2.125   1.512   8.698
   41MYC    H47 5078   2.160   1.680   8.740
   41MYC    C27 5079   2.299   1.593   8.598
   41MYC    H48 5080   2.379   1.666   8.620
   41MYC    H49 5081   2.348   1.497   8.581
   41MYC    C28 5082   2.227   1.636   8.470
   41MYC    H50 5083   2.150   1.561   8.445
   41MYC    H51 5084   2.175   1.731   8.486
   41MYC    C29 5085   2.324   1.650   8.352
   41MYC    H52 5086   2.394   1.732   8.372
   41MYC    H53 5087   2.384   1.558   8.344
   41MYC    C30 5088   2.254   1.675   8.217
   41MYC    H54 5089   2.185   1.592   8.197
   41MYC    H55 5090   2.195   1.767   8.222
   41MYC    C31 5091   2.356   1.685   8.101
   41MYC    H56 5092   2.417   1.775   8.115
   41MYC    H57 5093   2.423   1.598   8.106
   41MYC    C32 5094   2.289   1.688   7.963
   41MYC    H58 5095   2.224   1.600   7.952
   41MYC    H59 5096   2.225   1.777   7.954
   41MYC    C33 5097   2.393   1.687   7.849
   41MYC    H60 5098   2.454   1.778   7.855
   41MYC    H61 5099   2.461   1.602   7.864
   41MYC    C34 5100   2.329   1.677   7.710
   41MYC    H62 5101   2.265   1.588   7.707
   41MYC    H63 5102   2.266   1.765   7.692
   41MYC    C35 5103   2.434   1.666   7.598
   41MYC    H64 5104   2.498   1.755   7.599
   41MYC    H65 5105   2.499   1.579   7.619
   41MYC    C36 5106   2.371   1.649   7.459
   41MYC    H66 5107   2.302   1.565   7.461
   41MYC    H67 5108   2.313   1.739   7.435
   41MYC    C37 5109   2.477   1.625   7.349
   41MYC    H68 5110   2.548   1.709   7.348
   41MYC    H69 5111   2.534   1.535   7.375
   41MYC    C38 5112   2.415   1.609   7.210
   41MYC    H70 5113   2.338   1.530   7.213
   41MYC    H71 5114   2.365   1.702   7.181
   41MYC    C39 5115   2.520   1.572   7.104
   41MYC    H72 5116   2.596   1.651   7.100
   41MYC    H73 5117   2.571   1.480   7.134
   41MYC    C40 5118   2.460   1.552   6.963
   41MYC    H74 5119   2.378   1.480   6.969
   41MYC    H75 5120   2.417   1.647   6.929
   41MYC    C41 5121   2.564   1.503   6.861
   41MYC    H76 5122   2.648   1.574   6.858
   41MYC    H77 5123   2.605   1.408   6.895
   41MYC    C42 5124   2.506   1.487   6.719
   41MYC    H78 5125   2.423   1.415   6.722
   41MYC    H79 5126   2.465   1.582   6.685
   41MYC    C43 5127   2.611   1.438   6.617
   41MYC    H80 5128   2.564   1.425   6.518
   41MYC    H81 5129   2.653   1.342   6.648
   41MYC    H82 5130   2.692   1.511   6.608
   42MYC   HH15 5131   3.459   1.513   6.495
   42MYC    C80 5132   3.513   1.490   6.588
   42MYC   H100 5133   3.505   1.383   6.607
   42MYC   H101 5134   3.619   1.515   6.573
   42MYC    C79 5135   3.454   1.571   6.705
   42MYC   H102 5136   3.349   1.542   6.719
   42MYC   H103 5137   3.455   1.677   6.679
   42MYC    C78 5138   3.531   1.551   6.837
   42MYC   HH14 5139   3.634   1.586   6.825
   42MYC   H104 5140   3.536   1.443   6.861
   42MYC    C77 5141   3.465   1.625   6.955
   42MYC   H106 5142   3.364   1.585   6.970
   42MYC   H107 5143   3.454   1.731   6.930
   42MYC    C76 5144   3.544   1.613   7.088
   42MYC   H108 5145   3.643   1.657   7.075
   42MYC   H109 5146   3.558   1.507   7.112
   42MYC    C75 5147   3.471   1.683   7.204
   42MYC   H110 5148   3.370   1.640   7.213
   42MYC   H111 5149   3.458   1.789   7.180
   42MYC    C74 5150   3.542   1.670   7.340
   42MYC   H112 5151   3.641   1.718   7.335
   42MYC   H113 5152   3.559   1.564   7.361
   42MYC    C73 5153   3.459   1.732   7.454
   42MYC   HH13 5154   3.356   1.694   7.447
   42MYC   H114 5155   3.454   1.841   7.440
   42MYC    C72 5156   3.513   1.701   7.595
   42MYC   H115 5157   3.611   1.748   7.608
   42MYC   H116 5158   3.527   1.593   7.604
   42MYC    C71 5159   3.417   1.750   7.706
   42MYC   H117 5160   3.315   1.718   7.681
   42MYC   H118 5161   3.416   1.859   7.709
   42MYC    C70 5162   3.452   1.694   7.845
   42MYC   H119 5163   3.551   1.731   7.874
   42MYC   H120 5164   3.459   1.585   7.839
   42MYC    C69 5165   3.349   1.732   7.953
   42MYC   H121 5166   3.248   1.705   7.919
   42MYC   H122 5167   3.350   1.841   7.967
   42MYC    C68 5168   3.377   1.662   8.087
   42MYC   HH12 5169   3.481   1.681   8.115
   42MYC   H123 5170   3.367   1.554   8.074
   42MYC    C67 5171   3.285   1.708   8.202
   42MYC   H124 5172   3.180   1.689   8.176
   42MYC   H125 5173   3.296   1.816   8.215
   42MYC    C66 5174   3.319   1.636   8.334
   42MYC   H126 5175   3.429   1.630   8.342
   42MYC   H127 5176   3.282   1.533   8.330
   42MYC    C65 5177   3.265   1.706   8.460
   42MYC   H128 5178   3.156   1.700   8.462
   42MYC   H129 5179   3.292   1.812   8.457
   42MYC    C64 5180   3.324   1.643   8.588
   42MYC   H130 5181   3.433   1.635   8.576
   42MYC   H131 5182   3.286   1.540   8.599
   42MYC    C63 5183   3.296   1.723   8.717
   42MYC   HH11 5184   3.189   1.716   8.741
   42MYC   H132 5185   3.319   1.828   8.700
   42MYC    C62 5186   3.381   1.671   8.834
   42MYC   H133 5187   3.487   1.680   8.807
   42MYC   H134 5188   3.361   1.564   8.849
   42MYC    C61 5189   3.356   1.745   8.967
   42MYC   H135 5190   3.254   1.724   9.001
   42MYC   H136 5191   3.364   1.853   8.950
   42MYC    C60 5192   3.458   1.705   9.072
   42MYC   H137 5193   3.557   1.745   9.051
   42MYC    C58 5194   3.419   1.691   9.217
   42MYC   H138 5195   3.314   1.703   9.243
   42MYC    C59 5196   3.454   1.569   9.136
   42MYC   H139 5197   3.549   1.519   9.155
   42MYC   H140 5198   3.372   1.502   9.109
   42MYC    C57 5199   3.512   1.740   9.328
   42MYC   HH10 5200   3.474   1.836   9.365
   42MYC   H141 5201   3.612   1.759   9.289
   42MYC    C56 5202   3.521   1.640   9.444
   42MYC   H142 5203   3.572   1.549   9.411
   42MYC   H143 5204   3.420   1.611   9.473
   42MYC    C55 5205   3.594   1.697   9.567
   42MYC   H144 5206   3.546   1.792   9.595
   42MYC   H145 5207   3.698   1.719   9.542
   42MYC    C54 5208   3.589   1.601   9.688
   42MYC   H146 5209   3.653   1.514   9.669
   42MYC   H147 5210   3.486   1.564   9.698
   42MYC    C53 5211   3.628   1.669   9.820
   42MYC   H148 5212   3.567   1.759   9.831
   42MYC   H149 5213   3.733   1.701   9.816
   42MYC    C52 5214   3.606   1.578   9.943
   42MYC    H99 5215   3.692   1.512   9.957
   42MYC   H150 5216   3.519   1.513   9.925
   42MYC    C51 5217   3.579   1.658  10.071
   42MYC    H97 5218   3.487   1.716  10.056
   42MYC    H98 5219   3.660   1.731  10.087
   42MYC    C50 5220   3.565   1.570  10.196
   42MYC    H95 5221   3.664   1.544  10.234
   42MYC    H96 5222   3.515   1.476  10.169
   42MYC    C49 5223   3.482   1.639  10.306
   42MYC    H93 5224   3.379   1.651  10.270
   42MYC    H94 5225   3.522   1.740  10.324
   42MYC    C48 5226   3.480   1.562  10.439
   42MYC    H91 5227   3.578   1.572  10.487
   42MYC    H92 5228   3.464   1.455  10.420
   42MYC    C47 5229   3.369   1.613  10.533
   42MYC    H89 5230   3.273   1.580  10.492
   42MYC    H90 5231   3.369   1.723  10.533
   42MYC    C46 5232   3.384   1.563  10.677
   42MYC    H87 5233   3.477   1.602  10.718
   42MYC    H88 5234   3.391   1.453  10.676
   42MYC    C45 5235   3.266   1.606  10.768
   42MYC    H85 5236   3.175   1.554  10.735
   42MYC    H86 5237   3.249   1.713  10.752
   42MYC    C44 5238   3.287   1.581  10.919
   42MYC    H83 5239   3.190   1.590  10.970
   42MYC    H84 5240   3.350   1.662  10.959
   42MYC    C18 5241   3.350   1.447  10.953
   42MYC    H31 5242   3.292   1.363  10.916
   42MYC    C17 5243   3.501   1.432  10.952
   42MYC    H30 5244   3.558   1.523  10.935
   42MYC    C19 5245   3.424   1.425  11.082
   42MYC    H32 5246   3.432   1.509  11.150
   42MYC    H33 5247   3.414   1.328  11.131
   42MYC    C16 5248   3.565   1.308  10.891
   42MYC    H28 5249   3.510   1.277  10.802
   42MYC    H29 5250   3.558   1.225  10.962
   42MYC    C15 5251   3.713   1.327  10.854
   42MYC    H26 5252   3.758   1.228  10.839
   42MYC    H27 5253   3.765   1.373  10.938
   42MYC    C14 5254   3.737   1.412  10.726
   42MYC    H24 5255   3.705   1.516  10.744
   42MYC    H25 5256   3.677   1.373  10.644
   42MYC    C13 5257   3.886   1.411  10.684
   42MYC    H22 5258   3.915   1.308  10.664
   42MYC    H23 5259   3.946   1.447  10.769
   42MYC    C12 5260   3.920   1.498  10.561
   42MYC    H20 5261   3.904   1.603  10.585
   42MYC    H21 5262   3.852   1.473  10.478
   42MYC    C11 5263   4.067   1.476  10.515
   42MYC    H18 5264   4.076   1.379  10.465
   42MYC    H19 5265   4.131   1.472  10.604
   42MYC    C10 5266   4.125   1.586  10.424
   42MYC    H16 5267   4.231   1.567  10.410
   42MYC    H17 5268   4.118   1.681  10.479
   42MYC     C9 5269   4.058   1.603  10.286
   42MYC    H14 5270   4.094   1.697  10.243
   42MYC    H15 5271   3.950   1.615  10.298
   42MYC     C8 5272   4.088   1.491  10.184
   42MYC    H12 5273   4.052   1.395  10.224
   42MYC    H13 5274   4.197   1.482  10.171
   42MYC     C7 5275   4.023   1.517  10.047
   42MYC    H10 5276   4.060   1.612  10.006
   42MYC    H11 5277   3.915   1.530  10.062
   42MYC     C6 5278   4.046   1.405   9.943
   42MYC     H8 5279   4.011   1.310   9.986
   42MYC     H9 5280   4.154   1.393   9.925
   42MYC     C5 5281   3.973   1.431   9.809
   42MYC     H6 5282   4.027   1.507   9.751
   42MYC     H7 5283   3.875   1.475   9.831
   42MYC     C4 5284   3.948   1.305   9.723
   42MYC     H4 5285   3.854   1.321   9.668
   42MYC     H5 5286   3.930   1.219   9.788
   42MYC     C2 5287   4.056   1.271   9.617
   42MYC     H2 5288   4.058   1.353   9.545
   42MYC     O3 5289   4.185   1.259   9.678
   42MYC     H3 5290   4.188   1.174   9.726
   42MYC     C1 5291   4.021   1.140   9.539
   42MYC     H1 5292   3.916   1.151   9.509
   42MYC    C81 5293   4.026   1.013   9.627
   42MYC    O82 5294   4.127   0.970   9.680
   42MYC    O83 5295   3.910   0.944   9.631
   42MYC   H105 5296   3.929   0.864   9.683
   42MYC    C20 5297   4.103   1.122   9.408
   42MYC    H34 5298   4.199   1.173   9.416
   42MYC    H35 5299   4.125   1.015   9.394
   42MYC    C21 5300   4.027   1.172   9.283
   42MYC    H36 5301   3.932   1.118   9.276
   42MYC    H37 5302   4.003   1.278   9.295
   42MYC    C22 5303   4.105   1.152   9.152
   42MYC    H38 5304   4.194   1.218   9.152
   42MYC    H39 5305   4.141   1.049   9.146
   42MYC    C23 5306   4.019   1.183   9.028
   42MYC    H40 5307   3.932   1.116   9.028
   42MYC    H41 5308   3.980   1.285   9.035
   42MYC    C24 5309   4.095   1.167   8.895
   42MYC    H42 5310   4.177   1.240   8.892
   42MYC    H43 5311   4.140   1.067   8.890
   42MYC    C25 5312   4.003   1.187   8.774
   42MYC    H44 5313   3.928   1.108   8.772
   42MYC    H45 5314   3.949   1.282   8.784
   42MYC    C26 5315   4.079   1.188   8.640
   42MYC    H46 5316   4.149   1.273   8.639
   42MYC    H47 5317   4.138   1.096   8.630
   42MYC    C27 5318   3.983   1.199   8.519
   42MYC    H48 5319   3.929   1.105   8.508
   42MYC    H49 5320   3.909   1.277   8.539
   42MYC    C28 5321   4.056   1.233   8.388
   42MYC    H50 5322   4.107   1.329   8.399
   42MYC    H51 5323   4.133   1.157   8.369
   42MYC    C29 5324   3.960   1.239   8.268
   42MYC    H52 5325   3.918   1.139   8.250
   42MYC    H53 5326   3.875   1.305   8.292
   42MYC    C30 5327   4.028   1.290   8.140
   42MYC    H54 5328   4.072   1.389   8.158
   42MYC    H55 5329   4.110   1.222   8.114
   42MYC    C31 5330   3.930   1.300   8.021
   42MYC    H56 5331   3.879   1.204   8.008
   42MYC    H57 5332   3.853   1.375   8.043
   42MYC    C32 5333   4.001   1.337   7.889
   42MYC    H58 5334   4.058   1.430   7.904
   42MYC    H59 5335   4.073   1.258   7.865
   42MYC    C33 5336   3.904   1.357   7.771
   42MYC    H60 5337   3.832   1.274   7.769
   42MYC    H61 5338   3.847   1.449   7.785
   42MYC    C34 5339   3.979   1.362   7.636
   42MYC    H62 5340   4.060   1.436   7.642
   42MYC    H63 5341   4.026   1.264   7.619
   42MYC    C35 5342   3.889   1.395   7.516
   42MYC    H64 5343   3.801   1.330   7.516
   42MYC    H65 5344   3.853   1.499   7.526
   42MYC    C36 5345   3.964   1.379   7.383
   42MYC    H66 5346   4.059   1.434   7.389
   42MYC    H67 5347   3.989   1.273   7.369
   42MYC    C37 5348   3.886   1.429   7.259
   42MYC    H68 5349   3.790   1.377   7.253
   42MYC    H69 5350   3.865   1.536   7.270
   42MYC    C38 5351   3.966   1.405   7.130
   42MYC    H70 5352   4.066   1.449   7.141
   42MYC    H71 5353   3.981   1.297   7.116
   42MYC    C39 5354   3.900   1.463   7.003
   42MYC    H72 5355   3.799   1.422   6.992
   42MYC    H73 5356   3.889   1.572   7.016
   42MYC    C40 5357   3.983   1.434   6.877
   42MYC    H74 5358   4.085   1.471   6.892
   42MYC    H75 5359   3.991   1.325   6.863
   42MYC    C41 5360   3.925   1.498   6.749
   42MYC    H76 5361   3.823   1.463   6.734
   42MYC    H77 5362   3.921   1.607   6.762
   42MYC    C42 5363   4.009   1.465   6.624
   42MYC    H78 5364   4.112   1.497   6.640
   42MYC    H79 5365   4.011   1.356   6.609
   42MYC    C43 5366   3.955   1.531   6.496
   42MYC    H80 5367   4.018   1.505   6.410
   42MYC    H81 5368   3.955   1.640   6.506
   42MYC    H82 5369   3.853   1.498   6.475
   43MYC   HH15 5370   4.356   1.198   6.616
   43MYC    C80 5371   4.298   1.225   6.705
   43MYC   H100 5372   4.289   1.334   6.708
   43MYC   H101 5373   4.197   1.183   6.695
   43MYC    C79 5374   4.367   1.173   6.832
   43MYC   H102 5375   4.467   1.219   6.839
   43MYC   H103 5376   4.383   1.065   6.823
   43MYC    C78 5377   4.288   1.202   6.961
   43MYC   HH14 5378   4.193   1.147   6.959
   43MYC   H104 5379   4.263   1.309   6.965
   43MYC    C77 5380   4.367   1.165   7.088
   43MYC   H106 5381   4.459   1.225   7.090
   43MYC   H107 5382   4.398   1.060   7.082
   43MYC    C76 5383   4.289   1.188   7.219
   43MYC   H108 5384   4.206   1.116   7.226
   43MYC   H109 5385   4.245   1.288   7.218
   43MYC    C75 5386   4.380   1.174   7.342
   43MYC   H110 5387   4.460   1.249   7.336
   43MYC   H111 5388   4.429   1.076   7.340
   43MYC    C74 5389   4.307   1.190   7.477
   43MYC   H112 5390   4.230   1.113   7.486
   43MYC   H113 5391   4.257   1.288   7.479
   43MYC    C73 5392   4.405   1.180   7.595
   43MYC   HH13 5393   4.481   1.258   7.586
   43MYC   H114 5394   4.458   1.084   7.589
   43MYC    C72 5395   4.337   1.192   7.732
   43MYC   H115 5396   4.257   1.118   7.740
   43MYC   H116 5397   4.292   1.291   7.742
   43MYC    C71 5398   4.437   1.170   7.848
   43MYC   H117 5399   4.517   1.245   7.842
   43MYC   H118 5400   4.484   1.071   7.836
   43MYC    C70 5401   4.370   1.177   7.986
   43MYC   H119 5402   4.286   1.107   7.989
   43MYC   H120 5403   4.330   1.278   8.002
   43MYC    C69 5404   4.467   1.142   8.100
   43MYC   H121 5405   4.552   1.211   8.098
   43MYC   H122 5406   4.507   1.041   8.085
   43MYC    C68 5407   4.399   1.149   8.238
   43MYC   HH12 5408   4.313   1.081   8.238
   43MYC   H123 5409   4.361   1.251   8.254
   43MYC    C67 5410   4.493   1.110   8.354
   43MYC   H124 5411   4.584   1.171   8.349
   43MYC   H125 5412   4.523   1.005   8.343
   43MYC    C66 5413   4.426   1.131   8.491
   43MYC   H126 5414   4.334   1.071   8.495
   43MYC   H127 5415   4.397   1.236   8.501
   43MYC    C65 5416   4.516   1.090   8.609
   43MYC   H128 5417   4.614   1.138   8.598
   43MYC   H129 5418   4.532   0.982   8.606
   43MYC    C64 5419   4.455   1.131   8.744
   43MYC   H130 5420   4.354   1.090   8.753
   43MYC   H131 5421   4.447   1.240   8.749
   43MYC    C63 5422   4.539   1.082   8.863
   43MYC   HH11 5423   4.643   1.117   8.852
   43MYC   H132 5424   4.541   0.973   8.862
   43MYC    C62 5425   4.483   1.130   8.999
   43MYC   H133 5426   4.378   1.102   9.006
   43MYC   H134 5427   4.489   1.240   9.004
   43MYC    C61 5428   4.560   1.069   9.117
   43MYC   H135 5429   4.666   1.098   9.111
   43MYC   H136 5430   4.556   0.960   9.108
   43MYC    C60 5431   4.502   1.109   9.252
   43MYC   H137 5432   4.393   1.104   9.254
   43MYC    C58 5433   4.574   1.067   9.377
   43MYC   H138 5434   4.672   1.020   9.365
   43MYC    C59 5435   4.566   1.213   9.340
   43MYC   H139 5436   4.500   1.277   9.399
   43MYC   H140 5437   4.656   1.262   9.305
   43MYC    C57 5438   4.497   1.009   9.494
   43MYC   HH10 5439   4.485   0.901   9.482
   43MYC   H141 5440   4.395   1.051   9.497
   43MYC    C56 5441   4.567   1.039   9.628
   43MYC   H142 5442   4.589   1.146   9.632
   43MYC   H143 5443   4.663   0.986   9.632
   43MYC    C55 5444   4.482   1.002   9.751
   43MYC   H144 5445   4.470   0.893   9.757
   43MYC   H145 5446   4.382   1.046   9.741
   43MYC    C54 5447   4.546   1.055   9.880
   43MYC   H146 5448   4.561   1.164   9.869
   43MYC   H147 5449   4.646   1.011   9.893
   43MYC    C53 5450   4.463   1.029  10.007
   43MYC   H148 5451   4.470   0.923  10.034
   43MYC   H149 5452   4.357   1.051   9.987
   43MYC    C52 5453   4.510   1.118  10.123
   43MYC    H99 5454   4.488   1.223  10.100
   43MYC   H150 5455   4.619   1.110  10.132
   43MYC    C51 5456   4.447   1.082  10.259
   43MYC    H97 5457   4.482   0.982  10.288
   43MYC    H98 5458   4.338   1.077  10.250
   43MYC    C50 5459   4.485   1.184  10.368
   43MYC    H95 5460   4.423   1.274  10.356
   43MYC    H96 5461   4.589   1.215  10.355
   43MYC    C49 5462   4.469   1.128  10.510
   43MYC    H93 5463   4.538   1.044  10.524
   43MYC    H94 5464   4.367   1.088  10.523
   43MYC    C48 5465   4.498   1.234  10.618
   43MYC    H91 5466   4.424   1.315  10.610
   43MYC    H92 5467   4.596   1.278  10.600
   43MYC    C47 5468   4.495   1.177  10.761
   43MYC    H89 5469   4.568   1.096  10.769
   43MYC    H90 5470   4.396   1.133  10.780
   43MYC    C46 5471   4.526   1.284  10.868
   43MYC    H87 5472   4.463   1.371  10.850
   43MYC    H88 5473   4.630   1.317  10.856
   43MYC    C45 5474   4.503   1.233  11.012
   43MYC    H85 5475   4.582   1.162  11.039
   43MYC    H86 5476   4.408   1.178  11.016
   43MYC    C44 5477   4.496   1.347  11.116
   43MYC    H83 5478   4.461   1.303  11.210
   43MYC    H84 5479   4.419   1.418  11.085
   43MYC    C18 5480   4.628   1.420  11.139
   43MYC    H31 5481   4.699   1.411  11.057
   43MYC    C17 5482   4.629   1.552  11.214
   43MYC    H30 5483   4.534   1.587  11.254
   43MYC    C19 5484   4.686   1.429  11.279
   43MYC    H32 5485   4.631   1.384  11.360
   43MYC    H33 5486   4.794   1.424  11.290
   43MYC    C16 5487   4.721   1.666  11.174
   43MYC    H28 5488   4.814   1.627  11.131
   43MYC    H29 5489   4.750   1.719  11.266
   43MYC    C15 5490   4.658   1.768  11.078
   43MYC    H26 5491   4.695   1.868  11.105
   43MYC    H27 5492   4.549   1.771  11.092
   43MYC    C14 5493   4.690   1.747  10.928
   43MYC    H24 5494   4.661   1.646  10.897
   43MYC    H25 5495   4.799   1.754  10.915
   43MYC    C13 5496   4.621   1.851  10.838
   43MYC    H22 5497   4.615   1.947  10.891
   43MYC    H23 5498   4.517   1.819  10.821
   43MYC    C12 5499   4.692   1.876  10.703
   43MYC    H20 5500   4.697   1.782  10.647
   43MYC    H21 5501   4.795   1.906  10.723
   43MYC    C11 5502   4.627   1.986  10.615
   43MYC    H18 5503   4.688   1.999  10.525
   43MYC    H19 5504   4.633   2.081  10.669
   43MYC    C10 5505   4.480   1.962  10.575
   43MYC    H16 5506   4.448   2.047  10.514
   43MYC    H17 5507   4.417   1.963  10.665
   43MYC     C9 5508   4.451   1.831  10.496
   43MYC    H14 5509   4.343   1.821  10.484
   43MYC    H15 5510   4.483   1.744  10.555
   43MYC     C8 5511   4.517   1.828  10.357
   43MYC    H12 5512   4.626   1.835  10.367
   43MYC    H13 5513   4.484   1.916  10.300
   43MYC     C7 5514   4.485   1.700  10.276
   43MYC    H10 5515   4.376   1.685  10.274
   43MYC    H11 5516   4.529   1.613  10.326
   43MYC     C6 5517   4.535   1.708  10.131
   43MYC     H8 5518   4.640   1.742  10.131
   43MYC     H9 5519   4.477   1.785  10.078
   43MYC     C5 5520   4.527   1.574  10.054
   43MYC     H6 5521   4.432   1.524  10.074
   43MYC     H7 5522   4.605   1.508  10.094
   43MYC     C4 5523   4.550   1.591   9.902
   43MYC     H4 5524   4.590   1.497   9.863
   43MYC     H5 5525   4.630   1.664   9.887
   43MYC     C2 5526   4.426   1.629   9.814
   43MYC     H2 5527   4.404   1.540   9.754
   43MYC     O3 5528   4.310   1.657   9.893
   43MYC     H3 5529   4.281   1.748   9.873
   43MYC     C1 5530   4.454   1.747   9.715
   43MYC     H1 5531   4.555   1.732   9.676
   43MYC    C81 5532   4.453   1.884   9.787
   43MYC    O82 5533   4.352   1.938   9.829
   43MYC    O83 5534   4.573   1.945   9.794
   43MYC   H105 5535   4.557   2.028   9.841
   43MYC    C20 5536   4.357   1.749   9.594
   43MYC    H34 5537   4.254   1.742   9.628
   43MYC    H35 5538   4.368   1.846   9.544
   43MYC    C21 5539   4.385   1.637   9.490
   43MYC    H36 5540   4.493   1.635   9.468
   43MYC    H37 5541   4.359   1.539   9.532
   43MYC    C22 5542   4.308   1.658   9.358
   43MYC    H38 5543   4.200   1.648   9.376
   43MYC    H39 5544   4.325   1.761   9.325
   43MYC    C23 5545   4.351   1.562   9.245
   43MYC    H40 5546   4.461   1.559   9.241
   43MYC    H41 5547   4.317   1.460   9.267
   43MYC    C24 5548   4.298   1.608   9.108
   43MYC    H42 5549   4.188   1.604   9.108
   43MYC    H43 5550   4.326   1.713   9.094
   43MYC    C25 5551   4.352   1.526   8.989
   43MYC    H44 5552   4.460   1.511   9.000
   43MYC    H45 5553   4.305   1.427   8.987
   43MYC    C26 5554   4.326   1.600   8.855
   43MYC    H46 5555   4.219   1.620   8.846
   43MYC    H47 5556   4.376   1.698   8.860
   43MYC    C27 5557   4.375   1.525   8.730
   43MYC    H48 5558   4.477   1.490   8.744
   43MYC    H49 5559   4.311   1.437   8.714
   43MYC    C28 5560   4.369   1.616   8.605
   43MYC    H50 5561   4.271   1.666   8.602
   43MYC    H51 5562   4.444   1.695   8.616
   43MYC    C29 5563   4.392   1.543   8.471
   43MYC    H52 5564   4.487   1.490   8.473
   43MYC    H53 5565   4.313   1.469   8.458
   43MYC    C30 5566   4.391   1.642   8.353
   43MYC    H54 5567   4.305   1.711   8.365
   43MYC    H55 5568   4.481   1.704   8.357
   43MYC    C31 5569   4.380   1.575   8.215
   43MYC    H56 5570   4.466   1.508   8.199
   43MYC    H57 5571   4.290   1.513   8.212
   43MYC    C32 5572   4.373   1.679   8.101
   43MYC    H58 5573   4.298   1.755   8.126
   43MYC    H59 5574   4.470   1.730   8.093
   43MYC    C33 5575   4.337   1.617   7.964
   43MYC    H60 5576   4.409   1.539   7.939
   43MYC    H61 5577   4.239   1.569   7.973
   43MYC    C34 5578   4.333   1.721   7.851
   43MYC    H62 5579   4.269   1.806   7.881
   43MYC    H63 5580   4.434   1.761   7.835
   43MYC    C35 5581   4.279   1.663   7.718
   43MYC    H64 5582   4.334   1.572   7.694
   43MYC    H65 5583   4.174   1.636   7.732
   43MYC    C36 5584   4.291   1.762   7.601
   43MYC    H66 5585   4.237   1.855   7.624
   43MYC    H67 5586   4.397   1.789   7.588
   43MYC    C37 5587   4.237   1.704   7.468
   43MYC    H68 5588   4.284   1.607   7.450
   43MYC    H69 5589   4.129   1.687   7.477
   43MYC    C38 5590   4.265   1.796   7.348
   43MYC    H70 5591   4.214   1.893   7.363
   43MYC    H71 5592   4.372   1.817   7.342
   43MYC    C39 5593   4.219   1.736   7.213
   43MYC    H72 5594   4.267   1.638   7.199
   43MYC    H73 5595   4.111   1.718   7.216
   43MYC    C40 5596   4.253   1.827   7.093
   43MYC    H74 5597   4.201   1.922   7.104
   43MYC    H75 5598   4.361   1.849   7.095
   43MYC    C41 5599   4.217   1.764   6.957
   43MYC    H76 5600   4.270   1.668   6.946
   43MYC    H77 5601   4.110   1.741   6.955
   43MYC    C42 5602   4.253   1.855   6.838
   43MYC    H78 5603   4.195   1.949   6.845
   43MYC    H79 5604   4.359   1.882   6.843
   43MYC    C43 5605   4.225   1.790   6.701
   43MYC    H80 5606   4.251   1.859   6.620
   43MYC    H81 5607   4.119   1.764   6.692
   43MYC    H82 5608   4.284   1.699   6.689
   44MYC   HH15 5609   5.613   1.397   6.680
   44MYC    C80 5610   5.601   1.290   6.659
   44MYC   H100 5611   5.496   1.272   6.632
   44MYC   H101 5612   5.664   1.265   6.573
   44MYC    C79 5613   5.641   1.206   6.782
   44MYC   H102 5614   5.748   1.220   6.800
   44MYC   H103 5615   5.626   1.100   6.760
   44MYC    C78 5616   5.563   1.245   6.910
   44MYC   HH14 5617   5.457   1.222   6.895
   44MYC   H104 5618   5.571   1.353   6.925
   44MYC    C77 5619   5.615   1.173   7.036
   44MYC   H106 5620   5.721   1.194   7.049
   44MYC   H107 5621   5.604   1.064   7.023
   44MYC    C76 5622   5.539   1.216   7.163
   44MYC   H108 5623   5.435   1.181   7.157
   44MYC   H109 5624   5.535   1.325   7.168
   44MYC    C75 5625   5.602   1.164   7.294
   44MYC   H110 5626   5.704   1.202   7.303
   44MYC   H111 5627   5.609   1.054   7.290
   44MYC    C74 5628   5.520   1.206   7.418
   44MYC   H112 5629   5.422   1.157   7.412
   44MYC   H113 5630   5.503   1.314   7.414
   44MYC    C73 5631   5.586   1.172   7.553
   44MYC   HH13 5632   5.681   1.227   7.562
   44MYC   H114 5633   5.610   1.065   7.556
   44MYC    C72 5634   5.493   1.208   7.670
   44MYC   H115 5635   5.402   1.147   7.661
   44MYC   H116 5636   5.462   1.312   7.660
   44MYC    C71 5637   5.553   1.187   7.810
   44MYC   H117 5638   5.638   1.256   7.824
   44MYC   H118 5639   5.592   1.085   7.820
   44MYC    C70 5640   5.447   1.212   7.919
   44MYC   H119 5641   5.368   1.137   7.908
   44MYC   H120 5642   5.400   1.310   7.902
   44MYC    C69 5643   5.501   1.208   8.063
   44MYC   H121 5644   5.572   1.291   8.078
   44MYC   H122 5645   5.555   1.115   8.080
   44MYC    C68 5646   5.386   1.220   8.166
   44MYC   HH12 5647   5.320   1.133   8.155
   44MYC   H123 5648   5.325   1.308   8.144
   44MYC    C67 5649   5.434   1.228   8.312
   44MYC   H124 5650   5.486   1.323   8.328
   44MYC   H125 5651   5.507   1.148   8.331
   44MYC    C66 5652   5.318   1.216   8.412
   44MYC   H126 5653   5.266   1.120   8.394
   44MYC   H127 5654   5.245   1.295   8.394
   44MYC    C65 5655   5.363   1.221   8.559
   44MYC   H128 5656   5.401   1.321   8.582
   44MYC   H129 5657   5.446   1.151   8.574
   44MYC    C64 5658   5.249   1.185   8.657
   44MYC   H130 5659   5.209   1.087   8.630
   44MYC   H131 5660   5.167   1.257   8.645
   44MYC    C63 5661   5.295   1.182   8.803
   44MYC   HH11 5662   5.329   1.283   8.833
   44MYC   H132 5663   5.382   1.115   8.813
   44MYC    C62 5664   5.184   1.135   8.899
   44MYC   H133 5665   5.149   1.036   8.868
   44MYC   H134 5666   5.099   1.203   8.892
   44MYC    C61 5667   5.231   1.129   9.045
   44MYC   H135 5668   5.272   1.227   9.074
   44MYC   H136 5669   5.314   1.057   9.054
   44MYC    C60 5670   5.120   1.089   9.141
   44MYC   H137 5671   5.079   0.990   9.120
   44MYC    C58 5672   5.127   1.130   9.285
   44MYC   H138 5673   5.211   1.193   9.313
   44MYC    C59 5674   5.023   1.192   9.194
   44MYC   H139 5675   4.920   1.163   9.207
   44MYC   H140 5676   5.038   1.296   9.165
   44MYC    C57 5677   5.085   1.037   9.398
   44MYC   HH10 5678   5.167   0.968   9.419
   44MYC   H141 5679   4.998   0.977   9.370
   44MYC    C56 5680   5.054   1.118   9.526
   44MYC   H142 5681   4.966   1.181   9.510
   44MYC   H143 5682   5.138   1.185   9.545
   44MYC    C55 5683   5.032   1.030   9.651
   44MYC   H144 5684   5.109   0.952   9.654
   44MYC   H145 5685   4.935   0.979   9.644
   44MYC    C54 5686   5.040   1.113   9.780
   44MYC   H146 5687   4.959   1.187   9.782
   44MYC   H147 5688   5.134   1.169   9.779
   44MYC    C53 5689   5.035   1.028   9.908
   44MYC   H148 5690   5.102   0.943   9.897
   44MYC   H149 5691   4.933   0.988   9.922
   44MYC    C52 5692   5.076   1.109  10.033
   44MYC    H99 5693   5.006   1.192  10.048
   44MYC   H150 5694   5.175   1.153  10.015
   44MYC    C51 5695   5.083   1.023  10.160
   44MYC    H97 5696   5.149   0.938  10.143
   44MYC    H98 5697   4.983   0.983  10.181
   44MYC    C50 5698   5.133   1.103  10.282
   44MYC    H95 5699   5.065   1.187  10.300
   44MYC    H96 5700   5.232   1.145  10.261
   44MYC    C49 5701   5.141   1.016  10.409
   44MYC    H93 5702   5.217   0.938  10.396
   44MYC    H94 5703   5.045   0.965  10.424
   44MYC    C48 5704   5.173   1.098  10.536
   44MYC    H91 5705   5.097   1.177  10.547
   44MYC    H92 5706   5.270   1.148  10.525
   44MYC    C47 5707   5.174   1.011  10.663
   44MYC    H89 5708   5.267   0.953  10.666
   44MYC    H90 5709   5.093   0.938  10.655
   44MYC    C46 5710   5.155   1.091  10.793
   44MYC    H87 5711   5.057   1.141  10.786
   44MYC    H88 5712   5.230   1.170  10.801
   44MYC    C45 5713   5.159   1.003  10.920
   44MYC    H85 5714   5.260   1.001  10.961
   44MYC    H86 5715   5.135   0.899  10.892
   44MYC    C44 5716   5.058   1.046  11.028
   44MYC    H83 5717   5.051   0.964  11.100
   44MYC    H84 5718   4.959   1.055  10.983
   44MYC    C18 5719   5.095   1.174  11.103
   44MYC    H31 5720   5.181   1.161  11.167
   44MYC    C17 5721   5.074   1.313  11.045
   44MYC    H30 5722   5.032   1.318  10.946
   44MYC    C19 5723   4.985   1.263  11.156
   44MYC    H32 5724   4.882   1.238  11.130
   44MYC    H33 5725   4.998   1.304  11.256
   44MYC    C16 5726   5.178   1.422  11.072
   44MYC    H28 5727   5.271   1.397  11.021
   44MYC    H29 5728   5.202   1.422  11.179
   44MYC    C15 5729   5.135   1.566  11.033
   44MYC    H26 5730   5.213   1.634  11.068
   44MYC    H27 5731   5.044   1.593  11.087
   44MYC    C14 5732   5.113   1.589  10.881
   44MYC    H24 5733   5.019   1.543  10.850
   44MYC    H25 5734   5.193   1.539  10.825
   44MYC    C13 5735   5.113   1.739  10.844
   44MYC    H22 5736   5.212   1.780  10.866
   44MYC    H23 5737   5.042   1.792  10.908
   44MYC    C12 5738   5.078   1.768  10.696
   44MYC    H20 5739   4.973   1.743  10.678
   44MYC    H21 5740   5.138   1.703  10.631
   44MYC    C11 5741   5.105   1.916  10.658
   44MYC    H18 5742   5.212   1.937  10.670
   44MYC    H19 5743   5.052   1.980  10.731
   44MYC    C10 5744   5.060   1.959  10.516
   44MYC    H16 5745   5.081   2.066  10.506
   44MYC    H17 5746   4.952   1.947  10.507
   44MYC     C9 5747   5.129   1.883  10.400
   44MYC    H14 5748   5.089   1.781  10.396
   44MYC    H15 5749   5.236   1.874  10.419
   44MYC     C8 5750   5.108   1.953  10.264
   44MYC    H12 5751   5.168   2.045  10.261
   44MYC    H13 5752   5.003   1.983  10.254
   44MYC     C7 5753   5.144   1.864  10.142
   44MYC    H10 5754   5.077   1.778  10.140
   44MYC    H11 5755   5.246   1.825  10.155
   44MYC     C6 5756   5.136   1.939  10.007
   44MYC     H8 5757   5.218   2.011  10.001
   44MYC     H9 5758   5.043   1.997  10.002
   44MYC     C5 5759   5.141   1.843   9.886
   44MYC     H6 5760   5.052   1.780   9.888
   44MYC     H7 5761   5.228   1.777   9.899
   44MYC     C4 5762   5.152   1.915   9.749
   44MYC     H4 5763   5.248   1.969   9.747
   44MYC     H5 5764   5.074   1.992   9.742
   44MYC     C2 5765   5.146   1.822   9.624
   44MYC     H2 5766   5.227   1.855   9.558
   44MYC     O3 5767   5.170   1.685   9.659
   44MYC     H3 5768   5.222   1.644   9.588
   44MYC     C1 5769   5.014   1.834   9.540
   44MYC     H1 5770   5.018   1.934   9.495
   44MYC    C81 5771   4.885   1.829   9.624
   44MYC    O82 5772   4.849   1.733   9.689
   44MYC    O83 5773   4.805   1.937   9.607
   44MYC   H105 5774   4.726   1.920   9.662
   44MYC    C20 5775   5.005   1.735   9.420
   44MYC    H34 5776   5.001   1.632   9.457
   44MYC    H35 5777   4.910   1.753   9.368
   44MYC    C21 5778   5.120   1.750   9.318
   44MYC    H36 5779   5.125   1.854   9.284
   44MYC    H37 5780   5.215   1.727   9.366
   44MYC    C22 5781   5.104   1.658   9.195
   44MYC    H38 5782   5.107   1.553   9.227
   44MYC    H39 5783   5.006   1.676   9.150
   44MYC    C23 5784   5.214   1.683   9.089
   44MYC    H40 5785   5.218   1.791   9.068
   44MYC    H41 5786   5.312   1.655   9.130
   44MYC    C24 5787   5.188   1.608   8.958
   44MYC    H42 5788   5.199   1.500   8.974
   44MYC    H43 5789   5.083   1.625   8.929
   44MYC    C25 5790   5.280   1.654   8.843
   44MYC    H44 5791   5.286   1.763   8.844
   44MYC    H45 5792   5.381   1.615   8.858
   44MYC    C26 5793   5.227   1.610   8.705
   44MYC    H46 5794   5.232   1.501   8.697
   44MYC    H47 5795   5.122   1.638   8.697
   44MYC    C27 5796   5.304   1.674   8.588
   44MYC    H48 5797   5.313   1.782   8.606
   44MYC    H49 5798   5.405   1.633   8.582
   44MYC    C28 5799   5.231   1.653   8.454
   44MYC    H50 5800   5.222   1.546   8.433
   44MYC    H51 5801   5.129   1.693   8.462
   44MYC    C29 5802   5.301   1.721   8.335
   44MYC    H52 5803   5.319   1.827   8.358
   44MYC    H53 5804   5.399   1.674   8.318
   44MYC    C30 5805   5.217   1.713   8.206
   44MYC    H54 5806   5.188   1.608   8.190
   44MYC    H55 5807   5.124   1.770   8.221
   44MYC    C31 5808   5.289   1.765   8.081
   44MYC    H56 5809   5.320   1.868   8.097
   44MYC    H57 5810   5.379   1.705   8.064
   44MYC    C32 5811   5.198   1.757   7.956
   44MYC    H58 5812   5.158   1.656   7.947
   44MYC    H59 5813   5.113   1.824   7.970
   44MYC    C33 5814   5.271   1.793   7.825
   44MYC    H60 5815   5.311   1.895   7.832
   44MYC    H61 5816   5.356   1.726   7.811
   44MYC    C34 5817   5.177   1.784   7.703
   44MYC    H62 5818   5.131   1.684   7.701
   44MYC    H63 5819   5.095   1.856   7.715
   44MYC    C35 5820   5.247   1.809   7.568
   44MYC    H64 5821   5.293   1.908   7.570
   44MYC    H65 5822   5.327   1.736   7.555
   44MYC    C36 5823   5.149   1.800   7.450
   44MYC    H66 5824   5.096   1.704   7.455
   44MYC    H67 5825   5.074   1.879   7.459
   44MYC    C37 5826   5.218   1.811   7.312
   44MYC    H68 5827   5.275   1.904   7.307
   44MYC    H69 5828   5.289   1.728   7.301
   44MYC    C38 5829   5.116   1.809   7.196
   44MYC    H70 5830   5.050   1.722   7.208
   44MYC    H71 5831   5.053   1.899   7.202
   44MYC    C39 5832   5.182   1.801   7.057
   44MYC    H72 5833   5.253   1.885   7.045
   44MYC    H73 5834   5.240   1.709   7.050
   44MYC    C40 5835   5.078   1.806   6.942
   44MYC    H74 5836   5.003   1.728   6.960
   44MYC    H75 5837   5.027   1.902   6.945
   44MYC    C41 5838   5.140   1.784   6.803
   44MYC    H76 5839   5.216   1.861   6.784
   44MYC    H77 5840   5.191   1.687   6.800
   44MYC    C42 5841   5.035   1.789   6.690
   44MYC    H78 5842   4.957   1.715   6.709
   44MYC    H79 5843   4.985   1.887   6.690
   44MYC    C43 5844   5.094   1.764   6.550
   44MYC    H80 5845   5.015   1.768   6.474
   44MYC    H81 5846   5.141   1.665   6.545
   44MYC    H82 5847   5.170   1.839   6.526
   45MYC   HH15 5848   6.077   1.322   6.578
   45MYC    C80 5849   6.012   1.316   6.666
   45MYC   H100 5850   5.957   1.410   6.674
   45MYC   H101 5851   5.940   1.235   6.651
   45MYC    C79 5852   6.097   1.291   6.792
   45MYC   H102 5853   6.173   1.369   6.800
   45MYC   H103 5854   6.149   1.195   6.781
   45MYC    C78 5855   6.012   1.289   6.921
   45MYC   HH14 5856   5.938   1.209   6.914
   45MYC   H104 5857   5.958   1.383   6.931
   45MYC    C77 5858   6.096   1.265   7.049
   45MYC   H106 5859   6.175   1.340   7.055
   45MYC   H107 5860   6.145   1.167   7.043
   45MYC    C76 5861   6.009   1.271   7.176
   45MYC   H108 5862   5.926   1.200   7.168
   45MYC   H109 5863   5.965   1.371   7.185
   45MYC    C75 5864   6.088   1.239   7.305
   45MYC   H110 5865   6.177   1.303   7.310
   45MYC   H111 5866   6.123   1.135   7.301
   45MYC    C74 5867   6.003   1.261   7.432
   45MYC   H112 5868   5.913   1.199   7.427
   45MYC   H113 5869   5.971   1.365   7.436
   45MYC    C73 5870   6.080   1.226   7.561
   45MYC   HH13 5871   6.177   1.278   7.560
   45MYC   H114 5872   6.102   1.118   7.562
   45MYC    C72 5873   6.003   1.265   7.688
   45MYC   H115 5874   5.906   1.214   7.690
   45MYC   H116 5875   5.983   1.373   7.686
   45MYC    C71 5876   6.081   1.230   7.817
   45MYC   H117 5877   6.183   1.269   7.808
   45MYC   H118 5878   6.089   1.121   7.826
   45MYC    C70 5879   6.017   1.289   7.944
   45MYC   H119 5880   5.914   1.252   7.954
   45MYC   H120 5881   6.011   1.398   7.934
   45MYC    C69 5882   6.097   1.254   8.070
   45MYC   H121 5883   6.203   1.278   8.053
   45MYC   H122 5884   6.092   1.145   8.087
   45MYC    C68 5885   6.050   1.328   8.196
   45MYC   HH12 5886   5.944   1.306   8.215
   45MYC   H123 5887   6.058   1.436   8.181
   45MYC    C67 5888   6.133   1.287   8.319
   45MYC   H124 5889   6.239   1.304   8.297
   45MYC   H125 5890   6.121   1.179   8.336
   45MYC    C66 5891   6.098   1.363   8.448
   45MYC   H126 5892   5.991   1.348   8.472
   45MYC   H127 5893   6.114   1.470   8.434
   45MYC    C65 5894   6.184   1.312   8.565
   45MYC   H128 5895   6.290   1.324   8.538
   45MYC   H129 5896   6.166   1.204   8.576
   45MYC    C64 5897   6.159   1.380   8.700
   45MYC   H130 5898   6.053   1.371   8.728
   45MYC   H131 5899   6.183   1.487   8.693
   45MYC    C63 5900   6.246   1.314   8.808
   45MYC   HH11 5901   6.351   1.319   8.776
   45MYC   H132 5902   6.221   1.207   8.813
   45MYC    C62 5903   6.235   1.374   8.949
   45MYC   H133 5904   6.130   1.379   8.980
   45MYC   H134 5905   6.274   1.476   8.948
   45MYC    C61 5906   6.315   1.287   9.049
   45MYC   H135 5907   6.412   1.262   9.003
   45MYC   H136 5908   6.263   1.192   9.064
   45MYC    C60 5909   6.340   1.353   9.183
   45MYC   H137 5910   6.248   1.377   9.236
   45MYC    C58 5911   0.008   1.306   9.265
   45MYC   H138 5912   0.074   1.234   9.217
   45MYC    C59 5913   0.007   1.446   9.206
   45MYC   H139 5914   6.440   1.532   9.271
   45MYC   H140 5915   0.073   1.466   9.122
   45MYC    C57 5916   6.437   1.273   9.412
   45MYC   HH10 5917   0.073   1.216   9.447
   45MYC   H141 5918   6.351   1.205   9.420
   45MYC    C56 5919   6.416   1.394   9.506
   45MYC   H142 5920   6.326   1.450   9.476
   45MYC   H143 5921   0.051   1.462   9.495
   45MYC    C55 5922   6.405   1.356   9.654
   45MYC   H144 5923   6.416   1.447   9.714
   45MYC   H145 5924   0.039   1.291   9.681
   45MYC    C54 5925   6.273   1.285   9.692
   45MYC   H146 5926   6.254   1.202   9.624
   45MYC   H147 5927   6.189   1.355   9.681
   45MYC    C53 5928   6.273   1.228   9.835
   45MYC   H148 5929   6.353   1.153   9.844
   45MYC   H149 5930   6.179   1.176   9.851
   45MYC    C52 5931   6.290   1.332   9.948
   45MYC    H99 5932   6.206   1.403   9.944
   45MYC   H150 5933   6.382   1.390   9.934
   45MYC    C51 5934   6.295   1.264  10.086
   45MYC    H97 5935   6.388   1.207  10.095
   45MYC    H98 5936   6.213   1.192  10.094
   45MYC    C50 5937   6.285   1.364  10.203
   45MYC    H95 5938   6.192   1.421  10.192
   45MYC    H96 5939   6.368   1.436  10.198
   45MYC    C49 5940   6.287   1.294  10.340
   45MYC    H93 5941   6.389   1.262  10.364
   45MYC    H94 5942   6.225   1.203  10.335
   45MYC    C48 5943   6.232   1.384  10.452
   45MYC    H91 5944   6.129   1.412  10.426
   45MYC    H92 5945   6.290   1.477  10.457
   45MYC    C47 5946   6.232   1.316  10.591
   45MYC    H89 5947   6.334   1.317  10.632
   45MYC    H90 5948   6.202   1.211  10.582
   45MYC    C46 5949   6.136   1.387  10.687
   45MYC    H87 5950   6.034   1.382  10.645
   45MYC    H88 5951   6.163   1.493  10.692
   45MYC    C45 5952   6.134   1.327  10.830
   45MYC    H85 5953   6.228   1.349  10.880
   45MYC    H86 5954   6.127   1.217  10.822
   45MYC    C44 5955   6.015   1.377  10.915
   45MYC    H83 5956   6.015   1.322  11.010
   45MYC    H84 5957   5.921   1.350  10.864
   45MYC    C18 5958   6.015   1.527  10.942
   45MYC    H31 5959   6.031   1.587  10.853
   45MYC    C17 5960   5.917   1.585  11.041
   45MYC    H30 5961   5.855   1.513  11.094
   45MYC    C19 5962   6.065   1.583  11.073
   45MYC    H32 5963   6.100   1.514  11.148
   45MYC    H33 5964   6.119   1.678  11.070
   45MYC    C16 5965   5.844   1.716  11.015
   45MYC    H28 5966   5.914   1.794  10.983
   45MYC    H29 5967   5.803   1.751  11.111
   45MYC    C15 5968   5.728   1.706  10.914
   45MYC    H26 5969   5.656   1.785  10.938
   45MYC    H27 5970   5.675   1.611  10.928
   45MYC    C14 5971   5.770   1.723  10.766
   45MYC    H24 5972   5.830   1.637  10.733
   45MYC    H25 5973   5.834   1.812  10.758
   45MYC    C13 5974   5.651   1.742  10.669
   45MYC    H22 5975   5.688   1.785  10.575
   45MYC    H23 5976   5.583   1.817  10.712
   45MYC    C12 5977   5.571   1.614  10.637
   45MYC    H20 5978   5.551   1.560  10.730
   45MYC    H21 5979   5.632   1.549  10.573
   45MYC    C11 5980   5.436   1.645  10.567
   45MYC    H18 5981   5.454   1.707  10.478
   45MYC    H19 5982   5.377   1.707  10.635
   45MYC    C10 5983   5.351   1.521  10.528
   45MYC    H16 5984   5.253   1.556  10.493
   45MYC    H17 5985   5.331   1.461  10.617
   45MYC     C9 5986   5.410   1.430  10.417
   45MYC    H14 5987   5.340   1.348  10.399
   45MYC    H15 5988   5.504   1.385  10.451
   45MYC     C8 5989   5.434   1.506  10.285
   45MYC    H12 5990   5.521   1.571  10.297
   45MYC    H13 5991   5.348   1.572  10.266
   45MYC     C7 5992   5.454   1.416  10.162
   45MYC    H10 5993   5.365   1.353  10.148
   45MYC    H11 5994   5.540   1.349  10.178
   45MYC     C6 5995   5.478   1.502  10.037
   45MYC     H8 5996   5.572   1.556  10.049
   45MYC     H9 5997   5.399   1.578  10.030
   45MYC     C5 5998   5.480   1.424   9.904
   45MYC     H6 5999   5.382   1.378   9.887
   45MYC     H7 6000   5.554   1.343   9.910
   45MYC     C4 6001   5.516   1.518   9.788
   45MYC     H4 6002   5.617   1.556   9.806
   45MYC     H5 6003   5.448   1.604   9.790
   45MYC     C2 6004   5.511   1.453   9.648
   45MYC     H2 6005   5.561   1.355   9.654
   45MYC     O3 6006   5.375   1.434   9.609
   45MYC     H3 6007   5.331   1.381   9.678
   45MYC     C1 6008   5.588   1.537   9.543
   45MYC     H1 6009   5.693   1.534   9.574
   45MYC    C81 6010   5.544   1.685   9.543
   45MYC    O82 6011   5.441   1.727   9.493
   45MYC    O83 6012   5.626   1.768   9.612
   45MYC   H105 6013   5.583   1.854   9.610
   45MYC    C20 6014   5.579   1.476   9.401
   45MYC    H34 6015   5.602   1.369   9.407
   45MYC    H35 6016   5.476   1.484   9.365
   45MYC    C21 6017   5.675   1.542   9.300
   45MYC    H36 6018   5.661   1.650   9.301
   45MYC    H37 6019   5.778   1.521   9.328
   45MYC    C22 6020   5.648   1.489   9.159
   45MYC    H38 6021   5.655   1.380   9.158
   45MYC    H39 6022   5.544   1.514   9.131
   45MYC    C23 6023   5.742   1.547   9.053
   45MYC    H40 6024   5.739   1.657   9.057
   45MYC    H41 6025   5.846   1.517   9.074
   45MYC    C24 6026   5.701   1.500   8.913
   45MYC    H42 6027   5.714   1.391   8.906
   45MYC    H43 6028   5.595   1.521   8.899
   45MYC    C25 6029   5.779   1.567   8.799
   45MYC    H44 6030   5.773   1.676   8.810
   45MYC    H45 6031   5.885   1.539   8.805
   45MYC    C26 6032   5.721   1.527   8.663
   45MYC    H46 6033   5.732   1.419   8.650
   45MYC    H47 6034   5.613   1.548   8.663
   45MYC    C27 6035   5.785   1.600   8.544
   45MYC    H48 6036   5.781   1.708   8.560
   45MYC    H49 6037   5.890   1.571   8.536
   45MYC    C28 6038   5.711   1.565   8.414
   45MYC    H50 6039   5.710   1.456   8.401
   45MYC    H51 6040   5.607   1.597   8.422
   45MYC    C29 6041   5.773   1.629   8.289
   45MYC    H52 6042   5.779   1.738   8.302
   45MYC    H53 6043   5.876   1.592   8.277
   45MYC    C30 6044   5.691   1.597   8.163
   45MYC    H54 6045   5.676   1.488   8.157
   45MYC    H55 6046   5.592   1.642   8.172
   45MYC    C31 6047   5.757   1.646   8.033
   45MYC    H56 6048   5.773   1.754   8.039
   45MYC    H57 6049   5.856   1.599   8.024
   45MYC    C32 6050   5.673   1.612   7.909
   45MYC    H58 6051   5.650   1.505   7.908
   45MYC    H59 6052   5.577   1.665   7.914
   45MYC    C33 6053   5.746   1.649   7.779
   45MYC    H60 6054   5.769   1.756   7.780
   45MYC    H61 6055   5.842   1.596   7.776
   45MYC    C34 6056   5.665   1.615   7.652
   45MYC    H62 6057   5.639   1.508   7.652
   45MYC    H63 6058   5.572   1.672   7.651
   45MYC    C35 6059   5.746   1.648   7.525
   45MYC    H64 6060   5.776   1.753   7.529
   45MYC    H65 6061   5.839   1.589   7.527
   45MYC    C36 6062   5.672   1.621   7.393
   45MYC    H66 6063   5.644   1.515   7.388
   45MYC    H67 6064   5.580   1.680   7.390
   45MYC    C37 6065   5.761   1.657   7.273
   45MYC    H68 6066   5.793   1.762   7.283
   45MYC    H69 6067   5.852   1.596   7.276
   45MYC    C38 6068   5.694   1.640   7.136
   45MYC    H70 6069   5.665   1.535   7.122
   45MYC    H71 6070   5.602   1.700   7.132
   45MYC    C39 6071   5.789   1.683   7.022
   45MYC    H72 6072   5.817   1.788   7.038
   45MYC    H73 6073   5.881   1.624   7.029
   45MYC    C40 6074   5.731   1.668   6.881
   45MYC    H74 6075   5.705   1.562   6.863
   45MYC    H75 6076   5.638   1.726   6.873
   45MYC    C41 6077   5.830   1.716   6.773
   45MYC    H76 6078   5.852   1.822   6.790
   45MYC    H77 6079   5.925   1.661   6.786
   45MYC    C42 6080   5.780   1.697   6.629
   45MYC    H78 6081   5.758   1.591   6.612
   45MYC    H79 6082   5.686   1.752   6.615
   45MYC    C43 6083   5.882   1.745   6.524
   45MYC    H80 6084   5.846   1.724   6.423
   45MYC    H81 6085   5.978   1.693   6.537
   45MYC    H82 6086   5.900   1.853   6.534
   46MYC   HH15 6087   0.602   2.515   6.660
   46MYC    C80 6088   0.565   2.448   6.739
   46MYC   H100 6089   0.457   2.438   6.727
   46MYC   H101 6090   0.611   2.349   6.725
   46MYC    C79 6091   0.600   2.505   6.877
   46MYC   H102 6092   0.558   2.606   6.885
   46MYC   H103 6093   0.709   2.514   6.886
   46MYC    C78 6094   0.546   2.419   6.994
   46MYC   HH14 6095   0.587   2.318   6.987
   46MYC   H104 6096   0.437   2.412   6.986
   46MYC    C77 6097   0.583   2.479   7.131
   46MYC   H106 6098   0.551   2.584   7.133
   46MYC   H107 6099   0.692   2.478   7.142
   46MYC    C76 6100   0.519   2.405   7.251
   46MYC   H108 6101   0.554   2.301   7.253
   46MYC   H109 6102   0.410   2.403   7.238
   46MYC    C75 6103   0.553   2.476   7.383
   46MYC   H110 6104   0.521   2.580   7.377
   46MYC   H111 6105   0.662   2.476   7.397
   46MYC    C74 6106   0.488   2.412   7.508
   46MYC   H112 6107   0.529   2.311   7.523
   46MYC   H113 6108   0.380   2.402   7.492
   46MYC    C73 6109   0.514   2.498   7.632
   46MYC   HH13 6110   0.461   2.594   7.621
   46MYC   H114 6111   0.621   2.522   7.638
   46MYC    C72 6112   0.472   2.432   7.765
   46MYC   H115 6113   0.534   2.343   7.781
   46MYC   H116 6114   0.368   2.399   7.758
   46MYC    C71 6115   0.488   2.529   7.883
   46MYC   H117 6116   0.402   2.598   7.884
   46MYC   H118 6117   0.577   2.590   7.869
   46MYC    C70 6118   0.499   2.458   8.019
   46MYC   H119 6119   0.593   2.401   8.022
   46MYC   H120 6120   0.417   2.386   8.030
   46MYC    C69 6121   0.495   2.557   8.136
   46MYC   H121 6122   0.393   2.598   8.144
   46MYC   H122 6123   0.562   2.642   8.116
   46MYC    C68 6124   0.535   2.494   8.271
   46MYC   HH12 6125   0.643   2.474   8.270
   46MYC   H123 6126   0.484   2.398   8.284
   46MYC    C67 6127   0.500   2.586   8.389
   46MYC   H124 6128   0.391   2.596   8.395
   46MYC   H125 6129   0.541   2.686   8.370
   46MYC    C66 6130   0.554   2.535   8.523
   46MYC   H126 6131   0.664   2.531   8.519
   46MYC   H127 6132   0.519   2.432   8.541
   46MYC    C65 6133   0.510   2.625   8.639
   46MYC   H128 6134   0.400   2.625   8.646
   46MYC   H129 6135   0.540   2.729   8.617
   46MYC    C64 6136   0.569   2.583   8.774
   46MYC   H130 6137   0.678   2.575   8.764
   46MYC   H131 6138   0.531   2.484   8.801
   46MYC    C63 6139   0.536   2.685   8.884
   46MYC   HH11 6140   0.428   2.696   8.891
   46MYC   H132 6141   0.578   2.782   8.856
   46MYC    C62 6142   0.592   2.644   9.021
   46MYC   H133 6143   0.697   2.614   9.011
   46MYC   H134 6144   0.536   2.556   9.057
   46MYC    C61 6145   0.581   2.758   9.123
   46MYC   H135 6146   0.481   2.802   9.117
   46MYC   H136 6147   0.652   2.837   9.096
   46MYC    C60 6148   0.609   2.710   9.264
   46MYC   H137 6149   0.705   2.661   9.273
   46MYC    C58 6150   0.563   2.792   9.381
   46MYC   H138 6151   0.504   2.881   9.361
   46MYC    C59 6152   0.497   2.659   9.351
   46MYC   H139 6153   0.517   2.576   9.418
   46MYC   H140 6154   0.396   2.661   9.312
   46MYC    C57 6155   0.654   2.810   9.501
   46MYC   HH10 6156   0.704   2.907   9.496
   46MYC   H141 6157   0.733   2.733   9.501
   46MYC    C56 6158   0.576   2.799   9.633
   46MYC   H142 6159   0.530   2.699   9.639
   46MYC   H143 6160   0.494   2.871   9.633
   46MYC    C55 6161   0.664   2.822   9.756
   46MYC   H144 6162   0.694   2.928   9.760
   46MYC   H145 6163   0.756   2.763   9.747
   46MYC    C54 6164   0.592   2.783   9.886
   46MYC   H146 6165   0.571   2.675   9.883
   46MYC   H147 6166   0.496   2.834   9.891
   46MYC    C53 6167   0.675   2.816  10.011
   46MYC   H148 6168   0.683   2.924  10.023
   46MYC   H149 6169   0.776   2.776   9.999
   46MYC    C52 6170   0.612   2.755  10.137
   46MYC    H99 6171   0.600   2.647  10.121
   46MYC   H150 6172   0.512   2.796  10.152
   46MYC    C51 6173   0.697   2.777  10.264
   46MYC    H97 6174   0.699   2.884  10.288
   46MYC    H98 6175   0.800   2.746  10.244
   46MYC    C50 6176   0.641   2.697  10.382
   46MYC    H95 6177   0.626   2.593  10.350
   46MYC    H96 6178   0.542   2.736  10.409
   46MYC    C49 6179   0.733   2.698  10.506
   46MYC    H93 6180   0.738   2.799  10.548
   46MYC    H94 6181   0.834   2.669  10.476
   46MYC    C48 6182   0.681   2.598  10.611
   46MYC    H91 6183   0.679   2.498  10.566
   46MYC    H92 6184   0.577   2.623  10.637
   46MYC    C47 6185   0.766   2.594  10.738
   46MYC    H89 6186   0.766   2.692  10.787
   46MYC    H90 6187   0.870   2.571  10.711
   46MYC    C46 6188   0.714   2.487  10.836
   46MYC    H87 6189   0.707   2.391  10.784
   46MYC    H88 6190   0.612   2.514  10.868
   46MYC    C45 6191   0.804   2.471  10.959
   46MYC    H85 6192   0.801   2.564  11.018
   46MYC    H86 6193   0.907   2.457  10.926
   46MYC    C44 6194   0.766   2.352  11.049
   46MYC    H83 6195   0.840   2.346  11.129
   46MYC    H84 6196   0.776   2.259  10.991
   46MYC    C18 6197   0.626   2.360  11.110
   46MYC    H31 6198   0.598   2.461  11.139
   46MYC    C17 6199   0.515   2.268  11.065
   46MYC    H30 6200   0.542   2.201  10.984
   46MYC    C19 6201   0.580   2.248  11.200
   46MYC    H32 6202   0.647   2.164  11.213
   46MYC    H33 6203   0.525   2.276  11.289
   46MYC    C16 6204   0.368   2.310  11.060
   46MYC    H28 6205   0.356   2.401  10.999
   46MYC    H29 6206   0.334   2.335  11.161
   46MYC    C15 6207   0.276   2.198  11.005
   46MYC    H26 6208   0.177   2.209  11.051
   46MYC    H27 6209   0.315   2.100  11.035
   46MYC    C14 6210   0.258   2.204  10.852
   46MYC    H24 6211   0.356   2.217  10.804
   46MYC    H25 6212   0.198   2.292  10.830
   46MYC    C13 6213   0.188   2.081  10.790
   46MYC    H22 6214   0.092   2.064  10.840
   46MYC    H23 6215   0.249   1.992  10.807
   46MYC    C12 6216   0.164   2.096  10.637
   46MYC    H20 6217   0.137   1.998  10.596
   46MYC    H21 6218   0.257   2.126  10.589
   46MYC    C11 6219   0.051   2.196  10.600
   46MYC    H18 6220   0.076   2.296  10.635
   46MYC    H19 6221   6.410   2.166  10.653
   46MYC    C10 6222   0.018   2.202  10.449
   46MYC    H16 6223   6.371   2.251  10.436
   46MYC    H17 6224   0.007   2.100  10.410
   46MYC     C9 6225   0.123   2.278  10.364
   46MYC    H14 6226   0.222   2.233  10.379
   46MYC    H15 6227   0.129   2.381  10.399
   46MYC     C8 6228   0.090   2.277  10.213
   46MYC    H12 6229   6.439   2.316  10.198
   46MYC    H13 6230   0.091   2.173  10.176
   46MYC     C7 6231   0.190   2.361  10.130
   46MYC    H10 6232   0.292   2.325  10.147
   46MYC    H11 6233   0.186   2.465  10.165
   46MYC     C6 6234   0.160   2.358   9.978
   46MYC     H8 6235   0.058   2.394   9.961
   46MYC     H9 6236   0.165   2.255   9.944
   46MYC     C5 6237   0.260   2.445   9.898
   46MYC     H6 6238   0.362   2.408   9.912
   46MYC     H7 6239   0.258   2.546   9.940
   46MYC     C4 6240   0.228   2.457   9.746
   46MYC     H4 6241   0.290   2.539   9.707
   46MYC     H5 6242   0.125   2.491   9.734
   46MYC     C2 6243   0.255   2.332   9.655
   46MYC     H2 6244   0.323   2.368   9.577
   46MYC     O3 6245   0.320   2.226   9.726
   46MYC     H3 6246   0.255   2.189   9.789
   46MYC     C1 6247   0.127   2.279   9.582
   46MYC     H1 6248   0.080   2.366   9.536
   46MYC    C81 6249   0.024   2.220   9.680
   46MYC    O82 6250   0.039   2.116   9.742
   46MYC    O83 6251   6.359   2.292   9.691
   46MYC   H105 6252   6.304   2.243   9.754
   46MYC    C20 6253   0.159   2.179   9.468
   46MYC    H34 6254   0.220   2.096   9.506
   46MYC    H35 6255   0.065   2.135   9.433
   46MYC    C21 6256   0.229   2.245   9.347
   46MYC    H36 6257   0.170   2.331   9.315
   46MYC    H37 6258   0.328   2.283   9.376
   46MYC    C22 6259   0.248   2.150   9.226
   46MYC    H38 6260   0.323   2.073   9.250
   46MYC    H39 6261   0.153   2.097   9.208
   46MYC    C23 6262   0.289   2.226   9.098
   46MYC    H40 6263   0.217   2.306   9.081
   46MYC    H41 6264   0.387   2.273   9.113
   46MYC    C24 6265   0.293   2.135   8.974
   46MYC    H42 6266   0.378   2.066   8.981
   46MYC    H43 6267   0.202   2.074   8.972
   46MYC    C25 6268   0.302   2.214   8.842
   46MYC    H44 6269   0.225   2.292   8.842
   46MYC    H45 6270   0.399   2.265   8.836
   46MYC    C26 6271   0.282   2.124   8.719
   46MYC    H46 6272   0.362   2.050   8.715
   46MYC    H47 6273   0.187   2.069   8.730
   46MYC    C27 6274   0.278   2.202   8.586
   46MYC    H48 6275   0.206   2.285   8.594
   46MYC    H49 6276   0.376   2.246   8.567
   46MYC    C28 6277   0.238   2.112   8.468
   46MYC    H50 6278   0.304   2.024   8.465
   46MYC    H51 6279   0.135   2.075   8.483
   46MYC    C29 6280   0.245   2.185   8.332
   46MYC    H52 6281   0.186   2.277   8.337
   46MYC    H53 6282   0.349   2.214   8.314
   46MYC    C30 6283   0.196   2.099   8.214
   46MYC    H54 6284   0.247   2.001   8.215
   46MYC    H55 6285   0.088   2.079   8.226
   46MYC    C31 6286   0.222   2.167   8.079
   46MYC    H56 6287   0.184   2.270   8.084
   46MYC    H57 6288   0.330   2.174   8.063
   46MYC    C32 6289   0.157   2.097   7.959
   46MYC    H58 6290   0.194   1.993   7.952
   46MYC    H59 6291   0.048   2.092   7.973
   46MYC    C33 6292   0.188   2.171   7.827
   46MYC    H60 6293   0.169   2.278   7.842
   46MYC    H61 6294   0.296   2.161   7.806
   46MYC    C34 6295   0.107   2.124   7.706
   46MYC    H62 6296   0.125   2.017   7.688
   46MYC    H63 6297  -0.000   2.136   7.727
   46MYC    C35 6298   0.143   2.204   7.580
   46MYC    H64 6299   0.141   2.312   7.603
   46MYC    H65 6300   0.247   2.181   7.551
   46MYC    C36 6301   0.051   2.179   7.459
   46MYC    H66 6302   0.051   2.072   7.435
   46MYC    H67 6303   6.398   2.206   7.486
   46MYC    C37 6304   0.095   2.260   7.336
   46MYC    H68 6305   0.098   2.367   7.361
   46MYC    H69 6306   0.198   2.231   7.310
   46MYC    C38 6307   0.005   2.240   7.212
   46MYC    H70 6308   6.448   2.133   7.190
   46MYC    H71 6309   6.354   2.275   7.235
   46MYC    C39 6310   0.060   2.315   7.089
   46MYC    H72 6311   0.060   2.423   7.109
   46MYC    H73 6312   0.165   2.286   7.074
   46MYC    C40 6313   6.431   2.287   6.960
   46MYC    H74 6314   6.427   2.179   6.943
   46MYC    H75 6315   6.328   2.322   6.972
   46MYC    C41 6316   0.045   2.354   6.836
   46MYC    H76 6317   0.043   2.463   6.850
   46MYC    H77 6318   0.150   2.325   6.830
   46MYC    C42 6319   6.424   2.318   6.704
   46MYC    H78 6320   6.426   2.209   6.692
   46MYC    H79 6321   6.319   2.348   6.709
   46MYC    C43 6322   0.041   2.383   6.581
   46MYC    H80 6323   6.440   2.351   6.490
   46MYC    H81 6324   0.146   2.353   6.575
   46MYC    H82 6325   0.036   2.492   6.587
   47MYC   HH15 6326   1.564   2.417   6.695
   47MYC    C80 6327   1.483   2.441   6.765
   47MYC   H100 6328   1.461   2.548   6.757
   47MYC   H101 6329   1.394   2.385   6.735
   47MYC    C79 6330   1.525   2.404   6.909
   47MYC   H102 6331   1.617   2.457   6.934
   47MYC   H103 6332   1.547   2.297   6.913
   47MYC    C78 6333   1.417   2.438   7.014
   47MYC   HH14 6334   1.323   2.389   6.987
   47MYC   H104 6335   1.399   2.546   7.013
   47MYC    C77 6336   1.457   2.394   7.157
   47MYC   H106 6337   1.554   2.438   7.182
   47MYC   H107 6338   1.470   2.285   7.158
   47MYC    C76 6339   1.354   2.434   7.264
   47MYC   H108 6340   1.255   2.393   7.237
   47MYC   H109 6341   1.344   2.543   7.265
   47MYC    C75 6342   1.392   2.385   7.405
   47MYC   H110 6343   1.494   2.418   7.428
   47MYC   H111 6344   1.393   2.275   7.406
   47MYC    C74 6345   1.297   2.436   7.515
   47MYC   H112 6346   1.195   2.401   7.494
   47MYC   H113 6347   1.295   2.545   7.513
   47MYC    C73 6348   1.339   2.388   7.656
   47MYC   HH13 6349   1.443   2.418   7.673
   47MYC   H114 6350   1.336   2.279   7.659
   47MYC    C72 6351   1.251   2.445   7.769
   47MYC   H115 6352   1.148   2.410   7.756
   47MYC   H116 6353   1.249   2.554   7.762
   47MYC    C71 6354   1.302   2.404   7.908
   47MYC   H117 6355   1.406   2.438   7.920
   47MYC   H118 6356   1.304   2.294   7.915
   47MYC    C70 6357   1.217   2.460   8.024
   47MYC   H119 6358   1.115   2.421   8.017
   47MYC   H120 6359   1.211   2.569   8.015
   47MYC    C69 6360   1.276   2.424   8.162
   47MYC   H121 6361   1.378   2.464   8.168
   47MYC   H122 6362   1.284   2.315   8.170
   47MYC    C68 6363   1.193   2.477   8.280
   47MYC   HH12 6364   1.093   2.432   8.278
   47MYC   H123 6365   1.180   2.586   8.269
   47MYC    C67 6366   1.260   2.448   8.416
   47MYC   H124 6367   1.358   2.496   8.418
   47MYC   H125 6368   1.277   2.340   8.426
   47MYC    C66 6369   1.176   2.498   8.535
   47MYC   H126 6370   1.081   2.442   8.539
   47MYC   H127 6371   1.151   2.603   8.520
   47MYC    C65 6372   1.249   2.483   8.670
   47MYC   H128 6373   1.344   2.539   8.666
   47MYC   H129 6374   1.275   2.378   8.688
   47MYC    C64 6375   1.165   2.536   8.787
   47MYC   H130 6376   1.076   2.472   8.799
   47MYC   H131 6377   1.129   2.636   8.762
   47MYC    C63 6378   1.242   2.542   8.921
   47MYC   HH11 6379   1.333   2.601   8.907
   47MYC   H132 6380   1.272   2.441   8.952
   47MYC    C62 6381   1.156   2.608   9.031
   47MYC   H133 6382   1.069   2.545   9.053
   47MYC   H134 6383   1.117   2.702   8.993
   47MYC    C61 6384   1.232   2.638   9.162
   47MYC   H135 6385   1.166   2.699   9.225
   47MYC   H136 6386   1.318   2.701   9.139
   47MYC    C60 6387   1.280   2.517   9.241
   47MYC   H137 6388   1.379   2.484   9.213
   47MYC    C58 6389   1.240   2.507   9.386
   47MYC   H138 6390   1.171   2.582   9.423
   47MYC    C59 6391   1.185   2.408   9.287
   47MYC   H139 6392   1.223   2.306   9.290
   47MYC   H140 6393   1.082   2.418   9.258
   47MYC    C57 6394   1.340   2.465   9.493
   47MYC   HH10 6395   1.422   2.538   9.496
   47MYC   H141 6396   1.385   2.368   9.469
   47MYC    C56 6397   1.275   2.457   9.632
   47MYC   H142 6398   1.198   2.380   9.632
   47MYC   H143 6399   1.225   2.553   9.654
   47MYC    C55 6400   1.377   2.428   9.744
   47MYC   H144 6401   1.459   2.501   9.739
   47MYC   H145 6402   1.421   2.329   9.729
   47MYC    C54 6403   1.313   2.435   9.884
   47MYC   H146 6404   1.238   2.355   9.893
   47MYC   H147 6405   1.260   2.530   9.896
   47MYC    C53 6406   1.416   2.420   9.997
   47MYC   H148 6407   1.489   2.503   9.990
   47MYC   H149 6408   1.472   2.327   9.982
   47MYC    C52 6409   1.352   2.420  10.137
   47MYC    H99 6410   1.276   2.341  10.141
   47MYC   H150 6411   1.302   2.516  10.155
   47MYC    C51 6412   1.456   2.394  10.248
   47MYC    H97 6413   1.529   2.476  10.250
   47MYC    H98 6414   1.512   2.303  10.222
   47MYC    C50 6415   1.394   2.377  10.388
   47MYC    H95 6416   1.308   2.310  10.382
   47MYC    H96 6417   1.357   2.474  10.425
   47MYC    C49 6418   1.496   2.318  10.489
   47MYC    H93 6419   1.583   2.384  10.495
   47MYC    H94 6420   1.532   2.223  10.448
   47MYC    C48 6421   1.439   2.294  10.630
   47MYC    H91 6422   1.342   2.244  10.622
   47MYC    H92 6423   1.422   2.391  10.680
   47MYC    C47 6424   1.534   2.207  10.714
   47MYC    H89 6425   1.633   2.253  10.717
   47MYC    H90 6426   1.546   2.111  10.663
   47MYC    C46 6427   1.487   2.178  10.858
   47MYC    H87 6428   1.536   2.085  10.891
   47MYC    H88 6429   1.379   2.159  10.859
   47MYC    C45 6430   1.520   2.288  10.961
   47MYC    H85 6431   1.461   2.378  10.939
   47MYC    H86 6432   1.625   2.316  10.948
   47MYC    C44 6433   1.500   2.243  11.108
   47MYC    H83 6434   1.580   2.287  11.167
   47MYC    H84 6435   1.517   2.135  11.116
   47MYC    C18 6436   1.366   2.281  11.171
   47MYC    H31 6437   1.321   2.369  11.128
   47MYC    C17 6438   1.274   2.178  11.235
   47MYC    H30 6439   1.305   2.074  11.233
   47MYC    C19 6440   1.356   2.269  11.322
   47MYC    H32 6441   1.436   2.221  11.377
   47MYC    H33 6442   1.305   2.350  11.375
   47MYC    C16 6443   1.122   2.194  11.240
   47MYC    H28 6444   1.094   2.297  11.217
   47MYC    H29 6445   1.088   2.176  11.342
   47MYC    C15 6446   1.045   2.099  11.147
   47MYC    H26 6447   0.938   2.108  11.168
   47MYC    H27 6448   1.073   1.996  11.172
   47MYC    C14 6449   1.069   2.122  10.996
   47MYC    H24 6450   1.176   2.121  10.974
   47MYC    H25 6451   1.032   2.222  10.969
   47MYC    C13 6452   0.999   2.015  10.911
   47MYC    H22 6453   0.892   2.014  10.937
   47MYC    H23 6454   1.039   1.916  10.937
   47MYC    C12 6455   1.014   2.037  10.759
   47MYC    H20 6456   1.120   2.030  10.732
   47MYC    H21 6457   0.982   2.138  10.735
   47MYC    C11 6458   0.934   1.935  10.676
   47MYC    H18 6459   0.827   1.955  10.689
   47MYC    H19 6460   0.952   1.834  10.713
   47MYC    C10 6461   0.966   1.937  10.524
   47MYC    H16 6462   0.892   1.876  10.473
   47MYC    H17 6463   1.063   1.890  10.507
   47MYC     C9 6464   0.966   2.078  10.461
   47MYC    H14 6465   1.060   2.129  10.487
   47MYC    H15 6466   0.884   2.137  10.503
   47MYC     C8 6467   0.951   2.075  10.307
   47MYC    H12 6468   0.852   2.034  10.283
   47MYC    H13 6469   1.026   2.007  10.264
   47MYC     C7 6470   0.966   2.215  10.245
   47MYC    H10 6471   1.071   2.245  10.248
   47MYC    H11 6472   0.911   2.287  10.307
   47MYC     C6 6473   0.913   2.224  10.101
   47MYC     H8 6474   0.808   2.192  10.100
   47MYC     H9 6475   0.969   2.154  10.038
   47MYC     C5 6476   0.922   2.367  10.044
   47MYC     H6 6477   1.027   2.393  10.024
   47MYC     H7 6478   0.888   2.437  10.121
   47MYC     C4 6479   0.836   2.392   9.918
   47MYC     H4 6480   0.822   2.501   9.908
   47MYC     H5 6481   0.736   2.350   9.934
   47MYC     C2 6482   0.894   2.340   9.783
   47MYC     H2 6483   0.994   2.384   9.772
   47MYC     O3 6484   0.906   2.198   9.784
   47MYC     H3 6485   0.955   2.173   9.864
   47MYC     C1 6486   0.809   2.387   9.661
   47MYC     H1 6487   0.819   2.496   9.659
   47MYC    C81 6488   0.658   2.359   9.678
   47MYC    O82 6489   0.574   2.447   9.690
   47MYC    O83 6490   0.622   2.228   9.674
   47MYC   H105 6491   0.526   2.226   9.689
   47MYC    C20 6492   0.862   2.335   9.525
   47MYC    H34 6493   0.971   2.333   9.525
   47MYC    H35 6494   0.830   2.231   9.510
   47MYC    C21 6495   0.815   2.422   9.406
   47MYC    H36 6496   0.713   2.457   9.424
   47MYC    H37 6497   0.878   2.512   9.403
   47MYC    C22 6498   0.821   2.351   9.269
   47MYC    H38 6499   0.842   2.427   9.193
   47MYC    H39 6500   0.904   2.280   9.268
   47MYC    C23 6501   0.690   2.278   9.232
   47MYC    H40 6502   0.660   2.212   9.315
   47MYC    H41 6503   0.610   2.352   9.221
   47MYC    C24 6504   0.701   2.194   9.103
   47MYC    H42 6505   0.767   2.109   9.122
   47MYC    H43 6506   0.601   2.153   9.082
   47MYC    C25 6507   0.752   2.271   8.980
   47MYC    H44 6508   0.698   2.366   8.970
   47MYC    H45 6509   0.858   2.296   8.993
   47MYC    C26 6510   0.736   2.191   8.850
   47MYC    H46 6511   0.780   2.091   8.863
   47MYC    H47 6512   0.629   2.176   8.831
   47MYC    C27 6513   0.801   2.256   8.726
   47MYC    H48 6514   0.770   2.360   8.718
   47MYC    H49 6515   0.910   2.255   8.737
   47MYC    C28 6516   0.761   2.181   8.598
   47MYC    H50 6517   0.784   2.074   8.610
   47MYC    H51 6518   0.653   2.189   8.585
   47MYC    C29 6519   0.831   2.231   8.470
   47MYC    H52 6520   0.814   2.339   8.458
   47MYC    H53 6521   0.939   2.214   8.477
   47MYC    C30 6522   0.775   2.157   8.346
   47MYC    H54 6523   0.786   2.049   8.361
   47MYC    H55 6524   0.667   2.177   8.339
   47MYC    C31 6525   0.842   2.195   8.213
   47MYC    H56 6526   0.836   2.304   8.199
   47MYC    H57 6527   0.948   2.169   8.217
   47MYC    C32 6528   0.774   2.124   8.095
   47MYC    H58 6529   0.778   2.015   8.111
   47MYC    H59 6530   0.668   2.151   8.093
   47MYC    C33 6531   0.836   2.156   7.958
   47MYC    H60 6532   0.837   2.265   7.944
   47MYC    H61 6533   0.941   2.123   7.957
   47MYC    C34 6534   0.760   2.089   7.843
   47MYC    H62 6535   0.757   1.981   7.859
   47MYC    H63 6536   0.656   2.124   7.844
   47MYC    C35 6537   0.821   2.119   7.704
   47MYC    H64 6538   0.825   2.227   7.689
   47MYC    H65 6539   0.925   2.082   7.703
   47MYC    C36 6540   0.742   2.054   7.589
   47MYC    H66 6541   0.735   1.946   7.606
   47MYC    H67 6542   0.640   2.093   7.589
   47MYC    C37 6543   0.807   2.079   7.451
   47MYC    H68 6544   0.813   2.187   7.433
   47MYC    H69 6545   0.910   2.041   7.454
   47MYC    C38 6546   0.731   2.011   7.335
   47MYC    H70 6547   0.720   1.904   7.357
   47MYC    H71 6548   0.630   2.054   7.328
   47MYC    C39 6549   0.804   2.028   7.200
   47MYC    H72 6550   0.811   2.135   7.176
   47MYC    H73 6551   0.906   1.990   7.210
   47MYC    C40 6552   0.733   1.955   7.084
   47MYC    H74 6553   0.722   1.849   7.110
   47MYC    H75 6554   0.632   1.996   7.071
   47MYC    C41 6555   0.811   1.966   6.951
   47MYC    H76 6556   0.820   2.072   6.923
   47MYC    H77 6557   0.913   1.927   6.965
   47MYC    C42 6558   0.744   1.889   6.835
   47MYC    H78 6559   0.735   1.783   6.862
   47MYC    H79 6560   0.643   1.927   6.819
   47MYC    C43 6561   0.823   1.899   6.703
   47MYC    H80 6562   0.772   1.843   6.623
   47MYC    H81 6563   0.924   1.859   6.714
   47MYC    H82 6564   0.831   2.004   6.671
   48MYC   HH15 6565   1.916   2.485   6.599
   48MYC    C80 6566   1.935   2.426   6.689
   48MYC   H100 6567   1.867   2.341   6.689
   48MYC   H101 6568   2.038   2.389   6.685
   48MYC    C79 6569   1.914   2.512   6.815
   48MYC   H102 6570   1.811   2.551   6.814
   48MYC   H103 6571   1.981   2.599   6.810
   48MYC    C78 6572   1.940   2.436   6.946
   48MYC   HH14 6573   2.045   2.407   6.951
   48MYC   H104 6574   1.880   2.344   6.947
   48MYC    C77 6575   1.904   2.520   7.071
   48MYC   H106 6576   1.797   2.544   7.068
   48MYC   H107 6577   1.958   2.615   7.067
   48MYC    C76 6578   1.937   2.449   7.204
   48MYC   H108 6579   2.046   2.443   7.215
   48MYC   H109 6580   1.898   2.346   7.201
   48MYC    C75 6581   1.876   2.521   7.326
   48MYC   H110 6582   1.766   2.516   7.319
   48MYC   H111 6583   1.903   2.628   7.323
   48MYC    C74 6584   1.921   2.462   7.461
   48MYC   H112 6585   2.028   2.480   7.474
   48MYC   H113 6586   1.907   2.353   7.459
   48MYC    C73 6587   1.843   2.520   7.580
   48MYC   HH13 6588   1.737   2.494   7.570
   48MYC   H114 6589   1.849   2.630   7.578
   48MYC    C72 6590   1.895   2.468   7.716
   48MYC   H115 6591   1.998   2.503   7.730
   48MYC   H116 6592   1.897   2.359   7.714
   48MYC    C71 6593   1.809   2.515   7.835
   48MYC   H117 6594   1.706   2.478   7.822
   48MYC   H118 6595   1.804   2.624   7.836
   48MYC    C70 6596   1.863   2.464   7.970
   48MYC   H119 6597   1.965   2.503   7.984
   48MYC   H120 6598   1.871   2.355   7.967
   48MYC    C69 6599   1.776   2.505   8.089
   48MYC   H121 6600   1.674   2.465   8.076
   48MYC   H122 6601   1.767   2.614   8.093
   48MYC    C68 6602   1.832   2.453   8.223
   48MYC   HH12 6603   1.935   2.490   8.235
   48MYC   H123 6604   1.838   2.344   8.220
   48MYC    C67 6605   1.749   2.497   8.345
   48MYC   H124 6606   1.646   2.461   8.333
   48MYC   H125 6607   1.745   2.606   8.349
   48MYC    C66 6608   1.807   2.442   8.476
   48MYC   H126 6609   1.911   2.475   8.487
   48MYC   H127 6610   1.808   2.333   8.472
   48MYC    C65 6611   1.727   2.488   8.600
   48MYC   H128 6612   1.622   2.460   8.588
   48MYC   H129 6613   1.731   2.597   8.608
   48MYC    C64 6614   1.782   2.425   8.730
   48MYC   H130 6615   1.885   2.458   8.746
   48MYC   H131 6616   1.785   2.316   8.717
   48MYC    C63 6617   1.696   2.458   8.853
   48MYC   HH11 6618   1.591   2.433   8.831
   48MYC   H132 6619   1.700   2.566   8.874
   48MYC    C62 6620   1.741   2.380   8.978
   48MYC   H133 6621   1.836   2.421   9.015
   48MYC   H134 6622   1.761   2.276   8.949
   48MYC    C61 6623   1.637   2.381   9.091
   48MYC   H135 6624   1.540   2.350   9.050
   48MYC   H136 6625   1.625   2.484   9.128
   48MYC    C60 6626   1.674   2.287   9.206
   48MYC   H137 6627   1.761   2.225   9.185
   48MYC    C58 6628   1.655   2.332   9.349
   48MYC   H138 6629   1.609   2.430   9.363
   48MYC    C59 6630   1.567   2.224   9.292
   48MYC   H139 6631   1.584   2.122   9.325
   48MYC   H140 6632   1.464   2.248   9.270
   48MYC    C57 6633   1.762   2.303   9.452
   48MYC   HH10 6634   1.843   2.375   9.439
   48MYC   H141 6635   1.805   2.203   9.435
   48MYC    C56 6636   1.710   2.311   9.597
   48MYC   H142 6637   1.643   2.226   9.618
   48MYC   H143 6638   1.651   2.403   9.609
   48MYC    C55 6639   1.826   2.313   9.698
   48MYC   H144 6640   1.892   2.397   9.672
   48MYC   H145 6641   1.885   2.221   9.687
   48MYC    C54 6642   1.783   2.327   9.846
   48MYC   H146 6643   1.742   2.232   9.881
   48MYC   H147 6644   1.703   2.402   9.855
   48MYC    C53 6645   1.903   2.370   9.932
   48MYC   H148 6646   1.933   2.471   9.903
   48MYC   H149 6647   1.987   2.304   9.909
   48MYC    C52 6648   1.880   2.367  10.085
   48MYC    H99 6649   1.853   2.265  10.115
   48MYC   H150 6650   1.796   2.433  10.112
   48MYC    C51 6651   2.008   2.411  10.159
   48MYC    H97 6652   2.026   2.518  10.141
   48MYC    H98 6653   2.094   2.359  10.113
   48MYC    C50 6654   2.013   2.381  10.310
   48MYC    H95 6655   2.118   2.387  10.341
   48MYC    H96 6656   1.983   2.278  10.328
   48MYC    C49 6657   1.930   2.475  10.400
   48MYC    H93 6658   1.825   2.445  10.397
   48MYC    H94 6659   1.936   2.579  10.364
   48MYC    C48 6660   1.984   2.469  10.545
   48MYC    H91 6661   2.084   2.515  10.546
   48MYC    H92 6662   1.997   2.364  10.573
   48MYC    C47 6663   1.899   2.540  10.652
   48MYC    H89 6664   1.799   2.495  10.655
   48MYC    H90 6665   1.888   2.646  10.627
   48MYC    C46 6666   1.966   2.526  10.791
   48MYC    H87 6667   2.066   2.569  10.786
   48MYC    H88 6668   1.977   2.419  10.811
   48MYC    C45 6669   1.889   2.592  10.908
   48MYC    H85 6670   1.791   2.544  10.920
   48MYC    H86 6671   1.871   2.697  10.884
   48MYC    C44 6672   1.966   2.586  11.043
   48MYC    H83 6673   1.913   2.649  11.115
   48MYC    H84 6674   2.065   2.631  11.029
   48MYC    C18 6675   1.980   2.446  11.101
   48MYC    H31 6676   1.884   2.404  11.132
   48MYC    C17 6677   2.082   2.348  11.048
   48MYC    H30 6678   2.149   2.386  10.971
   48MYC    C19 6679   2.099   2.407  11.186
   48MYC    H32 6680   2.178   2.480  11.200
   48MYC    H33 6681   2.080   2.343  11.272
   48MYC    C16 6682   2.039   2.204  11.024
   48MYC    H28 6683   1.964   2.202  10.944
   48MYC    H29 6684   1.988   2.165  11.113
   48MYC    C15 6685   2.152   2.105  10.986
   48MYC    H26 6686   2.107   2.006  10.972
   48MYC    H27 6687   2.222   2.096  11.069
   48MYC    C14 6688   2.230   2.143  10.858
   48MYC    H24 6689   2.291   2.232  10.877
   48MYC    H25 6690   2.159   2.169  10.778
   48MYC    C13 6691   2.321   2.029  10.808
   48MYC    H22 6692   2.259   1.942  10.785
   48MYC    H23 6693   2.390   2.000  10.888
   48MYC    C12 6694   2.403   2.066  10.683
   48MYC    H20 6695   2.472   2.148  10.707
   48MYC    H21 6696   2.335   2.103  10.606
   48MYC    C11 6697   2.483   1.946  10.628
   48MYC    H18 6698   2.413   1.868  10.598
   48MYC    H19 6699   2.545   1.904  10.708
   48MYC    C10 6700   2.575   1.979  10.508
   48MYC    H16 6701   2.630   1.888  10.481
   48MYC    H17 6702   2.649   2.054  10.538
   48MYC     C9 6703   2.501   2.030  10.383
   48MYC    H14 6704   2.452   2.125  10.407
   48MYC    H15 6705   2.421   1.959  10.356
   48MYC     C8 6706   2.595   2.051  10.262
   48MYC    H12 6707   2.626   1.953  10.223
   48MYC    H13 6708   2.686   2.102  10.296
   48MYC     C7 6709   2.531   2.135  10.149
   48MYC    H10 6710   2.610   2.162  10.077
   48MYC    H11 6711   2.494   2.229  10.191
   48MYC     C6 6712   2.418   2.064  10.072
   48MYC     H8 6713   2.347   2.018  10.142
   48MYC     H9 6714   2.460   1.983  10.012
   48MYC     C5 6715   2.340   2.162   9.982
   48MYC     H6 6716   2.412   2.228   9.931
   48MYC     H7 6717   2.280   2.227  10.046
   48MYC     C4 6718   2.248   2.094   9.878
   48MYC     H4 6719   2.148   2.137   9.887
   48MYC     H5 6720   2.238   1.987   9.900
   48MYC     C2 6721   2.298   2.114   9.732
   48MYC     H2 6722   2.318   2.221   9.720
   48MYC     O3 6723   2.421   2.042   9.713
   48MYC     H3 6724   2.399   1.947   9.714
   48MYC     C1 6725   2.194   2.074   9.624
   48MYC     H1 6726   2.102   2.129   9.649
   48MYC    C81 6727   2.162   1.923   9.627
   48MYC    O82 6728   2.239   1.836   9.591
   48MYC    O83 6729   2.045   1.892   9.687
   48MYC   H105 6730   2.041   1.795   9.689
   48MYC    C20 6731   2.239   2.121   9.484
   48MYC    H34 6732   2.278   2.223   9.490
   48MYC    H35 6733   2.322   2.058   9.450
   48MYC    C21 6734   2.128   2.120   9.377
   48MYC    H36 6735   2.080   2.021   9.374
   48MYC    H37 6736   2.051   2.193   9.403
   48MYC    C22 6737   2.185   2.152   9.238
   48MYC    H38 6738   2.240   2.247   9.242
   48MYC    H39 6739   2.258   2.075   9.212
   48MYC    C23 6740   2.081   2.162   9.124
   48MYC    H40 6741   2.009   2.080   9.132
   48MYC    H41 6742   2.024   2.256   9.134
   48MYC    C24 6743   2.151   2.155   8.988
   48MYC    H42 6744   2.232   2.229   8.985
   48MYC    H43 6745   2.198   2.056   8.980
   48MYC    C25 6746   2.061   2.177   8.864
   48MYC    H44 6747   1.965   2.125   8.876
   48MYC    H45 6748   2.040   2.284   8.854
   48MYC    C26 6749   2.132   2.124   8.738
   48MYC    H46 6750   2.240   2.145   8.746
   48MYC    H47 6751   2.121   2.015   8.735
   48MYC    C27 6752   2.084   2.184   8.604
   48MYC    H48 6753   1.976   2.166   8.591
   48MYC    H49 6754   2.100   2.292   8.605
   48MYC    C28 6755   2.162   2.121   8.486
   48MYC    H50 6756   2.269   2.123   8.509
   48MYC    H51 6757   2.134   2.015   8.477
   48MYC    C29 6758   2.140   2.191   8.351
   48MYC    H52 6759   2.033   2.185   8.324
   48MYC    H53 6760   2.165   2.297   8.360
   48MYC    C30 6761   2.225   2.128   8.239
   48MYC    H54 6762   2.332   2.139   8.265
   48MYC    H55 6763   2.205   2.020   8.235
   48MYC    C31 6764   2.199   2.190   8.101
   48MYC    H56 6765   2.093   2.176   8.076
   48MYC    H57 6766   2.217   2.298   8.106
   48MYC    C32 6767   2.286   2.128   7.989
   48MYC    H58 6768   2.391   2.153   8.007
   48MYC    H59 6769   2.278   2.019   7.992
   48MYC    C33 6770   2.243   2.178   7.850
   48MYC    H60 6771   2.138   2.151   7.834
   48MYC    H61 6772   2.247   2.288   7.849
   48MYC    C34 6773   2.327   2.123   7.733
   48MYC    H62 6774   2.431   2.157   7.743
   48MYC    H63 6775   2.327   2.014   7.736
   48MYC    C35 6776   2.270   2.172   7.598
   48MYC    H64 6777   2.167   2.135   7.588
   48MYC    H65 6778   2.264   2.281   7.599
   48MYC    C36 6779   2.350   2.128   7.474
   48MYC    H66 6780   2.452   2.167   7.481
   48MYC    H67 6781   2.357   2.019   7.471
   48MYC    C37 6782   2.284   2.180   7.344
   48MYC    H68 6783   2.183   2.138   7.336
   48MYC    H69 6784   2.272   2.289   7.351
   48MYC    C38 6785   2.362   2.147   7.216
   48MYC    H70 6786   2.463   2.187   7.224
   48MYC    H71 6787   2.371   2.038   7.205
   48MYC    C39 6788   2.295   2.206   7.089
   48MYC    H72 6789   2.194   2.166   7.079
   48MYC    H73 6790   2.286   2.315   7.102
   48MYC    C40 6791   2.374   2.177   6.960
   48MYC    H74 6792   2.478   2.210   6.974
   48MYC    H75 6793   2.376   2.069   6.942
   48MYC    C41 6794   2.317   2.249   6.836
   48MYC    H76 6795   2.212   2.221   6.823
   48MYC    H77 6796   2.319   2.358   6.854
   48MYC    C42 6797   2.395   2.218   6.707
   48MYC    H78 6798   2.502   2.235   6.724
   48MYC    H79 6799   2.384   2.112   6.682
   48MYC    C43 6800   2.350   2.303   6.587
   48MYC    H80 6801   2.409   2.278   6.498
   48MYC    H81 6802   2.364   2.410   6.608
   48MYC    H82 6803   2.245   2.286   6.565
   49MYC   HH15 6804   2.712   2.465   6.584
   49MYC    C80 6805   2.753   2.510   6.675
   49MYC   H100 6806   2.861   2.495   6.675
   49MYC   H101 6807   2.733   2.618   6.672
   49MYC    C79 6808   2.688   2.446   6.799
   49MYC   H102 6809   2.712   2.339   6.801
   49MYC   H103 6810   2.579   2.456   6.792
   49MYC    C78 6811   2.735   2.510   6.932
   49MYC   HH14 6812   2.709   2.617   6.931
   49MYC   H104 6813   2.844   2.504   6.939
   49MYC    C77 6814   2.671   2.443   7.055
   49MYC   H106 6815   2.704   2.338   7.060
   49MYC   H107 6816   2.562   2.443   7.043
   49MYC    C76 6817   2.706   2.514   7.187
   49MYC   H108 6818   2.673   2.618   7.182
   49MYC   H109 6819   2.815   2.515   7.200
   49MYC    C75 6820   2.642   2.445   7.309
   49MYC   H110 6821   2.682   2.344   7.319
   49MYC   H111 6822   2.534   2.435   7.292
   49MYC    C74 6823   2.665   2.522   7.440
   49MYC   H112 6824   2.621   2.622   7.431
   49MYC   H113 6825   2.773   2.536   7.456
   49MYC    C73 6826   2.605   2.450   7.562
   49MYC   HH13 6827   2.656   2.355   7.577
   49MYC   H114 6828   2.499   2.428   7.543
   49MYC    C72 6829   2.615   2.535   7.690
   49MYC   H115 6830   2.557   2.627   7.677
   49MYC   H116 6831   2.720   2.564   7.706
   49MYC    C71 6832   2.565   2.461   7.815
   49MYC   H117 6833   2.629   2.374   7.834
   49MYC   H118 6834   2.464   2.423   7.798
   49MYC    C70 6835   2.565   2.552   7.939
   49MYC   H119 6836   2.491   2.631   7.925
   49MYC   H120 6837   2.663   2.600   7.949
   49MYC    C69 6838   2.533   2.476   8.069
   49MYC   H121 6839   2.609   2.398   8.084
   49MYC   H122 6840   2.436   2.425   8.060
   49MYC    C68 6841   2.531   2.569   8.191
   49MYC   HH12 6842   2.448   2.640   8.181
   49MYC   H123 6843   2.624   2.629   8.193
   49MYC    C67 6844   2.518   2.493   8.324
   49MYC   H124 6845   2.602   2.423   8.333
   49MYC   H125 6846   2.426   2.433   8.322
   49MYC    C66 6847   2.517   2.587   8.446
   49MYC   H126 6848   2.432   2.655   8.438
   49MYC   H127 6849   2.608   2.648   8.446
   49MYC    C65 6850   2.509   2.508   8.577
   49MYC   H128 6851   2.596   2.443   8.586
   49MYC   H129 6852   2.420   2.443   8.575
   49MYC    C64 6853   2.501   2.599   8.701
   49MYC   H130 6854   2.417   2.669   8.689
   49MYC   H131 6855   2.592   2.659   8.709
   49MYC    C63 6856   2.481   2.517   8.829
   49MYC   HH11 6857   2.564   2.446   8.840
   49MYC   H132 6858   2.389   2.458   8.820
   49MYC    C62 6859   2.472   2.604   8.955
   49MYC   H133 6860   2.396   2.681   8.941
   49MYC   H134 6861   2.568   2.655   8.971
   49MYC    C61 6862   2.437   2.520   9.079
   49MYC   H135 6863   2.509   2.438   9.089
   49MYC   H136 6864   2.338   2.475   9.065
   49MYC    C60 6865   2.437   2.604   9.205
   49MYC   H137 6866   2.377   2.693   9.194
   49MYC    C58 6867   2.438   2.537   9.340
   49MYC   H138 6868   2.450   2.429   9.341
   49MYC    C59 6869   2.558   2.616   9.294
   49MYC   H139 6870   2.577   2.713   9.340
   49MYC   H140 6871   2.647   2.560   9.266
   49MYC    C57 6872   2.349   2.587   9.453
   49MYC   HH10 6873   2.258   2.527   9.457
   49MYC   H141 6874   2.319   2.691   9.436
   49MYC    C56 6875   2.423   2.579   9.588
   49MYC   H142 6876   2.503   2.654   9.589
   49MYC   H143 6877   2.471   2.480   9.595
   49MYC    C55 6878   2.333   2.599   9.711
   49MYC   H144 6879   2.254   2.523   9.711
   49MYC   H145 6880   2.285   2.697   9.706
   49MYC    C54 6881   2.416   2.587   9.839
   49MYC   H146 6882   2.492   2.667   9.840
   49MYC   H147 6883   2.471   2.492   9.837
   49MYC    C53 6884   2.336   2.594   9.970
   49MYC   H148 6885   2.257   2.517   9.969
   49MYC   H149 6886   2.286   2.691   9.978
   49MYC    C52 6887   2.428   2.571  10.091
   49MYC    H99 6888   2.510   2.644  10.088
   49MYC   H150 6889   2.474   2.471  10.081
   49MYC    C51 6890   2.358   2.580  10.227
   49MYC    H97 6891   2.273   2.511  10.228
   49MYC    H98 6892   2.319   2.681  10.242
   49MYC    C50 6893   2.454   2.543  10.342
   49MYC    H95 6894   2.541   2.610  10.339
   49MYC    H96 6895   2.491   2.441  10.327
   49MYC    C49 6896   2.389   2.552  10.481
   49MYC    H93 6897   2.299   2.490  10.483
   49MYC    H94 6898   2.358   2.656  10.499
   49MYC    C48 6899   2.484   2.506  10.593
   49MYC    H91 6900   2.581   2.557  10.580
   49MYC    H92 6901   2.503   2.399  10.582
   49MYC    C47 6902   2.431   2.536  10.734
   49MYC    H89 6903   2.334   2.487  10.749
   49MYC    H90 6904   2.414   2.644  10.743
   49MYC    C46 6905   2.529   2.490  10.845
   49MYC    H87 6906   2.631   2.515  10.815
   49MYC    H88 6907   2.524   2.381  10.855
   49MYC    C45 6908   2.499   2.556  10.981
   49MYC    H85 6909   2.399   2.527  11.016
   49MYC    H86 6910   2.497   2.664  10.966
   49MYC    C44 6911   2.604   2.525  11.090
   49MYC    H83 6912   2.596   2.602  11.168
   49MYC    H84 6913   2.704   2.535  11.047
   49MYC    C18 6914   2.587   2.388  11.155
   49MYC    H31 6915   2.484   2.368  11.182
   49MYC    C17 6916   2.672   2.270  11.116
   49MYC    H30 6917   2.748   2.289  11.040
   49MYC    C19 6918   2.691   2.335  11.251
   49MYC    H32 6919   2.781   2.394  11.267
   49MYC    H33 6920   2.655   2.282  11.339
   49MYC    C16 6921   2.608   2.132  11.104
   49MYC    H28 6922   2.524   2.137  11.034
   49MYC    H29 6923   2.565   2.105  11.201
   49MYC    C15 6924   2.702   2.017  11.063
   49MYC    H26 6925   2.646   1.923  11.070
   49MYC    H27 6926   2.785   2.010  11.134
   49MYC    C14 6927   2.758   2.030  10.920
   49MYC    H24 6928   2.835   2.108  10.918
   49MYC    H25 6929   2.678   2.062  10.852
   49MYC    C13 6930   2.819   1.898  10.867
   49MYC    H22 6931   2.739   1.823  10.857
   49MYC    H23 6932   2.891   1.860  10.940
   49MYC    C12 6933   2.888   1.916  10.731
   49MYC    H20 6934   2.967   1.992  10.740
   49MYC    H21 6935   2.817   1.955  10.658
   49MYC    C11 6936   2.950   1.786  10.676
   49MYC    H18 6937   2.871   1.713  10.656
   49MYC    H19 6938   3.014   1.742  10.754
   49MYC    C10 6939   3.034   1.807  10.548
   49MYC    H16 6940   3.103   1.723  10.537
   49MYC    H17 6941   3.095   1.897  10.559
   49MYC     C9 6942   2.950   1.816  10.419
   49MYC    H14 6943   2.864   1.882  10.436
   49MYC    H15 6944   2.909   1.717  10.396
   49MYC     C8 6945   3.029   1.870  10.298
   49MYC    H12 6946   3.124   1.817  10.288
   49MYC    H13 6947   3.052   1.976  10.317
   49MYC     C7 6948   2.950   1.858  10.165
   49MYC    H10 6949   2.843   1.860  10.187
   49MYC    H11 6950   2.971   1.760  10.120
   49MYC     C6 6951   2.981   1.970  10.063
   49MYC     H8 6952   3.089   1.971  10.040
   49MYC     H9 6953   2.958   2.066  10.110
   49MYC     C5 6954   2.899   1.958   9.933
   49MYC     H6 6955   2.887   2.058   9.890
   49MYC     H7 6956   2.797   1.925   9.958
   49MYC     C4 6957   2.959   1.862   9.827
   49MYC     H4 6958   2.879   1.797   9.789
   49MYC     H5 6959   3.033   1.796   9.872
   49MYC     C2 6960   3.021   1.938   9.706
   49MYC     H2 6961   2.943   2.005   9.668
   49MYC     O3 6962   3.132   2.017   9.750
   49MYC     H3 6963   3.207   1.956   9.765
   49MYC     C1 6964   3.062   1.846   9.588
   49MYC     H1 6965   2.973   1.788   9.559
   49MYC    C81 6966   3.173   1.744   9.624
   49MYC    O82 6967   3.275   1.772   9.684
   49MYC    O83 6968   3.163   1.627   9.557
   49MYC   H105 6969   3.245   1.580   9.576
   49MYC    C20 6970   3.103   1.928   9.462
   49MYC    H34 6971   3.065   2.030   9.471
   49MYC    H35 6972   3.212   1.936   9.456
   49MYC    C21 6973   3.048   1.869   9.329
   49MYC    H36 6974   3.082   1.766   9.317
   49MYC    H37 6975   2.939   1.867   9.335
   49MYC    C22 6976   3.091   1.952   9.206
   49MYC    H38 6977   3.073   2.058   9.226
   49MYC    H39 6978   3.198   1.939   9.190
   49MYC    C23 6979   3.015   1.912   9.078
   49MYC    H40 6980   3.030   1.805   9.059
   49MYC    H41 6981   2.907   1.926   9.094
   49MYC    C24 6982   3.059   1.992   8.955
   49MYC    H42 6983   3.042   2.099   8.972
   49MYC    H43 6984   3.166   1.979   8.939
   49MYC    C25 6985   2.983   1.949   8.828
   49MYC    H44 6986   2.993   1.840   8.816
   49MYC    H45 6987   2.876   1.970   8.841
   49MYC    C26 6988   3.033   2.018   8.699
   49MYC    H46 6989   3.015   2.126   8.706
   49MYC    H47 6990   3.141   2.004   8.689
   49MYC    C27 6991   2.961   1.962   8.575
   49MYC    H48 6992   2.978   1.854   8.570
   49MYC    H49 6993   2.853   1.977   8.586
   49MYC    C28 6994   3.007   2.025   8.442
   49MYC    H50 6995   2.988   2.133   8.445
   49MYC    H51 6996   3.115   2.011   8.429
   49MYC    C29 6997   2.932   1.963   8.322
   49MYC    H52 6998   2.953   1.855   8.319
   49MYC    H53 6999   2.824   1.973   8.339
   49MYC    C30 7000   2.968   2.025   8.186
   49MYC    H54 7001   2.957   2.134   8.192
   49MYC    H55 7002   3.073   2.004   8.163
   49MYC    C31 7003   2.877   1.972   8.074
   49MYC    H56 7004   2.884   1.862   8.071
   49MYC    H57 7005   2.773   1.997   8.097
   49MYC    C32 7006   2.912   2.028   7.935
   49MYC    H58 7007   2.921   2.137   7.940
   49MYC    H59 7008   3.010   1.989   7.905
   49MYC    C33 7009   2.807   1.992   7.829
   49MYC    H60 7010   2.785   1.884   7.833
   49MYC    H61 7011   2.713   2.044   7.852
   49MYC    C34 7012   2.852   2.027   7.686
   49MYC    H62 7013   2.885   2.132   7.683
   49MYC    H63 7014   2.940   1.966   7.661
   49MYC    C35 7015   2.743   2.006   7.580
   49MYC    H64 7016   2.688   1.913   7.601
   49MYC    H65 7017   2.670   2.088   7.586
   49MYC    C36 7018   2.802   1.997   7.438
   49MYC    H66 7019   2.871   2.081   7.422
   49MYC    H67 7020   2.861   1.905   7.431
   49MYC    C37 7021   2.696   1.998   7.326
   49MYC    H68 7022   2.611   1.935   7.354
   49MYC    H69 7023   2.658   2.100   7.315
   49MYC    C38 7024   2.755   1.949   7.192
   49MYC    H70 7025   2.847   2.003   7.170
   49MYC    H71 7026   2.782   1.843   7.202
   49MYC    C39 7027   2.658   1.965   7.073
   49MYC    H72 7028   2.562   1.919   7.098
   49MYC    H73 7029   2.640   2.072   7.057
   49MYC    C40 7030   2.713   1.902   6.944
   49MYC    H74 7031   2.811   1.945   6.921
   49MYC    H75 7032   2.729   1.795   6.960
   49MYC    C41 7033   2.620   1.921   6.823
   49MYC    H76 7034   2.521   1.880   6.847
   49MYC    H77 7035   2.608   2.028   6.804
   49MYC    C42 7036   2.674   1.853   6.696
   49MYC    H78 7037   2.771   1.896   6.669
   49MYC    H79 7038   2.691   1.747   6.715
   49MYC    C43 7039   2.578   1.866   6.576
   49MYC    H80 7040   2.618   1.808   6.492
   49MYC    H81 7041   2.568   1.970   6.545
   49MYC    H82 7042   2.479   1.826   6.601
   50MYC   HH15 7043   3.806   2.118   6.722
   50MYC    C80 7044   3.742   2.172   6.793
   50MYC   H100 7045   3.743   2.278   6.766
   50MYC   H101 7046   3.639   2.134   6.782
   50MYC    C79 7047   3.792   2.151   6.936
   50MYC   H102 7048   3.897   2.184   6.942
   50MYC   H103 7049   3.792   2.044   6.960
   50MYC    C78 7050   3.709   2.227   7.042
   50MYC   HH14 7051   3.603   2.200   7.031
   50MYC   H104 7052   3.717   2.335   7.023
   50MYC    C77 7053   3.753   2.196   7.186
   50MYC   H106 7054   3.860   2.217   7.196
   50MYC   H107 7055   3.740   2.089   7.205
   50MYC    C76 7056   3.676   2.277   7.293
   50MYC   H108 7057   3.569   2.270   7.273
   50MYC   H109 7058   3.704   2.383   7.285
   50MYC    C75 7059   3.704   2.226   7.436
   50MYC   H110 7060   3.813   2.223   7.453
   50MYC   H111 7061   3.668   2.123   7.444
   50MYC    C74 7062   3.638   2.311   7.547
   50MYC   H112 7063   3.532   2.326   7.524
   50MYC   H113 7064   3.685   2.410   7.549
   50MYC    C73 7065   3.651   2.243   7.685
   50MYC   HH13 7066   3.756   2.218   7.703
   50MYC   H114 7067   3.596   2.149   7.683
   50MYC    C72 7068   3.599   2.329   7.802
   50MYC   H115 7069   3.496   2.360   7.783
   50MYC   H116 7070   3.659   2.421   7.810
   50MYC    C71 7071   3.606   2.252   7.935
   50MYC   H117 7072   3.708   2.213   7.949
   50MYC   H118 7073   3.540   2.164   7.928
   50MYC    C70 7074   3.567   2.334   8.059
   50MYC   H119 7075   3.466   2.375   8.046
   50MYC   H120 7076   3.636   2.419   8.070
   50MYC    C69 7077   3.572   2.248   8.187
   50MYC   H121 7078   3.670   2.201   8.194
   50MYC   H122 7079   3.498   2.166   8.177
   50MYC    C68 7080   3.543   2.325   8.317
   50MYC   HH12 7081   3.445   2.374   8.310
   50MYC   H123 7082   3.619   2.404   8.330
   50MYC    C67 7083   3.544   2.231   8.439
   50MYC   H124 7084   3.641   2.178   8.443
   50MYC   H125 7085   3.467   2.154   8.425
   50MYC    C66 7086   3.520   2.301   8.573
   50MYC   H126 7087   3.425   2.356   8.570
   50MYC   H127 7088   3.600   2.375   8.591
   50MYC    C65 7089   3.517   2.200   8.690
   50MYC   H128 7090   3.612   2.146   8.692
   50MYC   H129 7091   3.438   2.126   8.670
   50MYC    C64 7092   3.492   2.264   8.828
   50MYC   H130 7093   3.396   2.318   8.826
   50MYC   H131 7094   3.570   2.339   8.848
   50MYC    C63 7095   3.490   2.159   8.940
   50MYC   HH11 7096   3.586   2.105   8.939
   50MYC   H132 7097   3.412   2.085   8.918
   50MYC    C62 7098   3.466   2.217   9.080
   50MYC   H133 7099   3.366   2.261   9.084
   50MYC   H134 7100   3.537   2.299   9.098
   50MYC    C61 7101   3.481   2.111   9.191
   50MYC   H135 7102   3.582   2.070   9.187
   50MYC   H136 7103   3.413   2.028   9.170
   50MYC    C60 7104   3.452   2.166   9.330
   50MYC   H137 7105   3.346   2.185   9.346
   50MYC    C58 7106   3.532   2.118   9.448
   50MYC   H138 7107   3.614   2.050   9.427
   50MYC    C59 7108   3.548   2.260   9.399
   50MYC   H139 7109   3.506   2.340   9.459
   50MYC   H140 7110   3.640   2.286   9.347
   50MYC    C57 7111   3.464   2.088   9.581
   50MYC   HH10 7112   3.417   1.989   9.577
   50MYC   H141 7113   3.384   2.160   9.599
   50MYC    C56 7114   3.563   2.092   9.699
   50MYC   H142 7115   3.617   2.187   9.697
   50MYC   H143 7116   3.638   2.012   9.688
   50MYC    C55 7117   3.493   2.077   9.836
   50MYC   H144 7118   3.441   1.980   9.840
   50MYC   H145 7119   3.415   2.154   9.844
   50MYC    C54 7120   3.589   2.089   9.956
   50MYC   H146 7121   3.650   2.180   9.943
   50MYC   H147 7122   3.658   2.004   9.957
   50MYC    C53 7123   3.515   2.097  10.091
   50MYC   H148 7124   3.465   2.002  10.110
   50MYC   H149 7125   3.436   2.174  10.083
   50MYC    C52 7126   3.606   2.133  10.210
   50MYC    H99 7127   3.659   2.227  10.187
   50MYC   H150 7128   3.683   2.056  10.222
   50MYC    C51 7129   3.527   2.149  10.341
   50MYC    H97 7130   3.485   2.052  10.370
   50MYC    H98 7131   3.443   2.217  10.324
   50MYC    C50 7132   3.611   2.205  10.459
   50MYC    H95 7133   3.652   2.303  10.429
   50MYC    H96 7134   3.696   2.139  10.478
   50MYC    C49 7135   3.527   2.222  10.588
   50MYC    H93 7136   3.501   2.122  10.626
   50MYC    H94 7137   3.434   2.273  10.563
   50MYC    C48 7138   3.600   2.302  10.698
   50MYC    H91 7139   3.628   2.400  10.657
   50MYC    H92 7140   3.692   2.251  10.727
   50MYC    C47 7141   3.515   2.323  10.826
   50MYC    H89 7142   3.526   2.235  10.890
   50MYC    H90 7143   3.409   2.331  10.799
   50MYC    C46 7144   3.555   2.447  10.907
   50MYC    H87 7145   3.546   2.536  10.844
   50MYC    H88 7146   3.661   2.439  10.936
   50MYC    C45 7147   3.467   2.465  11.034
   50MYC    H85 7148   3.482   2.381  11.102
   50MYC    H86 7149   3.362   2.463  11.004
   50MYC    C44 7150   3.494   2.598  11.108
   50MYC    H83 7151   3.411   2.616  11.177
   50MYC    H84 7152   3.491   2.680  11.036
   50MYC    C18 7153   3.627   2.600  11.184
   50MYC    H31 7154   3.699   2.529  11.146
   50MYC    C17 7155   3.682   2.731  11.237
   50MYC    H30 7156   3.619   2.819  11.226
   50MYC    C19 7157   3.631   2.626  11.333
   50MYC    H32 7158   3.540   2.649  11.387
   50MYC    H33 7159   3.703   2.567  11.390
   50MYC    C16 7160   3.831   2.765  11.234
   50MYC    H28 7161   3.888   2.683  11.278
   50MYC    H29 7162   3.848   2.851  11.300
   50MYC    C15 7163   3.892   2.798  11.096
   50MYC    H26 7164   3.999   2.809  11.112
   50MYC    H27 7165   3.857   2.895  11.061
   50MYC    C14 7166   3.872   2.691  10.986
   50MYC    H24 7167   3.765   2.682  10.961
   50MYC    H25 7168   3.904   2.594  11.025
   50MYC    C13 7169   3.950   2.722  10.856
   50MYC    H22 7170   4.052   2.752  10.882
   50MYC    H23 7171   3.903   2.807  10.806
   50MYC    C12 7172   3.957   2.601  10.759
   50MYC    H20 7173   3.856   2.575  10.725
   50MYC    H21 7174   3.994   2.514  10.814
   50MYC    C11 7175   4.051   2.624  10.637
   50MYC    H18 7176   4.067   2.529  10.585
   50MYC    H19 7177   4.149   2.654  10.675
   50MYC    C10 7178   4.004   2.731  10.536
   50MYC    H16 7179   4.087   2.752  10.468
   50MYC    H17 7180   3.986   2.825  10.589
   50MYC     C9 7181   3.878   2.696  10.452
   50MYC    H14 7182   3.849   2.786  10.397
   50MYC    H15 7183   3.794   2.675  10.520
   50MYC     C8 7184   3.892   2.580  10.351
   50MYC    H12 7185   3.799   2.575  10.292
   50MYC    H13 7186   3.899   2.484  10.403
   50MYC     C7 7187   4.012   2.593  10.255
   50MYC    H10 7188   4.105   2.572  10.310
   50MYC    H11 7189   4.018   2.696  10.221
   50MYC     C6 7190   4.009   2.501  10.130
   50MYC     H8 7191   3.994   2.397  10.161
   50MYC     H9 7192   4.108   2.506  10.082
   50MYC     C5 7193   3.902   2.542  10.026
   50MYC     H6 7194   3.912   2.650  10.009
   50MYC     H7 7195   3.802   2.524  10.067
   50MYC     C4 7196   3.916   2.469   9.891
   50MYC     H4 7197   3.925   2.361   9.910
   50MYC     H5 7198   4.011   2.499   9.844
   50MYC     C2 7199   3.802   2.490   9.787
   50MYC     H2 7200   3.835   2.436   9.698
   50MYC     O3 7201   3.683   2.428   9.835
   50MYC     H3 7202   3.620   2.499   9.860
   50MYC     C1 7203   3.775   2.639   9.744
   50MYC     H1 7204   3.873   2.685   9.728
   50MYC    C81 7205   3.704   2.725   9.851
   50MYC    O82 7206   3.752   2.827   9.898
   50MYC    O83 7207   3.575   2.691   9.877
   50MYC   H105 7208   3.542   2.758   9.939
   50MYC    C20 7209   3.699   2.650   9.609
   50MYC    H34 7210   3.602   2.599   9.616
   50MYC    H35 7211   3.676   2.756   9.592
   50MYC    C21 7212   3.776   2.596   9.487
   50MYC    H36 7213   3.880   2.630   9.492
   50MYC    H37 7214   3.778   2.487   9.489
   50MYC    C22 7215   3.716   2.642   9.352
   50MYC    H38 7216   3.611   2.612   9.347
   50MYC    H39 7217   3.718   2.752   9.348
   50MYC    C23 7218   3.792   2.585   9.231
   50MYC    H40 7219   3.899   2.600   9.244
   50MYC    H41 7220   3.775   2.476   9.227
   50MYC    C24 7221   3.749   2.649   9.097
   50MYC    H42 7222   3.640   2.639   9.086
   50MYC    H43 7223   3.772   2.756   9.100
   50MYC    C25 7224   3.818   2.585   8.976
   50MYC    H44 7225   3.927   2.579   8.994
   50MYC    H45 7226   3.783   2.482   8.965
   50MYC    C26 7227   3.793   2.661   8.844
   50MYC    H46 7228   3.685   2.672   8.829
   50MYC    H47 7229   3.835   2.762   8.853
   50MYC    C27 7230   3.855   2.591   8.722
   50MYC    H48 7231   3.962   2.573   8.740
   50MYC    H49 7232   3.808   2.493   8.710
   50MYC    C28 7233   3.839   2.671   8.592
   50MYC    H50 7234   3.733   2.698   8.579
   50MYC    H51 7235   3.896   2.765   8.599
   50MYC    C29 7236   3.886   2.592   8.468
   50MYC    H52 7237   3.992   2.565   8.480
   50MYC    H53 7238   3.830   2.498   8.462
   50MYC    C30 7239   3.867   2.670   8.337
   50MYC    H54 7240   3.763   2.702   8.328
   50MYC    H55 7241   3.929   2.760   8.339
   50MYC    C31 7242   3.904   2.586   8.213
   50MYC    H56 7243   4.009   2.555   8.219
   50MYC    H57 7244   3.843   2.494   8.212
   50MYC    C32 7245   3.881   2.662   8.081
   50MYC    H58 7246   3.776   2.690   8.074
   50MYC    H59 7247   3.940   2.754   8.082
   50MYC    C33 7248   3.920   2.579   7.956
   50MYC    H60 7249   4.026   2.552   7.962
   50MYC    H61 7250   3.863   2.485   7.956
   50MYC    C34 7251   3.893   2.655   7.825
   50MYC    H62 7252   3.786   2.678   7.818
   50MYC    H63 7253   3.946   2.751   7.829
   50MYC    C35 7254   3.937   2.578   7.699
   50MYC    H64 7255   4.044   2.558   7.704
   50MYC    H65 7256   3.886   2.481   7.696
   50MYC    C36 7257   3.906   2.658   7.571
   50MYC    H66 7258   3.798   2.677   7.566
   50MYC    H67 7259   3.955   2.755   7.576
   50MYC    C37 7260   3.950   2.586   7.441
   50MYC    H68 7261   4.058   2.571   7.443
   50MYC    H69 7262   3.903   2.487   7.436
   50MYC    C38 7263   3.911   2.668   7.316
   50MYC    H70 7264   3.802   2.683   7.316
   50MYC    H71 7265   3.957   2.767   7.322
   50MYC    C39 7266   3.952   2.602   7.183
   50MYC    H72 7267   4.061   2.592   7.179
   50MYC    H73 7268   3.909   2.501   7.178
   50MYC    C40 7269   3.903   2.683   7.061
   50MYC    H74 7270   3.794   2.692   7.066
   50MYC    H75 7271   3.944   2.785   7.067
   50MYC    C41 7272   3.943   2.621   6.926
   50MYC    H76 7273   4.052   2.617   6.919
   50MYC    H77 7274   3.906   2.518   6.921
   50MYC    C42 7275   3.887   2.701   6.806
   50MYC    H78 7276   3.778   2.704   6.812
   50MYC    H79 7277   3.923   2.805   6.811
   50MYC    C43 7278   3.927   2.641   6.670
   50MYC    H80 7279   3.883   2.700   6.588
   50MYC    H81 7280   3.892   2.538   6.661
   50MYC    H82 7281   4.036   2.642   6.657
   51MYC   HH15 7282   4.230   2.350   6.611
   51MYC    C80 7283   4.283   2.343   6.706
   51MYC   H100 7284   4.363   2.268   6.697
   51MYC   H101 7285   4.329   2.440   6.728
   51MYC    C79 7286   4.185   2.303   6.819
   51MYC   H102 7287   4.139   2.207   6.794
   51MYC   H103 7288   4.104   2.377   6.823
   51MYC    C78 7289   4.254   2.293   6.956
   51MYC   HH14 7290   4.302   2.389   6.980
   51MYC   H104 7291   4.332   2.217   6.952
   51MYC    C77 7292   4.156   2.257   7.070
   51MYC   H106 7293   4.110   2.160   7.048
   51MYC   H107 7294   4.075   2.331   7.073
   51MYC    C76 7295   4.224   2.251   7.208
   51MYC   H108 7296   4.274   2.346   7.228
   51MYC   H109 7297   4.301   2.173   7.206
   51MYC    C75 7298   4.125   2.222   7.322
   51MYC   H110 7299   4.074   2.127   7.302
   51MYC   H111 7300   4.049   2.300   7.323
   51MYC    C74 7301   4.193   2.215   7.460
   51MYC   H112 7302   4.248   2.309   7.477
   51MYC   H113 7303   4.266   2.134   7.460
   51MYC    C73 7304   4.092   2.195   7.573
   51MYC   HH13 7305   4.036   2.102   7.556
   51MYC   H114 7306   4.020   2.277   7.571
   51MYC    C72 7307   4.158   2.190   7.712
   51MYC   H115 7308   4.220   2.280   7.726
   51MYC   H116 7309   4.225   2.103   7.718
   51MYC    C71 7310   4.054   2.182   7.824
   51MYC   H117 7311   3.993   2.091   7.812
   51MYC   H118 7312   3.986   2.268   7.816
   51MYC    C70 7313   4.117   2.182   7.964
   51MYC   H119 7314   4.183   2.269   7.975
   51MYC   H120 7315   4.179   2.093   7.977
   51MYC    C69 7316   4.010   2.186   8.075
   51MYC   H121 7317   3.946   2.097   8.067
   51MYC   H122 7318   3.945   2.273   8.060
   51MYC    C68 7319   4.071   2.192   8.215
   51MYC   HH12 7320   4.134   2.282   8.223
   51MYC   H123 7321   4.135   2.105   8.231
   51MYC    C67 7322   3.963   2.196   8.325
   51MYC   H124 7323   3.902   2.105   8.319
   51MYC   H125 7324   3.895   2.281   8.307
   51MYC    C66 7325   4.024   2.209   8.465
   51MYC   H126 7326   4.079   2.303   8.472
   51MYC   H127 7327   4.096   2.128   8.480
   51MYC    C65 7328   3.918   2.203   8.576
   51MYC   H128 7329   3.864   2.108   8.569
   51MYC   H129 7330   3.845   2.283   8.562
   51MYC    C64 7331   3.982   2.216   8.715
   51MYC   H130 7332   4.032   2.313   8.723
   51MYC   H131 7333   4.059   2.139   8.726
   51MYC    C63 7334   3.880   2.201   8.829
   51MYC   HH11 7335   3.828   2.105   8.819
   51MYC   H132 7336   3.804   2.280   8.821
   51MYC    C62 7337   3.949   2.209   8.965
   51MYC   H133 7338   3.999   2.306   8.975
   51MYC   H134 7339   4.027   2.132   8.968
   51MYC    C61 7340   3.852   2.190   9.084
   51MYC   H135 7341   3.793   2.099   9.067
   51MYC   H136 7342   3.782   2.273   9.086
   51MYC    C60 7343   3.920   2.178   9.220
   51MYC   H137 7344   3.849   2.197   9.301
   51MYC    C58 7345   4.021   2.068   9.246
   51MYC   H138 7346   4.051   2.009   9.161
   51MYC    C59 7347   4.064   2.214   9.247
   51MYC   H139 7348   4.086   2.264   9.341
   51MYC   H140 7349   4.127   2.247   9.165
   51MYC    C57 7350   4.012   1.982   9.372
   51MYC   HH10 7351   4.095   1.911   9.372
   51MYC   H141 7352   3.920   1.922   9.367
   51MYC    C56 7353   4.014   2.060   9.504
   51MYC   H142 7354   3.936   2.137   9.505
   51MYC   H143 7355   4.110   2.112   9.513
   51MYC    C55 7356   3.995   1.972   9.629
   51MYC   H144 7357   4.068   1.891   9.627
   51MYC   H145 7358   3.895   1.927   9.628
   51MYC    C54 7359   4.014   2.055   9.756
   51MYC   H146 7360   3.939   2.135   9.760
   51MYC   H147 7361   4.112   2.104   9.752
   51MYC    C53 7362   4.006   1.972   9.885
   51MYC   H148 7363   4.073   1.886   9.876
   51MYC   H149 7364   3.904   1.933   9.897
   51MYC    C52 7365   4.046   2.055  10.007
   51MYC    H99 7366   3.979   2.142  10.016
   51MYC   H150 7367   4.148   2.094   9.993
   51MYC    C51 7368   4.040   1.974  10.137
   51MYC    H97 7369   4.101   1.884  10.125
   51MYC    H98 7370   3.937   1.943  10.155
   51MYC    C50 7371   4.093   2.054  10.258
   51MYC    H95 7372   4.049   2.154  10.257
   51MYC    H96 7373   4.201   2.065  10.249
   51MYC    C49 7374   4.062   1.986  10.391
   51MYC    H93 7375   4.108   1.887  10.392
   51MYC    H94 7376   3.954   1.972  10.400
   51MYC    C48 7377   4.115   2.066  10.512
   51MYC    H91 7378   4.089   2.171  10.499
   51MYC    H92 7379   4.224   2.061  10.515
   51MYC    C47 7380   4.056   2.015  10.644
   51MYC    H89 7381   4.088   1.911  10.661
   51MYC    H90 7382   3.947   2.013  10.635
   51MYC    C46 7383   4.095   2.100  10.767
   51MYC    H87 7384   4.098   2.206  10.739
   51MYC    H88 7385   4.196   2.073  10.799
   51MYC    C45 7386   3.994   2.082  10.883
   51MYC    H85 7387   3.987   1.975  10.909
   51MYC    H86 7388   3.895   2.112  10.846
   51MYC    C44 7389   4.027   2.164  11.009
   51MYC    H83 7390   3.937   2.170  11.071
   51MYC    H84 7391   4.050   2.267  10.979
   51MYC    C18 7392   4.142   2.105  11.089
   51MYC    H31 7393   4.220   2.062  11.027
   51MYC    C17 7394   4.188   2.172  11.216
   51MYC    H30 7395   4.131   2.257  11.251
   51MYC    C19 7396   4.120   2.038  11.223
   51MYC    H32 7397   4.018   2.033  11.259
   51MYC    H33 7398   4.181   1.952  11.248
   51MYC    C16 7399   4.338   2.188  11.242
   51MYC    H28 7400   4.391   2.099  11.207
   51MYC    H29 7401   4.355   2.194  11.350
   51MYC    C15 7402   4.401   2.313  11.175
   51MYC    H26 7403   4.509   2.308  11.186
   51MYC    H27 7404   4.367   2.403  11.226
   51MYC    C14 7405   4.370   2.326  11.024
   51MYC    H24 7406   4.263   2.349  11.011
   51MYC    H25 7407   4.389   2.229  10.976
   51MYC    C13 7408   4.451   2.434  10.952
   51MYC    H22 7409   4.558   2.417  10.970
   51MYC    H23 7410   4.427   2.533  10.992
   51MYC    C12 7411   4.423   2.431  10.801
   51MYC    H20 7412   4.320   2.465  10.783
   51MYC    H21 7413   4.429   2.327  10.766
   51MYC    C11 7414   4.520   2.517  10.717
   51MYC    H18 7415   4.623   2.479  10.727
   51MYC    H19 7416   4.520   2.619  10.756
   51MYC    C10 7417   4.481   2.521  10.568
   51MYC    H16 7418   4.537   2.602  10.519
   51MYC    H17 7419   4.375   2.548  10.560
   51MYC     C9 7420   4.506   2.390  10.489
   51MYC    H14 7421   4.479   2.303  10.548
   51MYC    H15 7422   4.614   2.382  10.468
   51MYC     C8 7423   4.426   2.387  10.357
   51MYC    H12 7424   4.420   2.488  10.315
   51MYC    H13 7425   4.323   2.355  10.378
   51MYC     C7 7426   4.487   2.294  10.250
   51MYC    H10 7427   4.503   2.194  10.292
   51MYC    H11 7428   4.586   2.333  10.223
   51MYC     C6 7429   4.400   2.284  10.123
   51MYC     H8 7430   4.357   2.382  10.098
   51MYC     H9 7431   4.315   2.218  10.144
   51MYC     C5 7432   4.477   2.229  10.000
   51MYC     H6 7433   4.406   2.183   9.931
   51MYC     H7 7434   4.544   2.149  10.033
   51MYC     C4 7435   4.558   2.339   9.927
   51MYC     H4 7436   4.655   2.297   9.898
   51MYC     H5 7437   4.580   2.420   9.997
   51MYC     C2 7438   4.489   2.396   9.800
   51MYC     H2 7439   4.495   2.316   9.724
   51MYC     O3 7440   4.351   2.426   9.824
   51MYC     H3 7441   4.344   2.521   9.842
   51MYC     C1 7442   4.563   2.522   9.744
   51MYC     H1 7443   4.669   2.495   9.734
   51MYC    C81 7444   4.558   2.640   9.844
   51MYC    O82 7445   4.656   2.685   9.901
   51MYC    O83 7446   4.436   2.699   9.857
   51MYC   H105 7447   4.452   2.778   9.912
   51MYC    C20 7448   4.515   2.566   9.604
   51MYC    H34 7449   4.410   2.597   9.609
   51MYC    H35 7450   4.573   2.654   9.574
   51MYC    C21 7451   4.528   2.459   9.493
   51MYC    H36 7452   4.626   2.410   9.500
   51MYC    H37 7453   4.452   2.381   9.508
   51MYC    C22 7454   4.512   2.518   9.352
   51MYC    H38 7455   4.421   2.578   9.348
   51MYC    H39 7456   4.596   2.586   9.332
   51MYC    C23 7457   4.506   2.411   9.240
   51MYC    H40 7458   4.592   2.345   9.248
   51MYC    H41 7459   4.416   2.350   9.254
   51MYC    C24 7460   4.503   2.475   9.099
   51MYC    H42 7461   4.422   2.549   9.095
   51MYC    H43 7462   4.597   2.530   9.083
   51MYC    C25 7463   4.484   2.373   8.985
   51MYC    H44 7464   4.563   2.297   8.991
   51MYC    H45 7465   4.388   2.321   8.998
   51MYC    C26 7466   4.487   2.439   8.846
   51MYC    H46 7467   4.410   2.517   8.841
   51MYC    H47 7468   4.584   2.490   8.833
   51MYC    C27 7469   4.468   2.339   8.730
   51MYC    H48 7470   4.543   2.260   8.738
   51MYC    H49 7471   4.369   2.292   8.739
   51MYC    C28 7472   4.480   2.407   8.592
   51MYC    H50 7473   4.401   2.482   8.581
   51MYC    H51 7474   4.576   2.460   8.587
   51MYC    C29 7475   4.472   2.307   8.474
   51MYC    H52 7476   4.545   2.227   8.489
   51MYC    H53 7477   4.372   2.261   8.472
   51MYC    C30 7478   4.499   2.375   8.338
   51MYC    H54 7479   4.421   2.450   8.319
   51MYC    H55 7480   4.595   2.429   8.344
   51MYC    C31 7481   4.504   2.279   8.219
   51MYC    H56 7482   4.574   2.197   8.240
   51MYC    H57 7483   4.405   2.233   8.205
   51MYC    C32 7484   4.547   2.350   8.089
   51MYC    H58 7485   4.480   2.435   8.071
   51MYC    H59 7486   4.648   2.391   8.102
   51MYC    C33 7487   4.545   2.259   7.965
   51MYC    H60 7488   4.607   2.170   7.984
   51MYC    H61 7489   4.443   2.224   7.947
   51MYC    C34 7490   4.598   2.330   7.839
   51MYC    H62 7491   4.546   2.427   7.828
   51MYC    H63 7492   4.704   2.352   7.852
   51MYC    C35 7493   4.578   2.248   7.710
   51MYC    H64 7494   4.625   2.150   7.721
   51MYC    H65 7495   4.470   2.231   7.695
   51MYC    C36 7496   4.636   2.318   7.585
   51MYC    H66 7497   4.603   2.423   7.584
   51MYC    H67 7498   4.745   2.319   7.593
   51MYC    C37 7499   4.593   2.251   7.453
   51MYC    H68 7500   4.614   2.143   7.458
   51MYC    H69 7501   4.485   2.262   7.441
   51MYC    C38 7502   4.665   2.310   7.330
   51MYC    H70 7503   4.655   2.419   7.330
   51MYC    H71 7504   4.772   2.288   7.338
   51MYC    C39 7505   4.612   2.255   7.196
   51MYC    H72 7506   4.597   2.147   7.204
   51MYC    H73 7507   4.514   2.300   7.176
   51MYC    C40 7508   4.707   2.285   7.078
   51MYC    H74 7509   4.730   2.392   7.075
   51MYC    H75 7510   4.802   2.232   7.097
   51MYC    C41 7511   4.652   2.240   6.942
   51MYC    H76 7512   4.623   2.134   6.947
   51MYC    H77 7513   4.561   2.297   6.919
   51MYC    C42 7514   4.754   2.259   6.827
   51MYC    H78 7515   4.779   2.366   6.819
   51MYC    H79 7516   4.846   2.206   6.852
   51MYC    C43 7517   4.703   2.210   6.691
   51MYC    H80 7518   4.780   2.224   6.614
   51MYC    H81 7519   4.613   2.265   6.661
   51MYC    H82 7520   4.678   2.103   6.695
   52MYC   HH15 7521   5.094   2.427   6.680
   52MYC    C80 7522   5.136   2.359   6.755
   52MYC   H100 7523   5.093   2.259   6.739
   52MYC   H101 7524   5.244   2.353   6.740
   52MYC    C79 7525   5.103   2.410   6.897
   52MYC   H102 7526   4.994   2.417   6.907
   52MYC   H103 7527   5.143   2.511   6.909
   52MYC    C78 7528   5.159   2.319   7.009
   52MYC   HH14 7529   5.269   2.325   7.008
   52MYC   H104 7530   5.132   2.215   6.988
   52MYC    C77 7531   5.106   2.358   7.148
   52MYC   H106 7532   4.997   2.346   7.149
   52MYC   H107 7533   5.125   2.465   7.165
   52MYC    C76 7534   5.167   2.277   7.264
   52MYC   H108 7535   5.273   2.305   7.275
   52MYC   H109 7536   5.164   2.170   7.240
   52MYC    C75 7537   5.093   2.300   7.397
   52MYC   H110 7538   4.992   2.258   7.389
   52MYC   H111 7539   5.081   2.408   7.413
   52MYC    C74 7540   5.163   2.239   7.519
   52MYC   H112 7541   5.262   2.284   7.530
   52MYC   H113 7542   5.179   2.131   7.502
   52MYC    C73 7543   5.083   2.258   7.649
   52MYC   HH13 7544   4.986   2.207   7.640
   52MYC   H114 7545   5.062   2.365   7.664
   52MYC    C72 7546   5.157   2.204   7.773
   52MYC   H115 7547   5.250   2.260   7.786
   52MYC   H116 7548   5.183   2.099   7.756
   52MYC    C71 7549   5.073   2.215   7.902
   52MYC   H117 7550   4.982   2.155   7.891
   52MYC   H118 7551   5.042   2.319   7.918
   52MYC    C70 7552   5.151   2.166   8.026
   52MYC   H119 7553   5.236   2.234   8.043
   52MYC   H120 7554   5.193   2.067   8.007
   52MYC    C69 7555   5.064   2.160   8.154
   52MYC   H121 7556   4.988   2.082   8.142
   52MYC   H122 7557   5.012   2.255   8.168
   52MYC    C68 7558   5.149   2.130   8.280
   52MYC   HH12 7559   5.218   2.213   8.295
   52MYC   H123 7560   5.209   2.040   8.263
   52MYC    C67 7561   5.064   2.111   8.408
   52MYC   H124 7562   5.018   2.011   8.406
   52MYC   H125 7563   4.983   2.184   8.410
   52MYC    C66 7564   5.149   2.126   8.536
   52MYC   H126 7565   5.187   2.229   8.539
   52MYC   H127 7566   5.236   2.061   8.529
   52MYC    C65 7567   5.072   2.096   8.666
   52MYC   H128 7568   5.057   1.988   8.675
   52MYC   H129 7569   4.973   2.142   8.662
   52MYC    C64 7570   5.147   2.148   8.791
   52MYC   H130 7571   5.160   2.257   8.781
   52MYC   H131 7572   5.247   2.104   8.796
   52MYC    C63 7573   5.072   2.119   8.923
   52MYC   HH11 7574   5.069   2.011   8.940
   52MYC   H132 7575   4.968   2.153   8.913
   52MYC    C62 7576   5.137   2.188   9.045
   52MYC   H133 7577   5.151   2.295   9.022
   52MYC   H134 7578   5.236   2.146   9.063
   52MYC    C61 7579   5.051   2.176   9.173
   52MYC   H135 7580   5.037   2.070   9.196
   52MYC   H136 7581   4.952   2.217   9.153
   52MYC    C60 7582   5.112   2.248   9.292
   52MYC   H137 7583   5.142   2.350   9.269
   52MYC    C58 7584   5.057   2.225   9.431
   52MYC   H138 7585   4.977   2.152   9.438
   52MYC    C59 7586   5.195   2.175   9.395
   52MYC   H139 7587   5.280   2.227   9.437
   52MYC   H140 7588   5.208   2.068   9.383
   52MYC    C57 7589   5.038   2.340   9.529
   52MYC   HH10 7590   4.945   2.393   9.506
   52MYC   H141 7591   5.120   2.413   9.519
   52MYC    C56 7592   5.033   2.290   9.675
   52MYC   H142 7593   5.127   2.237   9.697
   52MYC   H143 7594   4.952   2.216   9.685
   52MYC    C55 7595   5.012   2.402   9.779
   52MYC   H144 7596   4.918   2.454   9.759
   52MYC   H145 7597   5.093   2.475   9.771
   52MYC    C54 7598   5.009   2.345   9.923
   52MYC   H146 7599   5.101   2.288   9.940
   52MYC   H147 7600   4.926   2.275   9.932
   52MYC    C53 7601   4.997   2.453  10.033
   52MYC   H148 7602   4.901   2.505  10.024
   52MYC   H149 7603   5.076   2.528  10.019
   52MYC    C52 7604   5.010   2.391  10.174
   52MYC    H99 7605   5.101   2.330  10.176
   52MYC   H150 7606   4.926   2.323  10.192
   52MYC    C51 7607   5.017   2.494  10.289
   52MYC    H97 7608   4.919   2.539  10.305
   52MYC    H98 7609   5.086   2.575  10.261
   52MYC    C50 7610   5.067   2.429  10.420
   52MYC    H95 7611   5.166   2.385  10.400
   52MYC    H96 7612   5.001   2.346  10.447
   52MYC    C49 7613   5.079   2.524  10.540
   52MYC    H93 7614   4.979   2.549  10.577
   52MYC    H94 7615   5.126   2.618  10.508
   52MYC    C48 7616   5.163   2.462  10.654
   52MYC    H91 7617   5.266   2.450  10.618
   52MYC    H92 7618   5.126   2.362  10.676
   52MYC    C47 7619   5.164   2.544  10.785
   52MYC    H89 7620   5.064   2.537  10.831
   52MYC    H90 7621   5.181   2.650  10.762
   52MYC    C46 7622   5.271   2.495  10.885
   52MYC    H87 7623   5.370   2.520  10.846
   52MYC    H88 7624   5.266   2.386  10.892
   52MYC    C45 7625   5.257   2.555  11.027
   52MYC    H85 7626   5.168   2.513  11.076
   52MYC    H86 7627   5.240   2.663  11.020
   52MYC    C44 7628   5.380   2.533  11.118
   52MYC    H83 7629   5.361   2.582  11.214
   52MYC    H84 7630   5.467   2.584  11.074
   52MYC    C18 7631   5.413   2.386  11.144
   52MYC    H31 7632   5.328   2.331  11.185
   52MYC    C17 7633   5.502   2.311  11.048
   52MYC    H30 7634   5.546   2.370  10.969
   52MYC    C19 7635   5.549   2.341  11.189
   52MYC    H32 7636   5.627   2.417  11.201
   52MYC    H33 7637   5.554   2.259  11.260
   52MYC    C16 7638   5.461   2.170  11.004
   52MYC    H28 7639   5.360   2.174  10.962
   52MYC    H29 7640   5.454   2.105  11.092
   52MYC    C15 7641   5.554   2.103  10.901
   52MYC    H26 7642   5.518   2.001  10.883
   52MYC    H27 7643   5.655   2.093  10.944
   52MYC    C14 7644   5.563   2.179  10.767
   52MYC    H24 7645   5.613   2.274  10.785
   52MYC    H25 7646   5.462   2.203  10.732
   52MYC    C13 7647   5.639   2.104  10.656
   52MYC    H22 7648   5.573   2.029  10.611
   52MYC    H23 7649   5.724   2.050  10.699
   52MYC    C12 7650   5.688   2.201  10.547
   52MYC    H20 7651   5.753   2.276  10.594
   52MYC    H21 7652   5.601   2.254  10.507
   52MYC    C11 7653   5.766   2.135  10.432
   52MYC    H18 7654   5.698   2.071  10.374
   52MYC    H19 7655   5.843   2.069  10.474
   52MYC    C10 7656   5.835   2.238  10.339
   52MYC    H16 7657   5.882   2.184  10.256
   52MYC    H17 7658   5.917   2.286  10.395
   52MYC     C9 7659   5.743   2.349  10.283
   52MYC    H14 7660   5.804   2.418  10.223
   52MYC    H15 7661   5.702   2.409  10.365
   52MYC     C8 7662   5.628   2.296  10.194
   52MYC    H12 7663   5.569   2.222  10.249
   52MYC    H13 7664   5.673   2.244  10.109
   52MYC     C7 7665   5.531   2.407  10.146
   52MYC    H10 7666   5.588   2.497  10.119
   52MYC    H11 7667   5.466   2.436  10.229
   52MYC     C6 7668   5.444   2.365  10.026
   52MYC     H8 7669   5.360   2.435  10.015
   52MYC     H9 7670   5.400   2.266  10.046
   52MYC     C5 7671   5.523   2.362   9.893
   52MYC     H6 7672   5.617   2.308   9.908
   52MYC     H7 7673   5.552   2.465   9.867
   52MYC     C4 7674   5.446   2.300   9.775
   52MYC     H4 7675   5.367   2.370   9.745
   52MYC     H5 7676   5.395   2.209   9.808
   52MYC     C2 7677   5.531   2.265   9.649
   52MYC     H2 7678   5.459   2.260   9.566
   52MYC     O3 7679   5.623   2.371   9.620
   52MYC     H3 7680   5.688   2.374   9.693
   52MYC     C1 7681   5.604   2.127   9.653
   52MYC     H1 7682   5.525   2.053   9.672
   52MYC    C81 7683   5.706   2.114   9.768
   52MYC    O82 7684   5.812   2.173   9.773
   52MYC    O83 7685   5.668   2.028   9.866
   52MYC   H105 7686   5.741   2.028   9.930
   52MYC    C20 7687   5.671   2.088   9.519
   52MYC    H34 7688   5.745   2.165   9.491
   52MYC    H35 7689   5.729   1.996   9.532
   52MYC    C21 7690   5.572   2.069   9.403
   52MYC    H36 7691   5.491   2.002   9.434
   52MYC    H37 7692   5.526   2.165   9.378
   52MYC    C22 7693   5.637   2.012   9.275
   52MYC    H38 7694   5.725   2.072   9.250
   52MYC    H39 7695   5.671   1.910   9.294
   52MYC    C23 7696   5.540   2.014   9.155
   52MYC    H40 7697   5.451   1.954   9.178
   52MYC    H41 7698   5.506   2.117   9.139
   52MYC    C24 7699   5.604   1.962   9.025
   52MYC    H42 7700   5.705   2.005   9.015
   52MYC    H43 7701   5.616   1.853   9.032
   52MYC    C25 7702   5.523   1.998   8.900
   52MYC    H44 7703   5.422   1.956   8.909
   52MYC    H45 7704   5.511   2.107   8.895
   52MYC    C26 7705   5.588   1.948   8.770
   52MYC    H46 7706   5.695   1.973   8.771
   52MYC    H47 7707   5.580   1.839   8.764
   52MYC    C27 7708   5.524   2.011   8.645
   52MYC    H48 7709   5.417   1.989   8.645
   52MYC    H49 7710   5.534   2.120   8.651
   52MYC    C28 7711   5.586   1.961   8.513
   52MYC    H50 7712   5.696   1.970   8.519
   52MYC    H51 7713   5.563   1.855   8.500
   52MYC    C29 7714   5.537   2.041   8.390
   52MYC    H52 7715   5.427   2.039   8.387
   52MYC    H53 7716   5.566   2.146   8.401
   52MYC    C30 7717   5.592   1.987   8.257
   52MYC    H54 7718   5.702   1.986   8.261
   52MYC    H55 7719   5.559   1.883   8.245
   52MYC    C31 7720   5.547   2.069   8.136
   52MYC    H56 7721   5.437   2.076   8.135
   52MYC    H57 7722   5.585   2.171   8.144
   52MYC    C32 7723   5.594   2.008   8.002
   52MYC    H58 7724   5.703   2.003   8.001
   52MYC    H59 7725   5.557   1.905   7.995
   52MYC    C33 7726   5.545   2.087   7.879
   52MYC    H60 7727   5.436   2.097   7.883
   52MYC    H61 7728   5.587   2.188   7.882
   52MYC    C34 7729   5.585   2.019   7.747
   52MYC    H62 7730   5.695   2.014   7.740
   52MYC    H63 7731   5.548   1.916   7.746
   52MYC    C35 7732   5.530   2.093   7.623
   52MYC    H64 7733   5.421   2.101   7.632
   52MYC    H65 7734   5.570   2.195   7.622
   52MYC    C36 7735   5.566   2.022   7.491
   52MYC    H66 7736   5.675   2.018   7.481
   52MYC    H67 7737   5.530   1.919   7.493
   52MYC    C37 7738   5.506   2.094   7.368
   52MYC    H68 7739   5.397   2.095   7.376
   52MYC    H69 7740   5.539   2.199   7.369
   52MYC    C38 7741   5.547   2.029   7.235
   52MYC    H70 7742   5.657   2.028   7.228
   52MYC    H71 7743   5.514   1.925   7.232
   52MYC    C39 7744   5.490   2.104   7.112
   52MYC    H72 7745   5.381   2.093   7.110
   52MYC    H73 7746   5.512   2.211   7.123
   52MYC    C40 7747   5.549   2.055   6.979
   52MYC    H74 7748   5.659   2.058   6.985
   52MYC    H75 7749   5.522   1.950   6.963
   52MYC    C41 7750   5.504   2.139   6.858
   52MYC    H76 7751   5.396   2.127   6.843
   52MYC    H77 7752   5.521   2.246   6.880
   52MYC    C42 7753   5.578   2.103   6.728
   52MYC    H78 7754   5.686   2.113   6.744
   52MYC    H79 7755   5.559   1.998   6.702
   52MYC    C43 7756   5.539   2.192   6.608
   52MYC    H80 7757   5.596   2.164   6.519
   52MYC    H81 7758   5.560   2.298   6.630
   52MYC    H82 7759   5.432   2.182   6.586
   53MYC   HH15 7760   6.255   2.767   6.642
   53MYC    C80 7761   6.238   2.690   6.717
   53MYC   H100 7762   6.142   2.642   6.697
   53MYC   H101 7763   6.317   2.615   6.708
   53MYC    C79 7764   6.239   2.751   6.858
   53MYC   H102 7765   6.158   2.824   6.866
   53MYC   H103 7766   6.333   2.805   6.873
   53MYC    C78 7767   6.225   2.646   6.970
   53MYC   HH14 7768   6.314   2.582   6.971
   53MYC   H104 7769   6.139   2.581   6.948
   53MYC    C77 7770   6.206   2.708   7.110
   53MYC   H106 7771   6.112   2.765   7.110
   53MYC   H107 7772   6.286   2.780   7.130
   53MYC    C76 7773   6.202   2.602   7.222
   53MYC   H108 7774   6.302   2.558   7.234
   53MYC   H109 7775   6.135   2.521   7.192
   53MYC    C75 7776   6.154   2.659   7.357
   53MYC   H110 7777   6.054   2.700   7.344
   53MYC   H111 7778   6.220   2.742   7.386
   53MYC    C74 7779   6.152   2.553   7.469
   53MYC   H112 7780   6.254   2.520   7.489
   53MYC   H113 7781   6.095   2.465   7.436
   53MYC    C73 7782   6.089   2.608   7.598
   53MYC   HH13 7783   5.984   2.635   7.579
   53MYC   H114 7784   6.140   2.700   7.627
   53MYC    C72 7785   6.094   2.509   7.716
   53MYC   H115 7786   6.198   2.480   7.734
   53MYC   H116 7787   6.039   2.417   7.691
   53MYC    C71 7788   6.036   2.571   7.845
   53MYC   H117 7789   5.927   2.582   7.834
   53MYC   H118 7790   6.076   2.672   7.856
   53MYC    C70 7791   6.067   2.490   7.972
   53MYC   H119 7792   6.175   2.469   7.976
   53MYC   H120 7793   6.015   2.394   7.970
   53MYC    C69 7794   6.028   2.569   8.099
   53MYC   H121 7795   5.919   2.579   8.104
   53MYC   H122 7796   6.069   2.670   8.091
   53MYC    C68 7797   6.080   2.506   8.230
   53MYC   HH12 7798   6.186   2.480   8.218
   53MYC   H123 7799   6.026   2.412   8.249
   53MYC    C67 7800   6.064   2.601   8.349
   53MYC   H124 7801   5.958   2.624   8.365
   53MYC   H125 7802   6.114   2.696   8.325
   53MYC    C66 7803   6.124   2.546   8.480
   53MYC   H126 7804   6.228   2.515   8.462
   53MYC   H127 7805   6.068   2.457   8.510
   53MYC    C65 7806   6.121   2.650   8.593
   53MYC   H128 7807   6.018   2.681   8.611
   53MYC   H129 7808   6.177   2.739   8.562
   53MYC    C64 7809   6.182   2.596   8.724
   53MYC   H130 7810   6.286   2.566   8.707
   53MYC   H131 7811   6.127   2.506   8.754
   53MYC    C63 7812   6.176   2.699   8.838
   53MYC   HH11 7813   6.072   2.729   8.854
   53MYC   H132 7814   6.231   2.790   8.809
   53MYC    C62 7815   6.235   2.645   8.969
   53MYC   H133 7816   6.343   2.628   8.957
   53MYC   H134 7817   6.190   2.547   8.991
   53MYC    C61 7818   6.210   2.739   9.089
   53MYC   H135 7819   6.102   2.756   9.097
   53MYC   H136 7820   6.255   2.837   9.069
   53MYC    C60 7821   6.264   2.683   9.219
   53MYC   H137 7822   6.372   2.693   9.227
   53MYC    C58 7823   6.182   2.694   9.345
   53MYC   H138 7824   6.082   2.736   9.335
   53MYC    C59 7825   6.205   2.559   9.283
   53MYC   H139 7826   6.273   2.490   9.332
   53MYC   H140 7827   6.120   2.512   9.234
   53MYC    C57 7828   6.246   2.731   9.477
   53MYC   HH10 7829   6.262   2.839   9.482
   53MYC   H141 7830   6.346   2.685   9.485
   53MYC    C56 7831   6.161   2.687   9.597
   53MYC   H142 7832   6.152   2.577   9.596
   53MYC   H143 7833   6.059   2.727   9.588
   53MYC    C55 7834   6.221   2.732   9.730
   53MYC   H144 7835   6.214   2.841   9.739
   53MYC   H145 7836   6.328   2.707   9.731
   53MYC    C54 7837   6.155   2.666   9.852
   53MYC   H146 7838   6.160   2.557   9.842
   53MYC   H147 7839   6.049   2.693   9.857
   53MYC    C53 7840   6.225   2.708   9.983
   53MYC   H148 7841   6.198   2.812  10.006
   53MYC   H149 7842   6.333   2.705   9.967
   53MYC    C52 7843   6.191   2.618  10.103
   53MYC    H99 7844   6.214   2.514  10.078
   53MYC   H150 7845   6.084   2.624  10.125
   53MYC    C51 7846   6.273   2.660  10.225
   53MYC    H97 7847   6.253   2.766  10.247
   53MYC    H98 7848   6.380   2.653  10.201
   53MYC    C50 7849   6.245   2.577  10.351
   53MYC    H95 7850   6.266   2.471  10.332
   53MYC    H96 7851   6.139   2.586  10.377
   53MYC    C49 7852   6.331   2.627  10.468
   53MYC    H93 7853   6.320   2.736  10.476
   53MYC    H94 7854   6.437   2.607  10.447
   53MYC    C48 7855   6.294   2.564  10.604
   53MYC    H91 7856   6.317   2.456  10.602
   53MYC    H92 7857   6.186   2.574  10.620
   53MYC    C47 7858   6.369   2.633  10.719
   53MYC    H89 7859   6.348   2.741  10.714
   53MYC    H90 7860   0.027   2.621  10.705
   53MYC    C46 7861   6.328   2.581  10.857
   53MYC    H87 7862   6.356   2.476  10.868
   53MYC    H88 7863   6.219   2.586  10.863
   53MYC    C45 7864   6.391   2.664  10.972
   53MYC    H85 7865   6.376   2.771  10.951
   53MYC    H86 7866   0.049   2.648  10.974
   53MYC    C44 7867   6.333   2.634  11.112
   53MYC    H83 7868   6.377   2.704  11.184
   53MYC    H84 7869   6.365   2.534  11.142
   53MYC    C18 7870   6.181   2.644  11.119
   53MYC    H31 7871   6.142   2.729  11.063
   53MYC    C17 7872   6.098   2.517  11.119
   53MYC    H30 7873   6.153   2.424  11.123
   53MYC    C19 7874   6.103   2.605  11.242
   53MYC    H32 7875   6.160   2.569  11.328
   53MYC    H33 7876   6.016   2.665  11.266
   53MYC    C16 7877   5.970   2.507  11.035
   53MYC    H28 7878   5.975   2.576  10.950
   53MYC    H29 7879   5.884   2.538  11.095
   53MYC    C15 7880   5.943   2.364  10.981
   53MYC    H26 7881   5.839   2.359  10.947
   53MYC    H27 7882   5.950   2.292  11.064
   53MYC    C14 7883   6.036   2.320  10.865
   53MYC    H24 7884   6.140   2.322  10.899
   53MYC    H25 7885   6.027   2.391  10.782
   53MYC    C13 7886   6.003   2.177  10.815
   53MYC    H22 7887   5.899   2.176  10.781
   53MYC    H23 7888   6.010   2.108  10.900
   53MYC    C12 7889   6.094   2.127  10.701
   53MYC    H20 7890   6.199   2.143  10.730
   53MYC    H21 7891   6.076   2.185  10.610
   53MYC    C11 7892   6.074   1.976  10.672
   53MYC    H18 7893   5.972   1.959  10.637
   53MYC    H19 7894   6.084   1.922  10.767
   53MYC    C10 7895   6.173   1.913  10.571
   53MYC    H16 7896   6.171   1.804  10.586
   53MYC    H17 7897   6.276   1.945  10.596
   53MYC     C9 7898   6.145   1.941  10.422
   53MYC    H14 7899   6.156   2.048  10.401
   53MYC    H15 7900   6.041   1.914  10.399
   53MYC     C8 7901   6.239   1.859  10.329
   53MYC    H12 7902   6.228   1.753  10.353
   53MYC    H13 7903   6.343   1.885  10.351
   53MYC     C7 7904   6.213   1.878  10.178
   53MYC    H10 7905   6.231   1.983  10.150
   53MYC    H11 7906   6.108   1.856  10.156
   53MYC     C6 7907   6.304   1.786  10.091
   53MYC     H8 7908   6.283   1.681  10.117
   53MYC     H9 7909   6.408   1.804  10.118
   53MYC     C5 7910   6.289   1.802   9.938
   53MYC     H6 7911   6.360   1.733   9.890
   53MYC     H7 7912   6.320   1.903   9.909
   53MYC     C4 7913   6.147   1.775   9.884
   53MYC     H4 7914   6.083   1.861   9.911
   53MYC     H5 7915   6.106   1.688   9.936
   53MYC     C2 7916   6.138   1.751   9.731
   53MYC     H2 7917   6.191   1.834   9.681
   53MYC     O3 7918   6.204   1.629   9.699
   53MYC     H3 7919   6.156   1.557   9.744
   53MYC     C1 7920   5.992   1.749   9.676
   53MYC     H1 7921   5.957   1.853   9.679
   53MYC    C81 7922   5.898   1.668   9.769
   53MYC    O82 7923   5.900   1.547   9.778
   53MYC    O83 7924   5.825   1.744   9.853
   53MYC   H105 7925   5.776   1.681   9.909
   53MYC    C20 7926   5.976   1.699   9.529
   53MYC    H34 7927   6.005   1.594   9.523
   53MYC    H35 7928   5.870   1.703   9.503
   53MYC    C21 7929   6.055   1.779   9.422
   53MYC    H36 7930   6.030   1.885   9.430
   53MYC    H37 7931   6.163   1.768   9.440
   53MYC    C22 7932   6.022   1.729   9.279
   53MYC    H38 7933   6.045   1.622   9.271
   53MYC    H39 7934   5.914   1.741   9.262
   53MYC    C23 7935   6.098   1.805   9.168
   53MYC    H40 7936   6.086   1.913   9.182
   53MYC    H41 7937   6.205   1.783   9.176
   53MYC    C24 7938   6.048   1.767   9.027
   53MYC    H42 7939   6.058   1.659   9.012
   53MYC    H43 7940   5.941   1.790   9.021
   53MYC    C25 7941   6.122   1.840   8.913
   53MYC    H44 7942   6.124   1.948   8.935
   53MYC    H45 7943   6.226   1.806   8.909
   53MYC    C26 7944   6.054   1.819   8.776
   53MYC    H46 7945   6.050   1.712   8.754
   53MYC    H47 7946   5.950   1.855   8.782
   53MYC    C27 7947   6.126   1.891   8.660
   53MYC    H48 7948   6.137   1.997   8.684
   53MYC    H49 7949   6.226   1.849   8.648
   53MYC    C28 7950   6.049   1.877   8.527
   53MYC    H50 7951   6.033   1.770   8.506
   53MYC    H51 7952   5.949   1.922   8.538
   53MYC    C29 7953   6.121   1.942   8.407
   53MYC    H52 7954   6.135   2.049   8.426
   53MYC    H53 7955   6.221   1.897   8.397
   53MYC    C30 7956   6.043   1.923   8.276
   53MYC    H54 7957   6.025   1.815   8.260
   53MYC    H55 7958   5.945   1.971   8.285
   53MYC    C31 7959   6.116   1.979   8.152
   53MYC    H56 7960   6.131   2.087   8.165
   53MYC    H57 7961   6.215   1.933   8.145
   53MYC    C32 7962   6.038   1.953   8.022
   53MYC    H58 7963   6.022   1.845   8.011
   53MYC    H59 7964   5.939   1.999   8.030
   53MYC    C33 7965   6.109   2.006   7.896
   53MYC    H60 7966   6.127   2.114   7.908
   53MYC    H61 7967   6.207   1.958   7.887
   53MYC    C34 7968   6.027   1.982   7.768
   53MYC    H62 7969   6.010   1.874   7.756
   53MYC    H63 7970   5.929   2.029   7.779
   53MYC    C35 7971   6.095   2.038   7.642
   53MYC    H64 7972   6.114   2.145   7.655
   53MYC    H65 7973   6.193   1.990   7.629
   53MYC    C36 7974   6.011   2.016   7.514
   53MYC    H66 7975   5.995   1.909   7.499
   53MYC    H67 7976   5.912   2.062   7.528
   53MYC    C37 7977   6.077   2.076   7.388
   53MYC    H68 7978   6.087   2.185   7.401
   53MYC    H69 7979   6.179   2.036   7.379
   53MYC    C38 7980   6.000   2.045   7.258
   53MYC    H70 7981   5.994   1.937   7.245
   53MYC    H71 7982   5.897   2.083   7.267
   53MYC    C39 7983   6.066   2.108   7.134
   53MYC    H72 7984   6.057   2.218   7.140
   53MYC    H73 7985   6.174   2.086   7.136
   53MYC    C40 7986   6.007   2.058   7.001
   53MYC    H74 7987   6.019   1.949   6.996
   53MYC    H75 7988   5.900   2.079   6.998
   53MYC    C41 7989   6.076   2.121   6.878
   53MYC    H76 7990   6.054   2.228   6.876
   53MYC    H77 7991   6.185   2.111   6.888
   53MYC    C42 7992   6.032   2.057   6.744
   53MYC    H78 7993   6.056   1.950   6.747
   53MYC    H79 7994   5.924   2.066   6.733
   53MYC    C43 7995   6.101   2.120   6.622
   53MYC    H80 7996   6.067   2.071   6.530
   53MYC    H81 7997   6.210   2.108   6.628
   53MYC    H82 7998   6.078   2.227   6.615
   54MYC   HH15 7999   0.228   2.754   6.518
   54MYC    C80 8000   0.232   2.816   6.609
   54MYC   H100 8001   0.331   2.864   6.613
   54MYC   H101 8002   0.156   2.895   6.600
   54MYC    C79 8003   0.209   2.730   6.734
   54MYC   H102 8004   0.288   2.654   6.740
   54MYC   H103 8005   0.114   2.676   6.723
   54MYC    C78 8006   0.205   2.812   6.864
   54MYC   HH14 8007   0.120   2.881   6.861
   54MYC   H104 8008   0.296   2.873   6.872
   54MYC    C77 8009   0.193   2.723   6.990
   54MYC   H106 8010   0.283   2.661   6.998
   54MYC   H107 8011   0.108   2.656   6.979
   54MYC    C76 8012   0.175   2.804   7.120
   54MYC   H108 8013   0.082   2.861   7.114
   54MYC   H109 8014   0.257   2.877   7.131
   54MYC    C75 8015   0.171   2.713   7.245
   54MYC   H110 8016   0.268   2.662   7.255
   54MYC   H111 8017   0.095   2.636   7.229
   54MYC    C74 8018   0.139   2.789   7.375
   54MYC   H112 8019   0.046   2.845   7.362
   54MYC   H113 8020   0.218   2.861   7.397
   54MYC    C73 8021   0.123   2.692   7.494
   54MYC   HH13 8022   0.217   2.637   7.510
   54MYC   H114 8023   0.047   2.617   7.468
   54MYC    C72 8024   0.081   2.760   7.626
   54MYC   H115 8025   0.004   2.836   7.605
   54MYC   H116 8026   0.167   2.813   7.669
   54MYC    C71 8027   0.024   2.659   7.727
   54MYC   H117 8028   0.098   2.580   7.746
   54MYC   H118 8029   6.388   2.610   7.681
   54MYC    C70 8030   6.427   2.721   7.861
   54MYC   H119 8031   6.337   2.668   7.894
   54MYC   H120 8032   6.398   2.825   7.846
   54MYC    C69 8033   0.083   2.712   7.974
   54MYC   H121 8034   0.174   2.765   7.944
   54MYC   H122 8035   0.110   2.607   7.990
   54MYC    C68 8036   0.030   2.771   8.106
   54MYC   HH12 8037   6.383   2.725   8.130
   54MYC   H123 8038   0.011   2.878   8.092
   54MYC    C67 8039   0.125   2.752   8.225
   54MYC   H124 8040   0.222   2.796   8.202
   54MYC   H125 8041   0.141   2.645   8.242
   54MYC    C66 8042   0.068   2.816   8.353
   54MYC   H126 8043   6.418   2.774   8.373
   54MYC   H127 8044   0.055   2.923   8.336
   54MYC    C65 8045   0.156   2.795   8.477
   54MYC   H128 8046   0.258   2.831   8.457
   54MYC   H129 8047   0.164   2.687   8.498
   54MYC    C64 8048   0.099   2.867   8.600
   54MYC   H130 8049   6.444   2.839   8.614
   54MYC   H131 8050   0.101   2.976   8.582
   54MYC    C63 8051   0.176   2.836   8.729
   54MYC   HH11 8052   0.281   2.863   8.717
   54MYC   H132 8053   0.172   2.728   8.747
   54MYC    C62 8054   0.118   2.910   8.851
   54MYC   H133 8055   0.010   2.891   8.858
   54MYC   H134 8056   0.131   3.018   8.838
   54MYC    C61 8057   0.185   2.866   8.981
   54MYC   H135 8058   0.293   2.886   8.975
   54MYC   H136 8059   0.174   2.757   8.993
   54MYC    C60 8060   0.126   2.934   9.103
   54MYC   H137 8061   0.018   2.928   9.107
   54MYC    C58 8062   0.198   2.921   9.234
   54MYC   H138 8063   0.296   2.874   9.232
   54MYC    C59 8064   0.189   3.056   9.167
   54MYC   H139 8065   0.124   3.130   9.212
   54MYC   H140 8066   0.280   3.096   9.122
   54MYC    C57 8067   0.120   2.884   9.358
   54MYC   HH10 8068   0.116   2.775   9.366
   54MYC   H141 8069   0.017   2.919   9.351
   54MYC    C56 8070   0.184   2.942   9.484
   54MYC   H142 8071   0.170   3.051   9.486
   54MYC   H143 8072   0.292   2.923   9.482
   54MYC    C55 8073   0.127   2.880   9.612
   54MYC   H144 8074   0.149   2.772   9.613
   54MYC   H145 8075   0.018   2.890   9.613
   54MYC    C54 8076   0.185   2.945   9.737
   54MYC   H146 8077   0.149   3.049   9.744
   54MYC   H147 8078   0.294   2.950   9.729
   54MYC    C53 8079   0.148   2.870   9.865
   54MYC   H148 8080   0.188   2.768   9.860
   54MYC   H149 8081   0.039   2.861   9.873
   54MYC    C52 8082   0.203   2.940   9.989
   54MYC    H99 8083   0.155   3.038   9.999
   54MYC   H150 8084   0.311   2.959   9.975
   54MYC    C51 8085   0.183   2.860  10.118
   54MYC    H97 8086   0.233   2.763  10.108
   54MYC    H98 8087   0.076   2.841  10.134
   54MYC    C50 8088   0.241   2.936  10.238
   54MYC    H95 8089   0.189   3.032  10.250
   54MYC    H96 8090   0.346   2.960  10.217
   54MYC    C49 8091   0.233   2.856  10.369
   54MYC    H93 8092   0.278   2.758  10.354
   54MYC    H94 8093   0.128   2.841  10.397
   54MYC    C48 8094   0.308   2.930  10.480
   54MYC    H91 8095   0.263   3.028  10.494
   54MYC    H92 8096   0.411   2.946  10.447
   54MYC    C47 8097   0.310   2.853  10.614
   54MYC    H89 8098   0.305   2.745  10.594
   54MYC    H90 8099   0.221   2.878  10.672
   54MYC    C46 8100   0.438   2.882  10.696
   54MYC    H87 8101   0.445   2.989  10.719
   54MYC    H88 8102   0.524   2.858  10.633
   54MYC    C45 8103   0.448   2.799  10.825
   54MYC    H85 8104   0.554   2.789  10.853
   54MYC    H86 8105   0.413   2.697  10.807
   54MYC    C44 8106   0.371   2.860  10.944
   54MYC    H83 8107   0.335   2.779  11.008
   54MYC    H84 8108   0.282   2.913  10.908
   54MYC    C18 8109   0.460   2.953  11.023
   54MYC    H31 8110   0.514   3.024  10.960
   54MYC    C17 8111   0.425   2.998  11.163
   54MYC    H30 8112   0.332   2.961  11.203
   54MYC    C19 8113   0.537   2.898  11.141
   54MYC    H32 8114   0.519   2.795  11.169
   54MYC    H33 8115   0.640   2.931  11.151
   54MYC    C16 8116   0.461   3.137  11.215
   54MYC    H28 8117   0.568   3.155  11.203
   54MYC    H29 8118   0.442   3.139  11.323
   54MYC    C15 8119   0.382   3.255  11.153
   54MYC    H26 8120   0.401   3.343  11.216
   54MYC    H27 8121   0.275   3.235  11.159
   54MYC    C14 8122   0.420   3.289  11.007
   54MYC    H24 8123   0.363   3.224  10.940
   54MYC    H25 8124   0.526   3.266  10.990
   54MYC    C13 8125   0.395   3.438  10.972
   54MYC    H22 8126   0.460   3.501  11.033
   54MYC    H23 8127   0.292   3.462  10.999
   54MYC    C12 8128   0.414   3.474  10.823
   54MYC    H20 8129   0.394   3.581  10.810
   54MYC    H21 8130   0.338   3.422  10.766
   54MYC    C11 8131   0.553   3.441  10.762
   54MYC    H18 8132   0.568   3.333  10.763
   54MYC    H19 8133   0.632   3.485  10.824
   54MYC    C10 8134   0.570   3.491  10.616
   54MYC    H16 8135   0.668   3.457  10.580
   54MYC    H17 8136   0.573   3.601  10.615
   54MYC     C9 8137   0.459   3.444  10.519
   54MYC    H14 8138   0.367   3.500  10.539
   54MYC    H15 8139   0.437   3.339  10.540
   54MYC     C8 8140   0.495   3.458  10.369
   54MYC    H12 8141   0.595   3.417  10.351
   54MYC    H13 8142   0.498   3.564  10.342
   54MYC     C7 8143   0.393   3.384  10.279
   54MYC    H10 8144   0.294   3.429  10.293
   54MYC    H11 8145   0.385   3.280  10.314
   54MYC     C6 8146   0.429   3.384  10.129
   54MYC     H8 8147   0.532   3.346  10.117
   54MYC     H9 8148   0.428   3.487  10.091
   54MYC     C5 8149   0.333   3.295  10.047
   54MYC     H6 8150   0.232   3.339  10.049
   54MYC     H7 8151   0.324   3.198  10.098
   54MYC     C4 8152   0.374   3.267   9.901
   54MYC     H4 8153   0.313   3.183   9.866
   54MYC     H5 8154   0.478   3.231   9.898
   54MYC     C2 8155   0.355   3.385   9.803
   54MYC     H2 8156   0.259   3.432   9.825
   54MYC     O3 8157   0.460   3.480   9.822
   54MYC     H3 8158   0.477   3.486   9.918
   54MYC     C1 8159   0.351   3.339   9.654
   54MYC     H1 8160   0.269   3.266   9.648
   54MYC    C81 8161   0.480   3.265   9.611
   54MYC    O82 8162   0.590   3.316   9.602
   54MYC    O83 8163   0.460   3.136   9.574
   54MYC   H105 8164   0.548   3.104   9.545
   54MYC    C20 8165   0.315   3.453   9.556
   54MYC    H34 8166   0.225   3.505   9.592
   54MYC    H35 8167   0.396   3.527   9.553
   54MYC    C21 8168   0.288   3.401   9.413
   54MYC    H36 8169   0.379   3.351   9.377
   54MYC    H37 8170   0.209   3.325   9.416
   54MYC    C22 8171   0.249   3.510   9.311
   54MYC    H38 8172   0.153   3.556   9.340
   54MYC    H39 8173   0.325   3.589   9.311
   54MYC    C23 8174   0.237   3.449   9.170
   54MYC    H40 8175   0.329   3.393   9.150
   54MYC    H41 8176   0.155   3.376   9.169
   54MYC    C24 8177   0.215   3.550   9.056
   54MYC    H42 8178   0.113   3.592   9.061
   54MYC    H43 8179   0.285   3.634   9.066
   54MYC    C25 8180   0.237   3.481   8.920
   54MYC    H44 8181   0.339   3.440   8.919
   54MYC    H45 8182   0.169   3.395   8.913
   54MYC    C26 8183   0.219   3.569   8.796
   54MYC    H46 8184   0.113   3.595   8.784
   54MYC    H47 8185   0.275   3.663   8.807
   54MYC    C27 8186   0.270   3.494   8.671
   54MYC    H48 8187   0.379   3.489   8.674
   54MYC    H49 8188   0.234   3.390   8.675
   54MYC    C28 8189   0.226   3.554   8.537
   54MYC    H50 8190   0.117   3.559   8.533
   54MYC    H51 8191   0.264   3.657   8.529
   54MYC    C29 8192   0.279   3.471   8.418
   54MYC    H52 8193   0.388   3.473   8.418
   54MYC    H53 8194   0.249   3.366   8.431
   54MYC    C30 8195   0.227   3.520   8.282
   54MYC    H54 8196   0.117   3.518   8.281
   54MYC    H55 8197   0.258   3.624   8.268
   54MYC    C31 8198   0.280   3.436   8.165
   54MYC    H56 8199   0.390   3.433   8.169
   54MYC    H57 8200   0.245   3.332   8.175
   54MYC    C32 8201   0.236   3.491   8.028
   54MYC    H58 8202   0.127   3.494   8.024
   54MYC    H59 8203   0.271   3.594   8.019
   54MYC    C33 8204   0.290   3.409   7.909
   54MYC    H60 8205   0.400   3.403   7.916
   54MYC    H61 8206   0.252   3.307   7.915
   54MYC    C34 8207   0.251   3.472   7.774
   54MYC    H62 8208   0.142   3.480   7.768
   54MYC    H63 8209   0.292   3.574   7.769
   54MYC    C35 8210   0.303   3.392   7.654
   54MYC    H64 8211   0.413   3.385   7.659
   54MYC    H65 8212   0.265   3.289   7.659
   54MYC    C36 8213   0.263   3.455   7.520
   54MYC    H66 8214   0.153   3.464   7.515
   54MYC    H67 8215   0.303   3.557   7.514
   54MYC    C37 8216   0.312   3.375   7.398
   54MYC    H68 8217   0.421   3.366   7.403
   54MYC    H69 8218   0.271   3.274   7.402
   54MYC    C38 8219   0.273   3.441   7.265
   54MYC    H70 8220   0.164   3.453   7.260
   54MYC    H71 8221   0.316   3.542   7.261
   54MYC    C39 8222   0.321   3.361   7.143
   54MYC    H72 8223   0.429   3.343   7.152
   54MYC    H73 8224   0.272   3.263   7.142
   54MYC    C40 8225   0.294   3.434   7.010
   54MYC    H74 8226   0.186   3.454   7.001
   54MYC    H75 8227   0.345   3.531   7.010
   54MYC    C41 8228   0.341   3.353   6.887
   54MYC    H76 8229   0.446   3.325   6.901
   54MYC    H77 8230   0.283   3.260   6.882
   54MYC    C42 8231   0.326   3.431   6.756
   54MYC    H78 8232   0.221   3.462   6.743
   54MYC    H79 8233   0.386   3.522   6.761
   54MYC    C43 8234   0.369   3.350   6.633
   54MYC    H80 8235   0.364   3.413   6.544
   54MYC    H81 8236   0.304   3.263   6.618
   54MYC    H82 8237   0.472   3.314   6.645
   55MYC   HH15 8238   0.871   3.210   6.663
   55MYC    C80 8239   0.919   3.168   6.752
   55MYC   H100 8240   0.889   3.063   6.761
   55MYC   H101 8241   1.028   3.171   6.737
   55MYC    C79 8242   0.880   3.246   6.878
   55MYC   H102 8243   0.770   3.245   6.888
   55MYC   H103 8244   0.910   3.351   6.866
   55MYC    C78 8245   0.943   3.190   7.007
   55MYC   HH14 8246   1.052   3.188   6.995
   55MYC   H104 8247   0.910   3.086   7.021
   55MYC    C77 8248   0.908   3.272   7.133
   55MYC   H106 8249   0.799   3.276   7.145
   55MYC   H107 8250   0.943   3.375   7.120
   55MYC    C76 8251   0.971   3.213   7.261
   55MYC   H108 8252   1.080   3.206   7.248
   55MYC   H109 8253   0.934   3.111   7.276
   55MYC    C75 8254   0.942   3.296   7.388
   55MYC   H110 8255   0.834   3.308   7.401
   55MYC   H111 8256   0.984   3.397   7.375
   55MYC    C74 8257   1.002   3.233   7.515
   55MYC   H112 8258   1.108   3.213   7.498
   55MYC   H113 8259   0.954   3.135   7.532
   55MYC    C73 8260   0.987   3.321   7.641
   55MYC   HH13 8261   0.881   3.345   7.658
   55MYC   H114 8262   1.038   3.416   7.622
   55MYC    C72 8263   1.047   3.256   7.768
   55MYC   H115 8264   1.073   3.336   7.840
   55MYC   H116 8265   1.142   3.207   7.742
   55MYC    C71 8266   0.952   3.156   7.838
   55MYC   H117 8267   0.905   3.092   7.763
   55MYC   H118 8268   0.871   3.213   7.885
   55MYC    C70 8269   1.022   3.066   7.943
   55MYC   H119 8270   1.120   3.108   7.970
   55MYC   H120 8271   1.041   2.968   7.898
   55MYC    C69 8272   0.939   3.048   8.073
   55MYC   H121 8273   0.834   3.030   8.047
   55MYC   H122 8274   0.943   3.141   8.130
   55MYC    C68 8275   0.989   2.931   8.161
   55MYC   HH12 8276   1.098   2.937   8.173
   55MYC   H123 8277   0.967   2.837   8.110
   55MYC    C67 8278   0.923   2.930   8.301
   55MYC   H124 8279   0.815   2.943   8.291
   55MYC   H125 8280   0.961   3.016   8.357
   55MYC    C66 8281   0.951   2.799   8.380
   55MYC   H126 8282   1.059   2.781   8.383
   55MYC   H127 8283   0.907   2.716   8.324
   55MYC    C65 8284   0.894   2.798   8.523
   55MYC   H128 8285   0.898   2.695   8.561
   55MYC   H129 8286   0.788   2.826   8.521
   55MYC    C64 8287   0.970   2.890   8.622
   55MYC   H130 8288   0.963   2.994   8.587
   55MYC   H131 8289   1.076   2.863   8.621
   55MYC    C63 8290   0.916   2.882   8.766
   55MYC   HH11 8291   0.920   2.778   8.801
   55MYC   H132 8292   0.811   2.912   8.767
   55MYC    C62 8293   0.995   2.972   8.864
   55MYC   H133 8294   0.991   3.076   8.829
   55MYC   H134 8295   1.101   2.942   8.863
   55MYC    C61 8296   0.942   2.964   9.008
   55MYC   H135 8297   0.947   2.861   9.043
   55MYC   H136 8298   0.835   2.992   9.008
   55MYC    C60 8299   1.016   3.056   9.104
   55MYC   H137 8300   1.002   3.161   9.081
   55MYC    C58 8301   1.024   3.019   9.250
   55MYC   H138 8302   0.985   2.922   9.278
   55MYC    C59 8303   1.149   3.020   9.165
   55MYC   H139 8304   1.221   3.100   9.181
   55MYC   H140 8305   1.193   2.924   9.137
   55MYC    C57 8306   0.998   3.124   9.357
   55MYC   HH10 8307   0.890   3.143   9.362
   55MYC   H141 8308   1.045   3.220   9.329
   55MYC    C56 8309   1.049   3.081   9.496
   55MYC   H142 8310   1.158   3.074   9.494
   55MYC   H143 8311   1.011   2.981   9.518
   55MYC    C55 8312   1.003   3.177   9.608
   55MYC   H144 8313   0.894   3.176   9.613
   55MYC   H145 8314   1.034   3.280   9.584
   55MYC    C54 8315   1.061   3.138   9.745
   55MYC   H146 8316   1.167   3.164   9.749
   55MYC   H147 8317   1.054   3.029   9.758
   55MYC    C53 8318   0.987   3.206   9.863
   55MYC   H148 8319   0.882   3.174   9.861
   55MYC   H149 8320   0.988   3.315   9.849
   55MYC    C52 8321   1.050   3.170   9.999
   55MYC    H99 8322   1.150   3.215  10.005
   55MYC   H150 8323   1.063   3.061  10.005
   55MYC    C51 8324   0.965   3.217  10.118
   55MYC    H97 8325   0.866   3.171  10.113
   55MYC    H98 8326   0.950   3.326  10.112
   55MYC    C50 8327   1.030   3.182  10.254
   55MYC    H95 8328   1.131   3.225  10.257
   55MYC    H96 8329   1.041   3.073  10.262
   55MYC    C49 8330   0.949   3.235  10.374
   55MYC    H93 8331   0.847   3.193  10.370
   55MYC    H94 8332   0.939   3.344  10.366
   55MYC    C48 8333   1.014   3.198  10.509
   55MYC    H91 8334   1.121   3.222  10.506
   55MYC    H92 8335   1.005   3.090  10.524
   55MYC    C47 8336   0.949   3.273  10.627
   55MYC    H89 8337   0.841   3.258  10.625
   55MYC    H90 8338   0.967   3.381  10.616
   55MYC    C46 8339   1.004   3.226  10.763
   55MYC    H87 8340   1.112   3.243  10.767
   55MYC    H88 8341   0.989   3.118  10.772
   55MYC    C45 8342   0.936   3.298  10.882
   55MYC    H85 8343   0.828   3.285  10.877
   55MYC    H86 8344   0.956   3.405  10.875
   55MYC    C44 8345   0.986   3.248  11.020
   55MYC    H83 8346   0.945   3.314  11.097
   55MYC    H84 8347   1.095   3.261  11.024
   55MYC    C18 8348   0.948   3.104  11.052
   55MYC    H31 8349   0.883   3.058  10.978
   55MYC    C17 8350   1.047   3.015  11.124
   55MYC    H30 8351   1.139   3.059  11.160
   55MYC    C19 8352   0.923   3.061  11.195
   55MYC    H32 8353   0.935   3.136  11.274
   55MYC    H33 8354   0.846   2.987  11.215
   55MYC    C16 8355   1.064   2.869  11.084
   55MYC    H28 8356   0.976   2.833  11.029
   55MYC    H29 8357   1.069   2.809  11.176
   55MYC    C15 8358   1.192   2.841  11.001
   55MYC    H26 8359   1.202   2.732  10.989
   55MYC    H27 8360   1.280   2.874  11.058
   55MYC    C14 8361   1.195   2.906  10.861
   55MYC    H24 8362   1.195   3.015  10.871
   55MYC    H25 8363   1.103   2.878  10.807
   55MYC    C13 8364   1.318   2.861  10.778
   55MYC    H22 8365   1.322   2.752  10.780
   55MYC    H23 8366   1.409   2.896  10.829
   55MYC    C12 8367   1.318   2.907  10.630
   55MYC    H20 8368   1.218   2.943  10.602
   55MYC    H21 8369   1.336   2.818  10.569
   55MYC    C11 8370   1.423   3.016  10.595
   55MYC    H18 8371   1.520   2.987  10.637
   55MYC    H19 8372   1.395   3.109  10.645
   55MYC    C10 8373   1.442   3.042  10.444
   55MYC    H16 8374   1.505   3.130  10.431
   55MYC    H17 8375   1.344   3.066  10.399
   55MYC     C9 8376   1.506   2.924  10.366
   55MYC    H14 8377   1.447   2.833  10.382
   55MYC    H15 8378   1.606   2.904  10.407
   55MYC     C8 8379   1.518   2.947  10.214
   55MYC    H12 8380   1.589   3.028  10.194
   55MYC    H13 8381   1.420   2.979  10.176
   55MYC     C7 8382   1.563   2.819  10.138
   55MYC    H10 8383   1.496   2.737  10.165
   55MYC    H11 8384   1.663   2.790  10.173
   55MYC     C6 8385   1.566   2.831   9.984
   55MYC     H8 8386   1.593   2.732   9.944
   55MYC     H9 8387   1.644   2.901   9.954
   55MYC     C5 8388   1.431   2.874   9.921
   55MYC     H6 8389   1.416   2.981   9.936
   55MYC     H7 8390   1.350   2.824   9.977
   55MYC     C4 8391   1.409   2.840   9.771
   55MYC     H4 8392   1.306   2.867   9.748
   55MYC     H5 8393   1.413   2.731   9.759
   55MYC     C2 8394   1.499   2.907   9.662
   55MYC     H2 8395   1.430   2.928   9.580
   55MYC     O3 8396   1.552   3.032   9.707
   55MYC     H3 8397   1.647   3.019   9.727
   55MYC     C1 8398   1.611   2.815   9.602
   55MYC     H1 8399   1.562   2.722   9.573
   55MYC    C81 8400   1.721   2.775   9.702
   55MYC    O82 8401   1.741   2.659   9.736
   55MYC    O83 8402   1.809   2.873   9.733
   55MYC   H105 8403   1.876   2.830   9.790
   55MYC    C20 8404   1.675   2.872   9.472
   55MYC    H34 8405   1.727   2.966   9.493
   55MYC    H35 8406   1.751   2.801   9.439
   55MYC    C21 8407   1.575   2.895   9.356
   55MYC    H36 8408   1.501   2.814   9.355
   55MYC    H37 8409   1.520   2.989   9.374
   55MYC    C22 8410   1.644   2.901   9.219
   55MYC    H38 8411   1.723   2.978   9.220
   55MYC    H39 8412   1.694   2.805   9.201
   55MYC    C23 8413   1.547   2.930   9.103
   55MYC    H40 8414   1.456   2.870   9.116
   55MYC    H41 8415   1.516   3.036   9.107
   55MYC    C24 8416   1.608   2.898   8.966
   55MYC    H42 8417   1.695   2.963   8.949
   55MYC    H43 8418   1.645   2.795   8.967
   55MYC    C25 8419   1.509   2.914   8.849
   55MYC    H44 8420   1.418   2.855   8.869
   55MYC    H45 8421   1.478   3.019   8.841
   55MYC    C26 8422   1.570   2.867   8.716
   55MYC    H46 8423   1.663   2.923   8.698
   55MYC    H47 8424   1.597   2.761   8.725
   55MYC    C27 8425   1.477   2.885   8.594
   55MYC    H48 8426   1.382   2.834   8.612
   55MYC    H49 8427   1.455   2.992   8.580
   55MYC    C28 8428   1.542   2.829   8.466
   55MYC    H50 8429   1.641   2.873   8.453
   55MYC    H51 8430   1.557   2.721   8.478
   55MYC    C29 8431   1.459   2.853   8.338
   55MYC    H52 8432   1.359   2.811   8.350
   55MYC    H53 8433   1.447   2.961   8.323
   55MYC    C30 8434   1.527   2.792   8.214
   55MYC    H54 8435   1.630   2.828   8.208
   55MYC    H55 8436   1.531   2.683   8.226
   55MYC    C31 8437   1.455   2.825   8.082
   55MYC    H56 8438   1.352   2.788   8.085
   55MYC    H57 8439   1.451   2.934   8.070
   55MYC    C32 8440   1.528   2.764   7.960
   55MYC    H58 8441   1.634   2.795   7.963
   55MYC    H59 8442   1.525   2.655   7.967
   55MYC    C33 8443   1.467   2.808   7.826
   55MYC    H60 8444   1.362   2.776   7.821
   55MYC    H61 8445   1.467   2.918   7.821
   55MYC    C34 8446   1.544   2.753   7.704
   55MYC    H62 8447   1.650   2.781   7.713
   55MYC    H63 8448   1.539   2.643   7.705
   55MYC    C35 8449   1.489   2.806   7.571
   55MYC    H64 8450   1.385   2.774   7.559
   55MYC    H65 8451   1.489   2.916   7.574
   55MYC    C36 8452   1.571   2.760   7.449
   55MYC    H66 8453   1.675   2.793   7.460
   55MYC    H67 8454   1.572   2.651   7.444
   55MYC    C37 8455   1.514   2.816   7.317
   55MYC    H68 8456   1.413   2.776   7.302
   55MYC    H69 8457   1.504   2.925   7.326
   55MYC    C38 8458   1.600   2.785   7.194
   55MYC    H70 8459   1.699   2.832   7.206
   55MYC    H71 8460   1.616   2.677   7.187
   55MYC    C39 8461   1.535   2.835   7.063
   55MYC    H72 8462   1.439   2.783   7.050
   55MYC    H73 8463   1.513   2.942   7.072
   55MYC    C40 8464   1.622   2.812   6.938
   55MYC    H74 8465   1.712   2.875   6.945
   55MYC    H75 8466   1.656   2.708   6.936
   55MYC    C41 8467   1.547   2.845   6.807
   55MYC    H76 8468   1.457   2.782   6.801
   55MYC    H77 8469   1.513   2.949   6.810
   55MYC    C42 8470   1.633   2.822   6.681
   55MYC    H78 8471   1.716   2.894   6.681
   55MYC    H79 8472   1.677   2.722   6.684
   55MYC    C43 8473   1.553   2.838   6.550
   55MYC    H80 8474   1.619   2.823   6.464
   55MYC    H81 8475   1.510   2.939   6.543
   55MYC    H82 8476   1.472   2.765   6.545
   56MYC   HH15 8477   2.092   3.430   6.586
   56MYC    C80 8478   2.053   3.376   6.673
   56MYC   H100 8479   1.945   3.364   6.661
   56MYC   H101 8480   2.099   3.277   6.676
   56MYC    C79 8481   2.084   3.455   6.802
   56MYC   H102 8482   2.036   3.553   6.797
   56MYC   H103 8483   2.192   3.473   6.808
   56MYC    C78 8484   2.037   3.381   6.930
   56MYC   HH14 8485   2.093   3.288   6.940
   56MYC   H104 8486   1.931   3.354   6.919
   56MYC    C77 8487   2.054   3.466   7.058
   56MYC   H106 8488   1.992   3.556   7.049
   56MYC   H107 8489   2.158   3.498   7.067
   56MYC    C76 8490   2.013   3.389   7.186
   56MYC   H108 8491   2.086   3.309   7.204
   56MYC   H109 8492   1.916   3.341   7.170
   56MYC    C75 8493   2.004   3.481   7.309
   56MYC   H110 8494   1.924   3.554   7.294
   56MYC   H111 8495   2.098   3.537   7.319
   56MYC    C74 8496   1.979   3.404   7.441
   56MYC   H112 8497   2.068   3.343   7.464
   56MYC   H113 8498   1.895   3.334   7.428
   56MYC    C73 8499   1.948   3.498   7.559
   56MYC   HH13 8500   1.849   3.543   7.544
   56MYC   H114 8501   2.021   3.580   7.559
   56MYC    C72 8502   1.953   3.428   7.696
   56MYC   H115 8503   2.055   3.394   7.714
   56MYC   H116 8504   1.889   3.339   7.695
   56MYC    C71 8505   1.909   3.521   7.811
   56MYC   H117 8506   1.800   3.536   7.806
   56MYC   H118 8507   1.955   3.620   7.798
   56MYC    C70 8508   1.948   3.467   7.950
   56MYC   H119 8509   2.057   3.461   7.956
   56MYC   H120 8510   1.910   3.365   7.961
   56MYC    C69 8511   1.895   3.554   8.066
   56MYC   H121 8512   1.785   3.545   8.071
   56MYC   H122 8513   1.917   3.659   8.046
   56MYC    C68 8514   1.956   3.514   8.201
   56MYC   HH12 8515   2.064   3.530   8.197
   56MYC   H123 8516   1.940   3.406   8.218
   56MYC    C67 8517   1.898   3.592   8.321
   56MYC   H124 8518   1.791   3.569   8.331
   56MYC   H125 8519   1.907   3.699   8.302
   56MYC    C66 8520   1.971   3.557   8.452
   56MYC   H126 8521   2.077   3.580   8.441
   56MYC   H127 8522   1.964   3.448   8.469
   56MYC    C65 8523   1.916   3.630   8.576
   56MYC   H128 8524   1.811   3.602   8.592
   56MYC   H129 8525   1.918   3.739   8.558
   56MYC    C64 8526   1.998   3.597   8.702
   56MYC   H130 8527   2.103   3.623   8.684
   56MYC   H131 8528   1.995   3.489   8.720
   56MYC    C63 8529   1.951   3.670   8.829
   56MYC   HH11 8530   1.848   3.638   8.853
   56MYC   H132 8531   1.948   3.778   8.811
   56MYC    C62 8532   2.043   3.641   8.949
   56MYC   H133 8533   2.145   3.675   8.926
   56MYC   H134 8534   2.049   3.532   8.964
   56MYC    C61 8535   1.996   3.707   9.080
   56MYC   H135 8536   1.898   3.666   9.106
   56MYC   H136 8537   1.983   3.814   9.064
   56MYC    C60 8538   2.095   3.684   9.194
   56MYC   H137 8539   2.184   3.745   9.185
   56MYC    C58 8540   2.044   3.656   9.333
   56MYC   H138 8541   1.936   3.644   9.345
   56MYC    C59 8542   2.114   3.547   9.255
   56MYC   H139 8543   2.214   3.519   9.286
   56MYC   H140 8544   2.053   3.465   9.218
   56MYC    C57 8545   2.108   3.718   9.456
   56MYC   HH10 8546   2.064   3.817   9.473
   56MYC   H141 8547   2.216   3.734   9.440
   56MYC    C56 8548   2.086   3.630   9.580
   56MYC   H142 8549   2.143   3.537   9.569
   56MYC   H143 8550   1.980   3.602   9.586
   56MYC    C55 8551   2.126   3.699   9.712
   56MYC   H144 8552   2.076   3.796   9.718
   56MYC   H145 8553   2.234   3.718   9.713
   56MYC    C54 8554   2.086   3.616   9.835
   56MYC   H146 8555   2.132   3.517   9.828
   56MYC   H147 8556   1.977   3.600   9.833
   56MYC    C53 8557   2.124   3.680   9.969
   56MYC   H148 8558   2.085   3.782   9.975
   56MYC   H149 8559   2.234   3.687   9.975
   56MYC    C52 8560   2.071   3.598  10.089
   56MYC    H99 8561   2.103   3.494  10.078
   56MYC   H150 8562   1.961   3.599  10.087
   56MYC    C51 8563   2.120   3.651  10.225
   56MYC    H97 8564   2.089   3.755  10.238
   56MYC    H98 8565   2.229   3.650  10.225
   56MYC    C50 8566   2.068   3.567  10.344
   56MYC    H95 8567   2.089   3.461  10.326
   56MYC    H96 8568   1.959   3.578  10.353
   56MYC    C49 8569   2.135   3.609  10.476
   56MYC    H93 8570   2.111   3.715  10.497
   56MYC    H94 8571   2.243   3.602  10.460
   56MYC    C48 8572   2.101   3.523  10.599
   56MYC    H91 8573   2.136   3.421  10.581
   56MYC    H92 8574   1.992   3.518  10.611
   56MYC    C47 8575   2.164   3.578  10.729
   56MYC    H89 8576   2.107   3.665  10.763
   56MYC    H90 8577   2.266   3.612  10.708
   56MYC    C46 8578   2.176   3.474  10.842
   56MYC    H87 8579   2.245   3.395  10.810
   56MYC    H88 8580   2.078   3.426  10.858
   56MYC    C45 8581   2.225   3.534  10.976
   56MYC    H85 8582   2.145   3.595  11.019
   56MYC    H86 8583   2.309   3.601  10.957
   56MYC    C44 8584   2.270   3.429  11.080
   56MYC    H83 8585   2.287   3.479  11.176
   56MYC    H84 8586   2.367   3.389  11.049
   56MYC    C18 8587   2.172   3.314  11.104
   56MYC    H31 8588   2.075   3.349  11.139
   56MYC    C17 8589   2.174   3.191  11.016
   56MYC    H30 8590   2.252   3.186  10.942
   56MYC    C19 8591   2.220   3.183  11.160
   56MYC    H32 8592   2.326   3.169  11.176
   56MYC    H33 8593   2.155   3.132  11.231
   56MYC    C16 8594   2.042   3.127  10.972
   56MYC    H28 8595   1.968   3.205  10.954
   56MYC    H29 8596   2.002   3.066  11.054
   56MYC    C15 8597   2.055   3.039  10.847
   56MYC    H26 8598   1.959   2.988  10.831
   56MYC    H27 8599   2.130   2.961  10.863
   56MYC    C14 8600   2.091   3.118  10.719
   56MYC    H24 8601   2.192   3.160  10.727
   56MYC    H25 8602   2.022   3.203  10.708
   56MYC    C13 8603   2.084   3.031  10.592
   56MYC    H22 8604   1.982   2.991  10.583
   56MYC    H23 8605   2.152   2.946  10.602
   56MYC    C12 8606   2.119   3.109  10.464
   56MYC    H20 8607   2.227   3.131  10.463
   56MYC    H21 8608   2.067   3.206  10.464
   56MYC    C11 8609   2.079   3.032  10.338
   56MYC    H18 8610   1.969   3.022  10.338
   56MYC    H19 8611   2.120   2.930  10.342
   56MYC    C10 8612   2.125   3.098  10.207
   56MYC    H16 8613   2.230   3.074  10.190
   56MYC    H17 8614   2.117   3.208  10.216
   56MYC     C9 8615   2.040   3.052  10.087
   56MYC    H14 8616   1.943   3.103  10.090
   56MYC    H15 8617   2.018   2.945  10.098
   56MYC     C8 8618   2.105   3.073   9.950
   56MYC    H12 8619   2.033   3.035   9.877
   56MYC    H13 8620   2.194   3.010   9.943
   56MYC     C7 8621   2.143   3.220   9.914
   56MYC    H10 8622   2.201   3.262   9.997
   56MYC    H11 8623   2.052   3.281   9.906
   56MYC     C6 8624   2.228   3.235   9.785
   56MYC     H8 8625   2.307   3.158   9.785
   56MYC     H9 8626   2.281   3.331   9.791
   56MYC     C5 8627   2.152   3.230   9.650
   56MYC     H6 8628   2.226   3.245   9.571
   56MYC     H7 8629   2.085   3.316   9.644
   56MYC     C4 8630   2.070   3.101   9.625
   56MYC     H4 8631   1.970   3.116   9.666
   56MYC     H5 8632   2.116   3.019   9.680
   56MYC     C2 8633   2.056   3.053   9.478
   56MYC     H2 8634   1.964   2.993   9.475
   56MYC     O3 8635   2.041   3.164   9.389
   56MYC     H3 8636   2.016   3.241   9.442
   56MYC     C1 8637   2.172   2.959   9.435
   56MYC     H1 8638   2.173   2.877   9.508
   56MYC    C81 8639   2.312   3.025   9.443
   56MYC    O82 8640   2.353   3.112   9.369
   56MYC    O83 8641   2.390   2.972   9.540
   56MYC   H105 8642   2.475   3.020   9.534
   56MYC    C20 8643   2.152   2.892   9.297
   56MYC    H34 8644   2.130   2.970   9.223
   56MYC    H35 8645   2.247   2.848   9.267
   56MYC    C21 8646   2.042   2.783   9.294
   56MYC    H36 8647   2.049   2.720   9.384
   56MYC    H37 8648   1.943   2.831   9.298
   56MYC    C22 8649   2.048   2.691   9.170
   56MYC    H38 8650   2.135   2.624   9.179
   56MYC    H39 8651   1.960   2.626   9.169
   56MYC    C23 8652   2.058   2.769   9.038
   56MYC    H40 8653   1.975   2.842   9.034
   56MYC    H41 8654   2.151   2.827   9.037
   56MYC    C24 8655   2.055   2.683   8.911
   56MYC    H42 8656   2.129   2.602   8.918
   56MYC    H43 8657   1.956   2.637   8.901
   56MYC    C25 8658   2.086   2.771   8.788
   56MYC    H44 8659   2.024   2.861   8.793
   56MYC    H45 8660   2.190   2.804   8.793
   56MYC    C26 8661   2.061   2.703   8.653
   56MYC    H46 8662   2.121   2.612   8.645
   56MYC    H47 8663   1.955   2.673   8.647
   56MYC    C27 8664   2.093   2.798   8.537
   56MYC    H48 8665   2.045   2.895   8.555
   56MYC    H49 8666   2.201   2.816   8.534
   56MYC    C28 8667   2.046   2.746   8.400
   56MYC    H50 8668   2.093   2.650   8.379
   56MYC    H51 8669   1.938   2.731   8.404
   56MYC    C29 8670   2.078   2.845   8.287
   56MYC    H52 8671   2.035   2.943   8.310
   56MYC    H53 8672   2.187   2.859   8.281
   56MYC    C30 8673   2.025   2.799   8.150
   56MYC    H54 8674   2.065   2.699   8.129
   56MYC    H55 8675   1.916   2.790   8.155
   56MYC    C31 8676   2.064   2.895   8.036
   56MYC    H56 8677   2.022   2.994   8.057
   56MYC    H57 8678   2.173   2.906   8.033
   56MYC    C32 8679   2.014   2.845   7.900
   56MYC    H58 8680   2.055   2.745   7.881
   56MYC    H59 8681   1.905   2.835   7.903
   56MYC    C33 8682   2.054   2.938   7.783
   56MYC    H60 8683   2.007   3.036   7.798
   56MYC    H61 8684   2.162   2.952   7.784
   56MYC    C34 8685   2.011   2.879   7.648
   56MYC    H62 8686   2.060   2.782   7.635
   56MYC    H63 8687   1.903   2.861   7.649
   56MYC    C35 8688   2.045   2.970   7.528
   56MYC    H64 8689   1.986   3.063   7.534
   56MYC    H65 8690   2.151   2.997   7.531
   56MYC    C36 8691   2.015   2.898   7.395
   56MYC    H66 8692   2.076   2.807   7.390
   56MYC    H67 8693   1.910   2.866   7.395
   56MYC    C37 8694   2.041   2.983   7.269
   56MYC    H68 8695   1.970   3.067   7.266
   56MYC    H69 8696   2.142   3.025   7.273
   56MYC    C38 8697   2.026   2.897   7.142
   56MYC    H70 8698   2.102   2.818   7.144
   56MYC    H71 8699   1.928   2.848   7.144
   56MYC    C39 8700   2.039   2.975   7.010
   56MYC    H72 8701   1.959   3.051   7.005
   56MYC    H73 8702   2.135   3.028   7.007
   56MYC    C40 8703   2.028   2.881   6.889
   56MYC    H74 8704   2.112   2.811   6.891
   56MYC    H75 8705   1.937   2.821   6.898
   56MYC    C41 8706   2.026   2.953   6.753
   56MYC    H76 8707   1.941   3.023   6.750
   56MYC    H77 8708   2.117   3.014   6.742
   56MYC    C42 8709   2.015   2.855   6.635
   56MYC    H78 8710   2.101   2.787   6.635
   56MYC    H79 8711   1.926   2.792   6.647
   56MYC    C43 8712   2.008   2.925   6.498
   56MYC    H80 8713   2.000   2.851   6.418
   56MYC    H81 8714   2.098   2.985   6.481
   56MYC    H82 8715   1.921   2.991   6.493
   57MYC   HH15 8716   3.094   3.584   6.586
   57MYC    C80 8717   3.106   3.531   6.681
   57MYC   H100 8718   3.213   3.511   6.695
   57MYC   H101 8719   3.072   3.597   6.761
   57MYC    C79 8720   3.026   3.399   6.679
   57MYC   H102 8721   3.056   3.341   6.591
   57MYC   H103 8722   2.919   3.421   6.666
   57MYC    C78 8723   3.045   3.311   6.805
   57MYC   HH14 8724   3.152   3.294   6.820
   57MYC   H104 8725   3.000   3.213   6.787
   57MYC    C77 8726   2.983   3.370   6.933
   57MYC   H106 8727   2.874   3.376   6.922
   57MYC   H107 8728   3.019   3.473   6.948
   57MYC    C76 8729   3.017   3.289   7.060
   57MYC   H108 8730   3.126   3.283   7.069
   57MYC   H109 8731   2.980   3.186   7.049
   57MYC    C75 8732   2.959   3.352   7.188
   57MYC   H110 8733   2.849   3.342   7.187
   57MYC   H111 8734   2.981   3.459   7.188
   57MYC    C74 8735   3.015   3.290   7.317
   57MYC   H112 8736   3.125   3.297   7.316
   57MYC   H113 8737   2.990   3.183   7.322
   57MYC    C73 8738   2.961   3.361   7.443
   57MYC   HH13 8739   2.854   3.340   7.453
   57MYC   H114 8740   2.972   3.469   7.430
   57MYC    C72 8741   3.035   3.320   7.572
   57MYC   H115 8742   3.142   3.340   7.561
   57MYC   H116 8743   3.023   3.212   7.589
   57MYC    C71 8744   2.981   3.398   7.693
   57MYC   H117 8745   2.877   3.369   7.711
   57MYC   H118 8746   2.981   3.505   7.669
   57MYC    C70 8747   3.062   3.377   7.822
   57MYC   H119 8748   3.166   3.408   7.805
   57MYC   H120 8749   3.064   3.270   7.847
   57MYC    C69 8750   3.003   3.457   7.938
   57MYC   H121 8751   2.903   3.419   7.961
   57MYC   H122 8752   2.991   3.562   7.907
   57MYC    C68 8753   3.089   3.453   8.065
   57MYC   HH12 8754   3.187   3.497   8.044
   57MYC   H123 8755   3.105   3.349   8.096
   57MYC    C67 8756   3.022   3.531   8.180
   57MYC   H124 8757   2.928   3.481   8.206
   57MYC   H125 8758   2.997   3.632   8.146
   57MYC    C66 8759   3.112   3.540   8.304
   57MYC   H126 8760   3.201   3.599   8.280
   57MYC   H127 8761   3.146   3.439   8.331
   57MYC    C65 8762   3.039   3.602   8.423
   57MYC   H128 8763   2.951   3.541   8.447
   57MYC   H129 8764   3.002   3.702   8.397
   57MYC    C64 8765   3.130   3.612   8.546
   57MYC   H130 8766   3.210   3.685   8.527
   57MYC   H131 8767   3.179   3.515   8.563
   57MYC    C63 8768   3.053   3.652   8.672
   57MYC   HH11 8769   2.966   3.586   8.685
   57MYC   H132 8770   3.014   3.754   8.661
   57MYC    C62 8771   3.141   3.642   8.798
   57MYC   H133 8772   3.230   3.704   8.785
   57MYC   H134 8773   3.175   3.538   8.808
   57MYC    C61 8774   3.066   3.684   8.924
   57MYC   H135 8775   2.963   3.647   8.921
   57MYC   H136 8776   3.060   3.793   8.928
   57MYC    C60 8777   3.134   3.634   9.049
   57MYC   H137 8778   3.241   3.657   9.052
   57MYC    C58 8779   3.061   3.634   9.180
   57MYC   H138 8780   2.957   3.666   9.178
   57MYC    C59 8781   3.092   3.503   9.113
   57MYC   H139 8782   3.170   3.440   9.156
   57MYC   H140 8783   3.010   3.449   9.068
   57MYC    C57 8784   3.132   3.676   9.308
   57MYC   HH10 8785   3.116   3.783   9.326
   57MYC   H141 8786   3.239   3.660   9.298
   57MYC    C56 8787   3.080   3.595   9.427
   57MYC   H142 8788   3.093   3.488   9.407
   57MYC   H143 8789   2.972   3.612   9.438
   57MYC    C55 8790   3.150   3.629   9.559
   57MYC   H144 8791   3.136   3.736   9.581
   57MYC   H145 8792   3.258   3.611   9.550
   57MYC    C54 8793   3.093   3.545   9.674
   57MYC   H146 8794   3.114   3.439   9.654
   57MYC   H147 8795   2.984   3.557   9.674
   57MYC    C53 8796   3.147   3.582   9.812
   57MYC   H148 8797   3.132   3.689   9.830
   57MYC   H149 8798   3.255   3.563   9.817
   57MYC    C52 8799   3.075   3.501   9.921
   57MYC    H99 8800   3.094   3.394   9.904
   57MYC   H150 8801   2.967   3.517   9.909
   57MYC    C51 8802   3.113   3.538  10.065
   57MYC    H97 8803   3.092   3.645  10.082
   57MYC    H98 8804   3.221   3.524  10.079
   57MYC    C50 8805   3.035   3.452  10.165
   57MYC    H95 8806   3.061   3.347  10.150
   57MYC    H96 8807   2.927   3.462  10.145
   57MYC    C49 8808   3.061   3.490  10.312
   57MYC    H93 8809   3.027   3.593  10.330
   57MYC    H94 8810   3.170   3.489  10.330
   57MYC    C48 8811   2.992   3.394  10.410
   57MYC    H91 8812   3.027   3.292  10.390
   57MYC    H92 8813   2.884   3.395  10.393
   57MYC    C47 8814   3.022   3.429  10.557
   57MYC    H89 8815   2.976   3.525  10.582
   57MYC    H90 8816   3.130   3.442  10.569
   57MYC    C46 8817   2.973   3.321  10.656
   57MYC    H87 8818   3.017   3.225  10.627
   57MYC    H88 8819   2.864   3.310  10.649
   57MYC    C45 8820   3.014   3.353  10.802
   57MYC    H85 8821   2.956   3.438  10.839
   57MYC    H86 8822   3.119   3.384  10.803
   57MYC    C44 8823   3.001   3.233  10.898
   57MYC    H83 8824   3.061   3.255  10.987
   57MYC    H84 8825   3.045   3.145  10.851
   57MYC    C18 8826   2.859   3.200  10.942
   57MYC    H31 8827   2.789   3.192  10.860
   57MYC    C17 8828   2.837   3.108  11.060
   57MYC    H30 8829   2.927   3.074  11.111
   57MYC    C19 8830   2.804   3.254  11.072
   57MYC    H32 8831   2.869   3.315  11.135
   57MYC    H33 8832   2.700   3.285  11.071
   57MYC    C16 8833   2.727   3.003  11.064
   57MYC    H28 8834   2.633   3.045  11.027
   57MYC    H29 8835   2.708   2.977  11.168
   57MYC    C15 8836   2.761   2.872  10.988
   57MYC    H26 8837   2.686   2.797  11.014
   57MYC    H27 8838   2.857   2.834  11.024
   57MYC    C14 8839   2.767   2.884  10.833
   57MYC    H24 8840   2.794   2.786  10.792
   57MYC    H25 8841   2.847   2.953  10.804
   57MYC    C13 8842   2.634   2.929  10.768
   57MYC    H22 8843   2.606   3.029  10.806
   57MYC    H23 8844   2.554   2.860  10.798
   57MYC    C12 8845   2.640   2.937  10.615
   57MYC    H20 8846   2.665   2.839  10.574
   57MYC    H21 8847   2.720   3.006  10.586
   57MYC    C11 8848   2.506   2.985  10.553
   57MYC    H18 8849   2.483   3.086  10.591
   57MYC    H19 8850   2.426   2.919  10.588
   57MYC    C10 8851   2.504   2.987  10.399
   57MYC    H16 8852   2.402   3.009  10.366
   57MYC    H17 8853   2.528   2.887  10.361
   57MYC     C9 8854   2.600   3.090  10.334
   57MYC    H14 8855   2.703   3.062  10.356
   57MYC    H15 8856   2.583   3.189  10.378
   57MYC     C8 8857   2.582   3.099  10.181
   57MYC    H12 8858   2.483   3.140  10.159
   57MYC    H13 8859   2.584   2.998  10.138
   57MYC     C7 8860   2.690   3.184  10.112
   57MYC    H10 8861   2.788   3.137  10.127
   57MYC    H11 8862   2.695   3.283  10.159
   57MYC     C6 8863   2.664   3.201   9.960
   57MYC     H8 8864   2.572   3.259   9.946
   57MYC     H9 8865   2.646   3.103   9.917
   57MYC     C5 8866   2.781   3.272   9.888
   57MYC     H6 8867   2.871   3.210   9.895
   57MYC     H7 8868   2.803   3.363   9.945
   57MYC     C4 8869   2.754   3.313   9.741
   57MYC     H4 8870   2.798   3.413   9.728
   57MYC     H5 8871   2.647   3.327   9.726
   57MYC     C2 8872   2.811   3.225   9.626
   57MYC     H2 8873   2.799   3.287   9.537
   57MYC     O3 8874   2.951   3.202   9.646
   57MYC     H3 8875   2.995   3.289   9.649
   57MYC     C1 8876   2.736   3.091   9.597
   57MYC     H1 8877   2.629   3.116   9.587
   57MYC    C81 8878   2.747   2.985   9.709
   57MYC    O82 8879   2.852   2.945   9.756
   57MYC    O83 8880   2.631   2.919   9.733
   57MYC   H105 8881   2.654   2.849   9.796
   57MYC    C20 8882   2.777   3.024   9.463
   57MYC    H34 8883   2.881   2.991   9.469
   57MYC    H35 8884   2.716   2.933   9.450
   57MYC    C21 8885   2.759   3.111   9.336
   57MYC    H36 8886   2.659   3.156   9.336
   57MYC    H37 8887   2.831   3.194   9.339
   57MYC    C22 8888   2.780   3.032   9.206
   57MYC    H38 8889   2.876   2.979   9.210
   57MYC    H39 8890   2.702   2.955   9.199
   57MYC    C23 8891   2.776   3.120   9.079
   57MYC    H40 8892   2.685   3.181   9.080
   57MYC    H41 8893   2.861   3.189   9.081
   57MYC    C24 8894   2.780   3.037   8.949
   57MYC    H42 8895   2.867   2.971   8.950
   57MYC    H43 8896   2.691   2.973   8.946
   57MYC    C25 8897   2.784   3.124   8.821
   57MYC    H44 8898   2.708   3.203   8.829
   57MYC    H45 8899   2.881   3.174   8.815
   57MYC    C26 8900   2.759   3.043   8.693
   57MYC    H46 8901   2.832   2.961   8.686
   57MYC    H47 8902   2.660   2.996   8.699
   57MYC    C27 8903   2.766   3.129   8.564
   57MYC    H48 8904   2.705   3.219   8.578
   57MYC    H49 8905   2.869   3.162   8.549
   57MYC    C28 8906   2.716   3.053   8.439
   57MYC    H50 8907   2.778   2.963   8.425
   57MYC    H51 8908   2.614   3.019   8.457
   57MYC    C29 8909   2.719   3.138   8.311
   57MYC    H52 8910   2.661   3.230   8.326
   57MYC    H53 8911   2.823   3.169   8.290
   57MYC    C30 8912   2.664   3.062   8.189
   57MYC    H54 8913   2.724   2.972   8.173
   57MYC    H55 8914   2.561   3.029   8.211
   57MYC    C31 8915   2.662   3.145   8.059
   57MYC    H56 8916   2.595   3.232   8.071
   57MYC    H57 8917   2.763   3.184   8.039
   57MYC    C32 8918   2.615   3.061   7.939
   57MYC    H58 8919   2.682   2.974   7.929
   57MYC    H59 8920   2.515   3.021   7.959
   57MYC    C33 8921   2.613   3.136   7.804
   57MYC    H60 8922   2.540   3.218   7.809
   57MYC    H61 8923   2.711   3.181   7.785
   57MYC    C34 8924   2.576   3.041   7.688
   57MYC    H62 8925   2.647   2.957   7.689
   57MYC    H63 8926   2.477   2.998   7.708
   57MYC    C35 8927   2.577   3.104   7.548
   57MYC    H64 8928   2.506   3.187   7.544
   57MYC    H65 8929   2.677   3.145   7.527
   57MYC    C36 8930   2.540   2.999   7.441
   57MYC    H66 8931   2.607   2.912   7.453
   57MYC    H67 8932   2.438   2.963   7.460
   57MYC    C37 8933   2.550   3.047   7.295
   57MYC    H68 8934   2.490   3.138   7.281
   57MYC    H69 8935   2.654   3.074   7.272
   57MYC    C38 8936   2.501   2.938   7.197
   57MYC    H70 8937   2.550   2.843   7.223
   57MYC    H71 8938   2.394   2.923   7.213
   57MYC    C39 8939   2.528   2.967   7.048
   57MYC    H72 8940   2.493   3.069   7.024
   57MYC    H73 8941   2.636   2.965   7.030
   57MYC    C40 8942   2.457   2.866   6.956
   57MYC    H74 8943   2.475   2.764   6.993
   57MYC    H75 8944   2.349   2.883   6.963
   57MYC    C41 8945   2.501   2.873   6.808
   57MYC    H76 8946   2.508   2.978   6.777
   57MYC    H77 8947   2.601   2.829   6.799
   57MYC    C42 8948   2.403   2.799   6.715
   57MYC    H78 8949   2.381   2.699   6.756
   57MYC    H79 8950   2.309   2.854   6.713
   57MYC    C43 8951   2.454   2.783   6.570
   57MYC    H80 8952   2.374   2.743   6.506
   57MYC    H81 8953   2.539   2.714   6.566
   57MYC    H82 8954   2.486   2.880   6.530
   58MYC   HH15 8955   3.632   3.578   6.623
   58MYC    C80 8956   3.599   3.523   6.712
   58MYC   H100 8957   3.490   3.527   6.717
   58MYC   H101 8958   3.630   3.418   6.701
   58MYC    C79 8959   3.662   3.584   6.839
   58MYC   H102 8960   3.633   3.690   6.845
   58MYC   H103 8961   3.771   3.581   6.830
   58MYC    C78 8962   3.618   3.512   6.968
   58MYC   HH14 8963   3.651   3.408   6.963
   58MYC   H104 8964   3.509   3.512   6.974
   58MYC    C77 8965   3.675   3.577   7.096
   58MYC   H106 8966   3.639   3.681   7.102
   58MYC   H107 8967   3.785   3.582   7.089
   58MYC    C76 8968   3.635   3.501   7.223
   58MYC   H108 8969   3.676   3.399   7.218
   58MYC   H109 8970   3.526   3.491   7.227
   58MYC    C75 8971   3.683   3.569   7.353
   58MYC   H110 8972   3.637   3.668   7.360
   58MYC   H111 8973   3.792   3.584   7.348
   58MYC    C74 8974   3.649   3.487   7.479
   58MYC   H112 8975   3.701   3.391   7.474
   58MYC   H113 8976   3.542   3.466   7.481
   58MYC    C73 8977   3.688   3.560   7.609
   58MYC   HH13 8978   3.631   3.654   7.615
   58MYC   H114 8979   3.794   3.587   7.605
   58MYC    C72 8980   3.662   3.476   7.735
   58MYC   H115 8981   3.726   3.387   7.734
   58MYC   H116 8982   3.558   3.442   7.736
   58MYC    C71 8983   3.689   3.557   7.864
   58MYC   H117 8984   3.622   3.643   7.866
   58MYC   H118 8985   3.792   3.596   7.861
   58MYC    C70 8986   3.671   3.475   7.993
   58MYC   H119 8987   3.746   3.395   7.997
   58MYC   H120 8988   3.572   3.428   7.993
   58MYC    C69 8989   3.684   3.565   8.117
   58MYC   H121 8990   3.608   3.645   8.111
   58MYC   H122 8991   3.782   3.614   8.117
   58MYC    C68 8992   3.665   3.490   8.250
   58MYC   HH12 8993   3.745   3.415   8.262
   58MYC   H123 8994   3.570   3.435   8.248
   58MYC    C67 8995   3.666   3.586   8.370
   58MYC   H124 8996   3.588   3.662   8.356
   58MYC   H125 8997   3.762   3.639   8.373
   58MYC    C66 8998   3.644   3.516   8.505
   58MYC   H126 8999   3.722   3.440   8.519
   58MYC   H127 9000   3.548   3.463   8.502
   58MYC    C65 9001   3.644   3.614   8.623
   58MYC   H128 9002   3.561   3.685   8.612
   58MYC   H129 9003   3.737   3.673   8.621
   58MYC    C64 9004   3.633   3.542   8.757
   58MYC   H130 9005   3.716   3.470   8.763
   58MYC   H131 9006   3.540   3.484   8.760
   58MYC    C63 9007   3.639   3.635   8.880
   58MYC   HH11 9008   3.555   3.705   8.877
   58MYC   H132 9009   3.732   3.693   8.876
   58MYC    C62 9010   3.635   3.554   9.011
   58MYC   H133 9011   3.712   3.476   9.007
   58MYC   H134 9012   3.539   3.503   9.019
   58MYC    C61 9013   3.659   3.639   9.137
   58MYC   H135 9014   3.579   3.714   9.146
   58MYC   H136 9015   3.753   3.695   9.126
   58MYC    C60 9016   3.667   3.552   9.261
   58MYC   H137 9017   3.734   3.467   9.248
   58MYC    C58 9018   3.664   3.612   9.399
   58MYC   H138 9019   3.650   3.720   9.405
   58MYC    C59 9020   3.546   3.531   9.349
   58MYC   H139 9021   3.531   3.432   9.392
   58MYC   H140 9022   3.455   3.583   9.324
   58MYC    C57 9023   3.754   3.558   9.509
   58MYC   HH10 9024   3.850   3.610   9.506
   58MYC   H141 9025   3.774   3.452   9.492
   58MYC    C56 9026   3.692   3.575   9.649
   58MYC   H142 9027   3.590   3.535   9.649
   58MYC   H143 9028   3.685   3.682   9.672
   58MYC    C55 9029   3.773   3.505   9.760
   58MYC   H144 9030   3.875   3.547   9.763
   58MYC   H145 9031   3.783   3.398   9.737
   58MYC    C54 9032   3.707   3.521   9.897
   58MYC   H146 9033   3.608   3.474   9.895
   58MYC   H147 9034   3.690   3.628   9.916
   58MYC    C53 9035   3.788   3.464  10.014
   58MYC   H148 9036   3.887   3.511  10.017
   58MYC   H149 9037   3.804   3.356   9.999
   58MYC    C52 9038   3.716   3.486  10.148
   58MYC    H99 9039   3.624   3.428  10.149
   58MYC   H150 9040   3.688   3.592  10.156
   58MYC    C51 9041   3.800   3.452  10.273
   58MYC    H97 9042   3.883   3.523  10.281
   58MYC    H98 9043   3.844   3.352  10.261
   58MYC    C50 9044   3.714   3.455  10.400
   58MYC    H95 9045   3.651   3.365  10.402
   58MYC    H96 9046   3.647   3.541  10.396
   58MYC    C49 9047   3.794   3.464  10.532
   58MYC    H93 9048   3.836   3.565  10.541
   58MYC    H94 9049   3.879   3.394  10.529
   58MYC    C48 9050   3.706   3.432  10.654
   58MYC    H91 9051   3.692   3.324  10.659
   58MYC    H92 9052   3.606   3.477  10.640
   58MYC    C47 9053   3.763   3.483  10.788
   58MYC    H89 9054   3.756   3.593  10.789
   58MYC    H90 9055   3.870   3.457  10.794
   58MYC    C46 9056   3.689   3.425  10.910
   58MYC    H87 9057   3.717   3.319  10.920
   58MYC    H88 9058   3.581   3.428  10.893
   58MYC    C45 9059   3.722   3.499  11.041
   58MYC    H85 9060   3.672   3.597  11.039
   58MYC    H86 9061   3.830   3.519  11.045
   58MYC    C44 9062   3.682   3.424  11.169
   58MYC    H83 9063   3.711   3.486  11.255
   58MYC    H84 9064   3.741   3.332  11.177
   58MYC    C18 9065   3.533   3.391  11.183
   58MYC    H31 9066   3.469   3.473  11.153
   58MYC    C17 9067   3.478   3.250  11.172
   58MYC    H30 9068   3.549   3.170  11.152
   58MYC    C19 9069   3.491   3.316  11.307
   58MYC    H32 9070   3.567   3.278  11.373
   58MYC    H33 9071   3.401   3.350  11.356
   58MYC    C16 9072   3.337   3.222  11.118
   58MYC    H28 9073   3.291   3.315  11.083
   58MYC    H29 9074   3.275   3.185  11.200
   58MYC    C15 9075   3.333   3.116  11.005
   58MYC    H26 9076   3.229   3.093  10.981
   58MYC    H27 9077   3.376   3.023  11.042
   58MYC    C14 9078   3.406   3.162  10.877
   58MYC    H24 9079   3.511   3.183  10.901
   58MYC    H25 9080   3.362   3.256  10.842
   58MYC    C13 9081   3.400   3.059  10.763
   58MYC    H22 9082   3.296   3.047  10.730
   58MYC    H23 9083   3.433   2.961  10.798
   58MYC    C12 9084   3.488   3.102  10.643
   58MYC    H20 9085   3.592   3.110  10.676
   58MYC    H21 9086   3.456   3.202  10.611
   58MYC    C11 9087   3.480   3.005  10.523
   58MYC    H18 9088   3.375   2.979  10.507
   58MYC    H19 9089   3.533   2.912  10.547
   58MYC    C10 9090   3.538   3.067  10.394
   58MYC    H16 9091   3.648   3.071  10.400
   58MYC    H17 9092   3.503   3.171  10.388
   58MYC     C9 9093   3.495   2.992  10.266
   58MYC    H14 9094   3.392   2.956  10.280
   58MYC    H15 9095   3.558   2.904  10.251
   58MYC     C8 9096   3.497   3.082  10.140
   58MYC    H12 9097   3.600   3.092  10.103
   58MYC    H13 9098   3.463   3.183  10.167
   58MYC     C7 9099   3.405   3.030  10.028
   58MYC    H10 9100   3.307   3.005  10.072
   58MYC    H11 9101   3.446   2.937   9.987
   58MYC     C6 9102   3.381   3.132   9.915
   58MYC     H8 9103   3.470   3.137   9.851
   58MYC     H9 9104   3.369   3.232   9.958
   58MYC     C5 9105   3.255   3.102   9.830
   58MYC     H6 9106   3.243   3.181   9.755
   58MYC     H7 9107   3.167   3.110   9.895
   58MYC     C4 9108   3.252   2.964   9.761
   58MYC     H4 9109   3.156   2.953   9.709
   58MYC     H5 9110   3.253   2.885   9.838
   58MYC     C2 9111   3.368   2.936   9.661
   58MYC     H2 9112   3.462   2.936   9.718
   58MYC     O3 9113   3.349   2.805   9.607
   58MYC     H3 9114   3.269   2.807   9.552
   58MYC     C1 9115   3.383   3.041   9.547
   58MYC     H1 9116   3.425   3.132   9.592
   58MYC    C81 9117   3.248   3.084   9.484
   58MYC    O82 9118   3.209   3.199   9.483
   58MYC    O83 9119   3.176   2.984   9.428
   58MYC   H105 9120   3.093   3.026   9.399
   58MYC    C20 9121   3.486   2.997   9.438
   58MYC    H34 9122   3.583   2.977   9.486
   58MYC    H35 9123   3.453   2.903   9.392
   58MYC    C21 9124   3.505   3.101   9.326
   58MYC    H36 9125   3.408   3.123   9.280
   58MYC    H37 9126   3.542   3.195   9.368
   58MYC    C22 9127   3.601   3.053   9.215
   58MYC    H38 9128   3.704   3.054   9.252
   58MYC    H39 9129   3.577   2.950   9.188
   58MYC    C23 9130   3.591   3.141   9.089
   58MYC    H40 9131   3.486   3.145   9.057
   58MYC    H41 9132   3.620   3.244   9.114
   58MYC    C24 9133   3.676   3.090   8.972
   58MYC    H42 9134   3.782   3.095   9.000
   58MYC    H43 9135   3.652   2.986   8.951
   58MYC    C25 9136   3.654   3.175   8.845
   58MYC    H44 9137   3.548   3.175   8.820
   58MYC    H45 9138   3.681   3.278   8.869
   58MYC    C26 9139   3.738   3.130   8.723
   58MYC    H46 9140   3.805   3.212   8.696
   58MYC    H47 9141   3.801   3.044   8.749
   58MYC    C27 9142   3.651   3.094   8.600
   58MYC    H48 9143   3.594   3.003   8.621
   58MYC    H49 9144   3.579   3.174   8.582
   58MYC    C28 9145   3.735   3.073   8.472
   58MYC    H50 9146   3.793   3.165   8.454
   58MYC    H51 9147   3.807   2.992   8.488
   58MYC    C29 9148   3.650   3.042   8.348
   58MYC    H52 9149   3.602   2.944   8.360
   58MYC    H53 9150   3.570   3.117   8.339
   58MYC    C30 9151   3.734   3.043   8.218
   58MYC    H54 9152   3.783   3.141   8.210
   58MYC    H55 9153   3.813   2.968   8.226
   58MYC    C31 9154   3.651   3.018   8.090
   58MYC    H56 9155   3.607   2.918   8.094
   58MYC    H57 9156   3.569   3.090   8.086
   58MYC    C32 9157   3.738   3.032   7.963
   58MYC    H58 9158   3.787   3.130   7.965
   58MYC    H59 9159   3.818   2.957   7.966
   58MYC    C33 9160   3.659   3.018   7.831
   58MYC    H60 9161   3.615   2.918   7.826
   58MYC    H61 9162   3.577   3.090   7.830
   58MYC    C34 9163   3.750   3.041   7.709
   58MYC    H62 9164   3.800   3.139   7.720
   58MYC    H63 9165   3.829   2.965   7.708
   58MYC    C35 9166   3.676   3.040   7.574
   58MYC    H64 9167   3.630   2.941   7.559
   58MYC    H65 9168   3.595   3.113   7.576
   58MYC    C36 9169   3.771   3.071   7.457
   58MYC    H66 9170   3.818   3.169   7.474
   58MYC    H67 9171   3.852   2.997   7.455
   58MYC    C37 9172   3.702   3.073   7.319
   58MYC    H68 9173   3.660   2.974   7.298
   58MYC    H69 9174   3.619   3.144   7.321
   58MYC    C38 9175   3.800   3.112   7.206
   58MYC    H70 9176   3.838   3.214   7.226
   58MYC    H71 9177   3.887   3.045   7.209
   58MYC    C39 9178   3.738   3.108   7.065
   58MYC    H72 9179   3.708   3.005   7.042
   58MYC    H73 9180   3.647   3.170   7.063
   58MYC    C40 9181   3.836   3.159   6.957
   58MYC    H74 9182   3.858   3.264   6.976
   58MYC    H75 9183   3.930   3.104   6.965
   58MYC    C41 9184   3.781   3.144   6.813
   58MYC    H76 9185   3.765   3.037   6.792
   58MYC    H77 9186   3.684   3.193   6.806
   58MYC    C42 9187   3.876   3.204   6.707
   58MYC    H78 9188   3.886   3.311   6.725
   58MYC    H79 9189   3.976   3.160   6.719
   58MYC    C43 9190   3.829   3.181   6.563
   58MYC    H80 9191   3.899   3.226   6.492
   58MYC    H81 9192   3.730   3.225   6.547
   58MYC    H82 9193   3.823   3.073   6.541
   59MYC   HH15 9194   4.188   3.465   6.627
   59MYC    C80 9195   4.228   3.403   6.708
   59MYC   H100 9196   4.204   3.298   6.686
   59MYC   H101 9197   4.337   3.414   6.710
   59MYC    C79 9198   4.166   3.446   6.842
   59MYC   H102 9199   4.057   3.433   6.838
   59MYC   H103 9200   4.185   3.553   6.858
   59MYC    C78 9201   4.222   3.366   6.962
   59MYC   HH14 9202   4.329   3.389   6.973
   59MYC   H104 9203   4.214   3.259   6.942
   59MYC    C77 9204   4.149   3.398   7.094
   59MYC   H106 9205   4.046   3.362   7.088
   59MYC   H107 9206   4.144   3.507   7.108
   59MYC    C76 9207   4.218   3.336   7.217
   59MYC   H108 9208   4.314   3.386   7.234
   59MYC   H109 9209   4.240   3.230   7.198
   59MYC    C75 9210   4.133   3.345   7.345
   59MYC   H110 9211   4.046   3.279   7.335
   59MYC   H111 9212   4.094   3.448   7.356
   59MYC    C74 9213   4.210   3.308   7.473
   59MYC   H112 9214   4.287   3.384   7.491
   59MYC   H113 9215   4.262   3.213   7.458
   59MYC    C73 9216   4.119   3.297   7.596
   59MYC   HH13 9217   4.052   3.211   7.583
   59MYC   H114 9218   4.056   3.386   7.604
   59MYC    C72 9219   4.198   3.280   7.727
   59MYC   H115 9220   4.260   3.369   7.743
   59MYC   H116 9221   4.266   3.194   7.718
   59MYC    C71 9222   4.106   3.260   7.849
   59MYC   H117 9223   4.046   3.169   7.835
   59MYC   H118 9224   4.036   3.344   7.855
   59MYC    C70 9225   4.184   3.250   7.981
   59MYC   H119 9226   4.249   3.337   7.992
   59MYC   H120 9227   4.249   3.162   7.979
   59MYC    C69 9228   4.090   3.242   8.103
   59MYC   H121 9229   4.025   3.154   8.096
   59MYC   H122 9230   4.025   3.331   8.103
   59MYC    C68 9231   4.167   3.238   8.237
   59MYC   HH12 9232   4.242   3.318   8.236
   59MYC   H123 9233   4.223   3.144   8.244
   59MYC    C67 9234   4.075   3.254   8.360
   59MYC   H124 9235   4.052   3.154   8.401
   59MYC   H125 9236   3.980   3.299   8.330
   59MYC    C66 9237   4.138   3.342   8.469
   59MYC   H126 9238   4.164   3.439   8.426
   59MYC   H127 9239   4.232   3.295   8.503
   59MYC    C65 9240   4.046   3.364   8.589
   59MYC   H128 9241   4.017   3.267   8.630
   59MYC   H129 9242   3.954   3.415   8.557
   59MYC    C64 9243   4.114   3.447   8.700
   59MYC   H130 9244   4.144   3.545   8.660
   59MYC   H131 9245   4.206   3.395   8.729
   59MYC    C63 9246   4.025   3.468   8.824
   59MYC   HH11 9247   3.975   3.374   8.850
   59MYC   H132 9248   3.947   3.542   8.802
   59MYC    C62 9249   4.109   3.516   8.944
   59MYC   H133 9250   4.156   3.612   8.921
   59MYC   H134 9251   4.190   3.444   8.959
   59MYC    C61 9252   4.030   3.527   9.075
   59MYC   H135 9253   3.959   3.444   9.084
   59MYC   H136 9254   3.971   3.620   9.075
   59MYC    C60 9255   4.125   3.527   9.194
   59MYC   H137 9256   4.195   3.610   9.191
   59MYC    C58 9257   4.084   3.477   9.330
   59MYC   H138 9258   3.982   3.441   9.341
   59MYC    C59 9259   4.178   3.395   9.246
   59MYC   H139 9260   4.282   3.390   9.275
   59MYC   H140 9261   4.138   3.303   9.202
   59MYC    C57 9262   4.137   3.545   9.455
   59MYC   HH10 9263   4.074   3.632   9.479
   59MYC   H141 9264   4.238   3.584   9.437
   59MYC    C56 9265   4.141   3.451   9.576
   59MYC   H142 9266   4.194   3.358   9.549
   59MYC   H143 9267   4.038   3.423   9.603
   59MYC    C55 9268   4.211   3.515   9.697
   59MYC   H144 9269   4.169   3.614   9.715
   59MYC   H145 9270   4.317   3.530   9.674
   59MYC    C54 9271   4.199   3.430   9.825
   59MYC   H146 9272   4.253   3.336   9.811
   59MYC   H147 9273   4.093   3.405   9.841
   59MYC    C53 9274   4.252   3.503   9.949
   59MYC   H148 9275   4.199   3.598   9.961
   59MYC   H149 9276   4.358   3.527   9.936
   59MYC    C52 9277   4.235   3.419  10.077
   59MYC    H99 9278   4.301   3.332  10.073
   59MYC   H150 9279   4.132   3.382  10.083
   59MYC    C51 9280   4.264   3.499  10.205
   59MYC    H97 9281   4.195   3.584  10.211
   59MYC    H98 9282   4.366   3.541  10.200
   59MYC    C50 9283   4.251   3.414  10.333
   59MYC    H95 9284   4.330   3.337  10.333
   59MYC    H96 9285   4.155   3.361  10.332
   59MYC    C49 9286   4.261   3.498  10.461
   59MYC    H93 9287   4.178   3.570  10.461
   59MYC    H94 9288   4.354   3.556  10.460
   59MYC    C48 9289   4.255   3.414  10.590
   59MYC    H91 9290   4.343   3.349  10.595
   59MYC    H92 9291   4.167   3.349  10.587
   59MYC    C47 9292   4.248   3.503  10.715
   59MYC    H89 9293   4.155   3.563  10.711
   59MYC    H90 9294   4.332   3.574  10.714
   59MYC    C46 9295   4.250   3.424  10.847
   59MYC    H87 9296   4.347   3.375  10.858
   59MYC    H88 9297   4.173   3.346  10.843
   59MYC    C45 9298   4.224   3.516  10.968
   59MYC    H85 9299   4.123   3.558  10.959
   59MYC    H86 9300   4.294   3.601  10.965
   59MYC    C44 9301   4.236   3.447  11.105
   59MYC    H83 9302   4.217   3.522  11.183
   59MYC    H84 9303   4.339   3.413  11.119
   59MYC    C18 9304   4.139   3.330  11.121
   59MYC    H31 9305   4.055   3.333  11.053
   59MYC    C17 9306   4.190   3.195  11.166
   59MYC    H30 9307   4.295   3.187  11.191
   59MYC    C19 9308   4.107   3.279  11.259
   59MYC    H32 9309   4.156   3.326  11.344
   59MYC    H33 9310   4.004   3.249  11.278
   59MYC    C16 9311   4.133   3.064  11.113
   59MYC    H28 9312   4.039   3.082  11.057
   59MYC    H29 9313   4.105   3.002  11.198
   59MYC    C15 9314   4.230   2.982  11.025
   59MYC    H26 9315   4.196   2.878  11.022
   59MYC    H27 9316   4.329   2.979  11.072
   59MYC    C14 9317   4.243   3.032  10.879
   59MYC    H24 9318   4.290   3.131  10.878
   59MYC    H25 9319   4.143   3.043  10.836
   59MYC    C13 9320   4.326   2.936  10.792
   59MYC    H22 9321   4.281   2.836  10.797
   59MYC    H23 9322   4.427   2.927  10.834
   59MYC    C12 9323   4.336   2.977  10.643
   59MYC    H20 9324   4.390   3.073  10.636
   59MYC    H21 9325   4.236   2.993  10.603
   59MYC    C11 9326   4.408   2.869  10.560
   59MYC    H18 9327   4.346   2.779  10.558
   59MYC    H19 9328   4.501   2.841  10.611
   59MYC    C10 9329   4.443   2.909  10.414
   59MYC    H16 9330   4.505   2.828  10.372
   59MYC    H17 9331   4.505   2.999  10.414
   59MYC     C9 9332   4.320   2.932  10.323
   59MYC    H14 9333   4.305   3.040  10.310
   59MYC    H15 9334   4.230   2.894  10.371
   59MYC     C8 9335   4.334   2.864  10.185
   59MYC    H12 9336   4.348   2.756  10.201
   59MYC    H13 9337   4.425   2.900  10.134
   59MYC     C7 9338   4.212   2.882  10.093
   59MYC    H10 9339   4.121   2.873  10.153
   59MYC    H11 9340   4.211   2.800  10.021
   59MYC     C6 9341   4.206   3.018  10.019
   59MYC     H8 9342   4.297   3.032   9.960
   59MYC     H9 9343   4.203   3.099  10.093
   59MYC     C5 9344   4.082   3.031   9.927
   59MYC     H6 9345   4.073   3.135   9.895
   59MYC     H7 9346   3.992   3.010   9.986
   59MYC     C4 9347   4.084   2.937   9.803
   59MYC     H4 9348   3.992   2.878   9.804
   59MYC     H5 9349   4.166   2.864   9.811
   59MYC     C2 9350   4.095   3.011   9.668
   59MYC     H2 9351   4.015   3.086   9.665
   59MYC     O3 9352   4.222   3.077   9.661
   59MYC     H3 9353   4.289   3.009   9.642
   59MYC     C1 9354   4.075   2.917   9.545
   59MYC     H1 9355   3.976   2.871   9.557
   59MYC    C81 9356   4.177   2.801   9.542
   59MYC    O82 9357   4.145   2.684   9.556
   59MYC    O83 9358   4.304   2.836   9.513
   59MYC   H105 9359   4.354   2.753   9.513
   59MYC    C20 9360   4.071   2.997   9.412
   59MYC    H34 9361   3.992   3.072   9.418
   59MYC    H35 9362   4.165   3.052   9.400
   59MYC    C21 9363   4.048   2.911   9.285
   59MYC    H36 9364   4.129   2.838   9.275
   59MYC    H37 9365   3.955   2.855   9.295
   59MYC    C22 9366   4.041   2.998   9.158
   59MYC    H38 9367   3.952   3.061   9.163
   59MYC    H39 9368   4.127   3.067   9.157
   59MYC    C23 9369   4.039   2.918   9.025
   59MYC    H40 9370   4.019   2.812   9.046
   59MYC    H41 9371   3.956   2.953   8.963
   59MYC    C24 9372   4.170   2.930   8.945
   59MYC    H42 9373   4.192   3.036   8.929
   59MYC    H43 9374   4.253   2.888   9.004
   59MYC    C25 9375   4.164   2.860   8.807
   59MYC    H44 9376   4.136   2.755   8.821
   59MYC    H45 9377   4.086   2.907   8.746
   59MYC    C26 9378   4.299   2.867   8.733
   59MYC    H46 9379   4.331   2.972   8.725
   59MYC    H47 9380   4.375   2.815   8.793
   59MYC    C27 9381   4.294   2.806   8.592
   59MYC    H48 9382   4.247   2.707   8.597
   59MYC    H49 9383   4.232   2.869   8.527
   59MYC    C28 9384   4.435   2.791   8.530
   59MYC    H50 9385   4.486   2.888   8.530
   59MYC    H51 9386   4.494   2.725   8.595
   59MYC    C29 9387   4.434   2.732   8.388
   59MYC    H52 9388   4.529   2.680   8.371
   59MYC    H53 9389   4.355   2.657   8.380
   59MYC    C30 9390   4.417   2.837   8.275
   59MYC    H54 9391   4.324   2.893   8.291
   59MYC    H55 9392   4.499   2.908   8.280
   59MYC    C31 9393   4.414   2.771   8.135
   59MYC    H56 9394   4.498   2.701   8.127
   59MYC    H57 9395   4.322   2.713   8.125
   59MYC    C32 9396   4.423   2.873   8.020
   59MYC    H58 9397   4.343   2.947   8.030
   59MYC    H59 9398   4.518   2.928   8.029
   59MYC    C33 9399   4.414   2.807   7.881
   59MYC    H60 9400   4.486   2.724   7.876
   59MYC    H61 9401   4.314   2.764   7.868
   59MYC    C34 9402   4.444   2.904   7.766
   59MYC    H62 9403   4.377   2.991   7.773
   59MYC    H63 9404   4.546   2.942   7.776
   59MYC    C35 9405   4.427   2.839   7.627
   59MYC    H64 9406   4.487   2.747   7.623
   59MYC    H65 9407   4.322   2.810   7.614
   59MYC    C36 9408   4.470   2.931   7.511
   59MYC    H66 9409   4.414   3.025   7.517
   59MYC    H67 9410   4.576   2.956   7.521
   59MYC    C37 9411   4.446   2.867   7.372
   59MYC    H68 9412   4.502   2.773   7.366
   59MYC    H69 9413   4.339   2.841   7.364
   59MYC    C38 9414   4.485   2.959   7.255
   59MYC    H70 9415   4.432   3.055   7.265
   59MYC    H71 9416   4.592   2.980   7.259
   59MYC    C39 9417   4.451   2.897   7.118
   59MYC    H72 9418   4.510   2.805   7.104
   59MYC    H73 9419   4.345   2.867   7.117
   59MYC    C40 9420   4.477   2.992   6.999
   59MYC    H74 9421   4.423   3.086   7.016
   59MYC    H75 9422   4.584   3.016   6.994
   59MYC    C41 9423   4.431   2.932   6.864
   59MYC    H76 9424   4.489   2.841   6.844
   59MYC    H77 9425   4.326   2.902   6.872
   59MYC    C42 9426   4.447   3.029   6.745
   59MYC    H78 9427   4.393   3.122   6.767
   59MYC    H79 9428   4.553   3.056   6.734
   59MYC    C43 9429   4.394   2.971   6.613
   59MYC    H80 9430   4.410   3.042   6.531
   59MYC    H81 9431   4.287   2.950   6.620
   59MYC    H82 9432   4.446   2.877   6.589
   60MYC   HH15 9433   5.530   3.269   6.505
   60MYC    C80 9434   5.489   3.213   6.590
   60MYC   H100 9435   5.381   3.234   6.595
   60MYC   H101 9436   5.502   3.106   6.570
   60MYC    C79 9437   5.559   3.254   6.721
   60MYC   H102 9438   5.544   3.361   6.737
   60MYC   H103 9439   5.666   3.237   6.710
   60MYC    C78 9440   5.508   3.176   6.844
   60MYC   HH14 9441   5.534   3.070   6.832
   60MYC   H104 9442   5.398   3.182   6.847
   60MYC    C77 9443   5.565   3.229   6.977
   60MYC   H106 9444   5.533   3.333   6.990
   60MYC   H107 9445   5.675   3.230   6.972
   60MYC    C76 9446   5.520   3.146   7.099
   60MYC   H108 9447   5.566   3.047   7.093
   60MYC   H109 9448   5.411   3.132   7.095
   60MYC    C75 9449   5.557   3.212   7.233
   60MYC   H110 9450   5.505   3.309   7.241
   60MYC   H111 9451   5.665   3.233   7.235
   60MYC    C74 9452   5.520   3.124   7.354
   60MYC   H112 9453   5.577   3.031   7.350
   60MYC   H113 9454   5.413   3.098   7.348
   60MYC    C73 9455   5.546   3.194   7.489
   60MYC   HH13 9456   5.485   3.285   7.495
   60MYC   H114 9457   5.651   3.225   7.494
   60MYC    C72 9458   5.514   3.103   7.610
   60MYC   H115 9459   5.574   3.012   7.604
   60MYC   H116 9460   5.408   3.072   7.604
   60MYC    C71 9461   5.539   3.173   7.745
   60MYC   H117 9462   5.480   3.266   7.749
   60MYC   H118 9463   5.644   3.201   7.752
   60MYC    C70 9464   5.501   3.084   7.865
   60MYC   H119 9465   5.558   2.991   7.862
   60MYC   H120 9466   5.395   3.057   7.857
   60MYC    C69 9467   5.525   3.155   7.999
   60MYC   H121 9468   5.476   3.253   7.997
   60MYC   H122 9469   5.632   3.173   8.012
   60MYC    C68 9470   5.471   3.076   8.120
   60MYC   HH12 9471   5.523   2.979   8.127
   60MYC   H123 9472   5.365   3.055   8.105
   60MYC    C67 9473   5.489   3.154   8.251
   60MYC   H124 9474   5.444   3.253   8.240
   60MYC   H125 9475   5.596   3.169   8.271
   60MYC    C66 9476   5.425   3.084   8.373
   60MYC   H126 9477   5.478   2.990   8.394
   60MYC   H127 9478   5.321   3.058   8.350
   60MYC    C65 9479   5.428   3.175   8.497
   60MYC   H128 9480   5.368   3.265   8.476
   60MYC   H129 9481   5.531   3.208   8.515
   60MYC    C64 9482   5.375   3.107   8.625
   60MYC   H130 9483   5.441   3.024   8.652
   60MYC   H131 9484   5.275   3.065   8.606
   60MYC    C63 9485   5.366   3.208   8.741
   60MYC   HH11 9486   5.283   3.277   8.723
   60MYC   H132 9487   5.458   3.268   8.743
   60MYC    C62 9488   5.348   3.141   8.879
   60MYC   H133 9489   5.435   3.077   8.898
   60MYC   H134 9490   5.259   3.077   8.879
   60MYC    C61 9491   5.336   3.246   8.991
   60MYC   H135 9492   5.234   3.286   8.992
   60MYC   H136 9493   5.402   3.331   8.969
   60MYC    C60 9494   5.374   3.191   9.127
   60MYC   H137 9495   5.478   3.160   9.131
   60MYC    C58 9496   5.317   3.256   9.250
   60MYC   H138 9497   5.240   3.331   9.236
   60MYC    C59 9498   5.279   3.114   9.215
   60MYC   H139 9499   5.320   3.033   9.275
   60MYC   H140 9500   5.178   3.096   9.178
   60MYC    C57 9501   5.410   3.290   9.366
   60MYC   HH10 9502   5.448   3.392   9.352
   60MYC   H141 9503   5.497   3.224   9.366
   60MYC    C56 9504   5.339   3.280   9.502
   60MYC   H142 9505   5.314   3.175   9.522
   60MYC   H143 9506   5.245   3.336   9.498
   60MYC    C55 9507   5.426   3.335   9.616
   60MYC   H144 9508   5.450   3.440   9.597
   60MYC   H145 9509   5.521   3.280   9.620
   60MYC    C54 9510   5.355   3.323   9.752
   60MYC   H146 9511   5.333   3.218   9.773
   60MYC   H147 9512   5.259   3.376   9.748
   60MYC    C53 9513   5.440   3.381   9.867
   60MYC   H148 9514   5.460   3.487   9.848
   60MYC   H149 9515   5.537   3.329   9.870
   60MYC    C52 9516   5.371   3.367  10.003
   60MYC    H99 9517   5.334   3.264  10.014
   60MYC   H150 9518   5.283   3.433  10.006
   60MYC    C51 9519   5.463   3.399  10.122
   60MYC    H97 9520   5.502   3.501  10.113
   60MYC    H98 9521   5.549   3.331  10.120
   60MYC    C50 9522   5.389   3.383  10.255
   60MYC    H95 9523   5.332   3.290  10.252
   60MYC    H96 9524   5.316   3.464  10.266
   60MYC    C49 9525   5.480   3.379  10.379
   60MYC    H93 9526   5.530   3.476  10.392
   60MYC    H94 9527   5.559   3.304  10.364
   60MYC    C48 9528   5.401   3.343  10.506
   60MYC    H91 9529   5.350   3.248  10.489
   60MYC    H92 9530   5.323   3.419  10.523
   60MYC    C47 9531   5.487   3.330  10.632
   60MYC    H89 9532   5.536   3.426  10.653
   60MYC    H90 9533   5.566   3.256  10.613
   60MYC    C46 9534   5.405   3.287  10.755
   60MYC    H87 9535   5.363   3.187  10.737
   60MYC    H88 9536   5.321   3.356  10.766
   60MYC    C45 9537   5.487   3.284  10.886
   60MYC    H85 9538   5.531   3.383  10.904
   60MYC    H86 9539   5.570   3.213  10.875
   60MYC    C44 9540   5.405   3.242  11.010
   60MYC    H83 9541   5.473   3.237  11.096
   60MYC    H84 9542   5.368   3.141  10.993
   60MYC    C18 9543   5.287   3.335  11.043
   60MYC    H31 9544   5.283   3.424  10.980
   60MYC    C17 9545   5.156   3.274  11.088
   60MYC    H30 9546   5.155   3.167  11.105
   60MYC    C19 9547   5.239   3.354  11.185
   60MYC    H32 9548   5.290   3.301  11.264
   60MYC    H33 9549   5.203   3.453  11.212
   60MYC    C16 9550   5.023   3.327  11.036
   60MYC    H28 9551   5.038   3.427  10.994
   60MYC    H29 9552   4.954   3.338  11.120
   60MYC    C15 9553   4.959   3.236  10.929
   60MYC    H26 9554   4.866   3.284  10.895
   60MYC    H27 9555   4.930   3.141  10.974
   60MYC    C14 9556   5.050   3.208  10.807
   60MYC    H24 9557   5.133   3.143  10.838
   60MYC    H25 9558   5.095   3.303  10.774
   60MYC    C13 9559   4.976   3.144  10.689
   60MYC    H22 9560   4.897   3.212  10.656
   60MYC    H23 9561   4.926   3.053  10.724
   60MYC    C12 9562   5.067   3.112  10.568
   60MYC    H20 9563   5.151   3.182  10.567
   60MYC    H21 9564   5.010   3.130  10.476
   60MYC    C11 9565   5.119   2.966  10.565
   60MYC    H18 9566   5.037   2.900  10.532
   60MYC    H19 9567   5.144   2.934  10.667
   60MYC    C10 9568   5.243   2.942  10.476
   60MYC    H16 9569   5.264   2.834  10.471
   60MYC    H17 9570   5.330   2.987  10.526
   60MYC     C9 9571   5.238   2.999  10.332
   60MYC    H14 9572   5.335   2.979  10.284
   60MYC    H15 9573   5.228   3.107  10.337
   60MYC     C8 9574   5.125   2.944  10.240
   60MYC    H12 9575   5.028   2.969  10.284
   60MYC    H13 9576   5.131   2.835  10.235
   60MYC     C7 9577   5.135   3.004  10.098
   60MYC    H10 9578   5.224   2.963  10.047
   60MYC    H11 9579   5.152   3.112  10.107
   60MYC     C6 9580   5.011   2.982  10.008
   60MYC     H8 9581   4.923   3.019  10.062
   60MYC     H9 9582   4.995   2.875   9.991
   60MYC     C5 9583   5.023   3.057   9.873
   60MYC     H6 9584   5.098   3.007   9.810
   60MYC     H7 9585   5.063   3.157   9.893
   60MYC     C4 9586   4.891   3.074   9.794
   60MYC     H4 9587   4.891   3.175   9.751
   60MYC     H5 9588   4.806   3.072   9.864
   60MYC     C2 9589   4.867   2.973   9.679
   60MYC     H2 9590   4.956   2.976   9.614
   60MYC     O3 9591   4.854   2.841   9.731
   60MYC     H3 9592   4.777   2.839   9.791
   60MYC     C1 9593   4.744   3.011   9.591
   60MYC     H1 9594   4.766   3.110   9.549
   60MYC    C81 9595   4.613   3.029   9.670
   60MYC    O82 9596   4.562   2.943   9.739
   60MYC    O83 9597   4.547   3.144   9.642
   60MYC   H105 9598   4.461   3.137   9.687
   60MYC    C20 9599   4.721   2.918   9.468
   60MYC    H34 9600   4.742   2.814   9.495
   60MYC    H35 9601   4.615   2.923   9.440
   60MYC    C21 9602   4.805   2.958   9.344
   60MYC    H36 9603   4.784   3.063   9.320
   60MYC    H37 9604   4.912   2.951   9.368
   60MYC    C22 9605   4.773   2.872   9.220
   60MYC    H38 9606   4.810   2.770   9.237
   60MYC    H39 9607   4.664   2.865   9.208
   60MYC    C23 9608   4.834   2.928   9.091
   60MYC    H40 9609   4.803   3.033   9.079
   60MYC    H41 9610   4.944   2.928   9.098
   60MYC    C24 9611   4.790   2.849   8.966
   60MYC    H42 9612   4.819   2.744   8.978
   60MYC    H43 9613   4.680   2.851   8.959
   60MYC    C25 9614   4.850   2.903   8.834
   60MYC    H44 9615   4.831   3.011   8.827
   60MYC    H45 9616   4.958   2.890   8.836
   60MYC    C26 9617   4.790   2.833   8.711
   60MYC    H46 9618   4.789   2.724   8.728
   60MYC    H47 9619   4.685   2.864   8.700
   60MYC    C27 9620   4.866   2.861   8.580
   60MYC    H48 9621   4.874   2.970   8.565
   60MYC    H49 9622   4.968   2.822   8.589
   60MYC    C28 9623   4.796   2.798   8.458
   60MYC    H50 9624   4.766   2.695   8.482
   60MYC    H51 9625   4.705   2.854   8.437
   60MYC    C29 9626   4.883   2.795   8.331
   60MYC    H52 9627   4.918   2.897   8.309
   60MYC    H53 9628   4.972   2.734   8.350
   60MYC    C30 9629   4.807   2.740   8.209
   60MYC    H54 9630   4.768   2.640   8.232
   60MYC    H55 9631   4.721   2.804   8.188
   60MYC    C31 9632   4.896   2.732   8.083
   60MYC    H56 9633   4.943   2.830   8.067
   60MYC    H57 9634   4.977   2.660   8.100
   60MYC    C32 9635   4.818   2.692   7.956
   60MYC    H58 9636   4.775   2.592   7.969
   60MYC    H59 9637   4.735   2.762   7.942
   60MYC    C33 9638   4.908   2.694   7.831
   60MYC    H60 9639   4.961   2.790   7.827
   60MYC    H61 9640   4.985   2.616   7.840
   60MYC    C34 9641   4.832   2.675   7.699
   60MYC    H62 9642   4.782   2.577   7.698
   60MYC    H63 9643   4.753   2.752   7.692
   60MYC    C35 9644   4.925   2.686   7.576
   60MYC    H64 9645   4.987   2.777   7.587
   60MYC    H65 9646   4.994   2.601   7.575
   60MYC    C36 9647   4.850   2.694   7.442
   60MYC    H66 9648   4.790   2.604   7.427
   60MYC    H67 9649   4.781   2.780   7.445
   60MYC    C37 9650   4.947   2.711   7.323
   60MYC    H68 9651   5.022   2.788   7.348
   60MYC    H69 9652   5.003   2.618   7.307
   60MYC    C38 9653   4.878   2.753   7.191
   60MYC    H70 9654   4.805   2.676   7.162
   60MYC    H71 9655   4.822   2.846   7.209
   60MYC    C39 9656   4.978   2.775   7.076
   60MYC    H72 9657   5.062   2.835   7.113
   60MYC    H73 9658   5.019   2.678   7.045
   60MYC    C40 9659   4.916   2.846   6.954
   60MYC    H74 9660   4.834   2.786   6.914
   60MYC    H75 9661   4.872   2.941   6.987
   60MYC    C41 9662   5.019   2.875   6.842
   60MYC    H76 9663   5.105   2.929   6.885
   60MYC    H77 9664   5.058   2.780   6.803
   60MYC    C42 9665   4.961   2.959   6.726
   60MYC    H78 9666   4.878   2.904   6.680
   60MYC    H79 9667   4.919   3.052   6.766
   60MYC    C43 9668   5.065   2.994   6.618
   60MYC    H80 9669   5.019   3.053   6.539
   60MYC    H81 9670   5.107   2.903   6.574
   60MYC    H82 9671   5.148   3.052   6.662
   61MYC   HH15 9672   6.422   3.131   6.619
   61MYC    C80 9673   6.362   3.104   6.707
   61MYC   H100 9674   6.262   3.147   6.694
   61MYC   H101 9675   6.353   2.995   6.711
   61MYC    C79 9676   6.428   3.158   6.835
   61MYC   H102 9677   6.440   3.267   6.826
   61MYC   H103 9678   0.079   3.116   6.843
   61MYC    C78 9679   6.348   3.126   6.963
   61MYC   HH14 9680   6.334   3.017   6.970
   61MYC   H104 9681   6.248   3.171   6.955
   61MYC    C77 9682   6.416   3.176   7.091
   61MYC   H106 9683   6.427   3.285   7.087
   61MYC   H107 9684   0.068   3.134   7.097
   61MYC    C76 9685   6.339   3.137   7.219
   61MYC   H108 9686   6.337   3.028   7.228
   61MYC   H109 9687   6.235   3.171   7.211
   61MYC    C75 9688   6.401   3.198   7.347
   61MYC   H110 9689   6.390   3.307   7.343
   61MYC   H111 9690   0.058   3.177   7.349
   61MYC    C74 9691   6.337   3.144   7.476
   61MYC   H112 9692   6.364   3.038   7.488
   61MYC   H113 9693   6.228   3.148   7.468
   61MYC    C73 9694   6.378   3.223   7.602
   61MYC   HH13 9695   6.332   3.322   7.598
   61MYC   H114 9696   0.037   3.237   7.602
   61MYC    C72 9697   6.338   3.152   7.733
   61MYC   H115 9698   6.400   3.063   7.746
   61MYC   H116 9699   6.234   3.117   7.725
   61MYC    C71 9700   6.350   3.243   7.857
   61MYC   H117 9701   6.279   3.326   7.848
   61MYC   H118 9702   0.001   3.286   7.861
   61MYC    C70 9703   6.323   3.167   7.988
   61MYC   H119 9704   6.401   3.091   8.002
   61MYC   H120 9705   6.228   3.113   7.980
   61MYC    C69 9706   6.318   3.258   8.112
   61MYC   H121 9707   6.236   3.330   8.101
   61MYC   H122 9708   6.411   3.316   8.119
   61MYC    C68 9709   6.298   3.179   8.243
   61MYC   HH12 9710   6.382   3.109   8.254
   61MYC   H123 9711   6.207   3.118   8.235
   61MYC    C67 9712   6.289   3.267   8.368
   61MYC   H124 9713   6.201   3.332   8.360
   61MYC   H125 9714   6.377   3.333   8.373
   61MYC    C66 9715   6.280   3.184   8.497
   61MYC   H126 9716   6.368   3.119   8.504
   61MYC   H127 9717   6.192   3.118   8.492
   61MYC    C65 9718   6.270   3.269   8.625
   61MYC   H128 9719   6.178   3.328   8.622
   61MYC   H129 9720   6.354   3.340   8.628
   61MYC    C64 9721   6.272   3.183   8.753
   61MYC   H130 9722   6.367   3.128   8.756
   61MYC   H131 9723   6.192   3.108   8.747
   61MYC    C63 9724   6.256   3.265   8.882
   61MYC   HH11 9725   6.159   3.317   8.880
   61MYC   H132 9726   6.334   3.342   8.887
   61MYC    C62 9727   6.264   3.176   9.008
   61MYC   H133 9728   6.362   3.128   9.011
   61MYC   H134 9729   6.189   3.096   9.001
   61MYC    C61 9730   6.243   3.255   9.139
   61MYC   H135 9731   6.144   3.303   9.137
   61MYC   H136 9732   6.317   3.335   9.146
   61MYC    C60 9733   6.255   3.165   9.261
   61MYC   H137 9734   6.350   3.113   9.264
   61MYC    C58 9735   6.195   3.203   9.394
   61MYC   H138 9736   6.137   3.295   9.398
   61MYC    C59 9737   6.136   3.089   9.315
   61MYC   H139 9738   6.152   2.988   9.350
   61MYC   H140 9739   6.039   3.106   9.268
   61MYC    C57 9740   6.276   3.180   9.521
   61MYC   HH10 9741   6.340   3.268   9.537
   61MYC   H141 9742   6.344   3.095   9.507
   61MYC    C56 9743   6.191   3.156   9.647
   61MYC   H142 9744   6.131   3.065   9.635
   61MYC   H143 9745   6.121   3.239   9.661
   61MYC    C55 9746   6.280   3.143   9.773
   61MYC   H144 9747   6.343   3.232   9.781
   61MYC   H145 9748   6.348   3.058   9.758
   61MYC    C54 9749   6.204   3.124   9.905
   61MYC   H146 9750   6.139   3.036   9.898
   61MYC   H147 9751   6.139   3.211   9.923
   61MYC    C53 9752   6.302   3.107  10.024
   61MYC   H148 9753   6.372   3.192  10.024
   61MYC   H149 9754   6.362   3.016  10.007
   61MYC    C52 9755   6.235   3.097  10.162
   61MYC    H99 9756   6.167   3.011  10.164
   61MYC   H150 9757   6.174   3.187  10.179
   61MYC    C51 9758   6.339   3.084  10.276
   61MYC    H97 9759   6.411   3.166  10.269
   61MYC    H98 9760   6.394   2.990  10.263
   61MYC    C50 9761   6.275   3.084  10.416
   61MYC    H95 9762   6.207   2.999  10.424
   61MYC    H96 9763   6.214   3.175  10.426
   61MYC    C49 9764   6.377   3.080  10.532
   61MYC    H93 9765   6.443   3.167  10.524
   61MYC    H94 9766   6.439   2.990  10.522
   61MYC    C48 9767   6.309   3.080  10.670
   61MYC    H91 9768   6.249   2.989  10.681
   61MYC    H92 9769   6.239   3.165  10.676
   61MYC    C47 9770   6.408   3.092  10.788
   61MYC    H89 9771   0.010   3.187  10.781
   61MYC    H90 9772   0.033   3.012  10.780
   61MYC    C46 9773   6.339   3.082  10.926
   61MYC    H87 9774   6.294   2.983  10.937
   61MYC    H88 9775   6.256   3.154  10.929
   61MYC    C45 9776   6.435   3.110  11.044
   61MYC    H85 9777   0.013   3.216  11.043
   61MYC    H86 9778   0.079   3.054  11.029
   61MYC    C44 9779   6.379   3.073  11.183
   61MYC    H83 9780   6.449   3.108  11.260
   61MYC    H84 9781   6.377   2.963  11.192
   61MYC    C18 9782   6.240   3.129  11.212
   61MYC    H31 9783   6.234   3.236  11.197
   61MYC    C17 9784   6.117   3.047  11.178
   61MYC    H30 9785   6.135   2.947  11.141
   61MYC    C19 9786   6.153   3.073  11.323
   61MYC    H32 9787   6.192   2.989  11.380
   61MYC    H33 9788   6.093   3.143  11.379
   61MYC    C16 9789   5.996   3.113  11.113
   61MYC    H28 9790   6.030   3.185  11.037
   61MYC    H29 9791   5.942   3.172  11.188
   61MYC    C15 9792   5.898   3.014  11.046
   61MYC    H26 9793   5.805   3.069  11.023
   61MYC    H27 9794   5.872   2.935  11.116
   61MYC    C14 9795   5.952   2.952  10.914
   61MYC    H24 9796   6.039   2.889  10.935
   61MYC    H25 9797   5.987   3.032  10.849
   61MYC    C13 9798   5.846   2.868  10.839
   61MYC    H22 9799   5.755   2.929  10.827
   61MYC    H23 9800   5.817   2.781  10.900
   61MYC    C12 9801   5.891   2.818  10.700
   61MYC    H20 9802   5.942   2.721  10.712
   61MYC    H21 9803   5.966   2.885  10.658
   61MYC    C11 9804   5.774   2.804  10.600
   61MYC    H18 9805   5.721   2.899  10.592
   61MYC    H19 9806   5.702   2.733  10.641
   61MYC    C10 9807   5.817   2.757  10.458
   61MYC    H16 9808   5.744   2.683  10.422
   61MYC    H17 9809   5.913   2.706  10.464
   61MYC     C9 9810   5.823   2.872  10.355
   61MYC    H14 9811   5.877   2.957  10.398
   61MYC    H15 9812   5.721   2.906  10.334
   61MYC     C8 9813   5.894   2.833  10.223
   61MYC    H12 9814   5.857   2.735  10.189
   61MYC    H13 9815   6.001   2.820  10.245
   61MYC     C7 9816   5.879   2.937  10.110
   61MYC    H10 9817   5.958   2.919  10.036
   61MYC    H11 9818   5.896   3.038  10.150
   61MYC     C6 9819   5.743   2.930  10.038
   61MYC     H8 9820   5.662   2.945  10.110
   61MYC     H9 9821   5.730   2.829   9.998
   61MYC     C5 9822   5.728   3.034   9.924
   61MYC     H6 9823   5.822   3.043   9.869
   61MYC     H7 9824   5.710   3.132   9.970
   61MYC     C4 9825   5.614   3.003   9.824
   61MYC     H4 9826   5.574   3.098   9.787
   61MYC     H5 9827   5.531   2.953   9.876
   61MYC     C2 9828   5.658   2.919   9.701
   61MYC     H2 9829   5.737   2.977   9.651
   61MYC     O3 9830   5.712   2.793   9.742
   61MYC     H3 9831   5.637   2.736   9.766
   61MYC     C1 9832   5.544   2.897   9.597
   61MYC     H1 9833   5.503   2.996   9.571
   61MYC    C81 9834   5.426   2.815   9.654
   61MYC    O82 9835   5.436   2.702   9.699
   61MYC    O83 9836   5.304   2.873   9.635
   61MYC   H105 9837   5.240   2.807   9.668
   61MYC    C20 9838   5.594   2.835   9.463
   61MYC    H34 9839   5.657   2.748   9.484
   61MYC    H35 9840   5.507   2.798   9.408
   61MYC    C21 9841   5.669   2.935   9.372
   61MYC    H36 9842   5.603   3.019   9.349
   61MYC    H37 9843   5.757   2.976   9.424
   61MYC    C22 9844   5.715   2.870   9.239
   61MYC    H38 9845   5.794   2.797   9.260
   61MYC    H39 9846   5.630   2.815   9.196
   61MYC    C23 9847   5.766   2.972   9.135
   61MYC    H40 9848   5.691   3.051   9.121
   61MYC    H41 9849   5.858   3.019   9.170
   61MYC    C24 9850   5.791   2.904   8.998
   61MYC    H42 9851   5.865   2.824   9.011
   61MYC    H43 9852   5.698   2.856   8.967
   61MYC    C25 9853   5.839   2.999   8.886
   61MYC    H44 9854   5.784   3.094   8.891
   61MYC    H45 9855   5.945   3.022   8.900
   61MYC    C26 9856   5.815   2.935   8.748
   61MYC    H46 9857   5.849   2.831   8.751
   61MYC    H47 9858   5.707   2.933   8.729
   61MYC    C27 9859   5.886   3.005   8.630
   61MYC    H48 9860   5.862   3.113   8.631
   61MYC    H49 9861   5.994   2.995   8.642
   61MYC    C28 9862   5.842   2.946   8.495
   61MYC    H50 9863   5.843   2.836   8.501
   61MYC    H51 9864   5.738   2.975   8.476
   61MYC    C29 9865   5.930   2.989   8.376
   61MYC    H52 9866   5.938   3.098   8.374
   61MYC    H53 9867   6.031   2.948   8.390
   61MYC    C30 9868   5.874   2.940   8.241
   61MYC    H54 9869   5.861   2.831   8.244
   61MYC    H55 9870   5.774   2.983   8.227
   61MYC    C31 9871   5.962   2.978   8.121
   61MYC    H56 9872   5.984   3.086   8.125
   61MYC    H57 9873   6.058   2.926   8.129
   61MYC    C32 9874   5.896   2.945   7.987
   61MYC    H58 9875   5.876   2.837   7.981
   61MYC    H59 9876   5.798   2.995   7.982
   61MYC    C33 9877   5.980   2.988   7.865
   61MYC    H60 9878   6.006   3.095   7.875
   61MYC    H61 9879   6.074   2.932   7.864
   61MYC    C34 9880   5.905   2.967   7.732
   61MYC    H62 9881   5.878   2.861   7.722
   61MYC    H63 9882   5.810   3.023   7.736
   61MYC    C35 9883   5.985   3.012   7.608
   61MYC    H64 9884   6.010   3.118   7.618
   61MYC    H65 9885   6.079   2.956   7.604
   61MYC    C36 9886   5.906   2.989   7.478
   61MYC    H66 9887   5.882   2.882   7.470
   61MYC    H67 9888   5.811   3.043   7.484
   61MYC    C37 9889   5.981   3.034   7.351
   61MYC    H68 9890   5.996   3.142   7.354
   61MYC    H69 9891   6.081   2.987   7.349
   61MYC    C38 9892   5.905   2.995   7.223
   61MYC    H70 9893   5.900   2.885   7.217
   61MYC    H71 9894   5.802   3.031   7.230
   61MYC    C39 9895   5.968   3.050   7.094
   61MYC    H72 9896   5.962   3.159   7.095
   61MYC    H73 9897   6.074   3.023   7.090
   61MYC    C40 9898   5.898   2.995   6.968
   61MYC    H74 9899   5.916   2.887   6.961
   61MYC    H75 9900   5.789   3.008   6.978
   61MYC    C41 9901   5.944   3.063   6.837
   61MYC    H76 9902   5.919   3.170   6.842
   61MYC    H77 9903   6.053   3.056   6.829
   61MYC    C42 9904   5.878   3.001   6.712
   61MYC    H78 9905   5.907   2.895   6.705
   61MYC    H79 9906   5.769   3.003   6.723
   61MYC    C43 9907   5.917   3.072   6.581
   61MYC    H80 9908   5.868   3.024   6.496
   61MYC    H81 9909   6.025   3.069   6.566
   61MYC    H82 9910   5.885   3.177   6.584
   62MYC   HH15 9911   0.746   3.576   6.536
   62MYC    C80 9912   0.690   3.550   6.626
   62MYC   H100 9913   0.589   3.592   6.617
   62MYC   H101 9914   0.683   3.441   6.631
   62MYC    C79 9915   0.761   3.605   6.751
   62MYC   H102 9916   0.775   3.714   6.740
   62MYC   H103 9917   0.861   3.561   6.757
   62MYC    C78 9918   0.684   3.576   6.881
   62MYC   HH14 9919   0.664   3.468   6.888
   62MYC   H104 9920   0.586   3.626   6.877
   62MYC    C77 9921   0.759   3.622   7.007
   62MYC   H106 9922   0.780   3.729   7.001
   62MYC   H107 9923   0.856   3.570   7.012
   62MYC    C76 9924   0.680   3.593   7.137
   62MYC   H108 9925   0.654   3.486   7.140
   62MYC   H109 9926   0.586   3.649   7.135
   62MYC    C75 9927   0.759   3.629   7.264
   62MYC   H110 9928   0.787   3.735   7.261
   62MYC   H111 9929   0.853   3.572   7.266
   62MYC    C74 9930   0.680   3.602   7.393
   62MYC   H112 9931   0.650   3.496   7.396
   62MYC   H113 9932   0.587   3.661   7.392
   62MYC    C73 9933   0.760   3.636   7.520
   62MYC   HH13 9934   0.798   3.738   7.512
   62MYC   H114 9935   0.847   3.570   7.526
   62MYC    C72 9936   0.677   3.624   7.649
   62MYC   H115 9937   0.639   3.521   7.659
   62MYC   H116 9938   0.589   3.690   7.642
   62MYC    C71 9939   0.758   3.661   7.774
   62MYC   H117 9940   0.808   3.756   7.758
   62MYC   H118 9941   0.836   3.585   7.790
   62MYC    C70 9942   0.672   3.671   7.901
   62MYC   H119 9943   0.619   3.577   7.918
   62MYC   H120 9944   0.595   3.749   7.887
   62MYC    C69 9945   0.756   3.706   8.025
   62MYC   H121 9946   0.813   3.797   8.006
   62MYC   H122 9947   0.829   3.625   8.041
   62MYC    C68 9948   0.672   3.724   8.153
   62MYC   HH12 9949   0.609   3.636   8.168
   62MYC   H123 9950   0.606   3.810   8.141
   62MYC    C67 9951   0.761   3.744   8.277
   62MYC   H124 9952   0.825   3.833   8.264
   62MYC   H125 9953   0.829   3.658   8.286
   62MYC    C66 9954   0.682   3.758   8.409
   62MYC   H126 9955   0.606   3.680   8.413
   62MYC   H127 9956   0.629   3.855   8.410
   62MYC    C65 9957   0.773   3.747   8.532
   62MYC   H128 9958   0.849   3.827   8.529
   62MYC   H129 9959   0.827   3.652   8.527
   62MYC    C64 9960   0.697   3.754   8.666
   62MYC   H130 9961   0.609   3.689   8.661
   62MYC   H131 9962   0.661   3.856   8.683
   62MYC    C63 9963   0.785   3.708   8.784
   62MYC   HH11 9964   0.874   3.772   8.790
   62MYC   H132 9965   0.821   3.606   8.764
   62MYC    C62 9966   0.711   3.710   8.919
   62MYC   H133 9967   0.616   3.657   8.910
   62MYC   H134 9968   0.689   3.813   8.946
   62MYC    C61 9969   0.794   3.643   9.031
   62MYC   H135 9970   0.894   3.689   9.034
   62MYC   H136 9971   0.809   3.537   9.007
   62MYC    C60 9972   0.728   3.655   9.168
   62MYC   H137 9973   0.631   3.605   9.172
   62MYC    C58 9974   0.811   3.654   9.294
   62MYC   H138 9975   0.919   3.650   9.281
   62MYC    C59 9976   0.742   3.781   9.249
   62MYC   H139 9977   0.656   3.815   9.305
   62MYC   H140 9978   0.805   3.861   9.210
   62MYC    C57 9979   0.766   3.583   9.421
   62MYC   HH10 9980   0.808   3.482   9.424
   62MYC   H141 9981   0.656   3.572   9.422
   62MYC    C56 9982   0.810   3.662   9.545
   62MYC   H142 9983   0.765   3.762   9.541
   62MYC   H143 9984   0.919   3.677   9.541
   62MYC    C55 9985   0.774   3.597   9.680
   62MYC   H144 9986   0.832   3.505   9.694
   62MYC   H145 9987   0.668   3.569   9.680
   62MYC    C54 9988   0.801   3.695   9.796
   62MYC   H146 9989   0.732   3.780   9.786
   62MYC   H147 9990   0.902   3.735   9.785
   62MYC    C53 9991   0.785   3.637   9.938
   62MYC   H148 9992   0.853   3.552   9.950
   62MYC   H149 9993   0.683   3.599   9.952
   62MYC    C52 9994   0.816   3.745  10.043
   62MYC    H99 9995   0.743   3.827  10.033
   62MYC   H150 9996   0.914   3.788  10.022
   62MYC    C51 9997   0.815   3.695  10.189
   62MYC    H97 9998   0.884   3.611  10.199
   62MYC    H98 9999   0.715   3.658  10.214
   62MYC    C5010000   0.856   3.807  10.287
   62MYC    H9510001   0.787   3.892  10.276
   62MYC    H9610002   0.956   3.843  10.260
   62MYC    C4910003   0.856   3.762  10.435
   62MYC    H9310004   0.918   3.672  10.445
   62MYC    H9410005   0.754   3.734  10.463
   62MYC    C4810006   0.911   3.871  10.530
   62MYC    H9110007   0.853   3.964  10.517
   62MYC    H9210008   1.014   3.895  10.501
   62MYC    C4710009   0.909   3.830  10.679
   62MYC    H8910010   0.977   3.895  10.735
   62MYC    H9010011   0.949   3.728  10.687
   62MYC    C4610012   0.769   3.835  10.743
   62MYC    H8710013   0.700   3.776  10.684
   62MYC    H8810014   0.732   3.939  10.740
   62MYC    C4510015   0.766   3.783  10.889
   62MYC    H8510016   0.836   3.839  10.951
   62MYC    H8610017   0.802   3.679  10.888
   62MYC    C4410018   0.625   3.785  10.953
   62MYC    H8310019   0.629   3.725  11.045
   62MYC    H8410020   0.556   3.733  10.886
   62MYC    C1810021   0.572   3.924  10.983
   62MYC    H3110022   0.571   3.990  10.896
   62MYC    C1710023   0.456   3.943  11.079
   62MYC    H3010024   0.421   3.853  11.129
   62MYC    C1910025   0.594   3.989  11.118
   62MYC    H3210026   0.646   3.933  11.195
   62MYC    H3310027   0.611   4.097  11.120
   62MYC    C1610028   0.346   4.045  11.055
   62MYC    H2810029   0.385   4.132  11.002
   62MYC    H2910030   0.309   4.081  11.152
   62MYC    C1510031   0.225   3.989  10.977
   62MYC    H2610032   0.147   4.065  10.974
   62MYC    H2710033   0.184   3.903  11.031
   62MYC    C1410034   0.260   3.946  10.833
   62MYC    H2410035   0.332   3.863  10.835
   62MYC    H2510036   0.309   4.029  10.781
   62MYC    C1310037   0.136   3.903  10.752
   62MYC    H2210038   0.068   3.989  10.742
   62MYC    H2310039   0.083   3.825  10.808
   62MYC    C1210040   0.172   3.850  10.612
   62MYC    H2010041   0.242   3.766  10.622
   62MYC    H2110042   0.225   3.928  10.556
   62MYC    C1110043   0.048   3.805  10.533
   62MYC    H1810044   6.438   3.893  10.506
   62MYC    H1910045   6.437   3.743  10.598
   62MYC    C1010046   0.079   3.723  10.407
   62MYC    H1610047   6.434   3.686  10.366
   62MYC    H1710048   0.138   3.634  10.434
   62MYC     C910049   0.154   3.802  10.299
   62MYC    H1410050   0.253   3.831  10.336
   62MYC    H1510051   0.098   3.895  10.279
   62MYC     C810052   0.169   3.723  10.169
   62MYC    H1210053   0.069   3.694  10.133
   62MYC    H1310054   0.225   3.631  10.187
   62MYC     C710055   0.240   3.806  10.061
   62MYC    H1010056   0.345   3.821  10.090
   62MYC    H1110057   0.193   3.905  10.058
   62MYC     C610058   0.234   3.740   9.922
   62MYC     H810059   0.130   3.718   9.896
   62MYC     H910060   0.286   3.644   9.927
   62MYC     C510061   0.297   3.827   9.812
   62MYC     H610062   0.301   3.768   9.719
   62MYC     H710063   0.401   3.849   9.839
   62MYC     C410064   0.220   3.960   9.788
   62MYC     H410065   0.286   4.044   9.810
   62MYC     H510066   0.137   3.969   9.859
   62MYC     C210067   0.162   3.974   9.646
   62MYC     H210068   0.245   3.956   9.576
   62MYC     O310069   0.061   3.874   9.627
   62MYC     H310070   6.438   3.895   9.688
   62MYC     C110071   0.104   4.116   9.617
   62MYC     H110072   0.188   4.187   9.618
   62MYC    C8110073   0.006   4.162   9.727
   62MYC    O8210074   6.361   4.096   9.766
   62MYC    O8310075   0.032   4.285   9.777
   62MYC   H10510076   6.412   4.301   9.843
   62MYC    C2010077   0.040   4.130   9.477
   62MYC    H3410078   6.405   4.060   9.467
   62MYC    H3510079   6.447   4.230   9.466
   62MYC    C2110080   0.140   4.106   9.362
   62MYC    H3610081   0.219   4.182   9.367
   62MYC    H3710082   0.189   4.009   9.375
   62MYC    C2210083   0.077   4.107   9.222
   62MYC    H3810084   6.444   4.035   9.219
   62MYC    H3910085   0.033   4.206   9.202
   62MYC    C2310086   0.180   4.071   9.114
   62MYC    H4010087   0.268   4.135   9.125
   62MYC    H4110088   0.213   3.967   9.130
   62MYC    C2410089   0.125   4.085   8.971
   62MYC    H4210090   0.028   4.035   8.964
   62MYC    H4310091   0.108   4.191   8.950
   62MYC    C2510092   0.220   4.026   8.866
   62MYC    H4410093   0.321   4.066   8.880
   62MYC    H4510094   0.226   3.917   8.880
   62MYC    C2610095   0.174   4.056   8.723
   62MYC    H4610096   0.067   4.031   8.713
   62MYC    H4710097   0.183   4.164   8.705
   62MYC    C2710098   0.252   3.980   8.615
   62MYC    H4810099   0.360   3.996   8.628
   62MYC    H4910100   0.234   3.872   8.627
   62MYC    C2810101   0.211   4.024   8.474
   62MYC    H5010102   0.101   4.024   8.467
   62MYC    H5110103   0.244   4.128   8.458
   62MYC    C2910104   0.267   3.935   8.362
   62MYC    H5210105   0.376   3.926   8.371
   62MYC    H5310106   0.225   3.834   8.372
   62MYC    C3010107   0.232   3.990   8.222
   62MYC    H5410108   0.125   4.014   8.219
   62MYC    H5510109   0.285   4.085   8.207
   62MYC    C3110110   0.264   3.894   8.107
   62MYC    H5610111   0.369   3.863   8.113
   62MYC    H5710112   0.202   3.804   8.118
   62MYC    C3210113   0.238   3.958   7.970
   62MYC    H5810114   0.135   3.995   7.967
   62MYC    H5910115   0.303   4.045   7.958
   62MYC    C3310116   0.259   3.862   7.852
   62MYC    H6010117   0.361   3.821   7.857
   62MYC    H6110118   0.189   3.779   7.860
   62MYC    C3410119   0.239   3.933   7.717
   62MYC    H6210120   0.138   3.975   7.713
   62MYC    H6310121   0.309   4.018   7.710
   62MYC    C3510122   0.260   3.841   7.595
   62MYC    H6410123   0.360   3.795   7.601
   62MYC    H6510124   0.187   3.760   7.599
   62MYC    C3610125   0.247   3.917   7.462
   62MYC    H6610126   0.147   3.962   7.456
   62MYC    H6710127   0.319   4.000   7.461
   62MYC    C3710128   0.270   3.828   7.339
   62MYC    H6810129   0.369   3.781   7.346
   62MYC    H6910130   0.196   3.748   7.337
   62MYC    C3810131   0.262   3.908   7.207
   62MYC    H7010132   0.163   3.953   7.198
   62MYC    H7110133   0.335   3.990   7.210
   62MYC    C3910134   0.290   3.822   7.082
   62MYC    H7210135   0.389   3.776   7.091
   62MYC    H7310136   0.217   3.740   7.079
   62MYC    C4010137   0.283   3.902   6.951
   62MYC    H7410138   0.182   3.945   6.940
   62MYC    H7510139   0.353   3.986   6.957
   62MYC    C4110140   0.316   3.817   6.827
   62MYC    H7610141   0.418   3.778   6.836
   62MYC    H7710142   0.248   3.731   6.823
   62MYC    C4210143   0.304   3.896   6.694
   62MYC    H7810144   0.201   3.932   6.683
   62MYC    H7910145   0.368   3.985   6.699
   62MYC    C4310146   0.343   3.813   6.571
   62MYC    H8010147   0.328   3.871   6.479
   62MYC    H8110148   0.281   3.722   6.564
   62MYC    H8210149   0.448   3.783   6.576
   63MYC   HH1510150   1.270   4.260   6.592
   63MYC    C8010151   1.241   4.190   6.671
   63MYC   H10010152   1.151   4.137   6.638
   63MYC   H10110153   1.322   4.118   6.686
   63MYC    C7910154   1.212   4.266   6.802
   63MYC   H10210155   1.128   4.335   6.786
   63MYC   H10310156   1.299   4.328   6.828
   63MYC    C7810157   1.181   4.172   6.920
   63MYC   HH1410158   1.267   4.108   6.938
   63MYC   H10410159   1.097   4.107   6.894
   63MYC    C7710160   1.146   4.248   7.050
   63MYC   H10610161   1.050   4.300   7.037
   63MYC   H10710162   1.222   4.325   7.069
   63MYC    C7610163   1.138   4.155   7.172
   63MYC   H10810164   1.235   4.105   7.185
   63MYC   H10910165   1.064   4.076   7.154
   63MYC    C7510166   1.103   4.229   7.303
   63MYC   H11010167   1.000   4.267   7.297
   63MYC   H11110168   1.169   4.315   7.314
   63MYC    C7410169   1.118   4.138   7.426
   63MYC   H11210170   1.222   4.105   7.433
   63MYC   H11310171   1.057   4.047   7.413
   63MYC    C7310172   1.078   4.207   7.558
   63MYC   HH1310173   0.969   4.218   7.561
   63MYC   H11410174   1.121   4.308   7.561
   63MYC    C7210175   1.125   4.128   7.681
   63MYC   H11510176   1.235   4.123   7.679
   63MYC   H11610177   1.088   4.025   7.675
   63MYC    C7110178   1.079   4.189   7.814
   63MYC   H11710179   0.971   4.176   7.824
   63MYC   H11810180   1.099   4.297   7.814
   63MYC    C7010181   1.150   4.126   7.935
   63MYC   H11910182   1.258   4.149   7.930
   63MYC   H12010183   1.141   4.017   7.930
   63MYC    C6910184   1.093   4.175   8.068
   63MYC   H12110185   0.989   4.143   8.076
   63MYC   H12210186   1.094   4.285   8.070
   63MYC    C6810187   1.171   4.122   8.191
   63MYC   HH1210188   1.274   4.161   8.188
   63MYC   H12310189   1.177   4.013   8.187
   63MYC    C6710190   1.103   4.165   8.322
   63MYC   H12410191   1.004   4.117   8.328
   63MYC   H12510192   1.086   4.273   8.319
   63MYC    C6610193   1.184   4.130   8.448
   63MYC   H12610194   1.283   4.176   8.441
   63MYC   H12710195   1.198   4.021   8.455
   63MYC    C6510196   1.112   4.181   8.574
   63MYC   H12810197   1.020   4.123   8.588
   63MYC   H12910198   1.081   4.285   8.557
   63MYC    C6410199   1.197   4.175   8.701
   63MYC   H13010200   1.292   4.227   8.684
   63MYC   H13110201   1.220   4.071   8.726
   63MYC    C6310202   1.123   4.242   8.818
   63MYC   HH1110203   1.033   4.183   8.841
   63MYC   H13210204   1.090   4.342   8.788
   63MYC    C6210205   1.208   4.256   8.946
   63MYC   H13310206   1.296   4.318   8.925
   63MYC   H13410207   1.244   4.157   8.976
   63MYC    C6110208   1.126   4.318   9.060
   63MYC   H13510209   1.039   4.254   9.079
   63MYC   H13610210   1.086   4.415   9.027
   63MYC    C6010211   1.205   4.338   9.188
   63MYC   H13710212   1.262   4.430   9.188
   63MYC    C5810213   1.144   4.293   9.319
   63MYC   H13810214   1.051   4.237   9.312
   63MYC    C5910215   1.266   4.223   9.265
   63MYC   H13910216   1.361   4.240   9.315
   63MYC   H14010217   1.253   4.122   9.225
   63MYC    C5710218   1.149   4.380   9.443
   63MYC   HH1010219   1.063   4.448   9.442
   63MYC   H14110220   1.239   4.443   9.443
   63MYC    C5610221   1.145   4.296   9.571
   63MYC   H14210222   1.240   4.243   9.581
   63MYC   H14310223   1.066   4.220   9.562
   63MYC    C5510224   1.118   4.379   9.698
   63MYC   H14410225   1.017   4.420   9.694
   63MYC   H14510226   1.186   4.465   9.702
   63MYC    C5410227   1.134   4.293   9.825
   63MYC   H14610228   1.237   4.256   9.830
   63MYC   H14710229   1.070   4.205   9.817
   63MYC    C5310230   1.102   4.368   9.956
   63MYC   H14810231   1.000   4.409   9.951
   63MYC   H14910232   1.171   4.452   9.969
   63MYC    C5210233   1.111   4.273  10.077
   63MYC    H9910234   1.209   4.223  10.074
   63MYC   H15010235   1.035   4.194  10.067
   63MYC    C5110236   1.096   4.342  10.214
   63MYC    H9710237   1.000   4.394  10.219
   63MYC    H9810238   1.175   4.418  10.224
   63MYC    C5010239   1.107   4.241  10.330
   63MYC    H9510240   1.186   4.169  10.307
   63MYC    H9610241   1.013   4.183  10.337
   63MYC    C4910242   1.139   4.305  10.466
   63MYC    H9310243   1.058   4.373  10.496
   63MYC    H9410244   1.229   4.367  10.454
   63MYC    C4810245   1.164   4.200  10.577
   63MYC    H9110246   1.225   4.119  10.536
   63MYC    H9210247   1.068   4.155  10.607
   63MYC    C4710248   1.236   4.259  10.700
   63MYC    H8910249   1.172   4.335  10.747
   63MYC    H9010250   1.327   4.309  10.666
   63MYC    C4610251   1.275   4.152  10.804
   63MYC    H8710252   1.335   4.074  10.755
   63MYC    H8810253   1.185   4.103  10.842
   63MYC    C4510254   1.357   4.210  10.921
   63MYC    H8510255   1.296   4.283  10.976
   63MYC    H8610256   1.443   4.266  10.881
   63MYC    C4410257   1.411   4.105  11.020
   63MYC    H8310258   1.468   4.157  11.098
   63MYC    H8410259   1.483   4.041  10.968
   63MYC    C1810260   1.302   4.021  11.087
   63MYC    H3110261   1.204   4.067  11.083
   63MYC    C1710262   1.310   3.869  11.083
   63MYC    H3010263   1.399   3.826  11.038
   63MYC    C1910264   1.333   3.944  11.213
   63MYC    H3210265   1.434   3.949  11.251
   63MYC    H3310266   1.255   3.941  11.289
   63MYC    C1610267   1.185   3.782  11.065
   63MYC    H2810268   1.110   3.837  11.007
   63MYC    H2910269   1.140   3.761  11.163
   63MYC    C1510270   1.215   3.648  10.995
   63MYC    H2610271   1.131   3.579  11.011
   63MYC    H2710272   1.302   3.601  11.042
   63MYC    C1410273   1.239   3.663  10.843
   63MYC    H2410274   1.310   3.745  10.826
   63MYC    H2510275   1.144   3.692  10.795
   63MYC    C1310276   1.292   3.535  10.776
   63MYC    H2210277   1.218   3.455  10.785
   63MYC    H2310278   1.382   3.502  10.829
   63MYC    C1210279   1.327   3.558  10.627
   63MYC    H2010280   1.392   3.646  10.619
   63MYC    H2110281   1.235   3.581  10.571
   63MYC    C1110282   1.399   3.437  10.563
   63MYC    H1810283   1.330   3.352  10.557
   63MYC    H1910284   1.481   3.407  10.629
   63MYC    C1010285   1.459   3.466  10.423
   63MYC    H1610286   1.518   3.378  10.394
   63MYC    H1710287   1.530   3.549  10.431
   63MYC     C910288   1.356   3.494  10.312
   63MYC    H1410289   1.255   3.466  10.345
   63MYC    H1510290   1.380   3.428  10.228
   63MYC     C810291   1.354   3.641  10.262
   63MYC    H1210292   1.455   3.670  10.230
   63MYC    H1310293   1.329   3.707  10.346
   63MYC     C710294   1.255   3.669  10.146
   63MYC    H1010295   1.253   3.777  10.127
   63MYC    H1110296   1.154   3.641  10.178
   63MYC     C610297   1.290   3.596  10.014
   63MYC     H810298   1.292   3.488  10.032
   63MYC     H910299   1.391   3.625   9.983
   63MYC     C510300   1.189   3.622   9.899
   63MYC     H610301   1.190   3.729   9.872
   63MYC     H710302   1.089   3.600   9.936
   63MYC     C410303   1.213   3.536   9.771
   63MYC     H410304   1.117   3.522   9.722
   63MYC     H510305   1.246   3.436   9.803
   63MYC     C210306   1.312   3.594   9.666
   63MYC     H210307   1.264   3.682   9.622
   63MYC     O310308   1.433   3.636   9.729
   63MYC     H310309   1.482   3.556   9.756
   63MYC     C110310   1.345   3.494   9.550
   63MYC     H110311   1.250   3.464   9.503
   63MYC    C8110312   1.413   3.365   9.602
   63MYC    O8210313   1.515   3.363   9.668
   63MYC    O8310314   1.359   3.250   9.553
   63MYC   H10510315   1.414   3.179   9.591
   63MYC    C2010316   1.433   3.557   9.437
   63MYC    H3410317   1.516   3.612   9.483
   63MYC    H3510318   1.481   3.476   9.380
   63MYC    C2110319   1.359   3.650   9.337
   63MYC    H3610320   1.272   3.696   9.385
   63MYC    H3710321   1.427   3.732   9.312
   63MYC    C2210322   1.316   3.580   9.206
   63MYC    H3810323   1.402   3.524   9.166
   63MYC    H3910324   1.238   3.506   9.227
   63MYC    C2310325   1.267   3.678   9.096
   63MYC    H4010326   1.175   3.727   9.129
   63MYC    H4110327   1.343   3.756   9.083
   63MYC    C2410328   1.243   3.609   8.960
   63MYC    H4210329   1.329   3.546   8.936
   63MYC    H4310330   1.156   3.541   8.969
   63MYC    C2510331   1.219   3.707   8.843
   63MYC    H4410332   1.131   3.769   8.863
   63MYC    H4510333   1.306   3.775   8.836
   63MYC    C2610334   1.201   3.635   8.707
   63MYC    H4610335   1.285   3.565   8.693
   63MYC    H4710336   1.110   3.575   8.711
   63MYC    C2710337   1.195   3.730   8.585
   63MYC    H4810338   1.109   3.797   8.595
   63MYC    H4910339   1.285   3.792   8.584
   63MYC    C2810340   1.185   3.653   8.451
   63MYC    H5010341   1.268   3.581   8.445
   63MYC    H5110342   1.092   3.593   8.451
   63MYC    C2910343   1.187   3.743   8.326
   63MYC    H5210344   1.099   3.808   8.326
   63MYC    H5310345   1.276   3.808   8.330
   63MYC    C3010346   1.192   3.662   8.194
   63MYC    H5410347   1.280   3.596   8.196
   63MYC    H5510348   1.103   3.597   8.189
   63MYC    C3110349   1.196   3.750   8.068
   63MYC    H5610350   1.104   3.809   8.063
   63MYC    H5710351   1.280   3.821   8.076
   63MYC    C3210352   1.213   3.669   7.937
   63MYC    H5810353   1.308   3.615   7.940
   63MYC    H5910354   1.133   3.593   7.932
   63MYC    C3310355   1.207   3.757   7.811
   63MYC    H6010356   1.110   3.809   7.809
   63MYC    H6110357   1.284   3.834   7.816
   63MYC    C3410358   1.222   3.678   7.680
   63MYC    H6210359   1.324   3.637   7.674
   63MYC    H6310360   1.154   3.592   7.682
   63MYC    C3510361   1.192   3.762   7.554
   63MYC    H6410362   1.093   3.807   7.565
   63MYC    H6510363   1.264   3.845   7.548
   63MYC    C3610364   1.196   3.682   7.423
   63MYC    H6610365   1.297   3.640   7.409
   63MYC    H6710366   1.127   3.597   7.430
   63MYC    C3710367   1.159   3.768   7.300
   63MYC    H6810368   1.059   3.810   7.315
   63MYC    H6910369   1.228   3.853   7.295
   63MYC    C3810370   1.162   3.692   7.166
   63MYC    H7010371   1.261   3.647   7.152
   63MYC    H7110372   1.089   3.610   7.169
   63MYC    C3910373   1.130   3.784   7.046
   63MYC    H7210374   1.030   3.827   7.059
   63MYC    H7310375   1.201   3.868   7.047
   63MYC    C4010376   1.139   3.713   6.910
   63MYC    H7410377   1.237   3.666   6.899
   63MYC    H7510378   1.064   3.633   6.905
   63MYC    C4110379   1.116   3.810   6.792
   63MYC    H7610380   1.017   3.857   6.801
   63MYC    H7710381   1.190   3.891   6.797
   63MYC    C4210382   1.127   3.743   6.653
   63MYC    H7810383   1.224   3.693   6.645
   63MYC    H7910384   1.050   3.665   6.644
   63MYC    C4310385   1.112   3.842   6.537
   63MYC    H8010386   1.122   3.791   6.441
   63MYC    H8110387   1.191   3.919   6.541
   63MYC    H8210388   1.015   3.892   6.540
   64MYC   HH1510389   1.587   3.893   6.656
   64MYC    C8010390   1.621   3.944   6.748
   64MYC   H10010391   1.730   3.950   6.744
   64MYC   H10110392   1.580   4.045   6.748
   64MYC    C7910393   1.575   3.866   6.873
   64MYC   H10210394   1.615   3.764   6.868
   64MYC   H10310395   1.466   3.858   6.872
   64MYC    C7810396   1.621   3.932   7.004
   64MYC   HH1410397   1.580   4.034   7.009
   64MYC   H10410398   1.731   3.942   7.002
   64MYC    C7710399   1.580   3.855   7.131
   64MYC   H10610400   1.622   3.753   7.127
   64MYC   H10710401   1.471   3.845   7.134
   64MYC    C7610402   1.629   3.925   7.259
   64MYC   H10810403   1.584   4.025   7.265
   64MYC   H10910404   1.738   3.940   7.252
   64MYC    C7510405   1.598   3.848   7.389
   64MYC   H11010406   1.647   3.750   7.387
   64MYC   H11110407   1.490   3.830   7.396
   64MYC    C7410408   1.645   3.926   7.513
   64MYC   H11210409   1.592   4.022   7.517
   64MYC   H11310410   1.752   3.949   7.503
   64MYC    C7310411   1.623   3.852   7.647
   64MYC   HH1310412   1.686   3.761   7.649
   64MYC   H11410413   1.519   3.820   7.654
   64MYC    C7210414   1.657   3.941   7.767
   64MYC   H11510415   1.594   4.031   7.764
   64MYC   H11610416   1.761   3.976   7.759
   64MYC    C7110417   1.638   3.871   7.903
   64MYC   H11710418   1.712   3.791   7.913
   64MYC   H11810419   1.539   3.825   7.906
   64MYC    C7010420   1.652   3.969   8.021
   64MYC   H11910421   1.579   4.051   8.009
   64MYC   H12010422   1.752   4.015   8.019
   64MYC    C6910423   1.629   3.902   8.157
   64MYC   H12110424   1.705   3.823   8.171
   64MYC   H12210425   1.531   3.853   8.158
   64MYC    C6810426   1.637   4.001   8.275
   64MYC   HH1210427   1.563   4.081   8.261
   64MYC   H12310428   1.736   4.049   8.276
   64MYC    C6710429   1.611   3.932   8.410
   64MYC   H12410430   1.678   3.845   8.418
   64MYC   H12510431   1.509   3.894   8.412
   64MYC    C6610432   1.634   4.024   8.531
   64MYC   H12610433   1.568   4.111   8.525
   64MYC   H12710434   1.737   4.061   8.529
   64MYC    C6510435   1.609   3.950   8.663
   64MYC   H12810436   1.662   3.854   8.661
   64MYC   H12910437   1.502   3.927   8.672
   64MYC    C6410438   1.655   4.028   8.787
   64MYC   H13010439   1.600   4.123   8.794
   64MYC   H13110440   1.761   4.052   8.778
   64MYC    C6310441   1.632   3.946   8.916
   64MYC   HH1110442   1.682   3.849   8.905
   64MYC   H13210443   1.525   3.925   8.926
   64MYC    C6210444   1.683   4.015   9.043
   64MYC   H13310445   1.630   4.111   9.056
   64MYC   H13410446   1.790   4.038   9.032
   64MYC    C6110447   1.662   3.926   9.166
   64MYC   H13510448   1.719   3.834   9.154
   64MYC   H13610449   1.557   3.897   9.172
   64MYC    C6010450   1.701   3.994   9.296
   64MYC   H13710451   1.641   4.082   9.317
   64MYC    C5810452   1.739   3.909   9.414
   64MYC   H13810453   1.748   3.802   9.396
   64MYC    C5910454   1.843   3.997   9.348
   64MYC   H13910455   1.875   4.086   9.402
   64MYC   H14010456   1.920   3.949   9.289
   64MYC    C5710457   1.678   3.940   9.549
   64MYC   HH1010458   1.574   3.907   9.551
   64MYC   H14110459   1.677   4.048   9.566
   64MYC    C5610460   1.753   3.873   9.665
   64MYC   H14210461   1.860   3.898   9.659
   64MYC   H14310462   1.746   3.764   9.656
   64MYC    C5510463   1.698   3.917   9.802
   64MYC   H14410464   1.592   3.890   9.808
   64MYC   H14510465   1.703   4.027   9.808
   64MYC    C5410466   1.773   3.857   9.921
   64MYC   H14610467   1.880   3.878   9.911
   64MYC   H14710468   1.761   3.748   9.921
   64MYC    C5310469   1.722   3.915  10.054
   64MYC   H14810470   1.617   3.885  10.069
   64MYC   H14910471   1.723   4.024  10.049
   64MYC    C5210472   1.804   3.871  10.176
   64MYC    H9910473   1.908   3.903  10.163
   64MYC   H15010474   1.805   3.762  10.184
   64MYC    C5110475   1.748   3.930  10.307
   64MYC    H9710476   1.649   3.888  10.325
   64MYC    H9810477   1.736   4.039  10.294
   64MYC    C5010478   1.838   3.905  10.430
   64MYC    H9510479   1.933   3.958  10.415
   64MYC    H9610480   1.861   3.798  10.438
   64MYC    C4910481   1.770   3.954  10.559
   64MYC    H9310482   1.688   3.885  10.583
   64MYC    H9410483   1.727   4.053  10.542
   64MYC    C4810484   1.865   3.961  10.680
   64MYC    H9110485   1.946   4.031  10.658
   64MYC    H9210486   1.910   3.863  10.698
   64MYC    C4710487   1.790   4.008  10.807
   64MYC    H8910488   1.714   3.934  10.834
   64MYC    H9010489   1.738   4.102  10.785
   64MYC    C4610490   1.884   4.030  10.926
   64MYC    H8710491   1.960   4.104  10.898
   64MYC    H8810492   1.937   3.936  10.947
   64MYC    C4510493   1.811   4.080  11.052
   64MYC    H8510494   1.741   4.003  11.085
   64MYC    H8610495   1.752   4.168  11.028
   64MYC    C4410496   1.906   4.115  11.169
   64MYC    H8310497   1.844   4.140  11.257
   64MYC    H8410498   1.960   4.207  11.143
   64MYC    C1810499   2.005   4.005  11.206
   64MYC    H3110500   1.965   3.905  11.189
   64MYC    C1710501   2.154   4.026  11.188
   64MYC    H3010502   2.188   4.124  11.157
   64MYC    C1910503   2.093   4.018  11.327
   64MYC    H3210504   2.088   4.110  11.384
   64MYC    H3310505   2.112   3.929  11.386
   64MYC    C1610506   2.246   3.913  11.142
   64MYC    H2810507   2.188   3.824  11.116
   64MYC    H2910508   2.309   3.885  11.226
   64MYC    C1510509   2.339   3.950  11.024
   64MYC    H2610510   2.413   3.869  11.011
   64MYC    H2710511   2.397   4.039  11.050
   64MYC    C1410512   2.266   3.973  10.889
   64MYC    H2410513   2.189   4.049  10.904
   64MYC    H2510514   2.215   3.881  10.859
   64MYC    C1310515   2.361   4.019  10.777
   64MYC    H2210516   2.436   3.941  10.758
   64MYC    H2310517   2.416   4.107  10.812
   64MYC    C1210518   2.289   4.056  10.645
   64MYC    H2010519   2.222   4.140  10.667
   64MYC    H2110520   2.224   3.974  10.612
   64MYC    C1110521   2.386   4.098  10.532
   64MYC    H1810522   2.422   4.010  10.477
   64MYC    H1910523   2.474   4.143  10.578
   64MYC    C1010524   2.328   4.199  10.431
   64MYC    H1610525   2.409   4.232  10.365
   64MYC    H1710526   2.296   4.287  10.487
   64MYC     C910527   2.212   4.149  10.342
   64MYC    H1410528   2.133   4.104  10.402
   64MYC    H1510529   2.251   4.071  10.275
   64MYC     C810530   2.154   4.267  10.259
   64MYC    H1210531   2.237   4.324  10.216
   64MYC    H1310532   2.101   4.335  10.326
   64MYC     C710533   2.059   4.228  10.145
   64MYC    H1010534   2.018   4.320  10.103
   64MYC    H1110535   1.974   4.170  10.184
   64MYC     C610536   2.129   4.150  10.032
   64MYC     H810537   2.145   4.047  10.065
   64MYC     H910538   2.227   4.194  10.013
   64MYC     C510539   2.048   4.149   9.901
   64MYC     H610540   2.030   4.252   9.868
   64MYC     H710541   1.950   4.105   9.920
   64MYC     C410542   2.118   4.070   9.789
   64MYC     H410543   2.041   4.024   9.727
   64MYC     H510544   2.173   3.987   9.835
   64MYC     C210545   2.211   4.148   9.691
   64MYC     H210546   2.146   4.179   9.608
   64MYC     O310547   2.265   4.267   9.750
   64MYC     H310548   2.343   4.242   9.803
   64MYC     C110549   2.326   4.058   9.635
   64MYC     H110550   2.284   3.957   9.627
   64MYC    C8110551   2.445   4.050   9.734
   64MYC    O8210552   2.528   4.137   9.748
   64MYC    O8310553   2.438   3.946   9.820
   64MYC   H10510554   2.512   3.959   9.882
   64MYC    C2010555   2.376   4.098   9.494
   64MYC    H3410556   2.424   4.196   9.498
   64MYC    H3510557   2.454   4.026   9.465
   64MYC    C2110558   2.266   4.100   9.386
   64MYC    H3610559   2.196   4.017   9.403
   64MYC    H3710560   2.209   4.193   9.393
   64MYC    C2210561   2.323   4.087   9.243
   64MYC    H3810562   2.401   4.162   9.227
   64MYC    H3910563   2.372   3.989   9.235
   64MYC    C2310564   2.216   4.099   9.133
   64MYC    H4010565   2.121   4.056   9.168
   64MYC    H4110566   2.197   4.206   9.113
   64MYC    C2410567   2.258   4.028   9.003
   64MYC    H4210568   2.359   4.060   8.976
   64MYC    H4310569   2.263   3.920   9.023
   64MYC    C2510570   2.163   4.054   8.885
   64MYC    H4410571   2.060   4.030   8.913
   64MYC    H4510572   2.166   4.161   8.860
   64MYC    C2610573   2.204   3.971   8.762
   64MYC    H4610574   2.309   3.990   8.739
   64MYC    H4710575   2.195   3.864   8.786
   64MYC    C2710576   2.120   4.001   8.636
   64MYC    H4810577   2.014   3.978   8.655
   64MYC    H4910578   2.126   4.109   8.614
   64MYC    C2810579   2.170   3.921   8.515
   64MYC    H5010580   2.276   3.943   8.500
   64MYC    H5110581   2.162   3.814   8.536
   64MYC    C2910582   2.094   3.952   8.384
   64MYC    H5210583   1.988   3.923   8.395
   64MYC    H5310584   2.096   4.060   8.366
   64MYC    C3010585   2.157   3.879   8.264
   64MYC    H5410586   2.263   3.906   8.258
   64MYC    H5510587   2.153   3.770   8.282
   64MYC    C3110588   2.090   3.911   8.130
   64MYC    H5610589   1.985   3.878   8.132
   64MYC    H5710590   2.089   4.020   8.115
   64MYC    C3210591   2.164   3.844   8.012
   64MYC    H5810592   2.269   3.874   8.015
   64MYC    H5910593   2.161   3.735   8.025
   64MYC    C3310594   2.106   3.880   7.874
   64MYC    H6010595   2.002   3.847   7.868
   64MYC    H6110596   2.105   3.990   7.864
   64MYC    C3410597   2.188   3.819   7.759
   64MYC    H6210598   2.292   3.852   7.768
   64MYC    H6310599   2.188   3.710   7.768
   64MYC    C3510600   2.134   3.859   7.620
   64MYC    H6410601   2.032   3.822   7.609
   64MYC    H6510602   2.130   3.968   7.613
   64MYC    C3610603   2.221   3.805   7.504
   64MYC    H6610604   2.323   3.844   7.514
   64MYC    H6710605   2.228   3.695   7.511
   64MYC    C3710606   2.165   3.843   7.366
   64MYC    H6810607   2.065   3.799   7.354
   64MYC    H6910608   2.153   3.952   7.362
   64MYC    C3810609   2.255   3.799   7.249
   64MYC    H7010610   2.354   3.844   7.261
   64MYC    H7110611   2.268   3.690   7.251
   64MYC    C3910612   2.197   3.842   7.112
   64MYC    H7210613   2.100   3.793   7.097
   64MYC    H7310614   2.178   3.950   7.114
   64MYC    C4010615   2.289   3.809   6.993
   64MYC    H7410616   2.387   3.854   7.011
   64MYC    H7510617   2.304   3.700   6.987
   64MYC    C4110618   2.233   3.860   6.859
   64MYC    H7610619   2.139   3.809   6.837
   64MYC    H7710620   2.210   3.967   6.868
   64MYC    C4210621   2.331   3.841   6.741
   64MYC    H7810622   2.426   3.890   6.764
   64MYC    H7910623   2.352   3.734   6.729
   64MYC    C4310624   2.277   3.897   6.608
   64MYC    H8010625   2.352   3.886   6.529
   64MYC    H8110626   2.252   4.003   6.618
   64MYC    H8210627   2.186   3.843   6.577
   65MYC   HH1510628   2.536   3.469   6.668
   65MYC    C8010629   2.589   3.528   6.744
   65MYC   H10010630   2.696   3.508   6.734
   65MYC   H10110631   2.571   3.634   6.724
   65MYC    C7910632   2.540   3.489   6.885
   65MYC   H10210633   2.562   3.383   6.902
   65MYC   H10310634   2.431   3.501   6.890
   65MYC    C7810635   2.606   3.574   6.996
   65MYC   HH1410636   2.578   3.679   6.982
   65MYC   H10410637   2.715   3.567   6.986
   65MYC    C7710638   2.566   3.528   7.137
   65MYC   H10610639   2.595   3.423   7.151
   65MYC   H10710640   2.456   3.532   7.147
   65MYC    C7610641   2.629   3.614   7.248
   65MYC   H10810642   2.593   3.717   7.240
   65MYC   H10910643   2.738   3.617   7.234
   65MYC    C7510644   2.598   3.560   7.389
   65MYC   H11010645   2.636   3.457   7.397
   65MYC   H11110646   2.489   3.555   7.402
   65MYC    C7410647   2.659   3.645   7.502
   65MYC   H11210648   2.618   3.747   7.496
   65MYC   H11310649   2.768   3.653   7.488
   65MYC    C7310650   2.629   3.585   7.640
   65MYC   HH1310651   2.673   3.485   7.646
   65MYC   H11410652   2.521   3.573   7.651
   65MYC    C7210653   2.682   3.671   7.757
   65MYC   H11510654   2.640   3.772   7.750
   65MYC   H11610655   2.791   3.680   7.751
   65MYC    C7110656   2.643   3.609   7.892
   65MYC   H11710657   2.689   3.510   7.902
   65MYC   H11810658   2.534   3.594   7.894
   65MYC    C7010659   2.682   3.696   8.013
   65MYC   H11910660   2.640   3.796   8.001
   65MYC   H12010661   2.791   3.706   8.018
   65MYC    C6910662   2.629   3.634   8.144
   65MYC   H12110663   2.674   3.535   8.157
   65MYC   H12210664   2.521   3.619   8.135
   65MYC    C6810665   2.658   3.720   8.268
   65MYC   HH1210666   2.618   3.821   8.253
   65MYC   H12310667   2.766   3.729   8.282
   65MYC    C6710668   2.594   3.658   8.394
   65MYC   H12410669   2.630   3.555   8.406
   65MYC   H12510670   2.485   3.653   8.380
   65MYC    C6610671   2.625   3.737   8.521
   65MYC   H12610672   2.586   3.840   8.512
   65MYC   H12710673   2.733   3.744   8.534
   65MYC    C6510674   2.563   3.671   8.645
   65MYC   H12810675   2.599   3.567   8.652
   65MYC   H12910676   2.454   3.666   8.634
   65MYC    C6410677   2.598   3.744   8.775
   65MYC   H13010678   2.552   3.844   8.774
   65MYC   H13110679   2.706   3.758   8.782
   65MYC    C6310680   2.550   3.667   8.899
   65MYC   HH1110681   2.601   3.570   8.902
   65MYC   H13210682   2.443   3.647   8.891
   65MYC    C6210683   2.578   3.743   9.030
   65MYC   H13310684   2.514   3.832   9.033
   65MYC   H13410685   2.682   3.777   9.032
   65MYC    C6110686   2.551   3.655   9.153
   65MYC   H13510687   2.627   3.576   9.157
   65MYC   H13610688   2.454   3.605   9.142
   65MYC    C6010689   2.551   3.735   9.281
   65MYC   H13710690   2.459   3.792   9.294
   65MYC    C5810691   2.611   3.675   9.405
   65MYC   H13810692   2.665   3.581   9.394
   65MYC    C5910693   2.676   3.796   9.341
   65MYC   H13910694   2.666   3.892   9.392
   65MYC   H14010695   2.770   3.781   9.289
   65MYC    C5710696   2.533   3.682   9.534
   65MYC   HH1010697   2.464   3.596   9.537
   65MYC   H14110698   2.470   3.772   9.538
   65MYC    C5610699   2.623   3.679   9.658
   65MYC   H14210700   2.664   3.780   9.674
   65MYC   H14310701   2.709   3.613   9.640
   65MYC    C5510702   2.549   3.630   9.782
   65MYC   H14410703   2.524   3.524   9.770
   65MYC   H14510704   2.454   3.684   9.792
   65MYC    C5410705   2.631   3.650   9.910
   65MYC   H14610706   2.648   3.757   9.925
   65MYC   H14710707   2.729   3.603   9.898
   65MYC    C5310708   2.561   3.592  10.034
   65MYC   H14810709   2.559   3.482  10.027
   65MYC   H14910710   2.457   3.626  10.038
   65MYC    C5210711   2.633   3.634  10.162
   65MYC    H9910712   2.621   3.742  10.174
   65MYC   H15010713   2.741   3.615  10.151
   65MYC    C5110714   2.582   3.563  10.288
   65MYC    H9710715   2.601   3.455  10.281
   65MYC    H9810716   2.474   3.577  10.298
   65MYC    C5010717   2.653   3.620  10.411
   65MYC    H9510718   2.624   3.726  10.420
   65MYC    H9610719   2.761   3.619  10.395
   65MYC    C4910720   2.623   3.548  10.543
   65MYC    H9310721   2.668   3.448  10.542
   65MYC    H9410722   2.514   3.535  10.557
   65MYC    C4810723   2.681   3.631  10.659
   65MYC    H9110724   2.633   3.729  10.659
   65MYC    H9210725   2.787   3.649  10.638
   65MYC    C4710726   2.667   3.570  10.799
   65MYC    H8910727   2.718   3.473  10.802
   65MYC    H9010728   2.562   3.554  10.824
   65MYC    C4610729   2.731   3.667  10.900
   65MYC    H8710730   2.664   3.754  10.912
   65MYC    H8810731   2.824   3.706  10.858
   65MYC    C4510732   2.762   3.607  11.038
   65MYC    H8510733   2.826   3.519  11.026
   65MYC    H8610734   2.668   3.573  11.084
   65MYC    C4410735   2.833   3.709  11.128
   65MYC    H8310736   2.822   3.681  11.233
   65MYC    H8410737   2.780   3.805  11.120
   65MYC    C1810738   2.980   3.727  11.096
   65MYC    H3110739   3.002   3.720  10.990
   65MYC    C1710740   3.057   3.832  11.173
   65MYC    H3010741   3.009   3.878  11.258
   65MYC    C1910742   3.092   3.686  11.190
   65MYC    H3210743   3.064   3.638  11.283
   65MYC    H3310744   3.184   3.649  11.145
   65MYC    C1610745   3.143   3.930  11.096
   65MYC    H2810746   3.190   3.879  11.011
   65MYC    H2910747   3.224   3.966  11.161
   65MYC    C1510748   3.066   4.053  11.043
   65MYC    H2610749   3.136   4.122  10.995
   65MYC    H2710750   3.022   4.107  11.128
   65MYC    C1410751   2.954   4.017  10.942
   65MYC    H2410752   2.881   3.952  10.990
   65MYC    H2510753   2.998   3.962  10.858
   65MYC    C1310754   2.876   4.139  10.888
   65MYC    H2210755   2.942   4.198  10.825
   65MYC    H2310756   2.846   4.203  10.972
   65MYC    C1210757   2.748   4.100  10.810
   65MYC    H2010758   2.699   4.191  10.774
   65MYC    H2110759   2.677   4.053  10.880
   65MYC    C1110760   2.769   4.003  10.691
   65MYC    H1810761   2.671   3.987  10.644
   65MYC    H1910762   2.803   3.906  10.727
   65MYC    C1010763   2.868   4.055  10.585
   65MYC    H1610764   2.969   4.057  10.627
   65MYC    H1710765   2.843   4.159  10.561
   65MYC     C910766   2.870   3.970  10.457
   65MYC    H1410767   2.773   3.920  10.442
   65MYC    H1510768   2.945   3.890  10.467
   65MYC     C810769   2.900   4.054  10.331
   65MYC    H1210770   2.989   4.115  10.349
   65MYC    H1310771   2.816   4.123  10.313
   65MYC     C710772   2.921   3.968  10.205
   65MYC    H1010773   2.834   3.904  10.187
   65MYC    H1110774   3.007   3.902  10.224
   65MYC     C610775   2.949   4.055  10.081
   65MYC     H810776   3.020   4.134  10.109
   65MYC     H910777   2.857   4.106  10.049
   65MYC     C510778   3.007   3.973   9.964
   65MYC     H610779   2.926   3.925   9.907
   65MYC     H710780   3.068   3.891  10.004
   65MYC     C410781   3.097   4.054   9.870
   65MYC     H410782   3.168   3.984   9.827
   65MYC     H510783   3.158   4.125   9.929
   65MYC     C210784   3.029   4.128   9.753
   65MYC     H210785   2.972   4.053   9.697
   65MYC     O310786   2.939   4.228   9.802
   65MYC     H310787   2.865   4.234   9.740
   65MYC     C110788   3.136   4.189   9.657
   65MYC     H110789   3.200   4.105   9.628
   65MYC    C8110790   3.230   4.290   9.726
   65MYC    O8210791   3.347   4.266   9.748
   65MYC    O8310792   3.180   4.415   9.740
   65MYC   H10510793   3.251   4.468   9.780
   65MYC    C2010794   3.078   4.245   9.525
   65MYC    H3410795   2.997   4.315   9.546
   65MYC    H3510796   3.157   4.303   9.475
   65MYC    C2110797   3.030   4.136   9.426
   65MYC    H3610798   3.110   4.063   9.410
   65MYC    H3710799   2.944   4.082   9.469
   65MYC    C2210800   2.990   4.196   9.291
   65MYC    H3810801   2.900   4.258   9.303
   65MYC    H3910802   3.070   4.263   9.258
   65MYC    C2310803   2.966   4.091   9.180
   65MYC    H4010804   3.050   4.021   9.178
   65MYC    H4110805   2.876   4.033   9.203
   65MYC    C2410806   2.951   4.159   9.042
   65MYC    H4210807   2.856   4.212   9.038
   65MYC    H4310808   3.031   4.233   9.031
   65MYC    C2510809   2.961   4.061   8.924
   65MYC    H4410810   3.060   4.014   8.927
   65MYC    H4510811   2.885   3.983   8.933
   65MYC    C2610812   2.946   4.133   8.789
   65MYC    H4610813   2.847   4.181   8.784
   65MYC    H4710814   3.020   4.213   8.782
   65MYC    C2710815   2.962   4.039   8.667
   65MYC    H4810816   3.063   3.995   8.669
   65MYC    H4910817   2.890   3.957   8.675
   65MYC    C2810818   2.941   4.113   8.534
   65MYC    H5010819   2.840   4.156   8.533
   65MYC    H5110820   3.011   4.197   8.528
   65MYC    C2910821   2.959   4.023   8.410
   65MYC    H5210822   3.063   3.989   8.405
   65MYC    H5310823   2.896   3.934   8.420
   65MYC    C3010824   2.922   4.098   8.280
   65MYC    H5410825   2.816   4.126   8.284
   65MYC    H5510826   2.979   4.192   8.275
   65MYC    C3110827   2.949   4.017   8.152
   65MYC    H5610828   3.057   3.998   8.143
   65MYC    H5710829   2.899   3.920   8.158
   65MYC    C3210830   2.899   4.092   8.027
   65MYC    H5810831   2.789   4.101   8.033
   65MYC    H5910832   2.939   4.194   8.027
   65MYC    C3310833   2.937   4.024   7.893
   65MYC    H6010834   3.046   4.024   7.883
   65MYC    H6110835   2.904   3.919   7.894
   65MYC    C3410836   2.873   4.097   7.773
   65MYC    H6210837   2.764   4.087   7.780
   65MYC    H6310838   2.895   4.204   7.780
   65MYC    C3510839   2.920   4.045   7.636
   65MYC    H6410840   3.027   4.065   7.625
   65MYC    H6510841   2.907   3.936   7.631
   65MYC    C3610842   2.842   4.112   7.521
   65MYC    H6610843   2.737   4.083   7.528
   65MYC    H6710844   2.847   4.221   7.533
   65MYC    C3710845   2.894   4.076   7.380
   65MYC    H6810846   2.997   4.113   7.368
   65MYC    H6910847   2.898   3.966   7.369
   65MYC    C3810848   2.805   4.135   7.269
   65MYC    H7010849   2.704   4.093   7.279
   65MYC    H7110850   2.795   4.244   7.285
   65MYC    C3910851   2.856   4.111   7.126
   65MYC    H7210852   2.954   4.159   7.114
   65MYC    H7310853   2.871   4.003   7.111
   65MYC    C4010854   2.759   4.165   7.020
   65MYC    H7410855   2.662   4.115   7.032
   65MYC    H7510856   2.743   4.272   7.036
   65MYC    C4110857   2.808   4.143   6.875
   65MYC    H7610858   2.903   4.197   6.861
   65MYC    H7710859   2.828   4.037   6.859
   65MYC    C4210860   2.706   4.192   6.770
   65MYC    H7810861   2.610   4.140   6.786
   65MYC    H7910862   2.686   4.299   6.785
   65MYC    C4310863   2.751   4.169   6.625
   65MYC    H8010864   2.675   4.205   6.556
   65MYC    H8110865   2.768   4.062   6.606
   65MYC    H8210866   2.845   4.222   6.605
   66MYC   HH1510867   3.415   3.971   6.619
   66MYC    C8010868   3.469   3.935   6.707
   66MYC   H10010869   3.471   3.825   6.703
   66MYC   H10110870   3.572   3.971   6.701
   66MYC    C7910871   3.401   3.983   6.836
   66MYC   H10210872   3.298   3.945   6.840
   66MYC   H10310873   3.395   4.093   6.834
   66MYC    C7810874   3.476   3.940   6.963
   66MYC   HH1410875   3.581   3.973   6.956
   66MYC   H10410876   3.477   3.830   6.969
   66MYC    C7710877   3.414   3.996   7.093
   66MYC   H10610878   3.313   3.955   7.106
   66MYC   H10710879   3.404   4.105   7.085
   66MYC    C7610880   3.499   3.963   7.217
   66MYC   H10810881   3.601   4.002   7.203
   66MYC   H10910882   3.508   3.854   7.227
   66MYC    C7510883   3.441   4.020   7.348
   66MYC   H11010884   3.343   3.975   7.366
   66MYC   H11110885   3.426   4.128   7.337
   66MYC    C7410886   3.534   3.995   7.468
   66MYC   H11210887   3.627   4.050   7.455
   66MYC   H11310888   3.560   3.888   7.472
   66MYC    C7310889   3.469   4.035   7.602
   66MYC   HH1310890   3.376   3.978   7.614
   66MYC   H11410891   3.442   4.141   7.600
   66MYC    C7210892   3.561   4.008   7.723
   66MYC   H11510893   3.644   4.080   7.722
   66MYC   H11610894   3.605   3.908   7.714
   66MYC    C7110895   3.484   4.017   7.855
   66MYC   H11710896   3.405   3.942   7.855
   66MYC   H11810897   3.435   4.115   7.863
   66MYC    C7010898   3.573   3.996   7.979
   66MYC   H11910899   3.642   4.081   7.989
   66MYC   H12010900   3.633   3.905   7.968
   66MYC    C6910901   3.487   3.984   8.106
   66MYC   H12110902   3.431   3.890   8.101
   66MYC   H12210903   3.414   4.065   8.107
   66MYC    C6810904   3.568   3.988   8.237
   66MYC   HH1210905   3.619   4.085   8.244
   66MYC   H12310906   3.644   3.910   8.237
   66MYC    C6710907   3.474   3.970   8.357
   66MYC   H12410908   3.435   3.867   8.357
   66MYC   H12510909   3.388   4.036   8.347
   66MYC    C6610910   3.541   3.998   8.492
   66MYC   H12610911   3.577   4.102   8.494
   66MYC   H12710912   3.628   3.933   8.506
   66MYC    C6510913   3.442   3.977   8.608
   66MYC   H12810914   3.410   3.872   8.608
   66MYC   H12910915   3.352   4.037   8.590
   66MYC    C6410916   3.500   4.014   8.745
   66MYC   H13010917   3.525   4.121   8.746
   66MYC   H13110918   3.593   3.958   8.761
   66MYC    C6310919   3.400   3.983   8.857
   66MYC   HH1110920   3.377   3.875   8.856
   66MYC   H13210921   3.306   4.036   8.838
   66MYC    C6210922   3.453   4.021   8.995
   66MYC   H13310923   3.465   4.130   9.001
   66MYC   H13410924   3.552   3.976   9.009
   66MYC    C6110925   3.359   3.973   9.107
   66MYC   H13510926   3.355   3.864   9.106
   66MYC   H13610927   3.258   4.008   9.086
   66MYC    C6010928   3.401   4.023   9.245
   66MYC   H13710929   3.347   4.113   9.275
   66MYC    C5810930   3.436   3.923   9.352
   66MYC   H13810931   3.438   3.818   9.322
   66MYC    C5910932   3.543   4.011   9.295
   66MYC   H13910933   3.580   4.093   9.356
   66MYC   H14010934   3.617   3.964   9.231
   66MYC    C5710935   3.386   3.942   9.493
   66MYC   HH1010936   3.281   3.913   9.497
   66MYC   H14110937   3.391   4.048   9.519
   66MYC    C5610938   3.465   3.862   9.598
   66MYC   H14210939   3.569   3.895   9.600
   66MYC   H14310940   3.464   3.755   9.572
   66MYC    C5510941   3.402   3.880   9.737
   66MYC   H14410942   3.299   3.842   9.731
   66MYC   H14510943   3.396   3.987   9.758
   66MYC    C5410944   3.472   3.809   9.854
   66MYC   H14610945   3.577   3.842   9.858
   66MYC   H14710946   3.471   3.701   9.837
   66MYC    C5310947   3.402   3.842   9.987
   66MYC   H14810948   3.298   3.807   9.982
   66MYC   H14910949   3.398   3.951   9.998
   66MYC    C5210950   3.469   3.783  10.112
   66MYC    H9910951   3.575   3.810  10.112
   66MYC   H15010952   3.463   3.673  10.108
   66MYC    C5110953   3.403   3.833  10.242
   66MYC    H9710954   3.298   3.800  10.245
   66MYC    H9810955   3.401   3.943  10.239
   66MYC    C5010956   3.475   3.789  10.371
   66MYC    H9510957   3.581   3.814  10.363
   66MYC    H9610958   3.467   3.680  10.381
   66MYC    C4910959   3.416   3.856  10.497
   66MYC    H9310960   3.316   3.815  10.516
   66MYC    H9410961   3.404   3.963  10.477
   66MYC    C4810962   3.503   3.840  10.623
   66MYC    H9110963   3.602   3.884  10.603
   66MYC    H9210964   3.520   3.734  10.645
   66MYC    C4710965   3.440   3.909  10.746
   66MYC    H8910966   3.357   3.848  10.783
   66MYC    H9010967   3.397   4.005  10.715
   66MYC    C4610968   3.539   3.938  10.862
   66MYC    H8710969   3.618   4.004  10.826
   66MYC    H8810970   3.586   3.844  10.894
   66MYC    C4510971   3.468   4.004  10.983
   66MYC    H8510972   3.406   3.927  11.030
   66MYC    H8610973   3.400   4.081  10.946
   66MYC    C4410974   3.561   4.066  11.090
   66MYC    H8310975   3.503   4.141  11.145
   66MYC    H8410976   3.642   4.120  11.041
   66MYC    C1810977   3.616   3.963  11.188
   66MYC    H3110978   3.596   3.860  11.158
   66MYC    C1710979   3.747   3.988  11.261
   66MYC    H3010980   3.795   4.084  11.246
   66MYC    C1910981   3.618   3.989  11.337
   66MYC    H3210982   3.582   4.086  11.373
   66MYC    H3310983   3.596   3.905  11.403
   66MYC    C1610984   3.846   3.873  11.273
   66MYC    H2810985   3.792   3.778  11.272
   66MYC    H2910986   3.897   3.877  11.370
   66MYC    C1510987   3.950   3.871  11.159
   66MYC    H2610988   4.010   3.779  11.167
   66MYC    H2710989   4.020   3.955  11.172
   66MYC    C1410990   3.885   3.880  11.020
   66MYC    H2410991   3.850   3.982  11.004
   66MYC    H2510992   3.798   3.814  11.016
   66MYC    C1310993   3.978   3.840  10.904
   66MYC    H2210994   3.997   3.732  10.911
   66MYC    H2310995   4.076   3.890  10.914
   66MYC    C1210996   3.918   3.870  10.766
   66MYC    H2010997   3.812   3.839  10.764
   66MYC    H2110998   3.970   3.805  10.694
   66MYC    C1110999   3.931   4.018  10.723
   66MYC    H1811000   4.037   4.046  10.725
   66MYC    H1911001   3.881   4.082  10.797
   66MYC    C1011002   3.874   4.051  10.583
   66MYC    H1611003   3.906   4.152  10.555
   66MYC    H1711004   3.764   4.053  10.588
   66MYC     C911005   3.919   3.951  10.475
   66MYC    H1411006   3.863   3.857  10.488
   66MYC    H1511007   4.025   3.928  10.489
   66MYC     C811008   3.901   3.998  10.330
   66MYC    H1211009   3.967   4.084  10.312
   66MYC    H1311010   3.798   4.032  10.314
   66MYC     C711011   3.934   3.884  10.232
   66MYC    H1011012   3.852   3.810  10.235
   66MYC    H1111013   4.024   3.832  10.265
   66MYC     C611014   3.956   3.931  10.087
   66MYC     H811015   4.050   3.987  10.082
   66MYC     H911016   3.874   3.998  10.058
   66MYC     C511017   3.961   3.811   9.989
   66MYC     H611018   3.859   3.773   9.977
   66MYC     H711019   4.019   3.731  10.035
   66MYC     C411020   4.022   3.840   9.850
   66MYC     H411021   4.014   3.747   9.793
   66MYC     H511022   4.129   3.862   9.861
   66MYC     C211023   3.953   3.952   9.768
   66MYC     H211024   3.845   3.937   9.776
   66MYC     O311025   3.986   4.081   9.823
   66MYC     H311026   3.960   4.080   9.917
   66MYC     C111027   3.989   3.947   9.617
   66MYC     H111028   3.951   3.851   9.580
   66MYC    C8111029   4.142   3.947   9.591
   66MYC    O8211030   4.203   3.853   9.542
   66MYC    O8311031   4.207   4.062   9.621
   66MYC   H10511032   4.300   4.047   9.597
   66MYC    C2011033   3.916   4.060   9.539
   66MYC    H3411034   3.825   4.087   9.593
   66MYC    H3511035   3.978   4.150   9.536
   66MYC    C2111036   3.872   4.024   9.396
   66MYC    H3611037   3.806   3.937   9.399
   66MYC    H3711038   3.812   4.108   9.359
   66MYC    C2211039   3.985   3.998   9.293
   66MYC    H3811040   4.058   4.079   9.298
   66MYC    H3911041   4.037   3.905   9.317
   66MYC    C2311042   3.925   3.990   9.152
   66MYC    H4011043   3.849   3.911   9.150
   66MYC    H4111044   3.873   4.084   9.130
   66MYC    C2411045   4.026   3.963   9.039
   66MYC    H4211046   4.106   4.039   9.041
   66MYC    H4311047   4.073   3.865   9.054
   66MYC    C2511048   3.955   3.966   8.902
   66MYC    H4411049   3.873   3.894   8.903
   66MYC    H4511050   3.910   4.066   8.889
   66MYC    C2611051   4.045   3.937   8.781
   66MYC    H4611052   4.129   4.009   8.779
   66MYC    H4711053   4.088   3.837   8.790
   66MYC    C2711054   3.966   3.948   8.650
   66MYC    H4811055   3.884   3.874   8.651
   66MYC    H4911056   3.918   4.046   8.644
   66MYC    C2811057   4.050   3.927   8.523
   66MYC    H5011058   4.131   4.001   8.520
   66MYC    H5111059   4.097   3.828   8.525
   66MYC    C2911060   3.964   3.940   8.395
   66MYC    H5211061   3.889   3.861   8.395
   66MYC    H5311062   3.910   4.035   8.398
   66MYC    C3011063   4.046   3.934   8.265
   66MYC    H5411064   4.121   4.014   8.266
   66MYC    H5511065   4.100   3.838   8.261
   66MYC    C3111066   3.957   3.949   8.141
   66MYC    H5611067   3.883   3.868   8.139
   66MYC    H5711068   3.901   4.043   8.147
   66MYC    C3211069   4.037   3.947   8.009
   66MYC    H5811070   4.111   4.027   8.011
   66MYC    H5911071   4.092   3.852   8.002
   66MYC    C3311072   3.946   3.964   7.886
   66MYC    H6011073   3.870   3.885   7.886
   66MYC    H6111074   3.894   4.060   7.892
   66MYC    C3411075   4.025   3.957   7.754
   66MYC    H6211076   4.103   4.033   7.754
   66MYC    H6311077   4.075   3.859   7.747
   66MYC    C3511078   3.935   3.976   7.630
   66MYC    H6411079   3.854   3.902   7.632
   66MYC    H6511080   3.888   4.075   7.634
   66MYC    C3611081   4.013   3.962   7.499
   66MYC    H6611082   4.094   4.036   7.497
   66MYC    H6711083   4.061   3.863   7.497
   66MYC    C3711084   3.925   3.979   7.374
   66MYC    H6811085   3.842   3.907   7.378
   66MYC    H6911086   3.882   4.079   7.373
   66MYC    C3811087   4.005   3.956   7.244
   66MYC    H7011088   4.084   4.032   7.236
   66MYC    H7111089   4.056   3.859   7.251
   66MYC    C3911090   3.918   3.958   7.118
   66MYC    H7211091   3.834   3.889   7.131
   66MYC    H7311092   3.875   4.059   7.105
   66MYC    C4011093   3.997   3.919   6.992
   66MYC    H7411094   4.074   3.994   6.972
   66MYC    H7511095   4.048   3.823   7.011
   66MYC    C4111096   3.907   3.903   6.867
   66MYC    H7611097   3.822   3.839   6.893
   66MYC    H7711098   3.867   4.001   6.839
   66MYC    C4211099   3.982   3.842   6.747
   66MYC    H7811100   4.064   3.908   6.717
   66MYC    H7911101   4.027   3.747   6.778
   66MYC    C4311102   3.890   3.816   6.627
   66MYC    H8011103   3.945   3.764   6.548
   66MYC    H8111104   3.851   3.910   6.587
   66MYC    H8211105   3.805   3.753   6.656
   67MYC   HH1511106   4.175   4.420   6.602
   67MYC    C8011107   4.229   4.377   6.687
   67MYC   H10011108   4.247   4.271   6.666
   67MYC   H10111109   4.326   4.427   6.695
   67MYC    C7911110   4.148   4.394   6.817
   67MYC   H10211111   4.053   4.340   6.807
   67MYC   H10311112   4.124   4.500   6.829
   67MYC    C7811113   4.223   4.344   6.942
   67MYC   HH1411114   4.317   4.399   6.952
   67MYC   H10411115   4.249   4.238   6.930
   67MYC    C7711116   4.139   4.361   7.071
   67MYC   H10611117   4.049   4.298   7.064
   67MYC   H10711118   4.106   4.465   7.078
   67MYC    C7611119   4.217   4.324   7.199
   67MYC   H10811120   4.307   4.387   7.206
   67MYC   H10911121   4.250   4.220   7.194
   67MYC    C7511122   4.132   4.344   7.326
   67MYC   H11011123   4.046   4.277   7.323
   67MYC   H11111124   4.092   4.447   7.328
   67MYC    C7411125   4.211   4.320   7.456
   67MYC   H11211126   4.297   4.388   7.459
   67MYC   H11311127   4.251   4.218   7.456
   67MYC    C7311128   4.125   4.341   7.583
   67MYC   HH1311129   4.042   4.270   7.583
   67MYC   H11411130   4.080   4.442   7.580
   67MYC    C7211131   4.206   4.327   7.713
   67MYC   H11511132   4.287   4.400   7.712
   67MYC   H11611133   4.253   4.227   7.716
   67MYC    C7111134   4.120   4.346   7.839
   67MYC   H11711135   4.045   4.266   7.845
   67MYC   H11811136   4.066   4.441   7.832
   67MYC    C7011137   4.206   4.346   7.968
   67MYC   H11911138   4.276   4.430   7.962
   67MYC   H12011139   4.265   4.254   7.972
   67MYC    C6911140   4.122   4.358   8.096
   67MYC   H12111141   4.060   4.268   8.108
   67MYC   H12211142   4.054   4.444   8.088
   67MYC    C6811143   4.210   4.377   8.221
   67MYC   HH1211144   4.267   4.470   8.211
   67MYC   H12311145   4.284   4.295   8.226
   67MYC    C6711146   4.130   4.381   8.353
   67MYC   H12411147   4.078   4.286   8.366
   67MYC   H12511148   4.054   4.460   8.346
   67MYC    C6611149   4.220   4.408   8.475
   67MYC   H12611150   4.272   4.503   8.461
   67MYC   H12711151   4.297   4.330   8.481
   67MYC    C6511152   4.142   4.413   8.608
   67MYC   H12811153   4.088   4.318   8.621
   67MYC   H12911154   4.067   4.492   8.603
   67MYC    C6411155   4.234   4.436   8.730
   67MYC   H13011156   4.287   4.531   8.717
   67MYC   H13111157   4.310   4.357   8.733
   67MYC    C6311158   4.157   4.438   8.863
   67MYC   HH1111159   4.097   4.347   8.872
   67MYC   H13211160   4.087   4.523   8.864
   67MYC    C6211161   4.250   4.448   8.986
   67MYC   H13311162   4.308   4.541   8.979
   67MYC   H13411163   4.321   4.365   8.983
   67MYC    C6111164   4.174   4.446   9.119
   67MYC   H13511165   4.105   4.360   9.120
   67MYC   H13611166   4.111   4.536   9.127
   67MYC    C6011167   4.266   4.439   9.240
   67MYC   H13711168   4.344   4.515   9.237
   67MYC    C5811169   4.211   4.402   9.375
   67MYC   H13811170   4.107   4.371   9.379
   67MYC    C5911171   4.306   4.308   9.304
   67MYC   H13911172   4.407   4.299   9.342
   67MYC   H14011173   4.265   4.217   9.262
   67MYC    C5711174   4.252   4.480   9.500
   67MYC   HH1011175   4.185   4.566   9.512
   67MYC   H14111176   4.354   4.520   9.489
   67MYC    C5611177   4.246   4.392   9.627
   67MYC   H14211178   4.323   4.315   9.621
   67MYC   H14311179   4.149   4.341   9.629
   67MYC    C5511180   4.263   4.471   9.758
   67MYC   H14411181   4.188   4.552   9.762
   67MYC   H14511182   4.362   4.519   9.760
   67MYC    C5411183   4.246   4.381   9.882
   67MYC   H14611184   4.320   4.299   9.877
   67MYC   H14711185   4.147   4.334   9.879
   67MYC    C5311186   4.262   4.455  10.015
   67MYC   H14811187   4.187   4.535  10.022
   67MYC   H14911188   4.361   4.503  10.019
   67MYC    C5211189   4.248   4.361  10.137
   67MYC    H9911190   4.325   4.284  10.131
   67MYC   H15011191   4.151   4.310  10.131
   67MYC    C5111192   4.258   4.434  10.272
   67MYC    H9711193   4.176   4.506  10.281
   67MYC    H9811194   4.352   4.492  10.275
   67MYC    C5011195   4.256   4.337  10.392
   67MYC    H9511196   4.341   4.268  10.384
   67MYC    H9611197   4.164   4.277  10.389
   67MYC    C4911198   4.264   4.410  10.528
   67MYC    H9311199   4.172   4.469  10.544
   67MYC    H9411200   4.348   4.481  10.526
   67MYC    C4811201   4.284   4.313  10.647
   67MYC    H9111202   4.377   4.257  10.631
   67MYC    H9211203   4.202   4.241  10.651
   67MYC    C4711204   4.293   4.387  10.783
   67MYC    H8911205   4.196   4.431  10.807
   67MYC    H9011206   4.363   4.471  10.773
   67MYC    C4611207   4.340   4.297  10.899
   67MYC    H8711208   4.439   4.258  10.875
   67MYC    H8811209   4.273   4.211  10.909
   67MYC    C4511210   4.346   4.373  11.033
   67MYC    H8511211   4.244   4.391  11.070
   67MYC    H8611212   4.389   4.472  11.015
   67MYC    C4411213   4.430   4.304  11.142
   67MYC    H8311214   4.445   4.375  11.224
   67MYC    H8411215   4.530   4.284  11.101
   67MYC    C1811216   4.371   4.175  11.198
   67MYC    H3111217   4.266   4.160  11.172
   67MYC    C1711218   4.456   4.051  11.218
   67MYC    H3011219   4.562   4.059  11.194
   67MYC    C1911220   4.410   4.131  11.337
   67MYC    H3211221   4.485   4.189  11.390
   67MYC    H3311222   4.333   4.088  11.400
   67MYC    C1611223   4.400   3.910  11.196
   67MYC    H2811224   4.294   3.915  11.167
   67MYC    H2911225   4.404   3.856  11.290
   67MYC    C1511226   4.478   3.829  11.090
   67MYC    H2611227   4.438   3.726  11.090
   67MYC    H2711228   4.583   3.821  11.122
   67MYC    C1411229   4.472   3.886  10.947
   67MYC    H2411230   4.507   3.990  10.948
   67MYC    H2511231   4.368   3.887  10.911
   67MYC    C1311232   4.559   3.805  10.848
   67MYC    H2211233   4.516   3.705  10.835
   67MYC    H2311234   4.658   3.793  10.892
   67MYC    C1211235   4.575   3.872  10.710
   67MYC    H2011236   4.613   3.974  10.723
   67MYC    H2111237   4.477   3.881  10.662
   67MYC    C1111238   4.672   3.794  10.617
   67MYC    H1811239   4.633   3.692  10.600
   67MYC    H1911240   4.768   3.783  10.669
   67MYC    C1011241   4.698   3.863  10.482
   67MYC    H1611242   4.788   3.819  10.438
   67MYC    H1711243   4.720   3.969  10.499
   67MYC     C911244   4.584   3.849  10.379
   67MYC    H1411245   4.488   3.879  10.424
   67MYC    H1511246   4.574   3.744  10.350
   67MYC     C811247   4.608   3.936  10.253
   67MYC    H1211248   4.709   3.917  10.215
   67MYC    H1311249   4.603   4.041  10.281
   67MYC     C711250   4.507   3.909  10.139
   67MYC    H1011251   4.405   3.915  10.178
   67MYC    H1111252   4.522   3.807  10.102
   67MYC     C611253   4.522   4.009  10.022
   67MYC     H811254   4.626   4.013   9.990
   67MYC     H911255   4.497   4.110  10.059
   67MYC     C511256   4.429   3.978   9.901
   67MYC     H611257   4.420   4.069   9.840
   67MYC     H711258   4.329   3.958   9.940
   67MYC     C411259   4.475   3.861   9.811
   67MYC     H411260   4.384   3.817   9.765
   67MYC     H511261   4.520   3.781   9.871
   67MYC     C211262   4.571   3.902   9.696
   67MYC     H211263   4.522   3.984   9.642
   67MYC     O311264   4.694   3.949   9.749
   67MYC     H311265   4.755   3.873   9.757
   67MYC     C111266   4.597   3.787   9.594
   67MYC     H111267   4.499   3.749   9.563
   67MYC    C8111268   4.674   3.669   9.657
   67MYC    O8211269   4.789   3.674   9.696
   67MYC    O8311270   4.602   3.554   9.666
   67MYC   H10511271   4.662   3.489   9.706
   67MYC    C2011272   4.669   3.836   9.465
   67MYC    H3411273   4.761   3.889   9.491
   67MYC    H3511274   4.699   3.747   9.407
   67MYC    C2111275   4.581   3.925   9.374
   67MYC    H3611276   4.488   3.871   9.352
   67MYC    H3711277   4.553   4.017   9.426
   67MYC    C2211278   4.650   3.962   9.242
   67MYC    H3811279   4.733   4.031   9.262
   67MYC    H3911280   4.694   3.872   9.198
   67MYC    C2311281   4.554   4.026   9.139
   67MYC    H4011282   4.468   3.959   9.126
   67MYC    H4111283   4.516   4.121   9.177
   67MYC    C2411284   4.621   4.047   9.002
   67MYC    H4211285   4.695   4.128   9.009
   67MYC    H4311286   4.677   3.956   8.975
   67MYC    C2511287   4.521   4.078   8.888
   67MYC    H4411288   4.438   4.005   8.893
   67MYC    H4511289   4.477   4.177   8.902
   67MYC    C2611290   4.587   4.068   8.749
   67MYC    H4611291   4.664   4.144   8.740
   67MYC    H4711292   4.638   3.971   8.741
   67MYC    C2711293   4.487   4.080   8.632
   67MYC    H4811294   4.404   4.009   8.648
   67MYC    H4911295   4.443   4.180   8.631
   67MYC    C2811296   4.553   4.050   8.497
   67MYC    H5011297   4.629   4.126   8.476
   67MYC    H5111298   4.605   3.954   8.503
   67MYC    C2911299   4.453   4.043   8.380
   67MYC    H5211300   4.376   3.968   8.402
   67MYC    H5311301   4.402   4.139   8.369
   67MYC    C3011302   4.523   4.007   8.247
   67MYC    H5411303   4.595   4.086   8.222
   67MYC    H5511304   4.579   3.914   8.260
   67MYC    C3111305   4.425   3.990   8.129
   67MYC    H5611306   4.353   3.910   8.152
   67MYC    H5711307   4.368   4.082   8.115
   67MYC    C3211308   4.499   3.955   7.998
   67MYC    H5811309   4.573   4.034   7.978
   67MYC    H5911310   4.555   3.862   8.012
   67MYC    C3311311   4.406   3.941   7.876
   67MYC    H6011312   4.337   3.858   7.893
   67MYC    H6111313   4.346   4.032   7.866
   67MYC    C3411314   4.485   3.918   7.746
   67MYC    H6211315   4.556   4.001   7.733
   67MYC    H6311316   4.545   3.826   7.755
   67MYC    C3511317   4.396   3.909   7.621
   67MYC    H6411318   4.330   3.821   7.630
   67MYC    H6511319   4.331   3.997   7.617
   67MYC    C3611320   4.478   3.900   7.491
   67MYC    H6611321   4.543   3.988   7.485
   67MYC    H6711322   4.543   3.812   7.494
   67MYC    C3711323   4.390   3.894   7.364
   67MYC    H6811324   4.330   3.802   7.366
   67MYC    H6911325   4.320   3.978   7.365
   67MYC    C3811326   4.473   3.899   7.234
   67MYC    H7011327   4.534   3.990   7.235
   67MYC    H7111328   4.542   3.814   7.232
   67MYC    C3911329   4.386   3.898   7.107
   67MYC    H7211330   4.332   3.803   7.100
   67MYC    H7311331   4.310   3.978   7.115
   67MYC    C4011332   4.468   3.921   6.978
   67MYC    H7411333   4.525   4.014   6.988
   67MYC    H7511334   4.541   3.840   6.967
   67MYC    C4111335   4.380   3.928   6.852
   67MYC    H7611336   4.331   3.831   6.835
   67MYC    H7711337   4.300   4.002   6.868
   67MYC    C4211338   4.460   3.968   6.726
   67MYC    H7811339   4.507   4.065   6.742
   67MYC    H7911340   4.540   3.895   6.709
   67MYC    C4311341   4.372   3.976   6.599
   67MYC    H8011342   4.431   4.012   6.514
   67MYC    H8111343   4.289   4.045   6.614
   67MYC    H8211344   4.331   3.878   6.574
   68MYC   HH1511345   5.369   3.547   6.710
   68MYC    C8011346   5.338   3.634   6.769
   68MYC   H10011347   5.421   3.706   6.769
   68MYC   H10111348   5.252   3.680   6.720
   68MYC    C7911349   5.303   3.592   6.913
   68MYC   H10211350   5.390   3.543   6.958
   68MYC   H10311351   5.223   3.517   6.909
   68MYC    C7811352   5.259   3.710   7.002
   68MYC   HH1411353   5.172   3.759   6.956
   68MYC   H10411354   5.339   3.784   7.006
   68MYC    C7711355   5.222   3.667   7.146
   68MYC   H10611356   5.308   3.616   7.191
   68MYC   H10711357   5.140   3.593   7.141
   68MYC    C7611358   5.178   3.785   7.236
   68MYC   H10811359   5.095   3.838   7.188
   68MYC   H10911360   5.262   3.856   7.245
   68MYC    C7511361   5.135   3.739   7.377
   68MYC   H11011362   5.217   3.684   7.424
   68MYC   H11111363   5.051   3.670   7.367
   68MYC    C7411364   5.093   3.856   7.470
   68MYC   H11211365   5.016   3.917   7.420
   68MYC   H11311366   5.179   3.921   7.488
   68MYC    C7311367   5.037   3.806   7.605
   68MYC   HH1311368   5.111   3.740   7.651
   68MYC   H11411369   4.947   3.745   7.586
   68MYC    C7211370   5.001   3.918   7.705
   68MYC   H11511371   4.928   3.986   7.660
   68MYC   H11611372   5.092   3.978   7.725
   68MYC    C7111373   4.946   3.862   7.837
   68MYC   H11711374   5.013   3.782   7.871
   68MYC   H11811375   4.848   3.815   7.819
   68MYC    C7011376   4.933   3.966   7.951
   68MYC   H11911377   4.857   4.041   7.925
   68MYC   H12011378   5.028   4.019   7.962
   68MYC    C6911379   4.896   3.899   8.085
   68MYC   H12111380   4.956   3.807   8.095
   68MYC   H12211381   4.791   3.867   8.084
   68MYC    C6811382   4.922   3.986   8.210
   68MYC   HH1211383   4.851   4.070   8.213
   68MYC   H12311384   5.023   4.029   8.203
   68MYC    C6711385   4.912   3.903   8.341
   68MYC   H12411386   4.966   3.809   8.325
   68MYC   H12511387   4.808   3.876   8.359
   68MYC    C6611388   4.971   3.972   8.466
   68MYC   H12611389   4.906   4.055   8.496
   68MYC   H12711390   5.069   4.014   8.441
   68MYC    C6511391   4.987   3.872   8.583
   68MYC   H12811392   5.041   3.784   8.546
   68MYC   H12911393   4.888   3.838   8.615
   68MYC    C6411394   5.064   3.927   8.705
   68MYC   H13011395   5.006   4.007   8.752
   68MYC   H13111396   5.159   3.971   8.672
   68MYC    C6311397   5.094   3.815   8.808
   68MYC   HH1111398   5.152   3.736   8.758
   68MYC   H13211399   4.999   3.770   8.840
   68MYC    C6211400   5.171   3.862   8.933
   68MYC   H13311401   5.110   3.936   8.988
   68MYC   H13411402   5.263   3.913   8.902
   68MYC    C6111403   5.207   3.744   9.027
   68MYC   H13511404   5.276   3.677   8.974
   68MYC   H13611405   5.116   3.686   9.046
   68MYC    C6011406   5.270   3.787   9.159
   68MYC   H13711407   5.303   3.891   9.159
   68MYC    C5811408   5.218   3.730   9.289
   68MYC   H13811409   5.142   3.652   9.282
   68MYC    C5911410   5.355   3.691   9.240
   68MYC   H13911411   5.441   3.732   9.292
   68MYC   H14011412   5.368   3.590   9.202
   68MYC    C5711413   5.197   3.820   9.410
   68MYC   HH1011414   5.096   3.863   9.405
   68MYC   H14111415   5.267   3.905   9.407
   68MYC    C5611416   5.213   3.747   9.545
   68MYC   H14211417   5.319   3.724   9.562
   68MYC   H14311418   5.160   3.651   9.542
   68MYC    C5511419   5.158   3.830   9.663
   68MYC   H14411420   5.049   3.836   9.654
   68MYC   H14511421   5.196   3.932   9.655
   68MYC    C5411422   5.194   3.775   9.803
   68MYC   H14611423   5.303   3.777   9.815
   68MYC   H14711424   5.164   3.670   9.811
   68MYC    C5311425   5.127   3.857   9.915
   68MYC   H14811426   5.022   3.827   9.922
   68MYC   H14911427   5.128   3.963   9.888
   68MYC    C5211428   5.193   3.844  10.054
   68MYC    H9911429   5.291   3.892  10.052
   68MYC   H15011430   5.210   3.738  10.078
   68MYC    C5111431   5.108   3.909  10.165
   68MYC    H9711432   5.017   3.849  10.179
   68MYC    H9811433   5.075   4.008  10.131
   68MYC    C5011434   5.180   3.926  10.301
   68MYC    H9511435   5.263   3.996  10.290
   68MYC    H9611436   5.222   3.830  10.333
   68MYC    C4911437   5.082   3.978  10.409
   68MYC    H9311438   5.007   3.900  10.429
   68MYC    H9411439   5.028   4.064  10.369
   68MYC    C4811440   5.147   4.018  10.543
   68MYC    H9111441   5.222   4.096  10.525
   68MYC    H9211442   5.200   3.932  10.587
   68MYC    C4711443   5.041   4.071  10.643
   68MYC    H8911444   4.969   3.990  10.664
   68MYC    H9011445   4.985   4.152  10.595
   68MYC    C4611446   5.099   4.123  10.776
   68MYC    H8711447   5.174   4.199  10.756
   68MYC    H8811448   5.149   4.040  10.829
   68MYC    C4511449   4.988   4.183  10.867
   68MYC    H8511450   4.909   4.108  10.883
   68MYC    H8611451   4.941   4.267  10.813
   68MYC    C4411452   5.038   4.234  11.004
   68MYC    H8311453   4.958   4.292  11.050
   68MYC    H8411454   5.121   4.305  10.988
   68MYC    C1811455   5.081   4.123  11.099
   68MYC    H3111456   5.058   4.023  11.062
   68MYC    C1711457   5.205   4.138  11.185
   68MYC    H3011458   5.257   4.233  11.183
   68MYC    C1911459   5.068   4.141  11.249
   68MYC    H3211460   5.032   4.237  11.286
   68MYC    H3311461   5.037   4.055  11.307
   68MYC    C1611462   5.298   4.018  11.207
   68MYC    H2811463   5.253   3.927  11.168
   68MYC    H2911464   5.312   4.002  11.315
   68MYC    C1511465   5.438   4.036  11.143
   68MYC    H2611466   5.500   3.950  11.171
   68MYC    H2711467   5.487   4.124  11.186
   68MYC    C1411468   5.436   4.048  10.989
   68MYC    H2411469   5.378   4.136  10.961
   68MYC    H2511470   5.385   3.961  10.947
   68MYC    C1311471   5.577   4.059  10.927
   68MYC    H2211472   5.636   3.971  10.954
   68MYC    H2311473   5.629   4.146  10.971
   68MYC    C1211474   5.574   4.075  10.774
   68MYC    H2011475   5.509   4.159  10.749
   68MYC    H2111476   5.528   3.985  10.730
   68MYC    C1111477   5.713   4.098  10.710
   68MYC    H1811478   5.775   4.009  10.724
   68MYC    H1911479   5.763   4.179  10.764
   68MYC    C1011480   5.708   4.136  10.560
   68MYC    H1611481   5.809   4.166  10.529
   68MYC    H1711482   5.644   4.224  10.547
   68MYC     C911483   5.659   4.023  10.466
   68MYC    H1411484   5.559   3.990  10.496
   68MYC    H1511485   5.726   3.936  10.477
   68MYC     C811486   5.656   4.066  10.317
   68MYC    H1211487   5.753   4.107  10.290
   68MYC    H1311488   5.582   4.147  10.305
   68MYC     C711489   5.620   3.950  10.221
   68MYC    H1011490   5.519   3.913  10.244
   68MYC    H1111491   5.690   3.867  10.238
   68MYC     C611492   5.627   3.991  10.072
   68MYC     H811493   5.725   4.035  10.052
   68MYC     H911494   5.552   4.069  10.052
   68MYC     C511495   5.605   3.873   9.975
   68MYC     H611496   5.502   3.835   9.985
   68MYC     H711497   5.670   3.790  10.008
   68MYC     C411498   5.636   3.899   9.826
   68MYC     H411499   5.630   3.803   9.775
   68MYC     H511500   5.742   3.929   9.818
   68MYC     C211501   5.547   3.998   9.743
   68MYC     H211502   5.529   3.946   9.648
   68MYC     O311503   5.420   4.018   9.805
   68MYC     H311504   5.407   4.114   9.819
   68MYC     C111505   5.614   4.134   9.708
   68MYC     H111506   5.720   4.113   9.690
   68MYC    C8111507   5.607   4.235   9.825
   68MYC    O8211508   5.506   4.293   9.859
   68MYC    O8311509   5.726   4.260   9.885
   68MYC   H10511510   5.707   4.323   9.956
   68MYC    C2011511   5.559   4.198   9.577
   68MYC    H3411512   5.451   4.211   9.585
   68MYC    H3511513   5.602   4.299   9.569
   68MYC    C2111514   5.592   4.120   9.447
   68MYC    H3611515   5.696   4.086   9.450
   68MYC    H3711516   5.529   4.031   9.441
   68MYC    C2211517   5.571   4.206   9.320
   68MYC    H3811518   5.467   4.241   9.318
   68MYC    H3911519   5.635   4.294   9.326
   68MYC    C2311520   5.599   4.132   9.188
   68MYC    H4011521   5.699   4.087   9.191
   68MYC    H4111522   5.527   4.050   9.176
   68MYC    C2411523   5.591   4.227   9.066
   68MYC    H4211524   5.494   4.278   9.067
   68MYC    H4311525   5.668   4.305   9.076
   68MYC    C2511526   5.608   4.156   8.931
   68MYC    H4411527   5.705   4.106   8.928
   68MYC    H4511528   5.531   4.078   8.922
   68MYC    C2611529   5.596   4.252   8.811
   68MYC    H4611530   5.501   4.307   8.817
   68MYC    H4711531   5.677   4.327   8.816
   68MYC    C2711532   5.603   4.179   8.676
   68MYC    H4811533   5.698   4.124   8.669
   68MYC    H4911534   5.523   4.104   8.672
   68MYC    C2811535   5.591   4.272   8.553
   68MYC    H5011536   5.500   4.333   8.562
   68MYC    H5111537   5.677   4.341   8.552
   68MYC    C2911538   5.587   4.192   8.422
   68MYC    H5211539   5.676   4.128   8.416
   68MYC    H5311540   5.499   4.126   8.424
   68MYC    C3011541   5.580   4.279   8.294
   68MYC    H5411542   5.495   4.349   8.301
   68MYC    H5511543   5.671   4.340   8.287
   68MYC    C3111544   5.565   4.192   8.168
   68MYC    H5611545   5.647   4.119   8.166
   68MYC    H5711546   5.471   4.136   8.175
   68MYC    C3211547   5.567   4.271   8.035
   68MYC    H5811548   5.489   4.348   8.037
   68MYC    H5911549   5.663   4.322   8.025
   68MYC    C3311550   5.546   4.177   7.915
   68MYC    H6011551   5.618   4.095   7.921
   68MYC    H6111552   5.446   4.133   7.921
   68MYC    C3411553   5.562   4.246   7.778
   68MYC    H6211554   5.490   4.328   7.768
   68MYC    H6311555   5.662   4.290   7.772
   68MYC    C3511556   5.544   4.146   7.661
   68MYC    H6411557   5.607   4.058   7.679
   68MYC    H6511558   5.440   4.111   7.660
   68MYC    C3611559   5.579   4.205   7.523
   68MYC    H6611560   5.512   4.289   7.501
   68MYC    H6711561   5.681   4.244   7.526
   68MYC    C3711562   5.569   4.100   7.410
   68MYC    H6811563   5.633   4.015   7.434
   68MYC    H6911564   5.466   4.062   7.406
   68MYC    C3811565   5.608   4.156   7.272
   68MYC    H7011566   5.542   4.241   7.248
   68MYC    H7111567   5.710   4.196   7.277
   68MYC    C3911568   5.600   4.052   7.159
   68MYC    H7211569   5.673   3.971   7.179
   68MYC    H7311570   5.501   4.006   7.159
   68MYC    C4011571   5.628   4.113   7.020
   68MYC    H7411572   5.557   4.194   7.003
   68MYC    H7511573   5.728   4.157   7.019
   68MYC    C4111574   5.616   4.010   6.905
   68MYC    H7611575   5.691   3.932   6.918
   68MYC    H7711576   5.517   3.962   6.910
   68MYC    C4211577   5.634   4.075   6.766
   68MYC    H7811578   5.563   4.158   6.755
   68MYC    H7911579   5.735   4.119   6.759
   68MYC    C4311580   5.613   3.977   6.650
   68MYC    H8011581   5.684   3.894   6.655
   68MYC    H8111582   5.626   4.028   6.554
   68MYC    H8211583   5.511   3.936   6.652
   69MYC   HH1511584   6.138   4.080   6.540
   69MYC    C8011585   6.171   4.123   6.635
   69MYC   H10011586   6.279   4.105   6.644
   69MYC   H10111587   6.154   4.231   6.633
   69MYC    C7911588   6.096   4.058   6.753
   69MYC   H10211589   6.109   3.949   6.747
   69MYC   H10311590   5.988   4.078   6.741
   69MYC    C7811591   6.143   4.108   6.891
   69MYC   HH1411592   6.132   4.217   6.896
   69MYC   H10411593   6.250   4.085   6.903
   69MYC    C7711594   6.064   4.043   7.007
   69MYC   H10611595   6.065   3.934   6.994
   69MYC   H10711596   5.959   4.075   7.001
   69MYC    C7611597   6.120   4.077   7.147
   69MYC   H10811598   6.121   4.186   7.161
   69MYC   H10911599   6.224   4.043   7.153
   69MYC    C7511600   6.038   4.011   7.260
   69MYC   H11011601   6.026   3.904   7.238
   69MYC   H11111602   5.938   4.055   7.262
   69MYC    C7411603   6.103   4.025   7.399
   69MYC   H11211604   6.120   4.131   7.421
   69MYC   H11311605   6.201   3.977   7.398
   69MYC    C7311606   6.016   3.963   7.511
   69MYC   HH1311607   5.990   3.860   7.484
   69MYC   H11411608   5.922   4.019   7.518
   69MYC    C7211609   6.086   3.963   7.648
   69MYC   H11511610   6.124   4.064   7.669
   69MYC   H11611611   6.173   3.896   7.644
   69MYC    C7111612   5.992   3.920   7.763
   69MYC   H11711613   5.948   3.823   7.741
   69MYC   H11811614   5.910   3.992   7.770
   69MYC    C7011615   6.066   3.913   7.899
   69MYC   H11911616   6.128   4.002   7.910
   69MYC   H12011617   6.133   3.827   7.898
   69MYC    C6911618   5.971   3.903   8.020
   69MYC   H12111619   5.907   3.815   8.011
   69MYC   H12211620   5.905   3.991   8.021
   69MYC    C6811621   6.049   3.897   8.153
   69MYC   HH1211622   6.128   3.974   8.151
   69MYC   H12311623   6.099   3.800   8.161
   69MYC    C6711624   5.962   3.921   8.278
   69MYC   H12411625   5.885   3.843   8.285
   69MYC   H12511626   5.910   4.017   8.269
   69MYC    C6611627   6.047   3.922   8.407
   69MYC   H12611628   6.132   3.990   8.393
   69MYC   H12711629   6.088   3.822   8.424
   69MYC    C6511630   5.969   3.967   8.533
   69MYC   H12811631   5.885   3.898   8.551
   69MYC   H12911632   5.926   4.066   8.515
   69MYC    C6411633   6.059   3.973   8.658
   69MYC   H13011634   6.147   4.035   8.636
   69MYC   H13111635   6.096   3.872   8.680
   69MYC    C6311636   5.987   4.029   8.782
   69MYC   HH1111637   5.899   3.967   8.804
   69MYC   H13211638   5.951   4.130   8.759
   69MYC    C6211639   6.078   4.036   8.907
   69MYC   H13311640   6.167   4.094   8.884
   69MYC   H13411641   6.111   3.934   8.932
   69MYC    C6111642   6.005   4.097   9.028
   69MYC   H13511643   5.912   4.042   9.045
   69MYC   H13611644   5.977   4.200   9.004
   69MYC    C6011645   6.089   4.097   9.155
   69MYC   H13711646   6.180   4.155   9.146
   69MYC    C5811647   6.020   4.097   9.289
   69MYC   H13811648   5.912   4.089   9.288
   69MYC    C5911649   6.097   3.975   9.244
   69MYC   H13911650   6.192   3.953   9.292
   69MYC   H14011651   6.039   3.887   9.216
   69MYC    C5711652   6.069   4.183   9.405
   69MYC   HH1011653   6.030   4.285   9.395
   69MYC   H14111654   6.179   4.191   9.403
   69MYC    C5611655   6.025   4.123   9.540
   69MYC   H14211656   6.069   4.024   9.551
   69MYC   H14311657   5.916   4.110   9.539
   69MYC    C5511658   6.062   4.209   9.663
   69MYC   H14411659   6.003   4.301   9.662
   69MYC   H14511660   6.167   4.239   9.656
   69MYC    C5411661   6.039   4.132   9.794
   69MYC   H14611662   6.099   4.041   9.792
   69MYC   H14711663   5.934   4.100   9.799
   69MYC    C5311664   6.073   4.211   9.922
   69MYC   H14811665   6.003   4.295   9.933
   69MYC   H14911666   6.173   4.254   9.913
   69MYC    C5211667   6.067   4.121  10.047
   69MYC    H9911668   6.142   4.042  10.037
   69MYC   H15011669   5.969   4.072  10.051
   69MYC    C5111670   6.090   4.196  10.180
   69MYC    H9711671   6.009   4.269  10.194
   69MYC    H9811672   6.184   4.253  10.174
   69MYC    C5011673   6.096   4.101  10.301
   69MYC    H9511674   6.178   4.029  10.286
   69MYC    H9611675   6.003   4.042  10.305
   69MYC    C4911676   6.116   4.173  10.436
   69MYC    H9311677   6.033   4.242  10.453
   69MYC    H9411678   6.207   4.234  10.430
   69MYC    C4811679   6.126   4.077  10.555
   69MYC    H9111680   6.212   4.011  10.541
   69MYC    H9211681   6.036   4.014  10.557
   69MYC    C4711682   6.137   4.148  10.692
   69MYC    H8911683   6.043   4.201  10.712
   69MYC    H9011684   6.217   4.223  10.688
   69MYC    C4611685   6.167   4.050  10.808
   69MYC    H8711686   6.260   3.997  10.786
   69MYC    H8811687   6.087   3.975  10.814
   69MYC    C4511688   6.181   4.122  10.944
   69MYC    H8511689   6.085   4.168  10.971
   69MYC    H8611690   6.252   4.204  10.933
   69MYC    C4411691   6.229   4.031  11.060
   69MYC    H8311692   6.254   4.095  11.145
   69MYC    H8411693   6.323   3.982  11.031
   69MYC    C1811694   6.126   3.928  11.107
   69MYC    H3111695   6.029   3.973  11.126
   69MYC    C1711696   6.128   3.785  11.061
   69MYC    H3011697   6.209   3.754  10.996
   69MYC    C1911698   6.167   3.818  11.203
   69MYC    H3211699   6.272   3.809  11.229
   69MYC    H3311700   6.097   3.792  11.282
   69MYC    C1611701   5.996   3.715  11.028
   69MYC    H2811702   5.959   3.751  10.932
   69MYC    H2911703   5.921   3.747  11.101
   69MYC    C1511704   6.002   3.559  11.032
   69MYC    H2611705   5.904   3.522  11.064
   69MYC    H2711706   6.073   3.527  11.109
   69MYC    C1411707   6.037   3.490  10.898
   69MYC    H2411708   6.050   3.383  10.916
   69MYC    H2511709   6.134   3.526  10.862
   69MYC    C1311710   5.931   3.509  10.787
   69MYC    H2211711   5.916   3.616  10.768
   69MYC    H2311712   5.835   3.470  10.824
   69MYC    C1211713   5.965   3.442  10.653
   69MYC    H2011714   5.989   3.337  10.671
   69MYC    H2111715   6.056   3.488  10.612
   69MYC    C1111716   5.850   3.456  10.551
   69MYC    H1811717   5.823   3.562  10.542
   69MYC    H1911718   5.762   3.406  10.592
   69MYC    C1011719   5.875   3.401  10.409
   69MYC    H1611720   5.782   3.414  10.352
   69MYC    H1711721   5.893   3.293  10.412
   69MYC     C911722   5.990   3.471  10.334
   69MYC    H1411723   6.087   3.430  10.365
   69MYC    H1511724   5.990   3.577  10.360
   69MYC     C811725   5.976   3.460  10.180
   69MYC    H1211726   5.872   3.482  10.154
   69MYC    H1311727   5.996   3.357  10.148
   69MYC     C711728   6.068   3.559  10.104
   69MYC    H1011729   6.171   3.523  10.105
   69MYC    H1111730   6.066   3.656  10.153
   69MYC     C611731   6.020   3.577   9.959
   69MYC     H811732   5.913   3.602   9.961
   69MYC     H911733   6.031   3.481   9.906
   69MYC     C511734   6.093   3.688   9.880
   69MYC     H611735   6.197   3.658   9.862
   69MYC     H711736   6.097   3.778   9.942
   69MYC     C411737   6.024   3.727   9.746
   69MYC     H411738   6.081   3.811   9.704
   69MYC     H511739   5.924   3.767   9.767
   69MYC     C211740   6.012   3.619   9.633
   69MYC     H211741   6.036   3.674   9.541
   69MYC     O311742   6.110   3.516   9.649
   69MYC     H311743   6.187   3.555   9.695
   69MYC     C111744   5.869   3.558   9.611
   69MYC     H111745   5.805   3.645   9.593
   69MYC    C8111746   5.812   3.484   9.734
   69MYC    O8211747   5.843   3.371   9.767
   69MYC    O8311748   5.713   3.551   9.796
   69MYC   H10511749   5.683   3.492   9.868
   69MYC    C2011750   5.858   3.465   9.487
   69MYC    H3411751   5.922   3.377   9.501
   69MYC    H3511752   5.755   3.429   9.480
   69MYC    C2111753   5.895   3.532   9.353
   69MYC    H3611754   5.837   3.625   9.342
   69MYC    H3711755   6.001   3.559   9.353
   69MYC    C2211756   5.868   3.441   9.232
   69MYC    H3811757   5.924   3.347   9.244
   69MYC    H3911758   5.761   3.415   9.230
   69MYC    C2311759   5.906   3.507   9.099
   69MYC    H4011760   5.851   3.602   9.089
   69MYC    H4111761   6.013   3.532   9.101
   69MYC    C2411762   5.877   3.418   8.977
   69MYC    H4211763   5.936   3.326   8.984
   69MYC    H4311764   5.771   3.389   8.979
   69MYC    C2511765   5.907   3.490   8.845
   69MYC    H4411766   5.845   3.580   8.838
   69MYC    H4511767   6.012   3.522   8.844
   69MYC    C2611768   5.881   3.401   8.722
   69MYC    H4611769   5.950   3.315   8.724
   69MYC    H4711770   5.779   3.361   8.726
   69MYC    C2711771   5.899   3.478   8.590
   69MYC    H4811772   5.827   3.561   8.587
   69MYC    H4911773   5.999   3.523   8.587
   69MYC    C2811774   5.880   3.390   8.465
   69MYC    H5011775   5.957   3.312   8.464
   69MYC    H5111776   5.782   3.340   8.469
   69MYC    C2911777   5.889   3.473   8.335
   69MYC    H5211778   5.810   3.548   8.335
   69MYC    H5311779   5.985   3.527   8.335
   69MYC    C3011780   5.880   3.388   8.207
   69MYC    H5411781   5.963   3.316   8.205
   69MYC    H5511782   5.787   3.330   8.208
   69MYC    C3111783   5.884   3.476   8.081
   69MYC    H5611784   5.797   3.542   8.080
   69MYC    H5711785   5.973   3.541   8.086
   69MYC    C3211786   5.890   3.396   7.950
   69MYC    H5811787   5.980   3.333   7.949
   69MYC    H5911788   5.803   3.329   7.943
   69MYC    C3311789   5.892   3.489   7.827
   69MYC    H6011790   5.797   3.545   7.823
   69MYC    H6111791   5.972   3.562   7.838
   69MYC    C3411792   5.911   3.414   7.694
   69MYC    H6211793   6.007   3.360   7.697
   69MYC    H6311794   5.832   3.339   7.681
   69MYC    C3511795   5.911   3.510   7.573
   69MYC    H6411796   5.814   3.562   7.569
   69MYC    H6511797   5.988   3.586   7.587
   69MYC    C3611798   5.935   3.438   7.439
   69MYC    H6611799   6.033   3.389   7.440
   69MYC    H6711800   5.859   3.359   7.426
   69MYC    C3711801   5.928   3.535   7.319
   69MYC    H6811802   5.831   3.587   7.321
   69MYC    H6911803   6.005   3.611   7.329
   69MYC    C3811804   5.943   3.463   7.183
   69MYC    H7011805   6.044   3.420   7.176
   69MYC    H7111806   5.872   3.380   7.178
   69MYC    C3911807   5.918   3.558   7.063
   69MYC    H7211808   5.820   3.604   7.076
   69MYC    H7311809   5.992   3.638   7.064
   69MYC    C4011810   5.922   3.485   6.927
   69MYC    H7411811   6.025   3.454   6.905
   69MYC    H7511812   5.862   3.393   6.934
   69MYC    C4111813   5.866   3.571   6.812
   69MYC    H7611814   5.763   3.600   6.836
   69MYC    H7711815   5.924   3.664   6.805
   69MYC    C4211816   5.869   3.499   6.676
   69MYC    H7811817   5.973   3.487   6.643
   69MYC    H7911818   5.826   3.399   6.687
   69MYC    C4311819   5.790   3.575   6.567
   69MYC    H8011820   5.798   3.523   6.471
   69MYC    H8111821   5.829   3.677   6.554
   69MYC    H8211822   5.684   3.581   6.594
   70MYC   HH1511823   0.460   4.524   6.587
   70MYC    C8011824   0.508   4.535   6.685
   70MYC   H10011825   0.562   4.442   6.707
   70MYC   H10111826   0.581   4.617   6.679
   70MYC    C7911827   0.403   4.564   6.794
   70MYC   H10211828   0.330   4.482   6.796
   70MYC   H10311829   0.349   4.655   6.768
   70MYC    C7811830   0.465   4.580   6.935
   70MYC   HH1411831   0.542   4.658   6.931
   70MYC   H10411832   0.515   4.486   6.964
   70MYC    C7711833   0.360   4.618   7.042
   70MYC   H10611834   0.282   4.540   7.045
   70MYC   H10711835   0.311   4.711   7.012
   70MYC    C7611836   0.421   4.634   7.184
   70MYC   H10811837   0.506   4.703   7.179
   70MYC   H10911838   0.459   4.538   7.218
   70MYC    C7511839   0.318   4.689   7.285
   70MYC   H11011840   0.229   4.626   7.284
   70MYC   H11111841   0.287   4.790   7.253
   70MYC    C7411842   0.372   4.697   7.430
   70MYC   H11211843   0.468   4.750   7.431
   70MYC   H11311844   0.390   4.595   7.467
   70MYC    C7311845   0.274   4.769   7.525
   70MYC   HH1311846   0.173   4.730   7.509
   70MYC   H11411847   0.271   4.876   7.499
   70MYC    C7211848   0.309   4.754   7.675
   70MYC   H11511849   0.413   4.784   7.693
   70MYC   H11611850   0.300   4.648   7.702
   70MYC    C7111851   0.216   4.838   7.766
   70MYC   H11711852   0.112   4.825   7.732
   70MYC   H11811853   0.240   4.944   7.753
   70MYC    C7011854   0.222   4.801   7.916
   70MYC   H11911855   0.325   4.812   7.952
   70MYC   H12011856   0.195   4.695   7.927
   70MYC    C6911857   0.127   4.888   8.001
   70MYC   H12111858   0.030   4.894   7.950
   70MYC   H12211859   0.166   4.989   8.005
   70MYC    C6811860   0.100   4.836   8.144
   70MYC   HH1211861   0.065   4.732   8.138
   70MYC   H12311862   0.017   4.894   8.186
   70MYC    C6711863   0.219   4.844   8.242
   70MYC   H12411864   0.256   4.947   8.248
   70MYC   H12511865   0.302   4.782   8.205
   70MYC    C6611866   0.178   4.796   8.383
   70MYC   H12611867   0.135   4.695   8.374
   70MYC   H12711868   0.098   4.861   8.421
   70MYC    C6511869   0.292   4.791   8.488
   70MYC   H12811870   0.333   4.892   8.502
   70MYC   H12911871   0.373   4.727   8.450
   70MYC    C6411872   0.240   4.736   8.623
   70MYC   H13011873   0.181   4.646   8.603
   70MYC   H13111874   0.171   4.809   8.667
   70MYC    C6311875   0.350   4.701   8.726
   70MYC   HH1111876   0.405   4.792   8.754
   70MYC   H13211877   0.422   4.633   8.679
   70MYC    C6211878   0.290   4.634   8.851
   70MYC   H13311879   0.227   4.550   8.819
   70MYC   H13411880   0.224   4.706   8.901
   70MYC    C6111881   0.395   4.581   8.951
   70MYC   H13511882   0.461   4.663   8.980
   70MYC   H13611883   0.458   4.508   8.899
   70MYC    C6011884   0.340   4.515   9.078
   70MYC   H13711885   0.417   4.459   9.130
   70MYC    C5811886   0.240   4.586   9.167
   70MYC   H13811887   0.200   4.680   9.131
   70MYC    C5911888   0.199   4.461   9.093
   70MYC   H13911889   0.186   4.370   9.151
   70MYC   H14011890   0.128   4.473   9.011
   70MYC    C5711891   0.259   4.586   9.318
   70MYC   HH1011892   0.280   4.484   9.354
   70MYC   H14111893   0.167   4.619   9.367
   70MYC    C5611894   0.376   4.678   9.359
   70MYC   H14211895   0.356   4.781   9.326
   70MYC   H14311896   0.466   4.645   9.306
   70MYC    C5511897   0.407   4.678   9.510
   70MYC   H14411898   0.504   4.728   9.523
   70MYC   H14511899   0.420   4.575   9.545
   70MYC    C5411900   0.306   4.752   9.599
   70MYC   H14611901   0.210   4.699   9.599
   70MYC   H14711902   0.288   4.852   9.559
   70MYC    C5311903   0.358   4.763   9.744
   70MYC   H14811904   0.459   4.807   9.742
   70MYC   H14911905   0.368   4.662   9.786
   70MYC    C5211906   0.271   4.849   9.837
   70MYC    H9911907   0.169   4.807   9.841
   70MYC   H15011908   0.262   4.950   9.795
   70MYC    C5111909   0.330   4.856   9.979
   70MYC    H9711910   0.432   4.895   9.973
   70MYC    H9811911   0.337   4.754  10.019
   70MYC    C5011912   0.247   4.942  10.076
   70MYC    H9511913   0.144   4.906  10.075
   70MYC    H9611914   0.246   5.046  10.041
   70MYC    C4911915   0.302   4.936  10.220
   70MYC    H9311916   0.400   4.985  10.224
   70MYC    H9411917   0.318   4.831  10.247
   70MYC    C4811918   0.207   5.001  10.323
   70MYC    H9111919   0.107   4.957  10.310
   70MYC    H9211920   0.198   5.108  10.303
   70MYC    C4711921   0.253   4.979  10.468
   70MYC    H8911922   0.344   5.037  10.487
   70MYC    H9011923   0.279   4.873  10.482
   70MYC    C4611924   0.144   5.017  10.571
   70MYC    H8711925   0.055   4.954  10.554
   70MYC    H8811926   0.113   5.120  10.552
   70MYC    C4511927   0.187   5.005  10.718
   70MYC    H8511928   0.103   5.037  10.781
   70MYC    H8611929   0.268   5.077  10.737
   70MYC    C4411930   0.234   4.866  10.766
   70MYC    H8311931   0.272   4.877  10.868
   70MYC    H8411932   0.320   4.832  10.706
   70MYC    C1811933   0.126   4.759  10.766
   70MYC    H3111934   0.102   4.724  10.666
   70MYC    C1711935   0.119   4.658  10.878
   70MYC    H3011936   0.186   4.671  10.962
   70MYC    C1911937   0.011   4.763  10.864
   70MYC    H3211938   0.009   4.844  10.937
   70MYC    H3311939   6.363   4.730  10.829
   70MYC    C1611940   0.086   4.512  10.853
   70MYC    H2811941   0.030   4.502  10.759
   70MYC    H2911942   0.019   4.477  10.931
   70MYC    C1511943   0.210   4.419  10.848
   70MYC    H2611944   0.174   4.315  10.836
   70MYC    H2711945   0.262   4.423  10.944
   70MYC    C1411946   0.308   4.451  10.733
   70MYC    H2411947   0.355   4.549  10.751
   70MYC    H2511948   0.252   4.459  10.640
   70MYC    C1311949   0.419   4.344  10.717
   70MYC    H2211950   0.372   4.245  10.712
   70MYC    H2311951   0.484   4.344  10.805
   70MYC    C1211952   0.504   4.364  10.589
   70MYC    H2011953   0.559   4.459  10.596
   70MYC    H2111954   0.436   4.373  10.504
   70MYC    C1111955   0.606   4.249  10.564
   70MYC    H1811956   0.558   4.153  10.583
   70MYC    H1911957   0.687   4.258  10.637
   70MYC    C1011958   0.666   4.247  10.421
   70MYC    H1611959   0.751   4.178  10.420
   70MYC    H1711960   0.706   4.346  10.396
   70MYC     C911961   0.565   4.203  10.312
   70MYC    H1411962   0.479   4.271  10.312
   70MYC    H1511963   0.527   4.103  10.338
   70MYC     C811964   0.623   4.200  10.168
   70MYC    H1211965   0.714   4.139  10.167
   70MYC    H1311966   0.651   4.302  10.138
   70MYC     C711967   0.521   4.141  10.068
   70MYC    H1011968   0.424   4.191  10.080
   70MYC    H1111969   0.503   4.036  10.095
   70MYC     C611970   0.563   4.146   9.918
   70MYC     H811971   0.517   4.061   9.868
   70MYC     H911972   0.671   4.130   9.912
   70MYC     C511973   0.525   4.278   9.844
   70MYC     H611974   0.608   4.348   9.848
   70MYC     H711975   0.444   4.326   9.900
   70MYC     C411976   0.472   4.260   9.698
   70MYC     H411977   0.390   4.332   9.685
   70MYC     H511978   0.426   4.162   9.686
   70MYC     C211979   0.568   4.282   9.578
   70MYC     H211980   0.501   4.290   9.491
   70MYC     O311981   0.636   4.406   9.593
   70MYC     H311982   0.707   4.393   9.658
   70MYC     C111983   0.669   4.167   9.546
   70MYC     H111984   0.612   4.074   9.533
   70MYC    C8111985   0.770   4.142   9.659
   70MYC    O8211986   0.831   4.231   9.717
   70MYC    O8311987   0.806   4.013   9.673
   70MYC   H10511988   0.878   4.013   9.739
   70MYC    C2011989   0.746   4.187   9.413
   70MYC    H3411990   0.813   4.273   9.422
   70MYC    H3511991   0.809   4.100   9.396
   70MYC    C2111992   0.655   4.208   9.289
   70MYC    H3611993   0.578   4.130   9.286
   70MYC    H3711994   0.604   4.304   9.296
   70MYC    C2211995   0.733   4.205   9.156
   70MYC    H3811996   0.813   4.280   9.159
   70MYC    H3911997   0.780   4.107   9.144
   70MYC    C2311998   0.643   4.234   9.034
   70MYC    H4011999   0.555   4.168   9.037
   70MYC    H4112000   0.606   4.337   9.040
   70MYC    C2412001   0.716   4.214   8.900
   70MYC    H4212002   0.805   4.278   8.897
   70MYC    H4312003   0.752   4.110   8.894
   70MYC    C2512004   0.628   4.244   8.777
   70MYC    H4412005   0.535   4.185   8.784
   70MYC    H4512006   0.599   4.350   8.778
   70MYC    C2612007   0.699   4.211   8.645
   70MYC    H4612008   0.793   4.267   8.639
   70MYC    H4712009   0.726   4.104   8.645
   70MYC    C2712010   0.613   4.240   8.521
   70MYC    H4812011   0.516   4.190   8.530
   70MYC    H4912012   0.593   4.348   8.514
   70MYC    C2812013   0.682   4.192   8.392
   70MYC    H5012014   0.781   4.238   8.384
   70MYC    H5112015   0.698   4.084   8.399
   70MYC    C2912016   0.602   4.224   8.264
   70MYC    H5212017   0.497   4.196   8.278
   70MYC    H5312018   0.605   4.332   8.245
   70MYC    C3012019   0.658   4.148   8.142
   70MYC    H5412020   0.767   4.162   8.138
   70MYC    H5512021   0.641   4.041   8.158
   70MYC    C3112022   0.597   4.190   8.008
   70MYC    H5612023   0.488   4.198   8.017
   70MYC    H5712024   0.634   4.291   7.983
   70MYC    C3212025   0.632   4.092   7.895
   70MYC    H5812026   0.738   4.063   7.903
   70MYC    H5912027   0.573   4.001   7.907
   70MYC    C3312028   0.609   4.151   7.754
   70MYC    H6012029   0.506   4.189   7.747
   70MYC    H6112030   0.675   4.238   7.742
   70MYC    C3412031   0.635   4.050   7.641
   70MYC    H6212032   0.726   3.994   7.662
   70MYC    H6312033   0.552   3.978   7.636
   70MYC    C3512034   0.651   4.121   7.505
   70MYC    H6412035   0.565   4.187   7.488
   70MYC    H6512036   0.740   4.185   7.510
   70MYC    C3612037   0.664   4.026   7.384
   70MYC    H6612038   0.732   3.943   7.409
   70MYC    H6712039   0.566   3.982   7.363
   70MYC    C3712040   0.718   4.100   7.260
   70MYC    H6812041   0.673   4.200   7.256
   70MYC    H6912042   0.826   4.114   7.272
   70MYC    C3812043   0.691   4.028   7.127
   70MYC    H7012044   0.736   3.928   7.128
   70MYC    H7112045   0.583   4.015   7.114
   70MYC    C3912046   0.747   4.108   7.007
   70MYC    H7212047   0.718   4.213   7.018
   70MYC    H7312048   0.857   4.105   7.009
   70MYC    C4012049   0.697   4.058   6.870
   70MYC    H7412050   0.734   3.956   6.853
   70MYC    H7512051   0.587   4.053   6.872
   70MYC    C4112052   0.741   4.150   6.754
   70MYC    H7612053   0.713   4.253   6.778
   70MYC    H7712054   0.850   4.147   6.745
   70MYC    C4212055   0.677   4.111   6.619
   70MYC    H7812056   0.707   4.009   6.592
   70MYC    H7912057   0.568   4.111   6.629
   70MYC    C4312058   0.715   4.207   6.504
   70MYC    H8012059   0.666   4.176   6.411
   70MYC    H8112060   0.823   4.206   6.488
   70MYC    H8212061   0.684   4.309   6.527
   71MYC   HH1512062   0.975   4.697   6.622
   71MYC    C8012063   1.007   4.710   6.726
   71MYC   H10012064   1.110   4.674   6.736
   71MYC   H10112065   1.006   4.818   6.748
   71MYC    C7912066   0.914   4.634   6.822
   71MYC   H10212067   0.913   4.528   6.795
   71MYC   H10312068   0.811   4.671   6.809
   71MYC    C7812069   0.956   4.650   6.970
   71MYC   HH1412070   0.960   4.757   6.994
   71MYC   H10412071   1.057   4.610   6.982
   71MYC    C7712072   0.862   4.579   7.070
   71MYC   H10612073   0.859   4.472   7.051
   71MYC   H10712074   0.760   4.617   7.057
   71MYC    C7612075   0.907   4.605   7.215
   71MYC   H10812076   0.912   4.714   7.231
   71MYC   H10912077   1.009   4.566   7.228
   71MYC    C7512078   0.817   4.544   7.325
   71MYC   H11012079   0.823   4.435   7.321
   71MYC   H11112080   0.712   4.572   7.307
   71MYC    C7412081   0.860   4.595   7.464
   71MYC   H11212082   0.844   4.704   7.467
   71MYC   H11312083   0.968   4.579   7.475
   71MYC    C7312084   0.788   4.531   7.584
   71MYC   HH1312085   0.813   4.424   7.588
   71MYC   H11412086   0.679   4.538   7.571
   71MYC    C7212087   0.830   4.600   7.715
   71MYC   H11512088   0.795   4.704   7.712
   71MYC   H11612089   0.939   4.604   7.720
   71MYC    C7112090   0.778   4.533   7.843
   71MYC   H11712091   0.819   4.431   7.850
   71MYC   H11812092   0.669   4.525   7.839
   71MYC    C7012093   0.819   4.614   7.968
   71MYC   H11912094   0.773   4.713   7.963
   71MYC   H12012095   0.927   4.629   7.968
   71MYC    C6912096   0.779   4.547   8.101
   71MYC   H12112097   0.831   4.451   8.110
   71MYC   H12212098   0.671   4.527   8.101
   71MYC    C6812099   0.813   4.636   8.223
   71MYC   HH1212100   0.753   4.727   8.219
   71MYC   H12312101   0.919   4.667   8.217
   71MYC    C6712102   0.790   4.565   8.357
   71MYC   H12412103   0.859   4.480   8.365
   71MYC   H12512104   0.688   4.526   8.361
   71MYC    C6612105   0.811   4.659   8.478
   71MYC   H12612106   0.733   4.736   8.477
   71MYC   H12712107   0.907   4.711   8.468
   71MYC    C6512108   0.807   4.584   8.612
   71MYC   H12812109   0.894   4.516   8.618
   71MYC   H12912110   0.717   4.522   8.617
   71MYC    C6412111   0.808   4.679   8.733
   71MYC   H13012112   0.717   4.740   8.730
   71MYC   H13112113   0.894   4.747   8.725
   71MYC    C6312114   0.815   4.604   8.867
   71MYC   HH1112115   0.910   4.550   8.874
   71MYC   H13212116   0.734   4.530   8.872
   71MYC    C6212117   0.801   4.700   8.987
   71MYC   H13312118   0.703   4.750   8.981
   71MYC   H13412119   0.877   4.779   8.979
   71MYC    C6112120   0.814   4.630   9.123
   71MYC   H13512121   0.913   4.584   9.130
   71MYC   H13612122   0.740   4.549   9.129
   71MYC    C6012123   0.792   4.727   9.238
   71MYC   H13712124   0.690   4.765   9.240
   71MYC    C5812125   0.859   4.704   9.370
   71MYC   H13812126   0.929   4.621   9.375
   71MYC    C5912127   0.900   4.822   9.284
   71MYC   H13912128   0.869   4.921   9.316
   71MYC   H14012129   0.996   4.817   9.235
   71MYC    C5712130   0.778   4.721   9.497
   71MYC   HH1012131   0.709   4.636   9.503
   71MYC   H14112132   0.717   4.812   9.492
   71MYC    C5612133   0.863   4.725   9.625
   71MYC   H14212134   0.921   4.818   9.627
   71MYC   H14312135   0.935   4.642   9.623
   71MYC    C5512136   0.777   4.714   9.752
   71MYC   H14412137   0.720   4.621   9.749
   71MYC   H14512138   0.704   4.796   9.754
   71MYC    C5412139   0.861   4.718   9.881
   71MYC   H14612140   0.905   4.818   9.892
   71MYC   H14712141   0.944   4.647   9.871
   71MYC    C5312142   0.781   4.683  10.008
   71MYC   H14812143   0.742   4.581   9.999
   71MYC   H14912144   0.694   4.750  10.016
   71MYC    C5212145   0.868   4.695  10.134
   71MYC    H9912146   0.895   4.801  10.147
   71MYC   H15012147   0.961   4.640  10.119
   71MYC    C5112148   0.800   4.645  10.263
   71MYC    H9712149   0.779   4.537  10.254
   71MYC    H9812150   0.703   4.695  10.276
   71MYC    C5012151   0.889   4.671  10.385
   71MYC    H9512152   0.902   4.779  10.394
   71MYC    H9612153   0.988   4.628  10.368
   71MYC    C4912154   0.833   4.618  10.518
   71MYC    H9312155   0.826   4.509  10.514
   71MYC    H9412156   0.732   4.657  10.535
   71MYC    C4812157   0.924   4.658  10.637
   71MYC    H9112158   0.929   4.767  10.643
   71MYC    H9212159   1.026   4.622  10.618
   71MYC    C4712160   0.876   4.602  10.772
   71MYC    H8912161   0.873   4.493  10.767
   71MYC    H9012162   0.773   4.636  10.791
   71MYC    C4612163   0.966   4.646  10.888
   71MYC    H8712164   0.962   4.755  10.899
   71MYC    H8812165   1.070   4.620  10.864
   71MYC    C4512166   0.927   4.580  11.022
   71MYC    H8512167   0.929   4.472  11.009
   71MYC    H8612168   0.824   4.609  11.047
   71MYC    C4412169   1.017   4.616  11.142
   71MYC    H8312170   0.979   4.562  11.230
   71MYC    H8412171   1.005   4.723  11.164
   71MYC    C1812172   1.164   4.582  11.121
   71MYC    H3112173   1.180   4.511  11.040
   71MYC    C1712174   1.270   4.687  11.146
   71MYC    H3012175   1.239   4.781  11.191
   71MYC    C1912176   1.260   4.567  11.236
   71MYC    H3212177   1.222   4.582  11.337
   71MYC    H3312178   1.336   4.490  11.227
   71MYC    C1612179   1.385   4.705  11.048
   71MYC    H2812180   1.384   4.625  10.973
   71MYC    H2912181   1.479   4.694  11.102
   71MYC    C1512182   1.384   4.842  10.976
   71MYC    H2612183   1.473   4.848  10.912
   71MYC    H2712184   1.394   4.922  11.050
   71MYC    C1412185   1.258   4.867  10.889
   71MYC    H2412186   1.169   4.867  10.953
   71MYC    H2512187   1.248   4.785  10.818
   71MYC    C1312188   1.263   5.000  10.812
   71MYC    H2212189   1.362   5.011  10.766
   71MYC    H2312190   1.250   5.084  10.881
   71MYC    C1212191   1.157   5.009  10.700
   71MYC    H2012192   1.057   5.010  10.745
   71MYC    H2112193   1.164   4.919  10.638
   71MYC    C1112194   1.174   5.134  10.610
   71MYC    H1812195   1.276   5.134  10.567
   71MYC    H1912196   1.167   5.223  10.672
   71MYC    C1012197   1.070   5.145  10.496
   71MYC    H1612198   1.084   5.240  10.444
   71MYC    H1712199   0.971   5.147  10.541
   71MYC     C912200   1.071   5.031  10.391
   71MYC    H1412201   0.987   5.047  10.322
   71MYC    H1512202   1.051   4.935  10.441
   71MYC     C812203   1.201   5.019  10.310
   71MYC    H1212204   1.284   4.992  10.377
   71MYC    H1312205   1.225   5.116  10.266
   71MYC     C712206   1.193   4.914  10.196
   71MYC    H1012207   1.109   4.939  10.130
   71MYC    H1112208   1.172   4.815  10.239
   71MYC     C612209   1.322   4.907  10.113
   71MYC     H812210   1.405   4.879  10.179
   71MYC     H912211   1.345   5.008  10.076
   71MYC     C512212   1.316   4.807   9.995
   71MYC     H612213   1.228   4.827   9.933
   71MYC     H712214   1.303   4.707  10.036
   71MYC     C412215   1.444   4.809   9.907
   71MYC     H412216   1.460   4.708   9.869
   71MYC     H512217   1.531   4.831   9.971
   71MYC     C212218   1.442   4.905   9.784
   71MYC     H212219   1.371   4.862   9.713
   71MYC     O312220   1.395   5.035   9.822
   71MYC     H312221   1.342   5.024   9.904
   71MYC     C112222   1.581   4.917   9.714
   71MYC     H112223   1.616   4.814   9.700
   71MYC    C8112224   1.685   4.988   9.804
   71MYC    O8212225   1.688   5.108   9.824
   71MYC    O8312226   1.777   4.906   9.858
   71MYC   H10512227   1.836   4.964   9.910
   71MYC    C2012228   1.575   4.984   9.574
   71MYC    H3412229   1.519   5.078   9.580
   71MYC    H3512230   1.678   5.012   9.546
   71MYC    C2112231   1.517   4.895   9.462
   71MYC    H3612232   1.573   4.801   9.458
   71MYC    H3712233   1.412   4.871   9.484
   71MYC    C2212234   1.525   4.965   9.324
   71MYC    H3812235   1.459   5.052   9.323
   71MYC    H3912236   1.627   5.002   9.310
   71MYC    C2312237   1.490   4.873   9.205
   71MYC    H4012238   1.548   4.781   9.211
   71MYC    H4112239   1.384   4.845   9.210
   71MYC    C2412240   1.518   4.942   9.069
   71MYC    H4212241   1.460   5.035   9.063
   71MYC    H4312242   1.624   4.970   9.066
   71MYC    C2512243   1.486   4.854   8.946
   71MYC    H4412244   1.536   4.757   8.956
   71MYC    H4512245   1.378   4.835   8.943
   71MYC    C2612246   1.531   4.921   8.814
   71MYC    H4612247   1.492   5.023   8.810
   71MYC    H4712248   1.641   4.929   8.814
   71MYC    C2712249   1.485   4.845   8.688
   71MYC    H4812250   1.518   4.740   8.694
   71MYC    H4912251   1.375   4.844   8.685
   71MYC    C2812252   1.539   4.907   8.557
   71MYC    H5012253   1.522   5.016   8.559
   71MYC    H5112254   1.648   4.892   8.552
   71MYC    C2912255   1.473   4.849   8.431
   71MYC    H5212256   1.484   4.740   8.431
   71MYC    H5312257   1.365   4.870   8.435
   71MYC    C3012258   1.531   4.905   8.299
   71MYC    H5412259   1.533   5.015   8.305
   71MYC    H5512260   1.635   4.872   8.288
   71MYC    C3112261   1.449   4.863   8.176
   71MYC    H5612262   1.441   4.754   8.173
   71MYC    H5712263   1.347   4.903   8.186
   71MYC    C3212264   1.508   4.913   8.042
   71MYC    H5812265   1.522   5.022   8.047
   71MYC    H5912266   1.608   4.868   8.028
   71MYC    C3312267   1.420   4.879   7.921
   71MYC    H6012268   1.403   4.770   7.918
   71MYC    H6112269   1.322   4.926   7.934
   71MYC    C3412270   1.480   4.924   7.786
   71MYC    H6212271   1.498   5.032   7.790
   71MYC    H6312272   1.578   4.876   7.773
   71MYC    C3512273   1.391   4.890   7.665
   71MYC    H6412274   1.374   4.782   7.661
   71MYC    H6512275   1.293   4.938   7.678
   71MYC    C3612276   1.452   4.937   7.531
   71MYC    H6612277   1.467   5.046   7.535
   71MYC    H6712278   1.551   4.892   7.520
   71MYC    C3712279   1.366   4.902   7.408
   71MYC    H6812280   1.352   4.793   7.404
   71MYC    H6912281   1.267   4.947   7.419
   71MYC    C3812282   1.430   4.950   7.276
   71MYC    H7012283   1.443   5.059   7.282
   71MYC    H7112284   1.531   4.907   7.267
   71MYC    C3912285   1.348   4.915   7.150
   71MYC    H7212286   1.335   4.807   7.144
   71MYC    H7312287   1.248   4.960   7.159
   71MYC    C4012288   1.416   4.966   7.021
   71MYC    H7412289   1.431   5.075   7.029
   71MYC    H7512290   1.516   4.921   7.013
   71MYC    C4112291   1.336   4.935   6.893
   71MYC    H7612292   1.321   4.827   6.884
   71MYC    H7712293   1.236   4.981   6.901
   71MYC    C4212294   1.406   4.988   6.765
   71MYC    H7812295   1.425   5.095   6.776
   71MYC    H7912296   1.503   4.939   6.755
   71MYC    C4312297   1.324   4.964   6.637
   71MYC    H8012298   1.378   5.003   6.550
   71MYC    H8112299   1.227   5.016   6.643
   71MYC    H8212300   1.306   4.857   6.622
   72MYC   HH1512301   2.232   4.768   6.653
   72MYC    C8012302   2.264   4.738   6.753
   72MYC   H10012303   2.231   4.634   6.769
   72MYC   H10112304   2.373   4.741   6.758
   72MYC    C7912305   2.202   4.831   6.859
   72MYC   H10212306   2.093   4.835   6.844
   72MYC   H10312307   2.240   4.933   6.845
   72MYC    C7812308   2.230   4.784   7.004
   72MYC   HH1412309   2.339   4.774   7.018
   72MYC   H10412310   2.186   4.685   7.017
   72MYC    C7712311   2.175   4.880   7.112
   72MYC   H10612312   2.078   4.921   7.080
   72MYC   H10712313   2.244   4.965   7.123
   72MYC    C7612314   2.157   4.810   7.248
   72MYC   H10812315   2.248   4.754   7.272
   72MYC   H10912316   2.076   4.737   7.239
   72MYC    C7512317   2.126   4.906   7.365
   72MYC   H11012318   2.047   4.976   7.336
   72MYC   H11112319   2.216   4.965   7.386
   72MYC    C7412320   2.083   4.830   7.492
   72MYC   H11212321   2.144   4.739   7.502
   72MYC   H11312322   1.979   4.797   7.480
   72MYC    C7312323   2.096   4.912   7.621
   72MYC   HH1312324   2.040   5.006   7.612
   72MYC   H11412325   2.202   4.939   7.634
   72MYC    C7212326   2.047   4.835   7.745
   72MYC   H11512327   2.087   4.733   7.742
   72MYC   H11612328   1.938   4.827   7.742
   72MYC    C7112329   2.091   4.901   7.877
   72MYC   H11712330   2.055   5.005   7.881
   72MYC   H11812331   2.200   4.905   7.880
   72MYC    C7012332   2.040   4.825   8.001
   72MYC   H11912333   2.066   4.719   7.992
   72MYC   H12012334   1.931   4.831   8.006
   72MYC    C6912335   2.100   4.880   8.132
   72MYC   H12112336   2.074   4.986   8.143
   72MYC   H12212337   2.210   4.875   8.125
   72MYC    C6812338   2.054   4.803   8.257
   72MYC   HH1212339   2.071   4.695   8.241
   72MYC   H12312340   1.946   4.817   8.272
   72MYC    C6712341   2.130   4.847   8.383
   72MYC   H12412342   2.110   4.953   8.403
   72MYC   H12512343   2.238   4.838   8.365
   72MYC    C6612344   2.094   4.764   8.508
   72MYC   H12612345   2.103   4.657   8.485
   72MYC   H12712346   1.989   4.783   8.535
   72MYC    C6512347   2.186   4.797   8.627
   72MYC   H12812348   2.177   4.904   8.651
   72MYC   H12912349   2.290   4.779   8.599
   72MYC    C6412350   2.153   4.715   8.753
   72MYC   H13012351   2.156   4.608   8.729
   72MYC   H13112352   2.051   4.738   8.784
   72MYC    C6312353   2.252   4.744   8.868
   72MYC   HH1112354   2.258   4.852   8.884
   72MYC   H13212355   2.352   4.711   8.839
   72MYC    C6212356   2.214   4.676   9.001
   72MYC   H13312357   2.294   4.699   9.074
   72MYC   H13412358   2.213   4.567   8.989
   72MYC    C6112359   2.079   4.724   9.058
   72MYC   H13512360   1.997   4.672   9.007
   72MYC   H13612361   2.066   4.831   9.036
   72MYC    C6012362   2.068   4.702   9.208
   72MYC   H13712363   2.073   4.597   9.235
   72MYC    C5812364   2.135   4.800   9.300
   72MYC   H13812365   2.180   4.887   9.253
   72MYC    C5912366   1.983   4.790   9.295
   72MYC   H13912367   1.930   4.742   9.377
   72MYC   H14012368   1.929   4.871   9.247
   72MYC    C5712369   2.221   4.748   9.414
   72MYC   HH1012370   2.307   4.814   9.426
   72MYC   H14112371   2.262   4.649   9.388
   72MYC    C5612372   2.147   4.738   9.549
   72MYC   H14212373   2.068   4.662   9.543
   72MYC   H14312374   2.099   4.834   9.572
   72MYC    C5512375   2.243   4.702   9.663
   72MYC   H14412376   2.326   4.773   9.666
   72MYC   H14512377   2.286   4.603   9.644
   72MYC    C5412378   2.172   4.701   9.800
   72MYC   H14612379   2.087   4.633   9.797
   72MYC   H14712380   2.133   4.802   9.821
   72MYC    C5312381   2.268   4.659   9.911
   72MYC   H14812382   2.358   4.723   9.907
   72MYC   H14912383   2.301   4.556   9.893
   72MYC    C5212384   2.207   4.669  10.051
   72MYC    H9912385   2.119   4.604  10.058
   72MYC   H15012386   2.174   4.772  10.070
   72MYC    C5112387   2.309   4.627  10.157
   72MYC    H9712388   2.397   4.693  10.151
   72MYC    H9812389   2.344   4.526  10.135
   72MYC    C5012390   2.255   4.632  10.300
   72MYC    H9512391   2.170   4.564  10.309
   72MYC    H9612392   2.218   4.733  10.324
   72MYC    C4912393   2.365   4.593  10.400
   72MYC    H9312394   2.442   4.672  10.402
   72MYC    H9412395   2.415   4.501  10.365
   72MYC    C4812396   2.313   4.568  10.541
   72MYC    H9112397   2.238   4.488  10.538
   72MYC    H9212398   2.260   4.657  10.577
   72MYC    C4712399   2.426   4.533  10.639
   72MYC    H8912400   2.477   4.626  10.668
   72MYC    H9012401   2.501   4.470  10.590
   72MYC    C4612402   2.373   4.460  10.762
   72MYC    H8712403   2.353   4.355  10.736
   72MYC    H8812404   2.276   4.503  10.789
   72MYC    C4512405   2.468   4.463  10.884
   72MYC    H8512406   2.537   4.548  10.877
   72MYC    H8612407   2.530   4.372  10.883
   72MYC    C4412408   2.392   4.472  11.017
   72MYC    H8312409   2.463   4.454  11.098
   72MYC    H8412410   2.317   4.392  11.022
   72MYC    C1812411   2.324   4.608  11.037
   72MYC    H3112412   2.290   4.654  10.944
   72MYC    C1712413   2.239   4.636  11.158
   72MYC    H3012414   2.233   4.558  11.233
   72MYC    C1912415   2.373   4.704  11.143
   72MYC    H3212416   2.454   4.671  11.206
   72MYC    H3312417   2.374   4.810  11.119
   72MYC    C1612418   2.110   4.718  11.146
   72MYC    H2812419   2.124   4.798  11.074
   72MYC    H2912420   2.093   4.766  11.243
   72MYC    C1512421   1.983   4.638  11.109
   72MYC    H2612422   1.897   4.704  11.124
   72MYC    H2712423   1.970   4.554  11.177
   72MYC    C1412424   1.978   4.587  10.963
   72MYC    H2412425   2.056   4.512  10.950
   72MYC    H2512426   2.002   4.670  10.895
   72MYC    C1312427   1.839   4.529  10.923
   72MYC    H2212428   1.765   4.609  10.929
   72MYC    H2312429   1.809   4.453  10.996
   72MYC    C1212430   1.835   4.466  10.782
   72MYC    H2012431   1.875   4.364  10.788
   72MYC    H2112432   1.901   4.523  10.715
   72MYC    C1112433   1.694   4.458  10.719
   72MYC    H1812434   1.650   4.559  10.715
   72MYC    H1912435   1.630   4.399  10.786
   72MYC    C1012436   1.688   4.395  10.577
   72MYC    H1612437   1.583   4.380  10.550
   72MYC    H1712438   1.734   4.295  10.580
   72MYC     C912439   1.756   4.479  10.466
   72MYC    H1412440   1.863   4.487  10.485
   72MYC    H1512441   1.715   4.581  10.469
   72MYC     C812442   1.735   4.422  10.323
   72MYC    H1212443   1.627   4.419  10.302
   72MYC    H1312444   1.772   4.319  10.319
   72MYC     C712445   1.806   4.506  10.213
   72MYC    H1012446   1.914   4.496  10.224
   72MYC    H1112447   1.783   4.612  10.229
   72MYC     C612448   1.764   4.468  10.069
   72MYC     H812449   1.656   4.486  10.059
   72MYC     H912450   1.779   4.360  10.053
   72MYC     C512451   1.839   4.548   9.959
   72MYC     H612452   1.938   4.503   9.941
   72MYC     H712453   1.858   4.649   9.997
   72MYC     C412454   1.762   4.563   9.825
   72MYC     H412455   1.800   4.653   9.775
   72MYC     H512456   1.658   4.585   9.849
   72MYC     C212457   1.770   4.448   9.720
   72MYC     H212458   1.854   4.471   9.654
   72MYC     O312459   1.795   4.322   9.783
   72MYC     H312460   1.735   4.256   9.743
   72MYC     C112461   1.640   4.440   9.633
   72MYC     H112462   1.609   4.543   9.615
   72MYC    C8112463   1.525   4.372   9.711
   72MYC    O8212464   1.515   4.251   9.728
   72MYC    O8312465   1.437   4.458   9.767
   72MYC   H10512466   1.373   4.402   9.814
   72MYC    C2012467   1.659   4.371   9.496
   72MYC    H3412468   1.717   4.278   9.508
   72MYC    H3512469   1.560   4.341   9.459
   72MYC    C2112470   1.725   4.459   9.388
   72MYC    H3612471   1.678   4.558   9.387
   72MYC    H3712472   1.832   4.474   9.411
   72MYC    C2212473   1.711   4.397   9.247
   72MYC    H3812474   1.760   4.299   9.245
   72MYC    H3912475   1.604   4.379   9.228
   72MYC    C2312476   1.767   4.484   9.133
   72MYC    H4012477   1.729   4.586   9.142
   72MYC    H4112478   1.876   4.489   9.142
   72MYC    C2412479   1.730   4.428   8.995
   72MYC    H4212480   1.766   4.325   8.986
   72MYC    H4312481   1.620   4.424   8.987
   72MYC    C2512482   1.785   4.510   8.877
   72MYC    H4412483   1.757   4.616   8.889
   72MYC    H4512484   1.894   4.505   8.876
   72MYC    C2612485   1.731   4.460   8.742
   72MYC    H4612486   1.756   4.353   8.730
   72MYC    H4712487   1.621   4.467   8.742
   72MYC    C2712488   1.785   4.537   8.620
   72MYC    H4812489   1.763   4.644   8.632
   72MYC    H4912490   1.895   4.527   8.617
   72MYC    C2812491   1.725   4.486   8.488
   72MYC    H5012492   1.745   4.379   8.478
   72MYC    H5112493   1.616   4.498   8.493
   72MYC    C2912494   1.778   4.559   8.364
   72MYC    H5212495   1.762   4.667   8.375
   72MYC    H5312496   1.886   4.543   8.356
   72MYC    C3012497   1.710   4.510   8.235
   72MYC    H5412498   1.724   4.401   8.225
   72MYC    H5512499   1.602   4.527   8.243
   72MYC    C3112500   1.762   4.578   8.107
   72MYC    H5612501   1.754   4.687   8.119
   72MYC    H5712502   1.869   4.555   8.095
   72MYC    C3212503   1.685   4.534   7.982
   72MYC    H5812504   1.690   4.425   7.973
   72MYC    H5912505   1.579   4.560   7.994
   72MYC    C3312506   1.737   4.597   7.851
   72MYC    H6012507   1.738   4.706   7.861
   72MYC    H6112508   1.841   4.565   7.835
   72MYC    C3412509   1.651   4.557   7.730
   72MYC    H6212510   1.645   4.447   7.725
   72MYC    H6312511   1.549   4.593   7.745
   72MYC    C3512512   1.705   4.610   7.596
   72MYC    H6412513   1.714   4.719   7.601
   72MYC    H6512514   1.805   4.570   7.578
   72MYC    C3612515   1.613   4.571   7.478
   72MYC    H6612516   1.600   4.462   7.477
   72MYC    H6712517   1.514   4.615   7.494
   72MYC    C3712518   1.666   4.616   7.341
   72MYC    H6812519   1.680   4.725   7.341
   72MYC    H6912520   1.765   4.571   7.324
   72MYC    C3812521   1.572   4.576   7.225
   72MYC    H7012522   1.556   4.468   7.228
   72MYC    H7112523   1.474   4.623   7.241
   72MYC    C3912524   1.626   4.615   7.086
   72MYC    H7212525   1.642   4.723   7.083
   72MYC    H7312526   1.724   4.567   7.071
   72MYC    C4012527   1.531   4.574   6.971
   72MYC    H7412528   1.514   4.465   6.976
   72MYC    H7512529   1.434   4.622   6.985
   72MYC    C4112530   1.587   4.609   6.832
   72MYC    H7612531   1.605   4.718   6.827
   72MYC    H7712532   1.685   4.560   6.819
   72MYC    C4212533   1.494   4.567   6.717
   72MYC    H7812534   1.476   4.459   6.722
   72MYC    H7912535   1.396   4.616   6.729
   72MYC    C4312536   1.551   4.602   6.578
   72MYC    H8012537   1.482   4.570   6.499
   72MYC    H8112538   1.647   4.553   6.562
   72MYC    H8212539   1.565   4.710   6.568
   73MYC   HH1512540   2.725   5.083   6.574
   73MYC    C8012541   2.692   5.035   6.667
   73MYC   H10012542   2.583   5.034   6.668
   73MYC   H10112543   2.728   4.932   6.666
   73MYC    C7912544   2.748   5.112   6.789
   73MYC   H10212545   2.717   5.217   6.782
   73MYC   H10312546   2.857   5.110   6.785
   73MYC    C7812547   2.700   5.053   6.923
   73MYC   HH1412548   2.728   4.948   6.929
   73MYC   H10412549   2.591   5.057   6.927
   73MYC    C7712550   2.758   5.128   7.045
   73MYC   H10612551   2.733   5.234   7.039
   73MYC   H10712552   2.868   5.121   7.043
   73MYC    C7612553   2.707   5.071   7.179
   73MYC   H10812554   2.730   4.964   7.183
   73MYC   H10912555   2.598   5.081   7.183
   73MYC    C7512556   2.769   5.140   7.303
   73MYC   H11012557   2.741   5.246   7.303
   73MYC   H11112558   2.878   5.135   7.297
   73MYC    C7412559   2.723   5.074   7.435
   73MYC   H11212560   2.750   4.968   7.432
   73MYC   H11312561   2.613   5.079   7.441
   73MYC    C7312562   2.783   5.138   7.561
   73MYC   HH1312563   2.744   5.240   7.573
   73MYC   H11412564   2.892   5.146   7.550
   73MYC    C7212565   2.751   5.056   7.688
   73MYC   H11512566   2.800   4.958   7.680
   73MYC   H11612567   2.643   5.037   7.691
   73MYC    C7112568   2.794   5.123   7.820
   73MYC   H11712569   2.741   5.219   7.829
   73MYC   H11812570   2.901   5.145   7.817
   73MYC    C7012571   2.762   5.035   7.942
   73MYC   H11912572   2.825   4.945   7.939
   73MYC   H12012573   2.658   5.001   7.935
   73MYC    C6912574   2.781   5.107   8.077
   73MYC   H12112575   2.722   5.199   8.077
   73MYC   H12212576   2.886   5.135   8.088
   73MYC    C6812577   2.737   5.019   8.196
   73MYC   HH1212578   2.800   4.929   8.200
   73MYC   H12312579   2.634   4.986   8.181
   73MYC    C6712580   2.747   5.093   8.331
   73MYC   H12412581   2.684   5.183   8.328
   73MYC   H12512582   2.850   5.127   8.346
   73MYC    C6612583   2.706   5.006   8.451
   73MYC   H12612584   2.765   4.913   8.449
   73MYC   H12712585   2.600   4.977   8.441
   73MYC    C6512586   2.728   5.076   8.587
   73MYC   H12812587   2.661   5.163   8.595
   73MYC   H12912588   2.831   5.115   8.589
   73MYC    C6412589   2.707   4.982   8.707
   73MYC   H13012590   2.755   4.886   8.685
   73MYC   H13112591   2.600   4.962   8.721
   73MYC    C6312592   2.768   5.039   8.838
   73MYC   HH1112593   2.714   5.129   8.870
   73MYC   H13212594   2.871   5.070   8.817
   73MYC    C6212595   2.772   4.935   8.952
   73MYC   H13312596   2.860   4.955   9.014
   73MYC   H13412597   2.789   4.837   8.908
   73MYC    C6112598   2.645   4.927   9.040
   73MYC   H13512599   2.624   4.822   9.060
   73MYC   H13612600   2.558   4.965   8.985
   73MYC    C6012601   2.662   5.002   9.172
   73MYC   H13712602   2.649   5.109   9.162
   73MYC    C5812603   2.620   4.937   9.302
   73MYC   H13812604   2.581   4.836   9.296
   73MYC    C5912605   2.766   4.956   9.272
   73MYC   H13912606   2.821   5.032   9.326
   73MYC   H14012607   2.824   4.867   9.248
   73MYC    C5712608   2.556   5.016   9.415
   73MYC   HH1012609   2.447   5.022   9.400
   73MYC   H14112610   2.593   5.119   9.416
   73MYC    C5612611   2.585   4.950   9.551
   73MYC   H14212612   2.694   4.942   9.564
   73MYC   H14312613   2.545   4.847   9.550
   73MYC    C5512614   2.526   5.025   9.671
   73MYC   H14412615   2.417   5.030   9.661
   73MYC   H14512616   2.563   5.129   9.670
   73MYC    C5412617   2.563   4.959   9.805
   73MYC   H14612618   2.673   4.952   9.812
   73MYC   H14712619   2.525   4.856   9.806
   73MYC    C5312620   2.509   5.035   9.927
   73MYC   H14812621   2.400   5.037   9.923
   73MYC   H14912622   2.544   5.139   9.922
   73MYC    C5212623   2.554   4.972  10.060
   73MYC    H9912624   2.663   4.959  10.058
   73MYC   H15012625   2.510   4.873  10.070
   73MYC    C5112626   2.516   5.058  10.182
   73MYC    H9712627   2.407   5.064  10.190
   73MYC    H9812628   2.553   5.161  10.165
   73MYC    C5012629   2.576   5.005  10.314
   73MYC    H9512630   2.683   4.985  10.299
   73MYC    H9612631   2.528   4.910  10.340
   73MYC    C4912632   2.559   5.105  10.431
   73MYC    H9312633   2.454   5.112  10.458
   73MYC    H9412634   2.592   5.204  10.397
   73MYC    C4812635   2.642   5.065  10.554
   73MYC    H9112636   2.747   5.060  10.523
   73MYC    H9212637   2.610   4.965  10.587
   73MYC    C4712638   2.633   5.162  10.674
   73MYC    H8912639   2.529   5.166  10.709
   73MYC    H9012640   2.661   5.262  10.641
   73MYC    C4612641   2.723   5.121  10.794
   73MYC    H8712642   2.825   5.105  10.759
   73MYC    H8812643   2.688   5.025  10.835
   73MYC    C4512644   2.722   5.228  10.905
   73MYC    H8512645   2.620   5.247  10.937
   73MYC    H8612646   2.759   5.322  10.862
   73MYC    C4412647   2.807   5.193  11.029
   73MYC    H8312648   2.822   5.286  11.086
   73MYC    H8412649   2.907   5.160  10.998
   73MYC    C1812650   2.743   5.090  11.122
   73MYC    H3112651   2.635   5.096  11.124
   73MYC    C1712652   2.806   4.954  11.145
   73MYC    H3012653   2.900   4.934  11.095
   73MYC    C1912654   2.809   5.058  11.254
   73MYC    H3212655   2.905   5.105  11.275
   73MYC    H3312656   2.745   5.044  11.340
   73MYC    C1612657   2.719   4.829  11.162
   73MYC    H2812658   2.621   4.846  11.115
   73MYC    H2912659   2.699   4.814  11.269
   73MYC    C1512660   2.779   4.698  11.106
   73MYC    H2612661   2.716   4.614  11.137
   73MYC    H2712662   2.878   4.681  11.151
   73MYC    C1412663   2.791   4.697  10.952
   73MYC    H2412664   2.854   4.780  10.919
   73MYC    H2512665   2.692   4.714  10.908
   73MYC    C1312666   2.848   4.564  10.895
   73MYC    H2212667   2.779   4.482  10.916
   73MYC    H2312668   2.943   4.540  10.945
   73MYC    C1212669   2.874   4.574  10.743
   73MYC    H2012670   2.952   4.649  10.726
   73MYC    H2112671   2.781   4.609  10.695
   73MYC    C1112672   2.917   4.443  10.674
   73MYC    H1812673   2.833   4.373  10.679
   73MYC    H1912674   3.000   4.400  10.730
   73MYC    C1012675   2.961   4.459  10.526
   73MYC    H1612676   2.976   4.359  10.484
   73MYC    H1712677   3.059   4.509  10.523
   73MYC     C912678   2.864   4.538  10.434
   73MYC    H1412679   2.882   4.646  10.447
   73MYC    H1512680   2.760   4.521  10.466
   73MYC     C812681   2.877   4.503  10.284
   73MYC    H1212682   2.856   4.396  10.271
   73MYC    H1312683   2.980   4.521  10.251
   73MYC     C712684   2.781   4.585  10.194
   73MYC    H1012685   2.805   4.691  10.202
   73MYC    H1112686   2.678   4.572  10.231
   73MYC     C612687   2.785   4.543  10.045
   73MYC     H812688   2.759   4.436  10.038
   73MYC     H912689   2.887   4.554  10.008
   73MYC     C512690   2.687   4.625   9.957
   73MYC     H612691   2.721   4.729   9.953
   73MYC     H712692   2.590   4.626  10.007
   73MYC     C412693   2.666   4.572   9.813
   73MYC     H412694   2.572   4.613   9.776
   73MYC     H512695   2.651   4.463   9.818
   73MYC     C212696   2.777   4.606   9.709
   73MYC     H212697   2.793   4.714   9.712
   73MYC     O312698   2.899   4.541   9.745
   73MYC     H312699   2.881   4.446   9.758
   73MYC     C112700   2.736   4.568   9.564
   73MYC     H112701   2.657   4.639   9.537
   73MYC    C8112702   2.674   4.427   9.555
   73MYC    O8212703   2.735   4.323   9.575
   73MYC    O8312704   2.543   4.428   9.523
   73MYC   H10512705   2.515   4.334   9.525
   73MYC    C2012706   2.848   4.588   9.457
   73MYC    H3412707   2.886   4.691   9.463
   73MYC    H3512708   2.933   4.522   9.479
   73MYC    C2112709   2.799   4.561   9.313
   73MYC    H3612710   2.753   4.461   9.308
   73MYC    H3712711   2.721   4.633   9.288
   73MYC    C2212712   2.910   4.566   9.205
   73MYC    H3812713   2.965   4.660   9.215
   73MYC    H3912714   2.981   4.484   9.221
   73MYC    C2312715   2.850   4.557   9.064
   73MYC    H4012716   2.779   4.473   9.059
   73MYC    H4112717   2.791   4.648   9.047
   73MYC    C2412718   2.953   4.541   8.949
   73MYC    H4212719   3.045   4.593   8.975
   73MYC    H4312720   2.979   4.435   8.940
   73MYC    C2512721   2.899   4.594   8.815
   73MYC    H4412722   2.789   4.594   8.816
   73MYC    H4512723   2.930   4.698   8.804
   73MYC    C2612724   2.945   4.516   8.690
   73MYC    H4612725   3.054   4.510   8.687
   73MYC    H4712726   2.906   4.413   8.695
   73MYC    C2712727   2.892   4.583   8.561
   73MYC    H4812728   2.783   4.593   8.568
   73MYC    H4912729   2.934   4.684   8.555
   73MYC    C2812730   2.927   4.506   8.432
   73MYC    H5012731   3.036   4.493   8.426
   73MYC    H5112732   2.882   4.407   8.435
   73MYC    C2912733   2.878   4.581   8.307
   73MYC    H5212734   2.768   4.588   8.309
   73MYC    H5312735   2.916   4.684   8.310
   73MYC    C3012736   2.923   4.516   8.175
   73MYC    H5412737   3.032   4.505   8.175
   73MYC    H5512738   2.880   4.415   8.168
   73MYC    C3112739   2.880   4.598   8.052
   73MYC    H5612740   2.771   4.603   8.048
   73MYC    H5712741   2.917   4.701   8.062
   73MYC    C3212742   2.933   4.539   7.920
   73MYC    H5812743   3.043   4.534   7.924
   73MYC    H5912744   2.897   4.436   7.909
   73MYC    C3312745   2.891   4.622   7.797
   73MYC    H6012746   2.781   4.626   7.793
   73MYC    H6112747   2.927   4.725   7.807
   73MYC    C3412748   2.944   4.563   7.664
   73MYC    H6212749   3.054   4.565   7.665
   73MYC    H6312750   2.914   4.457   7.658
   73MYC    C3512751   2.891   4.638   7.540
   73MYC    H6412752   2.781   4.635   7.542
   73MYC    H6512753   2.921   4.743   7.546
   73MYC    C3612754   2.942   4.577   7.408
   73MYC    H6612755   3.050   4.588   7.402
   73MYC    H6712756   2.920   4.469   7.408
   73MYC    C3712757   2.876   4.641   7.285
   73MYC    H6812758   2.767   4.629   7.292
   73MYC    H6912759   2.896   4.749   7.285
   73MYC    C3812760   2.925   4.580   7.152
   73MYC    H7012761   3.032   4.602   7.139
   73MYC    H7112762   2.915   4.471   7.156
   73MYC    C3912763   2.847   4.634   7.030
   73MYC    H7212764   2.741   4.608   7.042
   73MYC    H7312765   2.854   4.743   7.028
   73MYC    C4012766   2.898   4.578   6.896
   73MYC    H7412767   3.003   4.607   6.882
   73MYC    H7512768   2.895   4.468   6.899
   73MYC    C4112769   2.815   4.627   6.775
   73MYC    H7612770   2.711   4.596   6.788
   73MYC    H7712771   2.816   4.737   6.775
   73MYC    C4212772   2.867   4.575   6.640
   73MYC    H7812773   2.972   4.606   6.627
   73MYC    H7912774   2.867   4.465   6.641
   73MYC    C4312775   2.784   4.624   6.520
   73MYC    H8012776   2.824   4.583   6.427
   73MYC    H8112777   2.787   4.733   6.513
   73MYC    H8212778   2.680   4.593   6.530
   74MYC   HH1512779   3.134   4.980   6.655
   74MYC    C8012780   3.180   4.918   6.733
   74MYC   H10012781   3.151   4.813   6.715
   74MYC   H10112782   3.289   4.925   6.723
   74MYC    C7912783   3.136   4.964   6.873
   74MYC   H10212784   3.027   4.953   6.881
   74MYC   H10312785   3.159   5.070   6.884
   74MYC    C7812786   3.203   4.884   6.986
   74MYC   HH1412787   3.312   4.895   6.978
   74MYC   H10412788   3.180   4.778   6.975
   74MYC    C7712789   3.158   4.930   7.127
   74MYC   H10612790   3.050   4.915   7.137
   74MYC   H10712791   3.177   5.038   7.137
   74MYC    C7612792   3.233   4.855   7.239
   74MYC   H10812793   3.340   4.872   7.228
   74MYC   H10912794   3.215   4.748   7.228
   74MYC    C7512795   3.189   4.900   7.380
   74MYC   H11012796   3.082   4.881   7.392
   74MYC   H11112797   3.203   5.008   7.390
   74MYC    C7412798   3.267   4.828   7.491
   74MYC   H11212799   3.374   4.849   7.479
   74MYC   H11312800   3.255   4.720   7.480
   74MYC    C7312801   3.222   4.870   7.631
   74MYC   HH1312802   3.116   4.844   7.645
   74MYC   H11412803   3.229   4.979   7.641
   74MYC    C7212804   3.305   4.804   7.743
   74MYC   H11512805   3.410   4.836   7.734
   74MYC   H11612806   3.303   4.695   7.730
   74MYC    C7112807   3.251   4.839   7.882
   74MYC   H11712808   3.149   4.800   7.892
   74MYC   H11812809   3.245   4.948   7.892
   74MYC    C7012810   3.338   4.783   7.996
   74MYC   H11912811   3.436   4.832   7.995
   74MYC   H12012812   3.354   4.676   7.982
   74MYC    C6912813   3.270   4.806   8.132
   74MYC   H12112814   3.176   4.749   8.135
   74MYC   H12212815   3.243   4.912   8.142
   74MYC    C6812816   3.357   4.766   8.253
   74MYC   HH1212817   3.444   4.833   8.258
   74MYC   H12312818   3.394   4.664   8.241
   74MYC    C6712819   3.276   4.777   8.383
   74MYC   H12412820   3.200   4.698   8.384
   74MYC   H12512821   3.221   4.872   8.382
   74MYC    C6612822   3.360   4.770   8.511
   74MYC   H12612823   3.434   4.851   8.510
   74MYC   H12712824   3.414   4.675   8.517
   74MYC    C6512825   3.269   4.787   8.634
   74MYC   H12812826   3.206   4.697   8.644
   74MYC   H12912827   3.200   4.871   8.616
   74MYC    C6412828   3.342   4.812   8.766
   74MYC   H13012829   3.411   4.897   8.755
   74MYC   H13112830   3.402   4.724   8.793
   74MYC    C6312831   3.241   4.843   8.877
   74MYC   HH1112832   3.169   4.760   8.883
   74MYC   H13212833   3.183   4.932   8.849
   74MYC    C6212834   3.303   4.865   9.016
   74MYC   H13312835   3.366   4.954   9.014
   74MYC   H13412836   3.367   4.780   9.041
   74MYC    C6112837   3.193   4.880   9.122
   74MYC   H13512838   3.136   4.787   9.125
   74MYC   H13612839   3.122   4.958   9.091
   74MYC    C6012840   3.246   4.913   9.260
   74MYC   H13712841   3.264   5.020   9.273
   74MYC    C5812842   3.194   4.837   9.379
   74MYC   H13812843   3.129   4.752   9.360
   74MYC    C5912844   3.338   4.821   9.336
   74MYC   H13912845   3.415   4.866   9.398
   74MYC   H14012846   3.366   4.727   9.290
   74MYC    C5712847   3.157   4.910   9.507
   74MYC   HH1012848   3.055   4.948   9.499
   74MYC   H14112849   3.223   4.996   9.522
   74MYC    C5612850   3.168   4.818   9.629
   74MYC   H14212851   3.272   4.785   9.638
   74MYC   H14312852   3.106   4.728   9.614
   74MYC    C5512853   3.125   4.887   9.760
   74MYC   H14412854   3.017   4.905   9.759
   74MYC   H14512855   3.174   4.985   9.767
   74MYC    C5412856   3.163   4.804   9.883
   74MYC   H14612857   3.272   4.791   9.884
   74MYC   H14712858   3.119   4.703   9.875
   74MYC    C5312859   3.119   4.868  10.015
   74MYC   H14812860   3.010   4.862  10.024
   74MYC   H14912861   3.147   4.974  10.015
   74MYC    C5212862   3.186   4.800  10.136
   74MYC    H9912863   3.294   4.809  10.127
   74MYC   H15012864   3.162   4.692  10.135
   74MYC    C5112865   3.142   4.860  10.269
   74MYC    H9712866   3.035   4.838  10.286
   74MYC    H9812867   3.151   4.970  10.265
   74MYC    C5012868   3.225   4.808  10.388
   74MYC    H9512869   3.330   4.837  10.375
   74MYC    H9612870   3.220   4.699  10.390
   74MYC    C4912871   3.173   4.865  10.520
   74MYC    H9312872   3.068   4.837  10.528
   74MYC    H9412873   3.177   4.974  10.519
   74MYC    C4812874   3.247   4.812  10.644
   74MYC    H9112875   3.352   4.843  10.640
   74MYC    H9212876   3.245   4.702  10.641
   74MYC    C4712877   3.181   4.861  10.774
   74MYC    H8912878   3.074   4.841  10.770
   74MYC    H9012879   3.193   4.969  10.784
   74MYC    C4612880   3.240   4.790  10.897
   74MYC    H8712881   3.346   4.816  10.908
   74MYC    H8812882   3.234   4.683  10.877
   74MYC    C4512883   3.164   4.822  11.026
   74MYC    H8512884   3.058   4.796  11.012
   74MYC    H8612885   3.168   4.929  11.047
   74MYC    C4412886   3.215   4.744  11.149
   74MYC    H8312887   3.154   4.770  11.235
   74MYC    H8412888   3.317   4.778  11.172
   74MYC    C1812889   3.214   4.593  11.130
   74MYC    H3112890   3.115   4.554  11.107
   74MYC    C1712891   3.332   4.519  11.069
   74MYC    H3012892   3.419   4.579  11.045
   74MYC    C1912893   3.301   4.506  11.216
   74MYC    H3212894   3.368   4.557  11.283
   74MYC    H3312895   3.261   4.413  11.251
   74MYC    C1612896   3.312   4.399  10.977
   74MYC    H2812897   3.219   4.410  10.920
   74MYC    H2912898   3.300   4.308  11.038
   74MYC    C1512899   3.429   4.376  10.880
   74MYC    H2612900   3.415   4.280  10.829
   74MYC    H2712901   3.522   4.369  10.937
   74MYC    C1412902   3.441   4.487  10.773
   74MYC    H2412903   3.444   4.585  10.820
   74MYC    H2512904   3.352   4.484  10.709
   74MYC    C1312905   3.567   4.472  10.685
   74MYC    H2212906   3.567   4.373  10.638
   74MYC    H2312907   3.656   4.479  10.749
   74MYC    C1212908   3.574   4.581  10.576
   74MYC    H2012909   3.565   4.680  10.622
   74MYC    H2112910   3.488   4.569  10.509
   74MYC    C1112911   3.706   4.574  10.496
   74MYC    H1812912   3.721   4.471  10.460
   74MYC    H1912913   3.790   4.596  10.564
   74MYC    C1012914   3.713   4.670  10.376
   74MYC    H1612915   3.812   4.658  10.330
   74MYC    H1712916   3.705   4.774  10.410
   74MYC     C912917   3.605   4.643  10.268
   74MYC    H1412918   3.513   4.698  10.293
   74MYC    H1512919   3.579   4.536  10.269
   74MYC     C812920   3.651   4.679  10.126
   74MYC    H1212921   3.742   4.621  10.104
   74MYC    H1312922   3.680   4.785  10.122
   74MYC     C712923   3.544   4.650  10.019
   74MYC    H1012924   3.478   4.737  10.010
   74MYC    H1112925   3.482   4.565  10.050
   74MYC     C612926   3.605   4.617   9.881
   74MYC     H812927   3.670   4.529   9.892
   74MYC     H912928   3.670   4.700   9.851
   74MYC     C512929   3.498   4.589   9.774
   74MYC     H612930   3.444   4.681   9.750
   74MYC     H712931   3.425   4.520   9.817
   74MYC     C412932   3.554   4.524   9.644
   74MYC     H412933   3.469   4.480   9.590
   74MYC     H512934   3.617   4.439   9.672
   74MYC     C212935   3.628   4.617   9.543
   74MYC     H212936   3.558   4.634   9.461
   74MYC     O312937   3.657   4.745   9.600
   74MYC     H312938   3.724   4.731   9.670
   74MYC     C112939   3.759   4.558   9.484
   74MYC     H112940   3.731   4.467   9.428
   74MYC    C8112941   3.858   4.516   9.595
   74MYC    O8212942   3.913   4.594   9.671
   74MYC    O8312943   3.877   4.382   9.605
   74MYC   H10512944   3.939   4.370   9.679
   74MYC    C2012945   3.831   4.654   9.385
   74MYC    H3412946   3.857   4.746   9.437
   74MYC    H3512947   3.927   4.609   9.355
   74MYC    C2112948   3.751   4.688   9.257
   74MYC    H3612949   3.769   4.608   9.184
   74MYC    H3712950   3.643   4.689   9.275
   74MYC    C2212951   3.792   4.825   9.198
   74MYC    H3812952   3.760   4.903   9.268
   74MYC    H3912953   3.901   4.830   9.193
   74MYC    C2312954   3.733   4.856   9.060
   74MYC    H4012955   3.623   4.856   9.065
   74MYC    H4112956   3.763   4.957   9.032
   74MYC    C2412957   3.779   4.757   8.950
   74MYC    H4212958   3.885   4.736   8.963
   74MYC    H4312959   3.725   4.662   8.963
   74MYC    C2512960   3.755   4.810   8.808
   74MYC    H4412961   3.650   4.837   8.796
   74MYC    H4512962   3.814   4.901   8.794
   74MYC    C2612963   3.794   4.707   8.701
   74MYC    H4612964   3.898   4.675   8.715
   74MYC    H4712965   3.731   4.617   8.713
   74MYC    C2712966   3.776   4.762   8.558
   74MYC    H4812967   3.674   4.801   8.548
   74MYC    H4912968   3.844   4.847   8.544
   74MYC    C2812969   3.802   4.657   8.449
   74MYC    H5012970   3.907   4.628   8.450
   74MYC    H5112971   3.743   4.567   8.470
   74MYC    C2912972   3.763   4.710   8.310
   74MYC    H5212973   3.658   4.740   8.312
   74MYC    H5312974   3.821   4.801   8.288
   74MYC    C3012975   3.784   4.609   8.196
   74MYC    H5412976   3.892   4.595   8.180
   74MYC    H5512977   3.743   4.511   8.226
   74MYC    C3112978   3.716   4.655   8.066
   74MYC    H5612979   3.607   4.656   8.082
   74MYC    H5712980   3.746   4.758   8.044
   74MYC    C3212981   3.748   4.566   7.945
   74MYC    H5812982   3.856   4.572   7.924
   74MYC    H5912983   3.725   4.462   7.967
   74MYC    C3312984   3.669   4.611   7.820
   74MYC    H6012985   3.562   4.591   7.835
   74MYC    H6112986   3.680   4.719   7.807
   74MYC    C3412987   3.716   4.541   7.691
   74MYC    H6212988   3.824   4.558   7.679
   74MYC    H6312989   3.701   4.433   7.699
   74MYC    C3512990   3.642   4.594   7.566
   74MYC    H6412991   3.536   4.568   7.572
   74MYC    H6512992   3.648   4.703   7.565
   74MYC    C3612993   3.702   4.539   7.434
   74MYC    H6612994   3.810   4.555   7.435
   74MYC    H6712995   3.686   4.430   7.429
   74MYC    C3712996   3.642   4.606   7.309
   74MYC    H6812997   3.535   4.582   7.302
   74MYC    H6912998   3.650   4.715   7.320
   74MYC    C3812999   3.714   4.564   7.179
   74MYC    H7013000   3.822   4.577   7.192
   74MYC    H7113001   3.697   4.457   7.162
   74MYC    C3913002   3.667   4.644   7.056
   74MYC    H7213003   3.561   4.626   7.038
   74MYC    H7313004   3.678   4.751   7.077
   74MYC    C4013005   3.747   4.609   6.929
   74MYC    H7413006   3.855   4.622   6.949
   74MYC    H7513007   3.732   4.503   6.904
   74MYC    C4113008   3.708   4.697   6.808
   74MYC    H7613009   3.601   4.683   6.787
   74MYC    H7713010   3.723   4.802   6.833
   74MYC    C4213011   3.790   4.663   6.681
   74MYC    H7813012   3.897   4.674   6.702
   74MYC    H7913013   3.773   4.559   6.653
   74MYC    C4313014   3.753   4.753   6.561
   74MYC    H8013015   3.814   4.727   6.474
   74MYC    H8113016   3.772   4.859   6.585
   74MYC    H8213017   3.647   4.742   6.535
   75MYC   HH1513018   4.201   4.814   6.630
   75MYC    C8013019   4.257   4.784   6.719
   75MYC   H10013020   4.280   4.677   6.710
   75MYC   H10113021   4.351   4.839   6.721
   75MYC    C7913022   4.175   4.812   6.846
   75MYC   H10213023   4.078   4.761   6.839
   75MYC   H10313024   4.154   4.919   6.852
   75MYC    C7813025   4.246   4.766   6.975
   75MYC   HH1413026   4.345   4.814   6.981
   75MYC   H10413027   4.264   4.658   6.970
   75MYC    C7713028   4.167   4.799   7.103
   75MYC   H10613029   4.066   4.755   7.096
   75MYC   H10713030   4.154   4.908   7.110
   75MYC    C7613031   4.236   4.748   7.231
   75MYC   H10813032   4.338   4.787   7.235
   75MYC   H10913033   4.244   4.639   7.226
   75MYC    C7513034   4.162   4.788   7.360
   75MYC   H11013035   4.060   4.748   7.358
   75MYC   H11113036   4.154   4.897   7.365
   75MYC    C7413037   4.234   4.738   7.487
   75MYC   H11213038   4.336   4.778   7.488
   75MYC   H11313039   4.243   4.629   7.483
   75MYC    C7313040   4.163   4.778   7.618
   75MYC   HH1313041   4.065   4.730   7.622
   75MYC   H11413042   4.145   4.887   7.617
   75MYC    C7213043   4.245   4.742   7.743
   75MYC   H11513044   4.339   4.797   7.741
   75MYC   H11613045   4.269   4.635   7.741
   75MYC    C7113046   4.171   4.773   7.874
   75MYC   H11713047   4.084   4.706   7.884
   75MYC   H11813048   4.131   4.876   7.870
   75MYC    C7013049   4.261   4.760   7.998
   75MYC   H11913050   4.342   4.834   7.992
   75MYC   H12013051   4.309   4.661   7.999
   75MYC    C6913052   4.184   4.779   8.130
   75MYC   H12113053   4.112   4.698   8.142
   75MYC   H12213054   4.127   4.873   8.125
   75MYC    C6813055   4.276   4.784   8.253
   75MYC   HH1213056   4.346   4.868   8.243
   75MYC   H12313057   4.337   4.693   8.258
   75MYC    C6713058   4.197   4.799   8.384
   75MYC   H12413059   4.131   4.712   8.397
   75MYC   H12513060   4.132   4.887   8.377
   75MYC    C6613061   4.287   4.813   8.508
   75MYC   H12613062   4.354   4.899   8.495
   75MYC   H12713063   4.350   4.725   8.519
   75MYC    C6513064   4.205   4.833   8.637
   75MYC   H12813065   4.138   4.747   8.651
   75MYC   H12913066   4.140   4.921   8.624
   75MYC    C6413067   4.292   4.852   8.762
   75MYC   H13013068   4.363   4.934   8.745
   75MYC   H13113069   4.350   4.761   8.780
   75MYC    C6313070   4.207   4.885   8.886
   75MYC   HH1113071   4.133   4.805   8.901
   75MYC   H13213072   4.151   4.977   8.868
   75MYC    C6213073   4.290   4.900   9.015
   75MYC   H13313074   4.369   4.975   8.999
   75MYC   H13413075   4.340   4.805   9.037
   75MYC    C6113076   4.203   4.942   9.135
   75MYC   H13513077   4.115   4.878   9.137
   75MYC   H13613078   4.167   5.045   9.119
   75MYC    C6013079   4.276   4.932   9.268
   75MYC   H13713080   4.360   5.001   9.276
   75MYC    C5813081   4.199   4.902   9.393
   75MYC   H13813082   4.093   4.882   9.382
   75MYC    C5913083   4.292   4.798   9.335
   75MYC   H13913084   4.386   4.779   9.387
   75MYC   H14013085   4.246   4.712   9.288
   75MYC    C5713086   4.230   4.969   9.526
   75MYC   HH1013087   4.169   5.060   9.533
   75MYC   H14113088   4.335   5.001   9.530
   75MYC    C5613089   4.199   4.876   9.645
   75MYC   H14213090   4.287   4.813   9.665
   75MYC   H14313091   4.117   4.808   9.619
   75MYC    C5513092   4.159   4.952   9.773
   75MYC   H14413093   4.067   5.009   9.753
   75MYC   H14513094   4.237   5.024   9.800
   75MYC    C5413095   4.134   4.857   9.892
   75MYC   H14613096   4.230   4.813   9.922
   75MYC   H14713097   4.070   4.774   9.860
   75MYC    C5313098   4.068   4.927  10.013
   75MYC   H14813099   3.966   4.956   9.986
   75MYC   H14913100   4.123   5.019  10.035
   75MYC    C5213101   4.067   4.837  10.138
   75MYC    H9913102   4.171   4.810  10.161
   75MYC   H15013103   4.014   4.744  10.116
   75MYC    C5113104   4.004   4.905  10.262
   75MYC    H9713105   3.894   4.901  10.254
   75MYC    H9813106   4.032   5.011  10.264
   75MYC    C5013107   4.051   4.839  10.393
   75MYC    H9513108   4.161   4.844  10.393
   75MYC    H9613109   4.026   4.732  10.392
   75MYC    C4913110   3.997   4.904  10.522
   75MYC    H9313111   3.901   4.858  10.549
   75MYC    H9413112   3.980   5.011  10.506
   75MYC    C4813113   4.099   4.887  10.637
   75MYC    H9113114   4.190   4.939  10.607
   75MYC    H9213115   4.125   4.781  10.648
   75MYC    C4713116   4.055   4.942  10.774
   75MYC    H8913117   3.978   4.877  10.817
   75MYC    H9013118   4.010   5.041  10.762
   75MYC    C4613119   4.176   4.952  10.871
   75MYC    H8713120   4.248   5.024  10.828
   75MYC    H8813121   4.227   4.855  10.875
   75MYC    C4513122   4.140   4.996  11.014
   75MYC    H8513123   4.083   4.916  11.063
   75MYC    H8613124   4.073   5.083  11.008
   75MYC    C4413125   4.262   5.035  11.101
   75MYC    H8313126   4.224   5.078  11.195
   75MYC    H8413127   4.315   5.117  11.052
   75MYC    C1813128   4.360   4.922  11.133
   75MYC    H3113129   4.329   4.825  11.095
   75MYC    C1713130   4.509   4.950  11.140
   75MYC    H3013131   4.539   5.053  11.124
   75MYC    C1913132   4.432   4.922  11.267
   75MYC    H3213133   4.417   5.006  11.334
   75MYC    H3313134   4.448   4.826  11.315
   75MYC    C1613135   4.615   4.851  11.093
   75MYC    H2813136   4.581   4.748  11.110
   75MYC    H2913137   4.705   4.864  11.154
   75MYC    C1513138   4.654   4.866  10.945
   75MYC    H2613139   4.730   4.792  10.921
   75MYC    H2713140   4.701   4.965  10.929
   75MYC    C1413141   4.536   4.850  10.848
   75MYC    H2413142   4.476   4.942  10.851
   75MYC    H2513143   4.472   4.768  10.882
   75MYC    C1313144   4.578   4.822  10.702
   75MYC    H2213145   4.624   4.723  10.696
   75MYC    H2313146   4.653   4.896  10.671
   75MYC    C1213147   4.457   4.829  10.607
   75MYC    H2013148   4.421   4.933  10.605
   75MYC    H2113149   4.376   4.768  10.649
   75MYC    C1113150   4.483   4.782  10.463
   75MYC    H1813151   4.391   4.796  10.405
   75MYC    H1913152   4.503   4.674  10.464
   75MYC    C1013153   4.599   4.854  10.391
   75MYC    H1613154   4.694   4.824  10.436
   75MYC    H1713155   4.590   4.963  10.403
   75MYC     C913156   4.601   4.820  10.241
   75MYC    H1413157   4.514   4.867  10.192
   75MYC    H1513158   4.588   4.711  10.229
   75MYC     C813159   4.730   4.861  10.167
   75MYC    H1213160   4.815   4.809  10.213
   75MYC    H1313161   4.748   4.969  10.180
   75MYC     C713162   4.722   4.828  10.016
   75MYC    H1013163   4.676   4.912   9.963
   75MYC    H1113164   4.656   4.742  10.003
   75MYC     C613165   4.859   4.796   9.953
   75MYC     H813166   4.905   4.713  10.009
   75MYC     H913167   4.926   4.882   9.965
   75MYC     C513168   4.852   4.756   9.804
   75MYC     H613169   4.955   4.739   9.770
   75MYC     H713170   4.814   4.840   9.746
   75MYC     C413171   4.766   4.629   9.776
   75MYC     H413172   4.661   4.651   9.798
   75MYC     H513173   4.797   4.549   9.844
   75MYC     C213174   4.775   4.579   9.630
   75MYC     H213175   4.750   4.664   9.565
   75MYC     O313176   4.910   4.540   9.603
   75MYC     H313177   4.929   4.461   9.657
   75MYC     C113178   4.677   4.462   9.595
   75MYC     H113179   4.576   4.505   9.605
   75MYC    C8113180   4.686   4.345   9.696
   75MYC    O8213181   4.774   4.261   9.694
   75MYC    O8313182   4.587   4.341   9.787
   75MYC   H10513183   4.606   4.263   9.842
   75MYC    C2013184   4.694   4.408   9.451
   75MYC    H3413185   4.796   4.370   9.438
   75MYC    H3513186   4.629   4.320   9.439
   75MYC    C2113187   4.662   4.507   9.338
   75MYC    H3613188   4.556   4.534   9.342
   75MYC    H3713189   4.719   4.600   9.351
   75MYC    C2213190   4.695   4.448   9.200
   75MYC    H3813191   4.804   4.437   9.192
   75MYC    H3913192   4.652   4.347   9.192
   75MYC    C2313193   4.644   4.533   9.082
   75MYC    H4013194   4.535   4.537   9.085
   75MYC    H4113195   4.681   4.636   9.091
   75MYC    C2413196   4.689   4.474   8.947
   75MYC    H4213197   4.798   4.483   8.938
   75MYC    H4313198   4.665   4.367   8.944
   75MYC    C2513199   4.623   4.541   8.825
   75MYC    H4413200   4.514   4.530   8.831
   75MYC    H4513201   4.645   4.648   8.825
   75MYC    C2613202   4.673   4.479   8.693
   75MYC    H4613203   4.781   4.494   8.685
   75MYC    H4713204   4.656   4.370   8.696
   75MYC    C2713205   4.604   4.535   8.567
   75MYC    H4813206   4.496   4.515   8.573
   75MYC    H4913207   4.617   4.644   8.564
   75MYC    C2813208   4.661   4.472   8.439
   75MYC    H5013209   4.769   4.493   8.435
   75MYC    H5113210   4.650   4.363   8.444
   75MYC    C2913211   4.594   4.523   8.311
   75MYC    H5213212   4.489   4.492   8.310
   75MYC    H5313213   4.596   4.633   8.310
   75MYC    C3013214   4.665   4.471   8.184
   75MYC    H5413215   4.770   4.504   8.186
   75MYC    H5513216   4.666   4.361   8.185
   75MYC    C3113217   4.600   4.520   8.054
   75MYC    H5613218   4.499   4.477   8.046
   75MYC    H5713219   4.588   4.629   8.057
   75MYC    C3213220   4.683   4.482   7.929
   75MYC    H5813221   4.781   4.530   7.936
   75MYC    H5913222   4.700   4.374   7.929
   75MYC    C3313223   4.614   4.524   7.798
   75MYC    H6013224   4.519   4.470   7.789
   75MYC    H6113225   4.591   4.631   7.801
   75MYC    C3413226   4.701   4.495   7.674
   75MYC    H6213227   4.791   4.557   7.677
   75MYC    H6313228   4.735   4.390   7.677
   75MYC    C3513229   4.626   4.519   7.542
   75MYC    H6413230   4.539   4.452   7.538
   75MYC    H6513231   4.587   4.622   7.540
   75MYC    C3613232   4.713   4.496   7.417
   75MYC    H6613233   4.791   4.573   7.412
   75MYC    H6713234   4.763   4.399   7.425
   75MYC    C3713235   4.629   4.498   7.287
   75MYC    H6813236   4.557   4.416   7.291
   75MYC    H6913237   4.572   4.592   7.282
   75MYC    C3813238   4.714   4.485   7.159
   75MYC    H7013239   4.777   4.573   7.148
   75MYC    H7113240   4.780   4.398   7.168
   75MYC    C3913241   4.625   4.468   7.034
   75MYC    H7213242   4.567   4.376   7.044
   75MYC    H7313243   4.553   4.551   7.029
   75MYC    C4013244   4.705   4.463   6.902
   75MYC    H7413245   4.758   4.558   6.887
   75MYC    H7513246   4.781   4.384   6.908
   75MYC    C4113247   4.613   4.435   6.780
   75MYC    H7613248   4.562   4.339   6.796
   75MYC    H7713249   4.536   4.513   6.776
   75MYC    C4213250   4.688   4.431   6.646
   75MYC    H7813251   4.735   4.528   6.627
   75MYC    H7913252   4.769   4.357   6.651
   75MYC    C4313253   4.596   4.395   6.528
   75MYC    H8013254   4.653   4.394   6.434
   75MYC    H8113255   4.515   4.469   6.518
   75MYC    H8213256   4.551   4.296   6.542
   76MYC   HH1513257   5.191   4.467   6.646
   76MYC    C8013258   5.126   4.480   6.733
   76MYC   H10013259   5.089   4.583   6.733
   76MYC   H10113260   5.040   4.412   6.723
   76MYC    C7913261   5.204   4.450   6.863
   76MYC   H10213262   5.292   4.516   6.868
   76MYC   H10313263   5.242   4.347   6.858
   76MYC    C7813264   5.119   4.468   6.990
   76MYC   HH1413265   5.031   4.403   6.984
   76MYC   H10413266   5.082   4.572   6.994
   76MYC    C7713267   5.196   4.437   7.119
   76MYC   H10613268   5.283   4.504   7.127
   76MYC   H10713269   5.236   4.334   7.114
   76MYC    C7613270   5.109   4.450   7.246
   76MYC   H10813271   5.020   4.387   7.235
   76MYC   H10913272   5.075   4.554   7.255
   76MYC    C7513273   5.184   4.410   7.375
   76MYC   H11013274   5.274   4.472   7.386
   76MYC   H11113275   5.217   4.306   7.366
   76MYC    C7413276   5.096   4.424   7.501
   76MYC   H11213277   5.004   4.366   7.488
   76MYC   H11313278   5.067   4.529   7.513
   76MYC    C7313279   5.169   4.377   7.629
   76MYC   HH1313280   5.263   4.431   7.638
   76MYC   H11413281   5.193   4.271   7.619
   76MYC    C7213282   5.085   4.398   7.756
   76MYC   H11513283   4.991   4.342   7.748
   76MYC   H11613284   5.058   4.504   7.765
   76MYC    C7113285   5.160   4.355   7.883
   76MYC   H11713286   5.256   4.409   7.888
   76MYC   H11813287   5.185   4.248   7.876
   76MYC    C7013288   5.081   4.380   8.013
   76MYC   H11913289   4.989   4.320   8.011
   76MYC   H12013290   5.051   4.485   8.017
   76MYC    C6913291   5.163   4.345   8.138
   76MYC   H12113292   5.253   4.408   8.140
   76MYC   H12213293   5.197   4.241   8.132
   76MYC    C6813294   5.085   4.365   8.269
   76MYC   HH1213295   4.997   4.300   8.269
   76MYC   H12313296   5.048   4.469   8.275
   76MYC    C6713297   5.171   4.335   8.393
   76MYC   H12413298   5.256   4.405   8.396
   76MYC   H12513299   5.213   4.234   8.384
   76MYC    C6613300   5.093   4.346   8.525
   76MYC   H12613301   5.008   4.277   8.522
   76MYC   H12713302   5.051   4.447   8.535
   76MYC    C6513303   5.180   4.315   8.648
   76MYC   H12813304   5.263   4.386   8.652
   76MYC   H12913305   5.224   4.215   8.637
   76MYC    C6413306   5.100   4.321   8.780
   76MYC   H13013307   5.017   4.250   8.775
   76MYC   H13113308   5.057   4.421   8.790
   76MYC    C6313309   5.187   4.290   8.903
   76MYC   HH1113310   5.273   4.358   8.905
   76MYC   H13213311   5.227   4.188   8.895
   76MYC    C6213312   5.109   4.304   9.034
   76MYC   H13313313   5.024   4.234   9.034
   76MYC   H13413314   5.067   4.405   9.040
   76MYC    C6113315   5.195   4.277   9.159
   76MYC   H13513316   5.286   4.338   9.153
   76MYC   H13613317   5.226   4.172   9.160
   76MYC    C6013318   5.120   4.310   9.287
   76MYC   H13713319   5.027   4.255   9.296
   76MYC    C5813320   5.192   4.342   9.415
   76MYC   H13813321   5.300   4.348   9.413
   76MYC    C5913322   5.120   4.452   9.340
   76MYC   H13913323   5.026   4.489   9.379
   76MYC   H14013324   5.180   4.525   9.288
   76MYC    C5713325   5.140   4.286   9.547
   76MYC   HH1013326   5.174   4.183   9.559
   76MYC   H14113327   5.030   4.282   9.543
   76MYC    C5613328   5.182   4.369   9.670
   76MYC   H14213329   5.165   4.475   9.649
   76MYC   H14313330   5.290   4.357   9.687
   76MYC    C5513331   5.105   4.327   9.796
   76MYC   H14413332   5.132   4.225   9.824
   76MYC   H14513333   4.998   4.326   9.773
   76MYC    C5413334   5.127   4.421   9.915
   76MYC   H14613335   5.111   4.525   9.882
   76MYC   H14713336   5.230   4.413   9.950
   76MYC    C5313337   5.030   4.392  10.032
   76MYC   H14813338   5.040   4.287  10.063
   76MYC   H14913339   4.926   4.407   9.999
   76MYC    C5213340   5.058   4.484  10.152
   76MYC    H9913341   5.058   4.588  10.119
   76MYC   H15013342   5.159   4.462  10.188
   76MYC    C5113343   4.959   4.469  10.270
   76MYC    H9713344   4.957   4.365  10.304
   76MYC    H9813345   4.857   4.496  10.238
   76MYC    C5013346   5.004   4.561  10.385
   76MYC    H9513347   4.996   4.665  10.353
   76MYC    H9613348   5.110   4.541  10.403
   76MYC    C4913349   4.930   4.545  10.520
   76MYC    H9313350   4.910   4.440  10.541
   76MYC    H9413351   4.834   4.598  10.516
   76MYC    C4813352   5.019   4.604  10.632
   76MYC    H9113353   5.052   4.704  10.602
   76MYC    H9213354   5.109   4.542  10.640
   76MYC    C4713355   4.955   4.614  10.772
   76MYC    H8913356   4.914   4.516  10.802
   76MYC    H9013357   4.872   4.685  10.768
   76MYC    C4613358   5.061   4.660  10.874
   76MYC    H8713359   5.110   4.750  10.834
   76MYC    H8813360   5.138   4.583  10.881
   76MYC    C4513361   5.007   4.693  11.015
   76MYC    H8513362   4.950   4.609  11.055
   76MYC    H8613363   4.939   4.778  11.007
   76MYC    C4413364   5.120   4.732  11.113
   76MYC    H8313365   5.076   4.787  11.197
   76MYC    H8413366   5.188   4.803  11.064
   76MYC    C1813367   5.200   4.613  11.165
   76MYC    H3113368   5.209   4.532  11.093
   76MYC    C1713369   5.320   4.635  11.255
   76MYC    H3013370   5.340   4.738  11.285
   76MYC    C1913371   5.194   4.573  11.311
   76MYC    H3213372   5.134   4.634  11.378
   76MYC    H3313373   5.196   4.467  11.334
   76MYC    C1613374   5.448   4.553  11.239
   76MYC    H2813375   5.424   4.454  11.198
   76MYC    H2913376   5.490   4.536  11.338
   76MYC    C1513377   5.556   4.620  11.150
   76MYC    H2613378   5.648   4.561  11.157
   76MYC    H2713379   5.580   4.719  11.192
   76MYC    C1413380   5.517   4.633  11.001
   76MYC    H2413381   5.416   4.593  10.985
   76MYC    H2513382   5.583   4.569  10.941
   76MYC    C1313383   5.523   4.777  10.945
   76MYC    H2213384   5.628   4.806  10.929
   76MYC    H2313385   5.482   4.847  11.019
   76MYC    C1213386   5.443   4.793  10.814
   76MYC    H2013387   5.339   4.769  10.834
   76MYC    H2113388   5.480   4.721  10.740
   76MYC    C1113389   5.450   4.936  10.754
   76MYC    H1813390   5.552   4.953  10.715
   76MYC    H1913391   5.434   5.010  10.833
   76MYC    C1013392   5.348   4.963  10.640
   76MYC    H1613393   5.366   5.065  10.602
   76MYC    H1713394   5.247   4.963  10.682
   76MYC     C913395   5.354   4.863  10.523
   76MYC    H1413396   5.310   4.768  10.556
   76MYC    H1513397   5.460   4.843  10.500
   76MYC     C813398   5.283   4.910  10.395
   76MYC    H1213399   5.325   5.007  10.365
   76MYC    H1313400   5.176   4.926  10.414
   76MYC     C713401   5.299   4.810  10.278
   76MYC    H1013402   5.229   4.727  10.291
   76MYC    H1113403   5.400   4.767  10.284
   76MYC     C613404   5.282   4.871  10.137
   76MYC     H813405   5.346   4.959  10.129
   76MYC     H913406   5.178   4.905  10.123
   76MYC     C513407   5.320   4.770  10.026
   76MYC     H613408   5.234   4.705  10.004
   76MYC     H713409   5.398   4.703  10.064
   76MYC     C413410   5.373   4.832   9.894
   76MYC     H413411   5.454   4.766   9.858
   76MYC     H513412   5.421   4.928   9.914
   76MYC     C213413   5.270   4.846   9.780
   76MYC     H213414   5.221   4.748   9.768
   76MYC     O313415   5.171   4.942   9.815
   76MYC     H313416   5.188   4.970   9.907
   76MYC     C113417   5.336   4.881   9.643
   76MYC     H113418   5.413   4.804   9.628
   76MYC    C8113419   5.407   5.018   9.645
   76MYC    O8213420   5.351   5.125   9.653
   76MYC    O8313421   5.542   5.011   9.635
   76MYC   H10513422   5.573   5.103   9.641
   76MYC    C2013423   5.237   4.871   9.524
   76MYC    H3413424   5.163   4.793   9.547
   76MYC    H3513425   5.180   4.964   9.514
   76MYC    C2113426   5.302   4.832   9.388
   76MYC    H3613427   5.402   4.790   9.404
   76MYC    H3713428   5.243   4.750   9.346
   76MYC    C2213429   5.312   4.944   9.281
   76MYC    H3813430   5.219   5.002   9.280
   76MYC    H3913431   5.394   5.012   9.306
   76MYC    C2313432   5.333   4.882   9.141
   76MYC    H4013433   5.419   4.813   9.144
   76MYC    H4113434   5.245   4.821   9.117
   76MYC    C2413435   5.356   4.982   9.025
   76MYC    H4213436   5.289   5.068   9.037
   76MYC    H4313437   5.459   5.020   9.030
   76MYC    C2513438   5.331   4.916   8.888
   76MYC    H4413439   5.384   4.820   8.884
   76MYC    H4513440   5.224   4.893   8.880
   76MYC    C2613441   5.374   5.001   8.766
   76MYC    H4613442   5.333   5.103   8.775
   76MYC    H4713443   5.483   5.009   8.764
   76MYC    C2713444   5.326   4.938   8.633
   76MYC    H4813445   5.357   4.833   8.630
   76MYC    H4913446   5.216   4.938   8.632
   76MYC    C2813447   5.378   5.009   8.506
   76MYC    H5013448   5.347   5.114   8.508
   76MYC    H5113449   5.487   5.006   8.506
   76MYC    C2913450   5.324   4.942   8.378
   76MYC    H5213451   5.349   4.835   8.381
   76MYC    H5313452   5.215   4.949   8.377
   76MYC    C3013453   5.379   5.003   8.247
   76MYC    H5413454   5.351   5.109   8.241
   76MYC    H5513455   5.488   4.998   8.247
   76MYC    C3113456   5.325   4.929   8.123
   76MYC    H5613457   5.352   4.822   8.130
   76MYC    H5713458   5.215   4.933   8.123
   76MYC    C3213459   5.376   4.985   7.989
   76MYC    H5813460   5.345   5.089   7.979
   76MYC    H5913461   5.486   4.983   7.988
   76MYC    C3313462   5.324   4.904   7.868
   76MYC    H6013463   5.359   4.800   7.875
   76MYC    H6113464   5.214   4.900   7.872
   76MYC    C3413465   5.366   4.963   7.732
   76MYC    H6213466   5.323   5.064   7.722
   76MYC    H6313467   5.475   4.974   7.729
   76MYC    C3513468   5.320   4.877   7.612
   76MYC    H6413469   5.370   4.780   7.616
   76MYC    H6513470   5.212   4.857   7.620
   76MYC    C3613471   5.348   4.945   7.476
   76MYC    H6613472   5.289   5.037   7.470
   76MYC    H6713473   5.454   4.974   7.472
   76MYC    C3713474   5.316   4.855   7.355
   76MYC    H6813475   5.380   4.766   7.358
   76MYC    H6913476   5.212   4.820   7.361
   76MYC    C3813477   5.337   4.928   7.221
   76MYC    H7013478   5.267   5.012   7.214
   76MYC    H7113479   5.438   4.972   7.219
   76MYC    C3913480   5.320   4.837   7.098
   76MYC    H7213481   5.390   4.753   7.106
   76MYC    H7313482   5.219   4.794   7.098
   76MYC    C4013483   5.345   4.912   6.965
   76MYC    H7413484   5.269   4.991   6.954
   76MYC    H7513485   5.443   4.961   6.969
   76MYC    C4113486   5.340   4.818   6.842
   76MYC    H7613487   5.414   4.739   6.855
   76MYC    H7713488   5.241   4.770   6.838
   76MYC    C4213489   5.366   4.892   6.709
   76MYC    H7813490   5.289   4.968   6.694
   76MYC    H7913491   5.463   4.943   6.714
   76MYC    C4313492   5.366   4.797   6.588
   76MYC    H8013493   5.382   4.854   6.496
   76MYC    H8113494   5.271   4.743   6.580
   76MYC    H8213495   5.447   4.723   6.597
   77MYC   HH1513496   6.161   5.226   6.639
   77MYC    C8013497   6.158   5.170   6.733
   77MYC   H10013498   6.061   5.120   6.741
   77MYC   H10113499   6.236   5.093   6.729
   77MYC    C7913500   6.181   5.265   6.852
   77MYC   H10213501   6.103   5.342   6.852
   77MYC   H10313502   6.277   5.317   6.840
   77MYC    C7813503   6.181   5.192   6.988
   77MYC   HH1413504   6.264   5.120   6.989
   77MYC   H10413505   6.088   5.134   6.997
   77MYC    C7713506   6.193   5.286   7.109
   77MYC   H10613507   6.108   5.356   7.110
   77MYC   H10713508   6.284   5.346   7.100
   77MYC    C7613509   6.197   5.208   7.242
   77MYC   H10813510   6.287   5.145   7.243
   77MYC   H10913511   6.111   5.141   7.246
   77MYC    C7513512   6.197   5.297   7.368
   77MYC   H11013513   6.105   5.357   7.371
   77MYC   H11113514   6.281   5.367   7.364
   77MYC    C7413515   6.207   5.212   7.496
   77MYC   H11213516   6.301   5.156   7.494
   77MYC   H11313517   6.126   5.137   7.495
   77MYC    C7313518   6.199   5.292   7.627
   77MYC   HH1313519   6.101   5.342   7.633
   77MYC   H11413520   6.276   5.370   7.628
   77MYC    C7213521   6.217   5.200   7.749
   77MYC   H11513522   6.317   5.154   7.746
   77MYC   H11613523   6.145   5.117   7.742
   77MYC    C7113524   6.198   5.270   7.885
   77MYC   H11713525   6.096   5.310   7.890
   77MYC   H11813526   6.267   5.355   7.893
   77MYC    C7013527   6.221   5.173   8.003
   77MYC   H11913528   6.328   5.148   8.009
   77MYC   H12013529   6.168   5.079   7.983
   77MYC    C6913530   6.172   5.229   8.137
   77MYC   H12113531   6.065   5.250   8.129
   77MYC   H12213532   6.222   5.324   8.158
   77MYC    C6813533   6.197   5.132   8.254
   77MYC   HH1213534   6.302   5.138   8.284
   77MYC   H12313535   6.179   5.028   8.222
   77MYC    C6713536   6.106   5.162   8.375
   77MYC   H12413537   6.003   5.134   8.349
   77MYC   H12513538   6.107   5.270   8.395
   77MYC    C6613539   6.147   5.087   8.503
   77MYC   H12613540   6.250   5.116   8.528
   77MYC   H12713541   6.148   4.979   8.484
   77MYC    C6513542   6.055   5.118   8.622
   77MYC   H12813543   5.958   5.068   8.608
   77MYC   H12913544   6.036   5.226   8.626
   77MYC    C6413545   6.116   5.073   8.756
   77MYC   H13013546   6.217   5.117   8.763
   77MYC   H13113547   6.129   4.964   8.757
   77MYC    C6313548   6.035   5.117   8.879
   77MYC   HH1113549   5.943   5.058   8.886
   77MYC   H13213550   6.006   5.222   8.869
   77MYC    C6213551   6.118   5.100   9.008
   77MYC   H13313552   6.212   5.154   8.995
   77MYC   H13413553   6.143   4.994   9.021
   77MYC    C6113554   6.049   5.152   9.136
   77MYC   H13513555   5.962   5.089   9.159
   77MYC   H13613556   6.012   5.254   9.120
   77MYC    C6013557   6.149   5.152   9.251
   77MYC   H13713558   6.234   5.217   9.231
   77MYC    C5813559   6.108   5.138   9.395
   77MYC   H13813560   6.003   5.123   9.417
   77MYC    C5913561   6.178   5.024   9.325
   77MYC   H13913562   6.282   5.003   9.349
   77MYC   H14013563   6.119   4.936   9.301
   77MYC    C5713564   6.181   5.216   9.504
   77MYC   HH1013565   6.120   5.301   9.537
   77MYC   H14113566   6.274   5.259   9.464
   77MYC    C5613567   6.216   5.126   9.624
   77MYC   H14213568   6.281   5.045   9.590
   77MYC   H14313569   6.123   5.080   9.661
   77MYC    C5513570   6.285   5.201   9.739
   77MYC   H14413571   6.215   5.274   9.780
   77MYC   H14513572   6.372   5.256   9.702
   77MYC    C5413573   6.330   5.102   9.849
   77MYC   H14613574   6.422   5.051   9.818
   77MYC   H14713575   6.253   5.024   9.857
   77MYC    C5313576   6.351   5.167   9.987
   77MYC   H14813577   6.294   5.260   9.994
   77MYC   H14913578   0.007   5.194  10.000
   77MYC    C5213579   6.306   5.073  10.100
   77MYC    H9913580   6.370   4.984  10.102
   77MYC   H15013581   6.204   5.039  10.079
   77MYC    C5113582   6.305   5.139  10.238
   77MYC    H9713583   6.246   5.232  10.234
   77MYC    H9813584   6.408   5.167  10.265
   77MYC    C5013585   6.247   5.047  10.347
   77MYC    H9513586   6.311   4.958  10.356
   77MYC    H9613587   6.148   5.012  10.316
   77MYC    C4913588   6.236   5.117  10.483
   77MYC    H9313589   6.165   5.200  10.475
   77MYC    H9413590   6.333   5.160  10.510
   77MYC    C4813591   6.190   5.022  10.595
   77MYC    H9113592   6.257   4.935  10.599
   77MYC    H9213593   6.089   4.984  10.573
   77MYC    C4713594   6.190   5.091  10.733
   77MYC    H8913595   6.119   5.174  10.731
   77MYC    H9013596   6.290   5.133  10.750
   77MYC    C4613597   6.155   4.997  10.850
   77MYC    H8713598   6.227   4.915  10.852
   77MYC    H8813599   6.057   4.953  10.833
   77MYC    C4513600   6.156   5.069  10.986
   77MYC    H8513601   6.072   5.140  10.990
   77MYC    H8613602   6.248   5.128  10.995
   77MYC    C4413603   6.148   4.975  11.109
   77MYC    H8313604   6.142   5.038  11.198
   77MYC    H8413605   6.243   4.920  11.117
   77MYC    C1813606   6.030   4.878  11.109
   77MYC    H3113607   5.942   4.920  11.061
   77MYC    C1713608   6.052   4.729  11.099
   77MYC    H3013609   6.154   4.693  11.097
   77MYC    C1913610   6.005   4.789  11.228
   77MYC    H3213611   6.075   4.794  11.311
   77MYC    H3313612   5.902   4.771  11.257
   77MYC    C1613613   5.958   4.643  11.016
   77MYC    H2813614   5.858   4.688  11.015
   77MYC    H2913615   5.947   4.544  11.062
   77MYC    C1513616   6.006   4.625  10.870
   77MYC    H2613617   6.089   4.552  10.868
   77MYC    H2713618   6.047   4.720  10.834
   77MYC    C1413619   5.894   4.580  10.774
   77MYC    H2413620   5.816   4.657  10.772
   77MYC    H2513621   5.847   4.488  10.812
   77MYC    C1313622   5.946   4.556  10.631
   77MYC    H2213623   6.005   4.463  10.630
   77MYC    H2313624   6.014   4.638  10.604
   77MYC    C1213625   5.834   4.548  10.525
   77MYC    H2013626   5.789   4.648  10.513
   77MYC    H2113627   5.754   4.483  10.562
   77MYC    C1113628   5.879   4.496  10.386
   77MYC    H1813629   5.798   4.513  10.314
   77MYC    H1913630   5.889   4.387  10.393
   77MYC    C1013631   6.012   4.555  10.331
   77MYC    H1613632   6.044   4.497  10.245
   77MYC    H1713633   6.092   4.544  10.405
   77MYC     C913634   6.003   4.704  10.289
   77MYC    H1413635   6.104   4.746  10.285
   77MYC    H1513636   5.948   4.761  10.366
   77MYC     C813637   5.935   4.721  10.152
   77MYC    H1213638   5.839   4.668  10.150
   77MYC    H1313639   5.999   4.675  10.076
   77MYC     C713640   5.910   4.868  10.114
   77MYC    H1013641   6.007   4.920  10.107
   77MYC    H1113642   5.854   4.916  10.196
   77MYC     C613643   5.831   4.886   9.983
   77MYC     H813644   5.810   4.993   9.970
   77MYC     H913645   5.734   4.837   9.993
   77MYC     C513646   5.902   4.833   9.857
   77MYC     H613647   5.909   4.723   9.863
   77MYC     H713648   6.004   4.872   9.853
   77MYC     C413649   5.827   4.874   9.728
   77MYC     H413650   5.843   4.981   9.712
   77MYC     H513651   5.720   4.861   9.745
   77MYC     C213652   5.865   4.800   9.596
   77MYC     H213653   5.861   4.876   9.517
   77MYC     O313654   5.999   4.749   9.602
   77MYC     H313655   5.999   4.675   9.665
   77MYC     C113656   5.764   4.688   9.557
   77MYC     H113657   5.666   4.737   9.547
   77MYC    C8113658   5.747   4.580   9.666
   77MYC    O8213659   5.837   4.507   9.704
   77MYC    O8313660   5.620   4.566   9.711
   77MYC   H10513661   5.623   4.493   9.775
   77MYC    C2013662   5.792   4.622   9.419
   77MYC    H3413663   5.896   4.589   9.413
   77MYC    H3513664   5.730   4.532   9.410
   77MYC    C2113665   5.759   4.715   9.299
   77MYC    H3613666   5.654   4.744   9.304
   77MYC    H3713667   5.818   4.807   9.306
   77MYC    C2213668   5.787   4.649   9.162
   77MYC    H3813669   5.894   4.629   9.153
   77MYC    H3913670   5.736   4.552   9.159
   77MYC    C2313671   5.740   4.735   9.043
   77MYC    H4013672   5.633   4.755   9.053
   77MYC    H4113673   5.791   4.832   9.045
   77MYC    C2413674   5.766   4.665   8.908
   77MYC    H4213675   5.874   4.651   8.895
   77MYC    H4313676   5.720   4.566   8.910
   77MYC    C2513677   5.711   4.743   8.786
   77MYC    H4413678   5.604   4.763   8.801
   77MYC    H4513679   5.762   4.841   8.779
   77MYC    C2613680   5.731   4.665   8.655
   77MYC    H4613681   5.838   4.643   8.643
   77MYC    H4713682   5.680   4.569   8.664
   77MYC    C2713683   5.680   4.738   8.529
   77MYC    H4813684   5.573   4.761   8.541
   77MYC    H4913685   5.733   4.834   8.519
   77MYC    C2813686   5.701   4.653   8.402
   77MYC    H5013687   5.806   4.624   8.396
   77MYC    H5113688   5.642   4.561   8.411
   77MYC    C2913689   5.661   4.725   8.272
   77MYC    H5213690   5.554   4.749   8.275
   77MYC    H5313691   5.716   4.820   8.265
   77MYC    C3013692   5.690   4.639   8.147
   77MYC    H5413693   5.796   4.610   8.147
   77MYC    H5513694   5.631   4.547   8.152
   77MYC    C3113695   5.658   4.712   8.015
   77MYC    H5613696   5.552   4.739   8.014
   77MYC    H5713697   5.715   4.806   8.011
   77MYC    C3213698   5.690   4.628   7.890
   77MYC    H5813699   5.794   4.594   7.894
   77MYC    H5913700   5.627   4.538   7.889
   77MYC    C3313701   5.668   4.707   7.759
   77MYC    H6013702   5.565   4.743   7.756
   77MYC    H6113703   5.733   4.796   7.761
   77MYC    C3413704   5.696   4.626   7.631
   77MYC    H6213705   5.795   4.579   7.639
   77MYC    H6313706   5.622   4.545   7.623
   77MYC    C3513707   5.691   4.714   7.505
   77MYC    H6413708   5.594   4.764   7.498
   77MYC    H6513709   5.766   4.794   7.515
   77MYC    C3613710   5.718   4.637   7.374
   77MYC    H6613711   5.810   4.578   7.385
   77MYC    H6713712   5.636   4.566   7.356
   77MYC    C3713713   5.733   4.731   7.252
   77MYC    H6813714   5.639   4.785   7.236
   77MYC    H6913715   5.810   4.805   7.275
   77MYC    C3813716   5.773   4.656   7.123
   77MYC    H7013717   5.860   4.594   7.143
   77MYC    H7113718   5.691   4.589   7.093
   77MYC    C3913719   5.806   4.752   7.007
   77MYC    H7213720   5.716   4.808   6.978
   77MYC    H7313721   5.880   4.826   7.041
   77MYC    C4013722   5.864   4.680   6.883
   77MYC    H7413723   5.952   4.623   6.913
   77MYC    H7513724   5.790   4.609   6.845
   77MYC    C4113725   5.904   4.778   6.770
   77MYC    H7613726   5.814   4.829   6.734
   77MYC    H7713727   5.971   4.855   6.811
   77MYC    C4213728   5.975   4.709   6.651
   77MYC    H7813729   6.066   4.659   6.687
   77MYC    H7913730   5.910   4.631   6.610
   77MYC    C4313731   6.013   4.807   6.539
   77MYC    H8013732   6.066   4.755   6.459
   77MYC    H8113733   6.078   4.887   6.577
   77MYC    H8213734   5.923   4.854   6.496
   78MYC   HH1513735   0.216   5.345   6.649
   78MYC    C8013736   0.201   5.406   6.739
   78MYC   H10013737   0.287   5.473   6.750
   78MYC   H10113738   0.111   5.466   6.724
   78MYC    C7913739   0.186   5.315   6.863
   78MYC   H10213740   0.275   5.251   6.870
   78MYC   H10313741   0.100   5.249   6.849
   78MYC    C7813742   0.170   5.394   6.994
   78MYC   HH1413743   0.079   5.455   6.989
   78MYC   H10413744   0.254   5.463   7.005
   78MYC    C7713745   0.163   5.303   7.118
   78MYC   H10613746   0.250   5.237   7.119
   78MYC   H10713747   0.074   5.239   7.112
   78MYC    C7613748   0.159   5.382   7.251
   78MYC   H10813749   0.071   5.447   7.253
   78MYC   H10913750   0.247   5.447   7.257
   78MYC    C7513751   0.156   5.290   7.375
   78MYC   H11013752   0.242   5.221   7.371
   78MYC   H11113753   0.065   5.229   7.373
   78MYC    C7413754   0.162   5.368   7.508
   78MYC   H11213755   0.078   5.437   7.514
   78MYC   H11313756   0.254   5.428   7.511
   78MYC    C7313757   0.160   5.275   7.632
   78MYC   HH1313758   0.246   5.207   7.627
   78MYC   H11413759   0.070   5.214   7.629
   78MYC    C7213760   0.165   5.352   7.765
   78MYC   H11513761   0.078   5.419   7.772
   78MYC   H11613762   0.254   5.416   7.767
   78MYC    C7113763   0.166   5.259   7.888
   78MYC   H11713764   0.255   5.194   7.881
   78MYC   H11813765   0.078   5.194   7.885
   78MYC    C7013766   0.169   5.335   8.022
   78MYC   H11913767   0.078   5.395   8.032
   78MYC   H12013768   0.254   5.404   8.023
   78MYC    C6913769   0.181   5.240   8.143
   78MYC   H12113770   0.268   5.175   8.129
   78MYC   H12213771   0.093   5.174   8.147
   78MYC    C6813772   0.194   5.313   8.278
   78MYC   HH1213773   0.103   5.370   8.298
   78MYC   H12313774   0.277   5.385   8.271
   78MYC    C6713775   0.222   5.217   8.395
   78MYC   H12413776   0.310   5.157   8.372
   78MYC   H12513777   0.137   5.148   8.407
   78MYC    C6613778   0.245   5.291   8.529
   78MYC   H12613779   0.154   5.344   8.557
   78MYC   H12713780   0.324   5.367   8.514
   78MYC    C6513781   0.288   5.197   8.643
   78MYC   H12813782   0.380   5.145   8.615
   78MYC   H12913783   0.211   5.121   8.659
   78MYC    C6413784   0.312   5.274   8.775
   78MYC   H13013785   0.218   5.322   8.805
   78MYC   H13113786   0.385   5.354   8.758
   78MYC    C6313787   0.363   5.185   8.890
   78MYC   HH1113788   0.461   5.143   8.863
   78MYC   H13213789   0.294   5.100   8.903
   78MYC    C6213790   0.374   5.262   9.023
   78MYC   H13313791   0.275   5.301   9.050
   78MYC   H13413792   0.440   5.348   9.010
   78MYC    C6113793   0.426   5.175   9.139
   78MYC   H13513794   0.530   5.145   9.117
   78MYC   H13613795   0.368   5.083   9.144
   78MYC    C6013796   0.418   5.246   9.273
   78MYC   H13713797   0.316   5.272   9.301
   78MYC    C5813798   0.511   5.207   9.385
   78MYC   H13813799   0.588   5.133   9.362
   78MYC    C5913800   0.526   5.342   9.319
   78MYC   H13913801   0.494   5.430   9.375
   78MYC   H14013802   0.612   5.358   9.255
   78MYC    C5713803   0.459   5.192   9.527
   78MYC   HH1013804   0.411   5.094   9.538
   78MYC   H14113805   0.381   5.267   9.548
   78MYC    C5613806   0.571   5.205   9.632
   78MYC   H14213807   0.612   5.306   9.627
   78MYC   H14313808   0.652   5.136   9.608
   78MYC    C5513809   0.523   5.176   9.776
   78MYC   H14413810   0.492   5.071   9.783
   78MYC   H14513811   0.435   5.238   9.798
   78MYC    C5413812   0.632   5.205   9.881
   78MYC   H14613813   0.659   5.311   9.875
   78MYC   H14713814   0.723   5.148   9.856
   78MYC    C5313815   0.589   5.170  10.025
   78MYC   H14813816   0.584   5.061  10.036
   78MYC   H14913817   0.488   5.209  10.043
   78MYC    C5213818   0.685   5.228  10.131
   78MYC    H9913819   0.685   5.338  10.122
   78MYC   H15013820   0.787   5.194  10.110
   78MYC    C5113821   0.646   5.188  10.274
   78MYC    H9713822   0.665   5.081  10.288
   78MYC    H9813823   0.538   5.203  10.288
   78MYC    C5013824   0.721   5.268  10.382
   78MYC    H9513825   0.694   5.374  10.373
   78MYC    H9613826   0.829   5.261  10.367
   78MYC    C4913827   0.685   5.219  10.524
   78MYC    H9313828   0.724   5.118  10.538
   78MYC    H9413829   0.576   5.213  10.532
   78MYC    C4813830   0.738   5.310  10.638
   78MYC    H9113831   0.703   5.412  10.622
   78MYC    H9213832   0.847   5.312  10.638
   78MYC    C4713833   0.687   5.260  10.775
   78MYC    H8913834   0.719   5.156  10.789
   78MYC    H9013835   0.578   5.260  10.771
   78MYC    C4613836   0.734   5.343  10.896
   78MYC    H8713837   0.724   5.450  10.874
   78MYC    H8813838   0.842   5.325  10.910
   78MYC    C4513839   0.660   5.308  11.028
   78MYC    H8513840   0.713   5.355  11.112
   78MYC    H8613841   0.666   5.200  11.044
   78MYC    C4413842   0.510   5.351  11.033
   78MYC    H8313843   0.465   5.305  11.122
   78MYC    H8413844   0.455   5.311  10.948
   78MYC    C1813845   0.490   5.502  11.039
   78MYC    H3113846   0.537   5.554  10.956
   78MYC    C1713847   0.362   5.565  11.090
   78MYC    H3013848   0.285   5.497  11.127
   78MYC    C1913849   0.489   5.573  11.172
   78MYC    H3213850   0.493   5.512  11.263
   78MYC    H3313851   0.538   5.669  11.180
   78MYC    C1613852   0.306   5.694  11.031
   78MYC    H2813853   0.383   5.745  10.972
   78MYC    H2913854   0.282   5.762  11.113
   78MYC    C1513855   0.179   5.677  10.945
   78MYC    H2613856   0.143   5.777  10.917
   78MYC    H2713857   0.100   5.630  11.005
   78MYC    C1413858   0.200   5.595  10.816
   78MYC    H2413859   0.225   5.492  10.842
   78MYC    H2513860   0.287   5.635  10.762
   78MYC    C1313861   0.077   5.598  10.723
   78MYC    H2213862   0.056   5.703  10.696
   78MYC    H2313863   6.439   5.562  10.777
   78MYC    C1213864   0.094   5.517  10.593
   78MYC    H2013865   0.106   5.411  10.618
   78MYC    H2113866   0.187   5.550  10.544
   78MYC    C1113867   6.425   5.532  10.496
   78MYC    H1813868   6.406   5.638  10.476
   78MYC    H1913869   6.335   5.492  10.544
   78MYC    C1013870   6.446   5.459  10.361
   78MYC    H1613871   6.353   5.463  10.304
   78MYC    H1713872   0.016   5.353  10.381
   78MYC     C913873   0.110   5.518  10.274
   78MYC    H1413874   0.144   5.613  10.317
   78MYC    H1513875   0.069   5.543  10.176
   78MYC     C813876   0.232   5.424  10.255
   78MYC    H1213877   0.203   5.341  10.189
   78MYC    H1313878   0.258   5.379  10.352
   78MYC     C713879   0.359   5.493  10.199
   78MYC    H1013880   0.432   5.417  10.172
   78MYC    H1113881   0.404   5.553  10.279
   78MYC     C613882   0.336   5.587  10.077
   78MYC     H813883   0.433   5.630  10.049
   78MYC     H913884   0.273   5.671  10.108
   78MYC     C513885   0.275   5.519   9.953
   78MYC     H613886   0.184   5.463   9.981
   78MYC     H713887   0.346   5.445   9.913
   78MYC     C413888   0.239   5.621   9.843
   78MYC     H413889   0.329   5.680   9.820
   78MYC     H513890   0.164   5.691   9.882
   78MYC     C213891   0.187   5.557   9.712
   78MYC     H213892   0.260   5.480   9.683
   78MYC     O313893   0.060   5.495   9.735
   78MYC     H313894   6.443   5.565   9.737
   78MYC     C113895   0.177   5.659   9.596
   78MYC     H113896   0.276   5.708   9.591
   78MYC    C8113897   0.072   5.770   9.622
   78MYC    O8213898   6.402   5.750   9.629
   78MYC    O8313899   0.124   5.895   9.635
   78MYC   H10513900   0.047   5.953   9.649
   78MYC    C2013901   0.154   5.590   9.460
   78MYC    H3413902   0.215   5.499   9.454
   78MYC    H3513903   0.050   5.559   9.451
   78MYC    C2113904   0.192   5.680   9.340
   78MYC    H3613905   0.132   5.773   9.343
   78MYC    H3713906   0.297   5.710   9.349
   78MYC    C2213907   0.170   5.611   9.205
   78MYC    H3813908   0.223   5.514   9.205
   78MYC    H3913909   0.063   5.590   9.192
   78MYC    C2313910   0.220   5.696   9.087
   78MYC    H4013911   0.172   5.794   9.089
   78MYC    H4113912   0.328   5.713   9.097
   78MYC    C2413913   0.192   5.629   8.951
   78MYC    H4213914   0.245   5.533   8.947
   78MYC    H4313915   0.085   5.607   8.945
   78MYC    C2513916   0.234   5.715   8.831
   78MYC    H4413917   0.185   5.813   8.839
   78MYC    H4513918   0.342   5.733   8.833
   78MYC    C2613919   0.195   5.649   8.698
   78MYC    H4613920   0.253   5.557   8.685
   78MYC    H4713921   0.089   5.619   8.703
   78MYC    C2713922   0.215   5.741   8.576
   78MYC    H4813923   0.161   5.835   8.593
   78MYC    H4913924   0.321   5.765   8.565
   78MYC    C2813925   0.163   5.675   8.447
   78MYC    H5013926   0.222   5.585   8.426
   78MYC    H5113927   0.059   5.643   8.463
   78MYC    C2913928   0.168   5.768   8.325
   78MYC    H5213929   0.113   5.861   8.348
   78MYC    H5313930   0.272   5.796   8.304
   78MYC    C3013931   0.106   5.702   8.201
   78MYC    H5413932   0.159   5.609   8.179
   78MYC    H5513933   0.002   5.675   8.223
   78MYC    C3113934   0.108   5.792   8.076
   78MYC    H5613935   0.059   5.887   8.098
   78MYC    H5713936   0.212   5.814   8.049
   78MYC    C3213937   0.037   5.725   7.957
   78MYC    H5813938   0.082   5.626   7.940
   78MYC    H5913939   6.382   5.709   7.982
   78MYC    C3313940   0.047   5.806   7.826
   78MYC    H6013941   0.007   5.907   7.843
   78MYC    H6113942   0.152   5.817   7.798
   78MYC    C3413943   6.419   5.738   7.712
   78MYC    H6213944   6.448   5.633   7.707
   78MYC    H6313945   6.312   5.741   7.734
   78MYC    C3513946   6.445   5.802   7.574
   78MYC    H6413947   6.418   5.908   7.577
   78MYC    H6513948   0.102   5.797   7.552
   78MYC    C3613949   6.366   5.731   7.462
   78MYC    H6613950   6.381   5.623   7.470
   78MYC    H6713951   6.259   5.750   7.477
   78MYC    C3713952   6.408   5.776   7.321
   78MYC    H6813953   6.396   5.885   7.312
   78MYC    H6913954   0.065   5.754   7.307
   78MYC    C3813955   6.326   5.707   7.211
   78MYC    H7013956   6.329   5.598   7.226
   78MYC    H7113957   6.221   5.737   7.219
   78MYC    C3913958   6.377   5.739   7.069
   78MYC    H7213959   6.378   5.848   7.055
   78MYC    H7313960   0.031   5.704   7.060
   78MYC    C4013961   6.292   5.674   6.958
   78MYC    H7413962   6.288   5.566   6.975
   78MYC    H7513963   6.189   5.712   6.965
   78MYC    C4113964   6.347   5.701   6.817
   78MYC    H7613965   6.353   5.810   6.801
   78MYC    H7713966   6.449   5.662   6.810
   78MYC    C4213967   6.260   5.638   6.706
   78MYC    H7813968   6.252   5.530   6.723
   78MYC    H7913969   6.159   5.680   6.710
   78MYC    C4313970   6.317   5.661   6.564
   78MYC    H8013971   6.252   5.615   6.489
   78MYC    H8113972   6.417   5.616   6.555
   78MYC    H8213973   6.325   5.768   6.543
   79MYC   HH1513974   1.203   5.581   6.630
   79MYC    C8013975   1.161   5.584   6.731
   79MYC   H10013976   1.155   5.689   6.763
   79MYC   H10113977   1.060   5.542   6.728
   79MYC    C7913978   1.250   5.504   6.828
   79MYC   H10213979   1.351   5.546   6.826
   79MYC   H10313980   1.257   5.401   6.793
   79MYC    C7813981   1.197   5.504   6.973
   79MYC   HH1413982   1.101   5.452   6.977
   79MYC   H10413983   1.179   5.608   7.005
   79MYC    C7713984   1.297   5.439   7.072
   79MYC   H10613985   1.389   5.498   7.073
   79MYC   H10713986   1.323   5.338   7.036
   79MYC    C7613987   1.242   5.428   7.216
   79MYC   H10813988   1.166   5.349   7.219
   79MYC   H10913989   1.193   5.522   7.244
   79MYC    C7513990   1.353   5.398   7.319
   79MYC   H11013991   1.419   5.485   7.326
   79MYC   H11113992   1.415   5.314   7.284
   79MYC    C7413993   1.296   5.364   7.458
   79MYC   H11213994   1.254   5.263   7.457
   79MYC   H11313995   1.214   5.433   7.481
   79MYC    C7313996   1.401   5.375   7.571
   79MYC   HH1313997   1.439   5.478   7.574
   79MYC   H11413998   1.486   5.310   7.550
   79MYC    C7213999   1.340   5.339   7.708
   79MYC   H11514000   1.327   5.230   7.714
   79MYC   H11614001   1.240   5.384   7.715
   79MYC    C7114002   1.423   5.388   7.828
   79MYC   H11714003   1.444   5.495   7.816
   79MYC   H11814004   1.520   5.336   7.830
   79MYC    C7014005   1.349   5.365   7.961
   79MYC   H11914006   1.330   5.258   7.974
   79MYC   H12014007   1.251   5.415   7.956
   79MYC    C6914008   1.425   5.419   8.083
   79MYC   H12114009   1.446   5.526   8.070
   79MYC   H12214010   1.521   5.367   8.092
   79MYC    C6814011   1.344   5.399   8.213
   79MYC   HH1214012   1.313   5.294   8.220
   79MYC   H12314013   1.252   5.459   8.208
   79MYC    C6714014   1.422   5.436   8.339
   79MYC   H12414015   1.448   5.543   8.336
   79MYC   H12514016   1.517   5.380   8.340
   79MYC    C6614017   1.344   5.405   8.467
   79MYC   H12614018   1.310   5.301   8.465
   79MYC   H12714019   1.254   5.468   8.471
   79MYC    C6514020   1.427   5.428   8.594
   79MYC   H12814021   1.458   5.534   8.598
   79MYC   H12914022   1.519   5.368   8.589
   79MYC    C6414023   1.351   5.393   8.722
   79MYC   H13014024   1.319   5.288   8.718
   79MYC   H13114025   1.260   5.454   8.728
   79MYC    C6314026   1.436   5.416   8.848
   79MYC   HH1114027   1.470   5.520   8.850
   79MYC   H13214028   1.525   5.352   8.844
   79MYC    C6214029   1.359   5.386   8.977
   79MYC   H13314030   1.329   5.280   8.979
   79MYC   H13414031   1.266   5.445   8.979
   79MYC    C6114032   1.442   5.418   9.102
   79MYC   H13514033   1.474   5.523   9.097
   79MYC   H13614034   1.533   5.357   9.103
   79MYC    C6014035   1.364   5.394   9.230
   79MYC   H13714036   1.342   5.289   9.247
   79MYC    C5814037   1.393   5.479   9.351
   79MYC   H13814038   1.462   5.562   9.338
   79MYC    C5914039   1.260   5.493   9.280
   79MYC   H13914040   1.172   5.453   9.329
   79MYC   H14014041   1.244   5.584   9.222
   79MYC    C5714042   1.403   5.416   9.488
   79MYC   HH1014043   1.508   5.389   9.507
   79MYC   H14114044   1.346   5.323   9.493
   79MYC    C5614045   1.354   5.512   9.597
   79MYC   H14214046   1.245   5.525   9.588
   79MYC   H14314047   1.399   5.611   9.582
   79MYC    C5514048   1.389   5.463   9.738
   79MYC   H14414049   1.497   5.448   9.744
   79MYC   H14514050   1.342   5.366   9.757
   79MYC    C5414051   1.345   5.563   9.846
   79MYC   H14614052   1.236   5.564   9.853
   79MYC   H14714053   1.376   5.664   9.818
   79MYC    C5314054   1.406   5.530   9.983
   79MYC   H14814055   1.515   5.527   9.975
   79MYC   H14914056   1.373   5.429  10.013
   79MYC    C5214057   1.367   5.630  10.092
   79MYC    H9914058   1.259   5.622  10.111
   79MYC   H15014059   1.387   5.733  10.058
   79MYC    C5114060   1.444   5.604  10.222
   79MYC    H9714061   1.547   5.640  10.211
   79MYC    H9814062   1.450   5.496  10.238
   79MYC    C5014063   1.380   5.668  10.346
   79MYC    H9514064   1.274   5.639  10.348
   79MYC    H9614065   1.382   5.777  10.338
   79MYC    C4914066   1.449   5.622  10.476
   79MYC    H9314067   1.531   5.691  10.501
   79MYC    H9414068   1.496   5.524  10.459
   79MYC    C4814069   1.353   5.609  10.596
   79MYC    H9114070   1.259   5.563  10.562
   79MYC    H9214071   1.328   5.709  10.634
   79MYC    C4714072   1.412   5.522  10.708
   79MYC    H8914073   1.501   5.570  10.749
   79MYC    H9014074   1.443   5.425  10.666
   79MYC    C4614075   1.311   5.495  10.821
   79MYC    H8714076   1.220   5.450  10.779
   79MYC    H8814077   1.283   5.591  10.865
   79MYC    C4514078   1.367   5.404  10.931
   79MYC    H8514079   1.464   5.441  10.963
   79MYC    H8614080   1.383   5.304  10.889
   79MYC    C4414081   1.275   5.392  11.055
   79MYC    H8314082   1.306   5.304  11.112
   79MYC    H8414083   1.172   5.372  11.022
   79MYC    C1814084   1.280   5.513  11.147
   79MYC    H3114085   1.381   5.531  11.185
   79MYC    C1714086   1.194   5.636  11.124
   79MYC    H3014087   1.122   5.630  11.043
   79MYC    C1914088   1.168   5.544  11.242
   79MYC    H3214089   1.079   5.481  11.238
   79MYC    H3314090   1.194   5.578  11.341
   79MYC    C1614091   1.253   5.776  11.145
   79MYC    H2814092   1.356   5.779  11.108
   79MYC    H2914093   1.258   5.798  11.252
   79MYC    C1514094   1.172   5.888  11.075
   79MYC    H2614095   1.203   5.986  11.114
   79MYC    H2714096   1.066   5.876  11.101
   79MYC    C1414097   1.190   5.888  10.921
   79MYC    H2414098   1.199   5.785  10.886
   79MYC    H2514099   1.285   5.937  10.895
   79MYC    C1314100   1.075   5.953  10.842
   79MYC    H2214101   1.081   6.063  10.850
   79MYC    H2314102   0.979   5.923  10.887
   79MYC    C1214103   1.074   5.910  10.694
   79MYC    H2014104   1.078   5.800  10.689
   79MYC    H2114105   1.164   5.947  10.644
   79MYC    C1114106   0.948   5.956  10.618
   79MYC    H1814107   0.952   6.065  10.605
   79MYC    H1914108   0.860   5.934  10.679
   79MYC    C1014109   0.929   5.887  10.480
   79MYC    H1614110   0.828   5.908  10.444
   79MYC    H1714111   0.935   5.779  10.494
   79MYC     C914112   1.031   5.931  10.373
   79MYC    H1414113   1.132   5.905  10.405
   79MYC    H1514114   1.027   6.040  10.361
   79MYC     C814115   1.001   5.864  10.236
   79MYC    H1214116   0.900   5.891  10.205
   79MYC    H1314117   1.004   5.755  10.248
   79MYC     C714118   1.101   5.905  10.126
   79MYC    H1014119   1.203   5.877  10.158
   79MYC    H1114120   1.101   6.014  10.116
   79MYC     C614121   1.073   5.841   9.988
   79MYC     H814122   1.060   5.733  10.000
   79MYC     H914123   1.161   5.855   9.925
   79MYC     C514124   0.949   5.901   9.917
   79MYC     H614125   0.961   6.010   9.910
   79MYC     H714126   0.861   5.884   9.980
   79MYC     C414127   0.919   5.845   9.777
   79MYC     H414128   0.820   5.883   9.748
   79MYC     H514129   0.909   5.736   9.783
   79MYC     C214130   1.021   5.883   9.665
   79MYC     H214131   1.052   5.987   9.682
   79MYC     O314132   1.135   5.797   9.673
   79MYC     H314133   1.107   5.707   9.649
   79MYC     C114134   0.958   5.875   9.523
   79MYC     H114135   0.881   5.953   9.519
   79MYC    C8114136   0.888   5.740   9.498
   79MYC    O8214137   0.945   5.632   9.496
   79MYC    O8314138   0.755   5.750   9.476
   79MYC   H10514139   0.724   5.659   9.459
   79MYC    C2014140   1.059   5.909   9.409
   79MYC    H3414141   1.102   6.008   9.428
   79MYC    H3514142   1.142   5.837   9.411
   79MYC    C2114143   0.995   5.906   9.268
   79MYC    H3614144   0.954   5.806   9.249
   79MYC    H3714145   0.912   5.977   9.264
   79MYC    C2214146   1.096   5.939   9.156
   79MYC    H3814147   1.130   6.042   9.167
   79MYC    H3914148   1.184   5.874   9.168
   79MYC    C2314149   1.038   5.918   9.015
   79MYC    H4014150   0.999   5.815   9.007
   79MYC    H4114151   0.953   5.986   8.999
   79MYC    C2414152   1.143   5.940   8.906
   79MYC    H4214153   1.179   6.044   8.912
   79MYC    H4314154   1.229   5.875   8.925
   79MYC    C2514155   1.093   5.913   8.762
   79MYC    H4414156   1.047   5.814   8.757
   79MYC    H4514157   1.015   5.986   8.736
   79MYC    C2614158   1.208   5.921   8.660
   79MYC    H4614159   1.264   6.013   8.677
   79MYC    H4714160   1.277   5.838   8.680
   79MYC    C2714161   1.164   5.917   8.513
   79MYC    H4814162   1.096   5.832   8.496
   79MYC    H4914163   1.107   6.008   8.491
   79MYC    C2814164   1.285   5.906   8.417
   79MYC    H5014165   1.366   5.970   8.454
   79MYC    H5114166   1.324   5.803   8.420
   79MYC    C2914167   1.255   5.946   8.272
   79MYC    H5214168   1.217   6.049   8.270
   79MYC    H5314169   1.350   5.947   8.216
   79MYC    C3014170   1.155   5.854   8.198
   79MYC    H5414171   1.194   5.752   8.195
   79MYC    H5514172   1.060   5.851   8.253
   79MYC    C3114173   1.129   5.904   8.054
   79MYC    H5614174   1.089   6.006   8.059
   79MYC    H5714175   1.225   5.910   8.002
   79MYC    C3214176   1.033   5.816   7.973
   79MYC    H5814177   1.071   5.713   7.970
   79MYC    H5914178   0.934   5.813   8.021
   79MYC    C3314179   1.018   5.868   7.829
   79MYC    H6014180   0.983   5.972   7.831
   79MYC    H6114181   1.118   5.870   7.783
   79MYC    C3414182   0.924   5.786   7.739
   79MYC    H6214183   0.946   5.680   7.750
   79MYC    H6314184   0.820   5.801   7.771
   79MYC    C3514185   0.939   5.826   7.591
   79MYC    H6414186   0.929   5.935   7.581
   79MYC    H6514187   1.042   5.801   7.559
   79MYC    C3614188   0.840   5.759   7.494
   79MYC    H6614189   0.829   5.653   7.520
   79MYC    H6714190   0.741   5.805   7.506
   79MYC    C3714191   0.887   5.770   7.348
   79MYC    H6814192   0.919   5.873   7.328
   79MYC    H6914193   0.976   5.707   7.335
   79MYC    C3814194   0.781   5.730   7.243
   79MYC    H7014195   0.730   5.638   7.275
   79MYC    H7114196   0.705   5.809   7.238
   79MYC    C3914197   0.844   5.708   7.104
   79MYC    H7214198   0.913   5.790   7.081
   79MYC    H7314199   0.903   5.616   7.107
   79MYC    C4014200   0.740   5.698   6.990
   79MYC    H7414201   0.656   5.636   7.022
   79MYC    H7514202   0.700   5.799   6.970
   79MYC    C4114203   0.800   5.640   6.861
   79MYC    H7614204   0.892   5.693   6.836
   79MYC    H7714205   0.828   5.535   6.880
   79MYC    C4214206   0.704   5.646   6.740
   79MYC    H7814207   0.605   5.610   6.769
   79MYC    H7914208   0.692   5.751   6.710
   79MYC    C4314209   0.754   5.564   6.620
   79MYC    H8014210   0.686   5.577   6.534
   79MYC    H8114211   0.757   5.457   6.645
   79MYC    H8214212   0.854   5.595   6.589
   80MYC   HH1514213   2.391   5.260   6.629
   80MYC    C8014214   2.340   5.222   6.719
   80MYC   H10014215   2.232   5.230   6.704
   80MYC   H10114216   2.366   5.116   6.730
   80MYC    C7914217   2.384   5.302   6.843
   80MYC   H10214218   2.355   5.408   6.829
   80MYC   H10314219   2.493   5.299   6.852
   80MYC    C7814220   2.321   5.248   6.973
   80MYC   HH1414221   2.349   5.143   6.985
   80MYC   H10414222   2.211   5.251   6.963
   80MYC    C7714223   2.362   5.327   7.098
   80MYC   H10614224   2.333   5.433   7.087
   80MYC   H10714225   2.471   5.325   7.109
   80MYC    C7614226   2.297   5.271   7.226
   80MYC   H10814227   2.327   5.166   7.238
   80MYC   H10914228   2.188   5.272   7.215
   80MYC    C7514229   2.336   5.347   7.354
   80MYC   H11014230   2.308   5.453   7.343
   80MYC   H11114231   2.445   5.344   7.366
   80MYC    C7414232   2.269   5.288   7.479
   80MYC   H11214233   2.297   5.183   7.489
   80MYC   H11314234   2.160   5.291   7.466
   80MYC    C7314235   2.306   5.363   7.608
   80MYC   HH1314236   2.279   5.469   7.599
   80MYC   H11414237   2.414   5.358   7.622
   80MYC    C7214238   2.236   5.303   7.732
   80MYC   H11514239   2.262   5.197   7.740
   80MYC   H11614240   2.127   5.309   7.718
   80MYC    C7114241   2.275   5.375   7.862
   80MYC   H11714242   2.251   5.482   7.854
   80MYC   H11814243   2.384   5.367   7.876
   80MYC    C7014244   2.205   5.316   7.984
   80MYC   H11914245   2.223   5.207   7.988
   80MYC   H12014246   2.096   5.329   7.974
   80MYC    C6914247   2.252   5.379   8.116
   80MYC   H12114248   2.234   5.487   8.115
   80MYC   H12214249   2.360   5.364   8.126
   80MYC    C6814250   2.182   5.316   8.238
   80MYC   HH1214251   2.191   5.207   8.232
   80MYC   H12314252   2.075   5.340   8.234
   80MYC    C6714253   2.241   5.363   8.372
   80MYC   H12414254   2.234   5.473   8.379
   80MYC   H12514255   2.348   5.337   8.375
   80MYC    C6614256   2.168   5.298   8.490
   80MYC   H12614257   2.166   5.190   8.475
   80MYC   H12714258   2.064   5.333   8.491
   80MYC    C6514259   2.234   5.328   8.626
   80MYC   H12814260   2.242   5.437   8.641
   80MYC   H12914261   2.336   5.287   8.627
   80MYC    C6414262   2.152   5.266   8.740
   80MYC   H13014263   2.136   5.160   8.719
   80MYC   H13114264   2.053   5.314   8.742
   80MYC    C6314265   2.219   5.279   8.877
   80MYC   HH1114266   2.240   5.385   8.898
   80MYC   H13214267   2.314   5.226   8.877
   80MYC    C6214268   2.128   5.223   8.987
   80MYC   H13314269   2.101   5.119   8.963
   80MYC   H13414270   2.035   5.280   8.990
   80MYC    C6114271   2.194   5.225   9.126
   80MYC   H13514272   2.226   5.328   9.148
   80MYC   H13614273   2.283   5.162   9.125
   80MYC    C6014274   2.098   5.176   9.233
   80MYC   H13714275   2.063   5.075   9.214
   80MYC    C5814276   2.118   5.218   9.375
   80MYC   H13814277   2.197   5.291   9.394
   80MYC    C5914278   1.998   5.268   9.298
   80MYC   H13914279   1.900   5.227   9.323
   80MYC   H14014280   1.998   5.372   9.267
   80MYC    C5714281   2.104   5.119   9.489
   80MYC   HH1014282   2.195   5.059   9.497
   80MYC   H14114283   2.021   5.049   9.469
   80MYC    C5614284   2.078   5.191   9.621
   80MYC   H14214285   1.981   5.244   9.615
   80MYC   H14314286   2.155   5.267   9.636
   80MYC    C5514287   2.078   5.098   9.744
   80MYC   H14414288   2.175   5.047   9.751
   80MYC   H14514289   2.001   5.021   9.732
   80MYC    C5414290   2.052   5.178   9.872
   80MYC   H14614291   1.951   5.222   9.867
   80MYC   H14714292   2.123   5.262   9.876
   80MYC    C5314293   2.066   5.096  10.001
   80MYC   H14814294   2.169   5.058  10.008
   80MYC   H14914295   1.999   5.009   9.998
   80MYC    C5214296   2.034   5.182  10.125
   80MYC    H9914297   1.927   5.205  10.127
   80MYC   H15014298   2.087   5.278  10.116
   80MYC    C5114299   2.076   5.116  10.257
   80MYC    H9714300   2.183   5.094  10.251
   80MYC    H9814301   2.024   5.021  10.270
   80MYC    C5014302   2.049   5.207  10.379
   80MYC    H9514303   1.945   5.195  10.411
   80MYC    H9614304   2.062   5.312  10.350
   80MYC    C4914305   2.144   5.177  10.496
   80MYC    H9314306   2.247   5.190  10.460
   80MYC    H9414307   2.133   5.072  10.525
   80MYC    C4814308   2.123   5.269  10.617
   80MYC    H9114309   2.020   5.257  10.653
   80MYC    H9214310   2.135   5.373  10.586
   80MYC    C4714311   2.222   5.239  10.732
   80MYC    H8914312   2.324   5.244  10.693
   80MYC    H9014313   2.207   5.137  10.767
   80MYC    C4614314   2.210   5.335  10.852
   80MYC    H8714315   2.108   5.332  10.890
   80MYC    H8814316   2.231   5.437  10.819
   80MYC    C4514317   2.306   5.295  10.966
   80MYC    H8514318   2.409   5.303  10.930
   80MYC    H8614319   2.289   5.190  10.991
   80MYC    C4414320   2.289   5.381  11.093
   80MYC    H8314321   2.326   5.322  11.178
   80MYC    H8414322   2.182   5.396  11.111
   80MYC    C1814323   2.361   5.515  11.088
   80MYC    H3114324   2.392   5.544  10.988
   80MYC    C1714325   2.319   5.626  11.180
   80MYC    H3014326   2.239   5.604  11.251
   80MYC    C1914327   2.450   5.556  11.203
   80MYC    H3214328   2.456   5.490  11.290
   80MYC    H3314329   2.542   5.609  11.181
   80MYC    C1614330   2.319   5.772  11.137
   80MYC    H2814331   2.404   5.794  11.071
   80MYC    H2914332   2.334   5.833  11.227
   80MYC    C1514333   2.188   5.821  11.070
   80MYC    H2614334   2.185   5.930  11.079
   80MYC    H2714335   2.102   5.785  11.127
   80MYC    C1414336   2.171   5.781  10.921
   80MYC    H2414337   2.140   5.676  10.915
   80MYC    H2514338   2.268   5.789  10.870
   80MYC    C1314339   2.069   5.872  10.848
   80MYC    H2214340   2.114   5.971  10.833
   80MYC    H2314341   1.982   5.886  10.912
   80MYC    C1214342   2.019   5.820  10.711
   80MYC    H2014343   1.940   5.887  10.675
   80MYC    H2114344   1.971   5.724  10.727
   80MYC    C1114345   2.125   5.807  10.598
   80MYC    H1814346   2.219   5.768  10.639
   80MYC    H1914347   2.146   5.906  10.557
   80MYC    C1014348   2.078   5.712  10.485
   80MYC    H1614349   1.973   5.734  10.460
   80MYC    H1714350   2.079   5.609  10.524
   80MYC     C914351   2.161   5.718  10.356
   80MYC    H1414352   2.267   5.731  10.381
   80MYC    H1514353   2.132   5.807  10.299
   80MYC     C814354   2.146   5.592  10.267
   80MYC    H1214355   2.042   5.559  10.267
   80MYC    H1314356   2.204   5.510  10.314
   80MYC     C714357   2.195   5.610  10.121
   80MYC    H1014358   2.227   5.512  10.082
   80MYC    H1114359   2.283   5.675  10.120
   80MYC     C614360   2.085   5.666  10.028
   80MYC     H814361   2.038   5.753  10.075
   80MYC     H914362   2.007   5.590  10.017
   80MYC     C514363   2.136   5.707   9.888
   80MYC     H614364   2.191   5.624   9.842
   80MYC     H714365   2.208   5.789   9.900
   80MYC     C414366   2.023   5.754   9.794
   80MYC     H414367   2.058   5.842   9.739
   80MYC     H514368   1.939   5.789   9.855
   80MYC     C214369   1.972   5.651   9.688
   80MYC     H214370   2.043   5.655   9.604
   80MYC     O314371   1.973   5.518   9.741
   80MYC     H314372   1.898   5.510   9.802
   80MYC     C114373   1.831   5.687   9.634
   80MYC     H114374   1.834   5.789   9.597
   80MYC    C8114375   1.721   5.683   9.743
   80MYC    O8214376   1.709   5.593   9.824
   80MYC    O8314377   1.625   5.777   9.727
   80MYC   H10514378   1.558   5.756   9.794
   80MYC    C2014379   1.785   5.603   9.512
   80MYC    H3414380   1.791   5.496   9.534
   80MYC    H3514381   1.679   5.625   9.493
   80MYC    C2114382   1.864   5.635   9.383
   80MYC    H3614383   1.877   5.744   9.373
   80MYC    H3714384   1.964   5.591   9.389
   80MYC    C2214385   1.792   5.584   9.256
   80MYC    H3814386   1.777   5.475   9.264
   80MYC    H3914387   1.693   5.629   9.251
   80MYC    C2314388   1.869   5.617   9.127
   80MYC    H4014389   1.883   5.726   9.121
   80MYC    H4114390   1.970   5.572   9.132
   80MYC    C2414391   1.796   5.567   9.002
   80MYC    H4214392   1.785   5.458   9.007
   80MYC    H4314393   1.695   5.610   8.999
   80MYC    C2514394   1.870   5.604   8.872
   80MYC    H4414395   1.880   5.714   8.867
   80MYC    H4514396   1.971   5.562   8.874
   80MYC    C2614397   1.796   5.554   8.747
   80MYC    H4614398   1.789   5.444   8.751
   80MYC    H4714399   1.694   5.593   8.747
   80MYC    C2714400   1.866   5.596   8.617
   80MYC    H4814401   1.869   5.705   8.612
   80MYC    H4914402   1.970   5.561   8.620
   80MYC    C2814403   1.797   5.540   8.492
   80MYC    H5014404   1.798   5.430   8.497
   80MYC    H5114405   1.692   5.571   8.491
   80MYC    C2914406   1.865   5.587   8.363
   80MYC    H5214407   1.856   5.696   8.355
   80MYC    H5314408   1.973   5.564   8.369
   80MYC    C3014409   1.806   5.521   8.238
   80MYC    H5414410   1.819   5.412   8.245
   80MYC    H5514411   1.699   5.542   8.232
   80MYC    C3114412   1.874   5.572   8.110
   80MYC    H5614413   1.853   5.680   8.099
   80MYC    H5714414   1.983   5.562   8.120
   80MYC    C3214415   1.828   5.498   7.984
   80MYC    H5814416   1.854   5.391   7.993
   80MYC    H5914417   1.719   5.504   7.976
   80MYC    C3314418   1.892   5.555   7.857
   80MYC    H6014419   1.861   5.660   7.846
   80MYC    H6114420   2.001   5.555   7.867
   80MYC    C3414421   1.851   5.477   7.731
   80MYC    H6214422   1.893   5.376   7.736
   80MYC    H6314423   1.742   5.467   7.728
   80MYC    C3514424   1.899   5.547   7.603
   80MYC    H6414425   1.857   5.648   7.600
   80MYC    H6514426   2.008   5.557   7.604
   80MYC    C3614427   1.857   5.471   7.476
   80MYC    H6614428   1.913   5.377   7.470
   80MYC    H6714429   1.751   5.445   7.482
   80MYC    C3714430   1.881   5.554   7.348
   80MYC    H6814431   1.824   5.647   7.355
   80MYC    H6914432   1.987   5.581   7.342
   80MYC    C3814433   1.840   5.479   7.221
   80MYC    H7014434   1.902   5.389   7.211
   80MYC    H7114435   1.736   5.445   7.230
   80MYC    C3914436   1.854   5.566   7.095
   80MYC    H7214437   1.785   5.651   7.101
   80MYC    H7314438   1.955   5.607   7.091
   80MYC    C4014439   1.826   5.487   6.965
   80MYC    H7414440   1.893   5.400   6.962
   80MYC    H7514441   1.723   5.449   6.967
   80MYC    C4114442   1.848   5.573   6.839
   80MYC    H7614443   1.776   5.656   6.839
   80MYC    H7714444   1.948   5.618   6.843
   80MYC    C4214445   1.834   5.492   6.709
   80MYC    H7814446   1.902   5.406   6.712
   80MYC    H7914447   1.732   5.453   6.701
   80MYC    C4314448   1.866   5.576   6.585
   80MYC    H8014449   1.848   5.519   6.493
   80MYC    H8114450   1.970   5.610   6.586
   80MYC    H8214451   1.801   5.665   6.584
   81MYC   HH1514452   3.098   5.449   6.627
   81MYC    C8014453   3.059   5.489   6.722
   81MYC   H10014454   3.085   5.595   6.728
   81MYC   H10114455   2.950   5.480   6.720
   81MYC    C7914456   3.118   5.411   6.841
   81MYC   H10214457   3.227   5.419   6.838
   81MYC   H10314458   3.093   5.304   6.829
   81MYC    C7814459   3.066   5.460   6.977
   81MYC   HH1414460   2.957   5.446   6.982
   81MYC   H10414461   3.084   5.568   6.986
   81MYC    C7714462   3.132   5.389   7.097
   81MYC   H10614463   3.240   5.407   7.094
   81MYC   H10714464   3.117   5.281   7.088
   81MYC    C7614465   3.076   5.436   7.233
   81MYC   H10814466   2.969   5.410   7.238
   81MYC   H10914467   3.083   5.545   7.239
   81MYC    C7514468   3.149   5.374   7.354
   81MYC   H11014469   3.255   5.403   7.350
   81MYC   H11114470   3.145   5.265   7.347
   81MYC    C7414471   3.089   5.419   7.488
   81MYC   H11214472   2.984   5.387   7.493
   81MYC   H11314473   3.089   5.529   7.492
   81MYC    C7314474   3.164   5.365   7.611
   81MYC   HH1314475   3.268   5.401   7.609
   81MYC   H11414476   3.168   5.255   7.606
   81MYC    C7214477   3.097   5.407   7.743
   81MYC   H11514478   2.994   5.370   7.744
   81MYC   H11614479   3.092   5.517   7.747
   81MYC    C7114480   3.170   5.356   7.869
   81MYC   H11714481   3.271   5.400   7.873
   81MYC   H11814482   3.183   5.247   7.863
   81MYC    C7014483   3.094   5.391   7.998
   81MYC   H11914484   2.995   5.343   7.995
   81MYC   H12014485   3.076   5.499   8.001
   81MYC    C6914486   3.167   5.350   8.127
   81MYC   H12114487   3.260   5.408   8.135
   81MYC   H12214488   3.195   5.244   8.121
   81MYC    C6814489   3.081   5.372   8.252
   81MYC   HH1214490   2.997   5.302   8.250
   81MYC   H12314491   3.037   5.473   8.249
   81MYC    C6714492   3.159   5.356   8.384
   81MYC   H12414493   3.232   5.437   8.392
   81MYC   H12514494   3.215   5.262   8.382
   81MYC    C6614495   3.067   5.356   8.508
   81MYC   H12614496   3.015   5.260   8.513
   81MYC   H12714497   2.989   5.433   8.497
   81MYC    C6514498   3.143   5.382   8.639
   81MYC   H12814499   3.174   5.487   8.642
   81MYC   H12914500   3.234   5.321   8.641
   81MYC    C6414501   3.060   5.349   8.764
   81MYC   H13014502   3.048   5.240   8.771
   81MYC   H13114503   2.959   5.391   8.754
   81MYC    C6314504   3.124   5.402   8.894
   81MYC   HH1114505   3.114   5.511   8.897
   81MYC   H13214506   3.231   5.379   8.894
   81MYC    C6214507   3.061   5.341   9.021
   81MYC   H13314508   3.077   5.232   9.019
   81MYC   H13414509   2.952   5.357   9.020
   81MYC    C6114510   3.119   5.399   9.151
   81MYC   H13514511   3.091   5.504   9.160
   81MYC   H13614512   3.229   5.396   9.146
   81MYC    C6014513   3.073   5.321   9.273
   81MYC   H13714514   3.101   5.216   9.267
   81MYC    C5814515   3.073   5.383   9.411
   81MYC   H13814516   3.099   5.488   9.418
   81MYC    C5914517   2.942   5.352   9.341
   81MYC   H13914518   2.884   5.267   9.376
   81MYC   H14014519   2.885   5.436   9.305
   81MYC    C5714520   3.126   5.302   9.528
   81MYC   HH1014521   3.233   5.323   9.538
   81MYC   H14114522   3.118   5.195   9.507
   81MYC    C5614523   3.059   5.331   9.663
   81MYC   H14214524   3.044   5.439   9.674
   81MYC   H14314525   3.130   5.301   9.741
   81MYC    C5514526   2.924   5.257   9.686
   81MYC   H14414527   2.939   5.149   9.673
   81MYC   H14514528   2.853   5.289   9.608
   81MYC    C5414529   2.860   5.284   9.824
   81MYC   H14614530   2.759   5.242   9.824
   81MYC   H14714531   2.848   5.393   9.836
   81MYC    C5314532   2.939   5.226   9.943
   81MYC   H14814533   3.044   5.257   9.937
   81MYC   H14914534   2.937   5.117   9.938
   81MYC    C5214535   2.885   5.273  10.080
   81MYC    H9914536   2.783   5.235  10.094
   81MYC   H15014537   2.878   5.383  10.079
   81MYC    C5114538   2.974   5.229  10.197
   81MYC    H9714539   3.078   5.256  10.174
   81MYC    H9814540   2.971   5.120  10.206
   81MYC    C5014541   2.934   5.293  10.331
   81MYC    H9514542   2.835   5.259  10.360
   81MYC    H9614543   2.929   5.402  10.318
   81MYC    C4914544   3.035   5.262  10.444
   81MYC    H9314545   3.136   5.290  10.411
   81MYC    H9414546   3.036   5.154  10.462
   81MYC    C4814547   3.003   5.335  10.575
   81MYC    H9114548   2.906   5.301  10.613
   81MYC    H9214549   2.992   5.443  10.555
   81MYC    C4714550   3.111   5.315  10.683
   81MYC    H8914551   3.208   5.350  10.644
   81MYC    H9014552   3.121   5.208  10.705
   81MYC    C4614553   3.079   5.391  10.813
   81MYC    H8714554   2.985   5.352  10.854
   81MYC    H8814555   3.061   5.497  10.789
   81MYC    C4514556   3.189   5.380  10.920
   81MYC    H8514557   3.281   5.425  10.881
   81MYC    H8614558   3.211   5.274  10.937
   81MYC    C4414559   3.153   5.445  11.055
   81MYC    H8314560   3.226   5.413  11.130
   81MYC    H8414561   3.056   5.407  11.088
   81MYC    C1814562   3.149   5.598  11.051
   81MYC    H3114563   3.127   5.639  10.953
   81MYC    C1714564   3.093   5.673  11.169
   81MYC    H3014565   3.065   5.613  11.256
   81MYC    C1914566   3.240   5.682  11.138
   81MYC    H3214567   3.309   5.630  11.205
   81MYC    H3314568   3.278   5.774  11.096
   81MYC    C1614569   3.001   5.794  11.150
   81MYC    H2814570   3.044   5.861  11.074
   81MYC    H2914571   2.999   5.851  11.243
   81MYC    C1514572   2.856   5.759  11.109
   81MYC    H2614573   2.797   5.851  11.121
   81MYC    H2714574   2.814   5.686  11.178
   81MYC    C1414575   2.839   5.708  10.964
   81MYC    H2414576   2.866   5.602  10.958
   81MYC    H2514577   2.908   5.763  10.898
   81MYC    C1314578   2.696   5.729  10.911
   81MYC    H2214579   2.673   5.836  10.917
   81MYC    H2314580   2.624   5.678  10.976
   81MYC    C1214581   2.672   5.681  10.765
   81MYC    H2014582   2.634   5.579  10.767
   81MYC    H2114583   2.768   5.679  10.711
   81MYC    C1114584   2.575   5.774  10.689
   81MYC    H1814585   2.628   5.867  10.666
   81MYC    H1914586   2.492   5.801  10.756
   81MYC    C1014587   2.515   5.717  10.559
   81MYC    H1614588   2.461   5.799  10.509
   81MYC    H1714589   2.439   5.643  10.586
   81MYC     C914590   2.616   5.656  10.460
   81MYC    H1414591   2.661   5.566  10.503
   81MYC    H1514592   2.698   5.727  10.443
   81MYC     C814593   2.551   5.622  10.324
   81MYC    H1214594   2.524   5.717  10.276
   81MYC    H1314595   2.457   5.569  10.339
   81MYC     C714596   2.641   5.537  10.231
   81MYC    H1014597   2.654   5.438  10.275
   81MYC    H1114598   2.741   5.582  10.224
   81MYC     C614599   2.583   5.521  10.088
   81MYC     H814600   2.479   5.486  10.095
   81MYC     H914601   2.639   5.442  10.037
   81MYC     C514602   2.591   5.651  10.004
   81MYC     H614603   2.696   5.675   9.984
   81MYC     H714604   2.550   5.734  10.062
   81MYC     C414605   2.513   5.648   9.871
   81MYC     H414606   2.508   5.751   9.834
   81MYC     H514607   2.409   5.618   9.892
   81MYC     C214608   2.572   5.558   9.760
   81MYC     H214609   2.681   5.568   9.764
   81MYC     O314610   2.536   5.421   9.785
   81MYC     H314611   2.443   5.410   9.758
   81MYC     C114612   2.526   5.602   9.618
   81MYC     H114613   2.565   5.703   9.603
   81MYC    C8114614   2.372   5.612   9.606
   81MYC    O8214615   2.312   5.717   9.587
   81MYC    O8314616   2.306   5.494   9.613
   81MYC   H10514617   2.211   5.516   9.605
   81MYC    C2014618   2.586   5.513   9.506
   81MYC    H3414619   2.693   5.496   9.527
   81MYC    H3514620   2.538   5.415   9.508
   81MYC    C2114621   2.574   5.575   9.365
   81MYC    H3614622   2.479   5.628   9.354
   81MYC    H3714623   2.654   5.649   9.353
   81MYC    C2214624   2.583   5.468   9.254
   81MYC    H3814625   2.660   5.394   9.280
   81MYC    H3914626   2.488   5.414   9.249
   81MYC    C2314627   2.616   5.527   9.116
   81MYC    H4014628   2.541   5.604   9.091
   81MYC    H4114629   2.713   5.577   9.120
   81MYC    C2414630   2.619   5.420   9.005
   81MYC    H4214631   2.679   5.335   9.039
   81MYC    H4314632   2.517   5.382   8.989
   81MYC    C2514633   2.677   5.468   8.871
   81MYC    H4414634   2.783   5.494   8.886
   81MYC    H4514635   2.675   5.385   8.800
   81MYC    C2614636   2.605   5.590   8.810
   81MYC    H4614637   2.497   5.571   8.803
   81MYC    H4714638   2.617   5.676   8.877
   81MYC    C2714639   2.659   5.630   8.671
   81MYC    H4814640   2.631   5.735   8.652
   81MYC    H4914641   2.769   5.628   8.673
   81MYC    C2814642   2.607   5.543   8.554
   81MYC    H5014643   2.626   5.437   8.575
   81MYC    H5114644   2.499   5.556   8.546
   81MYC    C2914645   2.675   5.581   8.421
   81MYC    H5214646   2.674   5.690   8.410
   81MYC    H5314647   2.780   5.550   8.425
   81MYC    C3014648   2.608   5.519   8.297
   81MYC    H5414649   2.605   5.410   8.307
   81MYC    H5514650   2.504   5.554   8.290
   81MYC    C3114651   2.683   5.557   8.168
   81MYC    H5614652   2.697   5.666   8.166
   81MYC    H5714653   2.783   5.512   8.170
   81MYC    C3214654   2.612   5.514   8.038
   81MYC    H5814655   2.600   5.405   8.036
   81MYC    H5914656   2.511   5.558   8.036
   81MYC    C3314657   2.690   5.560   7.913
   81MYC    H6014658   2.704   5.668   7.917
   81MYC    H6114659   2.789   5.514   7.914
   81MYC    C3414660   2.620   5.525   7.780
   81MYC    H6214661   2.609   5.416   7.772
   81MYC    H6314662   2.519   5.568   7.779
   81MYC    C3514663   2.698   5.577   7.658
   81MYC    H6414664   2.710   5.686   7.667
   81MYC    H6514665   2.800   5.534   7.659
   81MYC    C3614666   2.631   5.545   7.523
   81MYC    H6614667   2.624   5.436   7.511
   81MYC    H6714668   2.529   5.585   7.523
   81MYC    C3714669   2.709   5.604   7.404
   81MYC    H6814670   2.716   5.713   7.418
   81MYC    H6914671   2.812   5.565   7.404
   81MYC    C3814672   2.645   5.575   7.267
   81MYC    H7014673   2.647   5.467   7.248
   81MYC    H7114674   2.539   5.605   7.269
   81MYC    C3914675   2.716   5.650   7.153
   81MYC    H7214676   2.711   5.757   7.173
   81MYC    H7314677   2.823   5.623   7.152
   81MYC    C4014678   2.657   5.622   7.013
   81MYC    H7414679   2.674   5.517   6.987
   81MYC    H7514680   2.548   5.638   7.016
   81MYC    C4114681   2.718   5.714   6.905
   81MYC    H7614682   2.695   5.818   6.931
   81MYC    H7714683   2.827   5.704   6.906
   81MYC    C4214684   2.666   5.685   6.763
   81MYC    H7814685   2.697   5.584   6.733
   81MYC    H7914686   2.556   5.686   6.763
   81MYC    C4314687   2.718   5.786   6.659
   81MYC    H8014688   2.683   5.759   6.558
   81MYC    H8114689   2.827   5.788   6.658
   81MYC    H8214690   2.681   5.887   6.682
   82MYC   HH1514691   3.499   5.148   6.649
   82MYC    C8014692   3.462   5.196   6.740
   82MYC   H10014693   3.488   5.302   6.737
   82MYC   H10114694   3.352   5.188   6.741
   82MYC    C7914695   3.522   5.129   6.865
   82MYC   H10214696   3.631   5.139   6.861
   82MYC   H10314697   3.501   5.021   6.862
   82MYC    C7814698   3.468   5.188   6.997
   82MYC   HH1414699   3.360   5.171   7.002
   82MYC   H10414700   3.485   5.296   6.997
   82MYC    C7714701   3.536   5.127   7.121
   82MYC   H10614702   3.643   5.149   7.119
   82MYC   H10714703   3.525   5.018   7.119
   82MYC    C7614704   3.476   5.180   7.253
   82MYC   H10814705   3.371   5.151   7.260
   82MYC   H10914706   3.479   5.290   7.252
   82MYC    C7514707   3.551   5.130   7.378
   82MYC   H11014708   3.655   5.167   7.375
   82MYC   H11114709   3.556   5.020   7.376
   82MYC    C7414710   3.484   5.174   7.509
   82MYC   H11214711   3.384   5.131   7.514
   82MYC   H11314712   3.472   5.283   7.509
   82MYC    C7314713   3.563   5.133   7.635
   82MYC   HH1314714   3.660   5.184   7.635
   82MYC   H11414715   3.584   5.025   7.631
   82MYC    C7214716   3.488   5.165   7.765
   82MYC   H11514717   3.393   5.111   7.766
   82MYC   H11614718   3.463   5.272   7.766
   82MYC    C7114719   3.567   5.130   7.892
   82MYC   H11714720   3.659   5.190   7.895
   82MYC   H11814721   3.596   5.025   7.889
   82MYC    C7014722   3.486   5.157   8.020
   82MYC   H11914723   3.395   5.096   8.019
   82MYC   H12014724   3.453   5.262   8.020
   82MYC    C6914725   3.564   5.129   8.149
   82MYC   H12114726   3.654   5.192   8.151
   82MYC   H12214727   3.597   5.024   8.151
   82MYC    C6814728   3.480   5.158   8.275
   82MYC   HH1214729   3.392   5.092   8.276
   82MYC   H12314730   3.442   5.261   8.270
   82MYC    C6714731   3.558   5.140   8.406
   82MYC   H12414732   3.648   5.204   8.403
   82MYC   H12514733   3.593   5.037   8.415
   82MYC    C6614734   3.474   5.177   8.530
   82MYC   H12614735   3.386   5.112   8.535
   82MYC   H12714736   3.438   5.280   8.519
   82MYC    C6514737   3.554   5.166   8.661
   82MYC   H12814738   3.644   5.228   8.654
   82MYC   H12914739   3.588   5.062   8.673
   82MYC    C6414740   3.473   5.209   8.785
   82MYC   H13014741   3.379   5.153   8.789
   82MYC   H13114742   3.448   5.315   8.777
   82MYC    C6314743   3.552   5.184   8.915
   82MYC   HH1114744   3.649   5.236   8.909
   82MYC   H13214745   3.574   5.077   8.922
   82MYC    C6214746   3.479   5.229   9.042
   82MYC   H13314747   3.378   5.186   9.045
   82MYC   H13414748   3.468   5.339   9.041
   82MYC    C6114749   3.557   5.187   9.168
   82MYC   H13514750   3.660   5.223   9.160
   82MYC   H13614751   3.562   5.078   9.172
   82MYC    C6014752   3.496   5.238   9.297
   82MYC   H13714753   3.397   5.197   9.316
   82MYC    C5814754   3.585   5.263   9.417
   82MYC   H13814755   3.692   5.255   9.402
   82MYC    C5914756   3.519   5.379   9.347
   82MYC   H13914757   3.436   5.429   9.397
   82MYC   H14014758   3.583   5.443   9.288
   82MYC    C5714759   3.542   5.218   9.555
   82MYC   HH1014760   3.434   5.201   9.557
   82MYC   H14114761   3.563   5.298   9.626
   82MYC    C5614762   3.614   5.089   9.599
   82MYC   H14214763   3.721   5.111   9.613
   82MYC   H14314764   3.608   5.014   9.519
   82MYC    C5514765   3.558   5.027   9.729
   82MYC   H14414766   3.622   4.943   9.758
   82MYC   H14514767   3.458   4.986   9.709
   82MYC    C5414768   3.551   5.125   9.847
   82MYC   H14614769   3.480   5.205   9.825
   82MYC   H14714770   3.650   5.172   9.860
   82MYC    C5314771   3.509   5.057   9.977
   82MYC   H14814772   3.575   4.972   9.997
   82MYC   H14914773   3.407   5.017   9.967
   82MYC    C5214774   3.516   5.154  10.096
   82MYC    H9914775   3.452   5.241  10.077
   82MYC   H15014776   3.619   5.191  10.106
   82MYC    C5114777   3.474   5.088  10.229
   82MYC    H9714778   3.525   4.992  10.240
   82MYC    H9814779   3.366   5.068  10.226
   82MYC    C5014780   3.507   5.177  10.350
   82MYC    H9514781   3.459   5.275  10.339
   82MYC    H9614782   3.615   5.194  10.352
   82MYC    C4914783   3.465   5.113  10.482
   82MYC    H9314784   3.506   5.011  10.487
   82MYC    H9414785   3.356   5.104  10.484
   82MYC    C4814786   3.511   5.192  10.605
   82MYC    H9114787   3.464   5.291  10.605
   82MYC    H9214788   3.620   5.207  10.601
   82MYC    C4714789   3.476   5.118  10.735
   82MYC    H8914790   3.524   5.019  10.734
   82MYC    H9014791   3.368   5.100  10.736
   82MYC    C4614792   3.514   5.192  10.863
   82MYC    H8714793   3.458   5.286  10.869
   82MYC    H8814794   3.621   5.219  10.859
   82MYC    C4514795   3.487   5.106  10.988
   82MYC    H8514796   3.560   5.025  10.990
   82MYC    H8614797   3.388   5.059  10.979
   82MYC    C4414798   3.491   5.182  11.122
   82MYC    H8314799   3.483   5.108  11.203
   82MYC    H8414800   3.401   5.245  11.130
   82MYC    C1814801   3.615   5.268  11.144
   82MYC    H3114802   3.701   5.235  11.086
   82MYC    C1714803   3.602   5.415  11.176
   82MYC    H3014804   3.502   5.455  11.189
   82MYC    C1914805   3.648   5.319  11.282
   82MYC    H3214806   3.578   5.298  11.363
   82MYC    H3314807   3.752   5.322  11.311
   82MYC    C1614808   3.700   5.518  11.121
   82MYC    H2814809   3.773   5.469  11.056
   82MYC    H2914810   3.757   5.562  11.204
   82MYC    C1514811   3.633   5.634  11.044
   82MYC    H2614812   3.708   5.711  11.025
   82MYC    H2714813   3.557   5.680  11.107
   82MYC    C1414814   3.569   5.591  10.910
   82MYC    H2414815   3.484   5.524  10.932
   82MYC    H2514816   3.641   5.533  10.851
   82MYC    C1314817   3.519   5.711  10.827
   82MYC    H2214818   3.605   5.773  10.800
   82MYC    H2314819   3.453   5.773  10.889
   82MYC    C1214820   3.444   5.669  10.700
   82MYC    H2014821   3.356   5.609  10.728
   82MYC    H2114822   3.509   5.605  10.639
   82MYC    C1114823   3.397   5.790  10.616
   82MYC    H1814824   3.484   5.846  10.579
   82MYC    H1914825   3.341   5.859  10.682
   82MYC    C1014826   3.305   5.752  10.498
   82MYC    H1614827   3.258   5.843  10.461
   82MYC    H1714828   3.224   5.688  10.535
   82MYC     C914829   3.377   5.683  10.380
   82MYC    H1414830   3.431   5.594  10.414
   82MYC    H1514831   3.451   5.753  10.339
   82MYC     C814832   3.277   5.642  10.270
   82MYC    H1214833   3.202   5.722  10.258
   82MYC    H1314834   3.223   5.552  10.301
   82MYC     C714835   3.342   5.618  10.132
   82MYC    H1014836   3.419   5.540  10.140
   82MYC    H1114837   3.393   5.710  10.101
   82MYC     C614838   3.238   5.577  10.026
   82MYC     H814839   3.145   5.633  10.042
   82MYC     H914840   3.212   5.471  10.041
   82MYC     C514841   3.282   5.597   9.879
   82MYC     H614842   3.205   5.552   9.816
   82MYC     H714843   3.375   5.542   9.860
   82MYC     C414844   3.301   5.746   9.839
   82MYC     H414845   3.397   5.782   9.878
   82MYC     H514846   3.223   5.807   9.886
   82MYC     C214847   3.298   5.767   9.686
   82MYC     H214848   3.364   5.691   9.643
   82MYC     O314849   3.165   5.745   9.638
   82MYC     H314850   3.110   5.820   9.670
   82MYC     C114851   3.350   5.907   9.638
   82MYC     H114852   3.456   5.915   9.668
   82MYC    C8114853   3.276   6.026   9.704
   82MYC    O8214854   3.155   6.039   9.704
   82MYC    O8314855   3.358   6.130   9.735
   82MYC   H10514856   3.299   6.204   9.757
   82MYC    C2014857   3.347   5.923   9.484
   82MYC    H3414858   3.243   5.912   9.449
   82MYC    H3514859   3.377   6.025   9.458
   82MYC    C2114860   3.438   5.825   9.407
   82MYC    H3614861   3.543   5.848   9.430
   82MYC    H3714862   3.420   5.722   9.440
   82MYC    C2214863   3.414   5.830   9.256
   82MYC    H3814864   3.312   5.796   9.236
   82MYC    H3914865   3.421   5.933   9.220
   82MYC    C2314866   3.513   5.742   9.177
   82MYC    H4014867   3.613   5.786   9.180
   82MYC    H4114868   3.519   5.644   9.224
   82MYC    C2414869   3.469   5.724   9.031
   82MYC    H4214870   3.375   5.666   9.029
   82MYC    H4314871   3.447   5.822   8.987
   82MYC    C2514872   3.573   5.653   8.943
   82MYC    H4414873   3.665   5.713   8.941
   82MYC    H4514874   3.599   5.555   8.985
   82MYC    C2614875   3.521   5.635   8.800
   82MYC    H4614876   3.438   5.563   8.800
   82MYC    H4714877   3.479   5.731   8.766
   82MYC    C2714878   3.627   5.590   8.698
   82MYC    H4814879   3.711   5.661   8.699
   82MYC    H4914880   3.667   5.492   8.726
   82MYC    C2814881   3.567   5.585   8.557
   82MYC    H5014882   3.492   5.505   8.553
   82MYC    H5114883   3.513   5.679   8.538
   82MYC    C2914884   3.669   5.564   8.444
   82MYC    H5214885   3.744   5.645   8.447
   82MYC    H5314886   3.722   5.469   8.457
   82MYC    C3014887   3.598   5.566   8.307
   82MYC    H5414888   3.531   5.479   8.301
   82MYC    H5514889   3.534   5.655   8.302
   82MYC    C3114890   3.692   5.567   8.186
   82MYC    H5614891   3.757   5.655   8.191
   82MYC    H5714892   3.756   5.478   8.188
   82MYC    C3214893   3.611   5.570   8.055
   82MYC    H5814894   3.553   5.477   8.047
   82MYC    H5914895   3.539   5.652   8.060
   82MYC    C3314896   3.696   5.587   7.928
   82MYC    H6014897   3.752   5.681   7.935
   82MYC    H6114898   3.768   5.506   7.920
   82MYC    C3414899   3.606   5.590   7.803
   82MYC    H6214900   3.555   5.494   7.794
   82MYC    H6314901   3.528   5.666   7.817
   82MYC    C3514902   3.680   5.621   7.672
   82MYC    H6414903   3.732   5.717   7.680
   82MYC    H6514904   3.757   5.544   7.654
   82MYC    C3614905   3.582   5.625   7.553
   82MYC    H6614906   3.531   5.528   7.545
   82MYC    H6714907   3.505   5.700   7.574
   82MYC    C3714908   3.648   5.658   7.418
   82MYC    H6814909   3.697   5.756   7.424
   82MYC    H6914910   3.726   5.584   7.397
   82MYC    C3814911   3.545   5.659   7.304
   82MYC    H7014912   3.494   5.561   7.302
   82MYC    H7114913   3.468   5.734   7.326
   82MYC    C3914914   3.605   5.686   7.166
   82MYC    H7214915   3.649   5.787   7.164
   82MYC    H7314916   3.687   5.616   7.147
   82MYC    C4014917   3.500   5.673   7.054
   82MYC    H7414918   3.456   5.573   7.058
   82MYC    H7514919   3.419   5.745   7.071
   82MYC    C4114920   3.559   5.696   6.913
   82MYC    H7614921   3.594   5.800   6.905
   82MYC    H7714922   3.646   5.631   6.899
   82MYC    C4214923   3.456   5.668   6.802
   82MYC    H7814924   3.420   5.565   6.811
   82MYC    H7914925   3.369   5.734   6.814
   82MYC    C4314926   3.514   5.688   6.661
   82MYC    H8014927   3.439   5.662   6.585
   82MYC    H8114928   3.602   5.624   6.646
   82MYC    H8214929   3.544   5.792   6.646
   83MYC   HH1514930   3.990   5.847   6.609
   83MYC    C8014931   4.060   5.823   6.690
   83MYC   H10014932   4.067   5.713   6.698
   83MYC   H10114933   4.159   5.862   6.664
   83MYC    C7914934   4.011   5.884   6.823
   83MYC   H10214935   3.910   5.846   6.844
   83MYC   H10314936   4.003   5.993   6.811
   83MYC    C7814937   4.103   5.851   6.942
   83MYC   HH1414938   4.204   5.887   6.921
   83MYC   H10414939   4.108   5.742   6.953
   83MYC    C7714940   4.053   5.912   7.075
   83MYC   H10614941   3.949   5.883   7.090
   83MYC   H10714942   4.056   6.022   7.068
   83MYC    C7614943   4.136   5.867   7.197
   83MYC   H10814944   4.240   5.901   7.186
   83MYC   H10914945   4.139   5.757   7.197
   83MYC    C7514946   4.078   5.916   7.331
   83MYC   H11014947   3.970   5.895   7.332
   83MYC   H11114948   4.090   6.024   7.339
   83MYC    C7414949   4.143   5.846   7.452
   83MYC   H11214950   4.247   5.878   7.463
   83MYC   H11314951   4.145   5.738   7.433
   83MYC    C7314952   4.067   5.870   7.585
   83MYC   HH1314953   3.959   5.861   7.566
   83MYC   H11414954   4.085   5.972   7.620
   83MYC    C7214955   4.107   5.768   7.693
   83MYC   H11514956   4.213   5.779   7.718
   83MYC   H11614957   4.096   5.667   7.650
   83MYC    C7114958   4.021   5.773   7.821
   83MYC   H11714959   4.002   5.670   7.853
   83MYC   H11814960   3.923   5.817   7.799
   83MYC    C7014961   4.085   5.849   7.939
   83MYC   H11914962   4.092   5.956   7.916
   83MYC   H12014963   4.188   5.812   7.954
   83MYC    C6914964   4.005   5.828   8.068
   83MYC   H12114965   3.988   5.720   8.080
   83MYC   H12214966   3.907   5.875   8.059
   83MYC    C6814967   4.075   5.880   8.196
   83MYC   HH1214968   4.077   5.989   8.196
   83MYC   H12314969   4.179   5.845   8.197
   83MYC    C6714970   4.003   5.828   8.322
   83MYC   H12414971   3.998   5.718   8.316
   83MYC   H12514972   3.899   5.863   8.322
   83MYC    C6614973   4.070   5.867   8.455
   83MYC   H12614974   4.069   5.975   8.468
   83MYC   H12714975   4.175   5.835   8.453
   83MYC    C6514976   3.999   5.799   8.573
   83MYC   H12814977   3.991   5.691   8.552
   83MYC   H12914978   3.896   5.837   8.579
   83MYC    C6414979   4.068   5.816   8.709
   83MYC   H13014980   4.072   5.922   8.736
   83MYC   H13114981   4.171   5.779   8.703
   83MYC    C6314982   3.992   5.737   8.818
   83MYC   HH1114983   3.976   5.634   8.782
   83MYC   H13214984   3.893   5.782   8.831
   83MYC    C6214985   4.063   5.730   8.954
   83MYC   H13314986   4.072   5.832   8.995
   83MYC   H13414987   4.164   5.689   8.942
   83MYC    C6114988   3.983   5.642   9.051
   83MYC   H13514989   3.981   5.539   9.014
   83MYC   H13614990   3.878   5.676   9.052
   83MYC    C6014991   4.033   5.645   9.194
   83MYC   H13714992   4.059   5.745   9.228
   83MYC    C5814993   3.963   5.556   9.294
   83MYC   H13814994   3.890   5.485   9.255
   83MYC    C5914995   4.108   5.530   9.259
   83MYC   H13914996   4.183   5.554   9.334
   83MYC   H14014997   4.130   5.442   9.199
   83MYC    C5714998   3.919   5.617   9.426
   83MYC   HH1014999   3.825   5.672   9.411
   83MYC   H14115000   3.993   5.690   9.460
   83MYC    C5615001   3.898   5.512   9.536
   83MYC   H14215002   3.992   5.456   9.550
   83MYC   H14315003   3.822   5.439   9.504
   83MYC    C5515004   3.855   5.575   9.669
   83MYC   H14415005   3.755   5.618   9.659
   83MYC   H14515006   3.924   5.658   9.693
   83MYC    C5415007   3.856   5.474   9.786
   83MYC   H14615008   3.954   5.426   9.789
   83MYC   H14715009   3.782   5.396   9.767
   83MYC    C5315010   3.829   5.541   9.922
   83MYC   H14815011   3.726   5.580   9.923
   83MYC   H14915012   3.897   5.626   9.935
   83MYC    C5215013   3.849   5.442  10.038
   83MYC    H9915014   3.951   5.402  10.035
   83MYC   H15015015   3.781   5.357  10.025
   83MYC    C5115016   3.825   5.505  10.177
   83MYC    H9715017   3.724   5.547  10.181
   83MYC    H9815018   3.895   5.588  10.192
   83MYC    C5015019   3.841   5.401  10.290
   83MYC    H9515020   3.945   5.364  10.290
   83MYC    H9615021   3.778   5.315  10.266
   83MYC    C4915022   3.804   5.452  10.430
   83MYC    H9315023   3.789   5.364  10.495
   83MYC    H9415024   3.708   5.504  10.426
   83MYC    C4815025   3.910   5.543  10.496
   83MYC    H9115026   3.922   5.635  10.436
   83MYC    H9215027   4.007   5.492  10.495
   83MYC    C4715028   3.873   5.581  10.641
   83MYC    H8915029   3.839   5.492  10.694
   83MYC    H9015030   3.789   5.651  10.638
   83MYC    C4615031   3.989   5.645  10.721
   83MYC    H8715032   4.028   5.732  10.666
   83MYC    H8815033   4.072   5.573  10.728
   83MYC    C4515034   3.945   5.688  10.862
   83MYC    H8515035   3.900   5.603  10.914
   83MYC    H8615036   3.867   5.764  10.852
   83MYC    C4415037   4.059   5.746  10.949
   83MYC    H8315038   4.014   5.816  11.022
   83MYC    H8415039   4.125   5.807  10.886
   83MYC    C1815040   4.141   5.641  11.023
   83MYC    H3115041   4.140   5.544  10.974
   83MYC    C1715042   4.271   5.681  11.090
   83MYC    H3015043   4.298   5.786  11.092
   83MYC    C1915044   4.152   5.643  11.174
   83MYC    H3215045   4.103   5.723  11.228
   83MYC    H3315046   4.160   5.550  11.229
   83MYC    C1615047   4.392   5.589  11.080
   83MYC    H2815048   4.360   5.487  11.056
   83MYC    H2915049   4.440   5.583  11.179
   83MYC    C1515050   4.496   5.636  10.977
   83MYC    H2615051   4.579   5.564  10.978
   83MYC    H2715052   4.538   5.731  11.010
   83MYC    C1415053   4.444   5.651  10.832
   83MYC    H2415054   4.366   5.727  10.829
   83MYC    H2515055   4.399   5.557  10.800
   83MYC    C1315056   4.557   5.690  10.734
   83MYC    H2215057   4.628   5.607  10.727
   83MYC    H2315058   4.613   5.775  10.776
   83MYC    C1215059   4.507   5.727  10.593
   83MYC    H2015060   4.444   5.817  10.601
   83MYC    H2115061   4.443   5.647  10.556
   83MYC    C1115062   4.622   5.754  10.493
   83MYC    H1815063   4.677   5.660  10.475
   83MYC    H1915064   4.693   5.823  10.539
   83MYC    C1015065   4.577   5.814  10.358
   83MYC    H1615066   4.666   5.837  10.299
   83MYC    H1715067   4.528   5.910  10.378
   83MYC     C915068   4.482   5.725  10.274
   83MYC    H1415069   4.395   5.697  10.334
   83MYC    H1515070   4.533   5.633  10.245
   83MYC     C815071   4.432   5.799  10.147
   83MYC    H1215072   4.517   5.818  10.080
   83MYC    H1315073   4.393   5.897  10.177
   83MYC     C715074   4.319   5.727  10.069
   83MYC    H1015075   4.271   5.802  10.004
   83MYC    H1115076   4.242   5.692  10.138
   83MYC     C615077   4.365   5.609   9.980
   83MYC     H815078   4.400   5.526  10.042
   83MYC     H915079   4.451   5.642   9.920
   83MYC     C515080   4.252   5.560   9.886
   83MYC     H615081   4.213   5.645   9.828
   83MYC     H715082   4.169   5.525   9.948
   83MYC     C415083   4.290   5.446   9.788
   83MYC     H415084   4.197   5.409   9.743
   83MYC     H515085   4.328   5.361   9.846
   83MYC     C215086   4.387   5.478   9.669
   83MYC     H215087   4.331   5.454   9.578
   83MYC     O315088   4.421   5.617   9.664
   83MYC     H315089   4.497   5.627   9.603
   83MYC     C115090   4.515   5.389   9.666
   83MYC     H115091   4.479   5.285   9.659
   83MYC    C8115092   4.597   5.398   9.797
   83MYC    O8215093   4.660   5.497   9.832
   83MYC    O8315094   4.599   5.284   9.870
   83MYC   H10515095   4.656   5.303   9.946
   83MYC    C2015096   4.609   5.413   9.545
   83MYC    H3415097   4.657   5.511   9.555
   83MYC    H3515098   4.689   5.338   9.548
   83MYC    C2115099   4.540   5.405   9.406
   83MYC    H3615100   4.482   5.312   9.399
   83MYC    H3715101   4.470   5.489   9.396
   83MYC    C2215102   4.642   5.410   9.291
   83MYC    H3815103   4.710   5.495   9.307
   83MYC    H3915104   4.704   5.319   9.293
   83MYC    C2315105   4.577   5.424   9.152
   83MYC    H4015106   4.509   5.339   9.135
   83MYC    H4115107   4.516   5.515   9.150
   83MYC    C2415108   4.681   5.430   9.039
   83MYC    H4215109   4.755   5.508   9.062
   83MYC    H4315110   4.735   5.335   9.035
   83MYC    C2515111   4.619   5.460   8.901
   83MYC    H4415112   4.545   5.383   8.877
   83MYC    H4515113   4.566   5.556   8.905
   83MYC    C2615114   4.725   5.464   8.789
   83MYC    H4615115   4.802   5.538   8.815
   83MYC    H4715116   4.775   5.366   8.784
   83MYC    C2715117   4.666   5.498   8.651
   83MYC    H4815118   4.583   5.430   8.630
   83MYC    H4915119   4.625   5.600   8.654
   83MYC    C2815120   4.770   5.487   8.538
   83MYC    H5015121   4.853   5.556   8.558
   83MYC    H5115122   4.812   5.385   8.538
   83MYC    C2915123   4.711   5.518   8.399
   83MYC    H5215124   4.619   5.460   8.385
   83MYC    H5315125   4.683   5.624   8.395
   83MYC    C3015126   4.809   5.485   8.285
   83MYC    H5415127   4.901   5.543   8.299
   83MYC    H5515128   4.836   5.379   8.289
   83MYC    C3115129   4.750   5.517   8.146
   83MYC    H5615130   4.651   5.470   8.137
   83MYC    H5715131   4.735   5.626   8.138
   83MYC    C3215132   4.839   5.469   8.029
   83MYC    H5815133   4.940   5.509   8.041
   83MYC    H5915134   4.846   5.360   8.032
   83MYC    C3315135   4.782   5.514   7.894
   83MYC    H6015136   4.676   5.483   7.888
   83MYC    H6115137   4.784   5.623   7.889
   83MYC    C3415138   4.856   5.457   7.771
   83MYC    H6215139   4.963   5.480   7.778
   83MYC    H6315140   4.846   5.347   7.770
   83MYC    C3515141   4.798   5.515   7.641
   83MYC    H6415142   4.689   5.507   7.644
   83MYC    H6515143   4.822   5.622   7.636
   83MYC    C3615144   4.848   5.447   7.511
   83MYC    H6615145   4.957   5.457   7.504
   83MYC    H6715146   4.825   5.340   7.515
   83MYC    C3715147   4.782   5.510   7.387
   83MYC    H6815148   4.673   5.507   7.400
   83MYC    H6915149   4.810   5.616   7.382
   83MYC    C3815150   4.817   5.442   7.254
   83MYC    H7015151   4.925   5.445   7.238
   83MYC    H7115152   4.788   5.336   7.258
   83MYC    C3915153   4.745   5.509   7.135
   83MYC    H7215154   4.637   5.505   7.151
   83MYC    H7315155   4.773   5.616   7.133
   83MYC    C4015156   4.779   5.447   6.998
   83MYC    H7415157   4.888   5.447   6.984
   83MYC    H7515158   4.746   5.342   6.997
   83MYC    C4115159   4.713   5.523   6.881
   83MYC    H7615160   4.604   5.520   6.893
   83MYC    H7715161   4.742   5.629   6.886
   83MYC    C4215162   4.750   5.467   6.742
   83MYC    H7815163   4.859   5.465   6.732
   83MYC    H7915164   4.715   5.363   6.734
   83MYC    C4315165   4.690   5.549   6.626
   83MYC    H8015166   4.721   5.506   6.530
   83MYC    H8115167   4.725   5.652   6.630
   83MYC    H8215168   4.581   5.549   6.631
   84MYC   HH1515169   5.351   5.384   6.595
   84MYC    C8015170   5.311   5.432   6.685
   84MYC   H10015171   5.352   5.534   6.689
   84MYC   H10115172   5.202   5.439   6.675
   84MYC    C7915173   5.351   5.353   6.811
   84MYC   H10215174   5.460   5.347   6.817
   84MYC   H10315175   5.313   5.250   6.802
   84MYC    C7815176   5.296   5.417   6.940
   84MYC   HH1415177   5.187   5.417   6.937
   84MYC   H10415178   5.328   5.522   6.945
   84MYC    C7715179   5.344   5.345   7.068
   84MYC   H10615180   5.453   5.341   7.069
   84MYC   H10715181   5.307   5.242   7.068
   84MYC    C7615182   5.295   5.417   7.196
   84MYC   H10815183   5.185   5.419   7.196
   84MYC   H10915184   5.330   5.521   7.194
   84MYC    C7515185   5.343   5.350   7.326
   84MYC   H11015186   5.452   5.338   7.323
   84MYC   H11115187   5.299   5.250   7.334
   84MYC    C7415188   5.305   5.434   7.449
   84MYC   H11215189   5.199   5.461   7.444
   84MYC   H11315190   5.362   5.528   7.448
   84MYC    C7315191   5.331   5.362   7.583
   84MYC   HH1315192   5.435   5.329   7.588
   84MYC   H11415193   5.268   5.272   7.587
   84MYC    C7215194   5.299   5.452   7.703
   84MYC   H11515195   5.204   5.505   7.686
   84MYC   H11615196   5.377   5.529   7.712
   84MYC    C7115197   5.290   5.375   7.835
   84MYC   H11715198   5.385   5.322   7.853
   84MYC   H11815199   5.212   5.299   7.828
   84MYC    C7015200   5.260   5.467   7.954
   84MYC   H11915201   5.165   5.520   7.937
   84MYC   H12015202   5.338   5.543   7.962
   84MYC    C6915203   5.252   5.390   8.087
   84MYC   H12115204   5.348   5.340   8.104
   84MYC   H12215205   5.176   5.312   8.079
   84MYC    C6815206   5.219   5.481   8.206
   84MYC   HH1215207   5.116   5.516   8.198
   84MYC   H12315208   5.283   5.570   8.204
   84MYC    C6715209   5.240   5.409   8.340
   84MYC   H12415210   5.348   5.393   8.355
   84MYC   H12515211   5.193   5.311   8.337
   84MYC    C6615212   5.183   5.488   8.459
   84MYC   H12615213   5.074   5.482   8.456
   84MYC   H12715214   5.210   5.594   8.452
   84MYC    C6515215   5.233   5.433   8.594
   84MYC   H12815216   5.337   5.465   8.609
   84MYC   H12915217   5.234   5.323   8.590
   84MYC    C6415218   5.146   5.477   8.712
   84MYC   H13015219   5.045   5.438   8.698
   84MYC   H13115220   5.139   5.587   8.714
   84MYC    C6315221   5.202   5.427   8.846
   84MYC   HH1115222   5.295   5.481   8.869
   84MYC   H13215223   5.227   5.321   8.838
   84MYC    C6215224   5.102   5.445   8.962
   84MYC   H13315225   5.009   5.394   8.937
   84MYC   H13415226   5.079   5.552   8.975
   84MYC    C6115227   5.156   5.388   9.094
   84MYC   H13515228   5.248   5.442   9.122
   84MYC   H13615229   5.186   5.284   9.079
   84MYC    C6015230   5.054   5.395   9.206
   84MYC   H13715231   4.960   5.347   9.180
   84MYC    C5815232   5.101   5.380   9.348
   84MYC   H13815233   5.208   5.374   9.364
   84MYC    C5915234   5.047   5.513   9.300
   84MYC   H13915235   4.949   5.544   9.335
   84MYC   H14015236   5.118   5.594   9.285
   84MYC    C5715237   5.023   5.294   9.446
   84MYC   HH1015238   5.045   5.188   9.428
   84MYC   H14115239   4.915   5.307   9.432
   84MYC    C5615240   5.059   5.330   9.591
   84MYC   H14215241   5.038   5.437   9.607
   84MYC   H14315242   5.167   5.316   9.603
   84MYC    C5515243   4.987   5.248   9.698
   84MYC   H14415244   5.007   5.141   9.683
   84MYC   H14515245   4.879   5.262   9.690
   84MYC    C5415246   5.034   5.291   9.838
   84MYC   H14615247   5.015   5.398   9.850
   84MYC   H14715248   5.143   5.277   9.844
   84MYC    C5315249   4.969   5.215   9.955
   84MYC   H14815250   4.996   5.109   9.949
   84MYC   H14915251   4.860   5.222   9.948
   84MYC    C5215252   5.017   5.273  10.090
   84MYC    H9915253   4.985   5.378  10.096
   84MYC   H15015254   5.127   5.273  10.091
   84MYC    C5115255   4.966   5.198  10.214
   84MYC    H9715256   4.999   5.093  10.210
   84MYC    H9815257   4.856   5.198  10.215
   84MYC    C5015258   5.019   5.265  10.343
   84MYC    H9515259   4.983   5.368  10.346
   84MYC    H9615260   5.129   5.269  10.337
   84MYC    C4915261   4.979   5.193  10.473
   84MYC    H9315262   5.012   5.089  10.470
   84MYC    H9415263   4.870   5.193  10.483
   84MYC    C4815264   5.042   5.263  10.596
   84MYC    H9115265   5.006   5.367  10.600
   84MYC    H9215266   5.151   5.267  10.583
   84MYC    C4715267   5.011   5.193  10.730
   84MYC    H8915268   5.050   5.091  10.728
   84MYC    H9015269   4.902   5.186  10.742
   84MYC    C4615270   5.071   5.269  10.850
   84MYC    H8715271   5.029   5.370  10.854
   84MYC    H8815272   5.179   5.281  10.835
   84MYC    C4515273   5.047   5.197  10.985
   84MYC    H8515274   5.121   5.116  10.994
   84MYC    H8615275   4.949   5.149  10.984
   84MYC    C4415276   5.054   5.286  11.111
   84MYC    H8315277   5.058   5.220  11.199
   84MYC    H8415278   4.960   5.341  11.120
   84MYC    C1815279   5.170   5.386  11.119
   84MYC    H3115280   5.249   5.368  11.046
   84MYC    C1715281   5.144   5.529  11.162
   84MYC    H3015282   5.043   5.554  11.192
   84MYC    C1915283   5.216   5.435  11.254
   84MYC    H3215284   5.162   5.402  11.343
   84MYC    H3315285   5.323   5.449  11.269
   84MYC    C1615286   5.219   5.649  11.106
   84MYC    H2815287   5.318   5.620  11.071
   84MYC    H2915288   5.235   5.720  11.188
   84MYC    C1515289   5.142   5.724  10.994
   84MYC    H2615290   5.159   5.832  11.005
   84MYC    H2715291   5.034   5.710  11.008
   84MYC    C1415292   5.179   5.685  10.849
   84MYC    H2415293   5.106   5.731  10.782
   84MYC    H2515294   5.171   5.577  10.836
   84MYC    C1315295   5.321   5.733  10.807
   84MYC    H2215296   5.397   5.672  10.858
   84MYC    H2315297   5.336   5.836  10.840
   84MYC    C1215298   5.342   5.726  10.655
   84MYC    H2015299   5.267   5.788  10.606
   84MYC    H2115300   5.325   5.622  10.622
   84MYC    C1115301   5.483   5.772  10.611
   84MYC    H1815302   5.558   5.700  10.646
   84MYC    H1915303   5.505   5.868  10.658
   84MYC    C1015304   5.497   5.790  10.458
   84MYC    H1615305   5.598   5.825  10.436
   84MYC    H1715306   5.428   5.868  10.424
   84MYC     C915307   5.470   5.661  10.377
   84MYC    H1415308   5.368   5.626  10.396
   84MYC    H1515309   5.538   5.582  10.410
   84MYC     C815310   5.485   5.681  10.225
   84MYC    H1215311   5.588   5.711  10.202
   84MYC    H1315312   5.420   5.763  10.193
   84MYC     C715313   5.450   5.554  10.146
   84MYC    H1015314   5.347   5.523  10.170
   84MYC    H1115315   5.516   5.472  10.176
   84MYC     C615316   5.460   5.574   9.994
   84MYC     H815317   5.564   5.601   9.968
   84MYC     H915318   5.397   5.658   9.964
   84MYC     C515319   5.419   5.449   9.915
   84MYC     H615320   5.315   5.421   9.940
   84MYC     H715321   5.481   5.365   9.947
   84MYC     C415322   5.434   5.462   9.761
   84MYC     H415323   5.423   5.362   9.719
   84MYC     H515324   5.537   5.492   9.740
   84MYC     C215325   5.337   5.556   9.683
   84MYC     H215326   5.303   5.496   9.598
   84MYC     O315327   5.222   5.591   9.761
   84MYC     H315328   5.160   5.639   9.704
   84MYC     C115329   5.405   5.682   9.622
   84MYC     H115330   5.506   5.651   9.591
   84MYC    C8115331   5.422   5.799   9.722
   84MYC    O8215332   5.332   5.871   9.760
   84MYC    O8315333   5.549   5.819   9.764
   84MYC   H10515334   5.545   5.895   9.825
   84MYC    C2015335   5.332   5.727   9.493
   84MYC    H3415336   5.315   5.639   9.430
   84MYC    H3515337   5.233   5.767   9.519
   84MYC    C2115338   5.410   5.830   9.409
   84MYC    H3615339   5.426   5.922   9.467
   84MYC    H3715340   5.510   5.789   9.387
   84MYC    C2215341   5.338   5.865   9.276
   84MYC    H3815342   5.249   5.802   9.264
   84MYC    H3915343   5.301   5.969   9.281
   84MYC    C2315344   5.427   5.848   9.152
   84MYC    H4015345   5.512   5.917   9.158
   84MYC    H4115346   5.469   5.746   9.152
   84MYC    C2415347   5.351   5.870   9.020
   84MYC    H4215348   5.264   5.804   9.017
   84MYC    H4315349   5.314   5.973   9.016
   84MYC    C2515350   5.439   5.842   8.897
   84MYC    H4415351   5.528   5.907   8.900
   84MYC    H4515352   5.475   5.738   8.901
   84MYC    C2615353   5.365   5.864   8.764
   84MYC    H4615354   5.274   5.803   8.762
   84MYC    H4715355   5.333   5.969   8.757
   84MYC    C2715356   5.452   5.829   8.641
   84MYC    H4815357   5.547   5.883   8.648
   84MYC    H4915358   5.475   5.722   8.643
   84MYC    C2815359   5.383   5.865   8.508
   84MYC    H5015360   5.284   5.818   8.504
   84MYC    H5115361   5.368   5.974   8.504
   84MYC    C2915362   5.465   5.820   8.385
   84MYC    H5215363   5.567   5.861   8.392
   84MYC    H5315364   5.474   5.711   8.386
   84MYC    C3015365   5.401   5.866   8.253
   84MYC    H5415366   5.298   5.830   8.249
   84MYC    H5515367   5.398   5.975   8.251
   84MYC    C3115368   5.477   5.815   8.128
   84MYC    H5615369   5.580   5.852   8.130
   84MYC    H5715370   5.482   5.705   8.131
   84MYC    C3215371   5.408   5.861   7.998
   84MYC    H5815372   5.305   5.824   7.998
   84MYC    H5915373   5.404   5.970   7.997
   84MYC    C3315374   5.479   5.812   7.870
   84MYC    H6015375   5.581   5.853   7.867
   84MYC    H6115376   5.489   5.703   7.872
   84MYC    C3415377   5.402   5.855   7.744
   84MYC    H6215378   5.302   5.811   7.747
   84MYC    H6315379   5.388   5.964   7.747
   84MYC    C3515380   5.470   5.817   7.611
   84MYC    H6415381   5.570   5.860   7.608
   84MYC    H6515382   5.481   5.708   7.605
   84MYC    C3615383   5.388   5.868   7.491
   84MYC    H6615384   5.286   5.829   7.498
   84MYC    H6715385   5.380   5.977   7.497
   84MYC    C3715386   5.446   5.829   7.354
   84MYC    H6815387   5.551   5.860   7.349
   84MYC    H6915388   5.444   5.720   7.343
   84MYC    C3815389   5.368   5.895   7.239
   84MYC    H7015390   5.261   5.877   7.252
   84MYC    H7115391   5.383   6.004   7.243
   84MYC    C3915392   5.410   5.844   7.099
   84MYC    H7215393   5.519   5.850   7.089
   84MYC    H7315394   5.382   5.738   7.090
   84MYC    C4015395   5.344   5.924   6.986
   84MYC    H7415396   5.235   5.925   7.000
   84MYC    H7515397   5.377   6.028   6.992
   84MYC    C4115398   5.376   5.868   6.846
   84MYC    H7615399   5.484   5.859   6.834
   84MYC    H7715400   5.333   5.767   6.837
   84MYC    C4215401   5.320   5.957   6.732
   84MYC    H7815402   5.211   5.966   6.743
   84MYC    H7915403   5.362   6.058   6.741
   84MYC    C4315404   5.352   5.902   6.592
   84MYC    H8015405   5.314   5.970   6.515
   84MYC    H8115406   5.305   5.803   6.578
   84MYC    H8215407   5.460   5.891   6.578
   85MYC   HH1515408   5.740   5.138   6.626
   85MYC    C8015409   5.748   5.205   6.713
   85MYC   H10015410   5.841   5.262   6.703
   85MYC   H10115411   5.664   5.275   6.711
   85MYC    C7915412   5.748   5.123   6.844
   85MYC   H10215413   5.832   5.053   6.842
   85MYC   H10315414   5.656   5.063   6.849
   85MYC    C7815415   5.759   5.211   6.970
   85MYC   HH1415416   5.674   5.279   6.974
   85MYC   H10415417   5.850   5.272   6.964
   85MYC    C7715418   5.764   5.128   7.101
   85MYC   H10615419   5.854   5.065   7.100
   85MYC   H10715420   5.677   5.061   7.105
   85MYC    C7615421   5.765   5.216   7.227
   85MYC   H10815422   5.673   5.276   7.229
   85MYC   H10915423   5.849   5.287   7.220
   85MYC    C7515424   5.778   5.137   7.359
   85MYC   H11015425   5.876   5.089   7.363
   85MYC   H11115426   5.703   5.056   7.360
   85MYC    C7415427   5.758   5.226   7.482
   85MYC   H11215428   5.656   5.267   7.480
   85MYC   H11315429   5.826   5.312   7.476
   85MYC    C7315430   5.780   5.155   7.617
   85MYC   HH1315431   5.886   5.129   7.627
   85MYC   H11415432   5.724   5.061   7.619
   85MYC    C7215433   5.737   5.243   7.736
   85MYC   H11515434   5.630   5.263   7.728
   85MYC   H11615435   5.789   5.339   7.731
   85MYC    C7115436   5.764   5.179   7.875
   85MYC   H11715437   5.872   5.169   7.889
   85MYC   H11815438   5.721   5.078   7.878
   85MYC    C7015439   5.704   5.263   7.989
   85MYC   H11915440   5.595   5.271   7.975
   85MYC   H12015441   5.743   5.366   7.984
   85MYC    C6915442   5.732   5.206   8.129
   85MYC   H12115443   5.840   5.204   8.146
   85MYC   H12215444   5.697   5.102   8.134
   85MYC    C6815445   5.664   5.287   8.242
   85MYC   HH1215446   5.555   5.282   8.229
   85MYC   H12315447   5.692   5.393   8.233
   85MYC    C6715448   5.701   5.236   8.382
   85MYC   H12415449   5.809   5.249   8.397
   85MYC   H12515450   5.679   5.129   8.389
   85MYC    C6615451   5.627   5.310   8.496
   85MYC   H12615452   5.519   5.298   8.483
   85MYC   H12715453   5.649   5.417   8.490
   85MYC    C6515454   5.668   5.256   8.634
   85MYC   H12815455   5.777   5.266   8.646
   85MYC   H12915456   5.645   5.149   8.639
   85MYC    C6415457   5.599   5.328   8.752
   85MYC   H13015458   5.490   5.322   8.740
   85MYC   H13115459   5.625   5.435   8.749
   85MYC    C6315460   5.640   5.268   8.887
   85MYC   HH1115461   5.749   5.262   8.892
   85MYC   H13215462   5.603   5.165   8.893
   85MYC    C6215463   5.590   5.347   9.010
   85MYC   H13315464   5.481   5.359   9.006
   85MYC   H13415465   5.634   5.447   9.007
   85MYC    C6115466   5.629   5.277   9.142
   85MYC   H13515467   5.726   5.228   9.128
   85MYC   H13615468   5.557   5.196   9.162
   85MYC    C6015469   5.637   5.370   9.261
   85MYC   H13715470   5.540   5.410   9.290
   85MYC    C5815471   5.735   5.339   9.371
   85MYC   H13815472   5.801   5.254   9.354
   85MYC    C5915473   5.756   5.460   9.283
   85MYC   H13915474   5.736   5.559   9.325
   85MYC   H14015475   5.836   5.457   9.210
   85MYC    C5715476   5.695   5.353   9.517
   85MYC   HH1015477   5.600   5.300   9.534
   85MYC   H14115478   5.676   5.459   9.541
   85MYC    C5615479   5.801   5.297   9.615
   85MYC   H14215480   5.896   5.347   9.595
   85MYC   H14315481   5.815   5.190   9.595
   85MYC    C5515482   5.761   5.316   9.763
   85MYC   H14415483   5.669   5.261   9.782
   85MYC   H14515484   5.740   5.422   9.780
   85MYC    C5415485   5.869   5.272   9.863
   85MYC   H14615486   5.959   5.333   9.850
   85MYC   H14715487   5.898   5.169   9.843
   85MYC    C5315488   5.819   5.283  10.009
   85MYC   H14815489   5.730   5.221  10.021
   85MYC   H14915490   5.788   5.387  10.030
   85MYC    C5215491   5.925   5.240  10.113
   85MYC    H9915492   6.005   5.315  10.118
   85MYC   H15015493   5.973   5.148  10.077
   85MYC    C5115494   5.869   5.213  10.254
   85MYC    H9715495   5.941   5.153  10.309
   85MYC    H9815496   5.777   5.153  10.246
   85MYC    C5015497   5.839   5.341  10.336
   85MYC    H9515498   5.771   5.407  10.282
   85MYC    H9615499   5.934   5.395  10.349
   85MYC    C4915500   5.782   5.310  10.476
   85MYC    H9315501   5.832   5.222  10.517
   85MYC    H9415502   5.675   5.286  10.467
   85MYC    C4815503   5.800   5.427  10.576
   85MYC    H9115504   5.755   5.518  10.536
   85MYC    H9215505   5.907   5.446  10.587
   85MYC    C4715506   5.740   5.397  10.715
   85MYC    H8915507   5.772   5.297  10.747
   85MYC    H9015508   5.631   5.394  10.707
   85MYC    C4615509   5.781   5.499  10.823
   85MYC    H8715510   5.756   5.600  10.790
   85MYC    H8815511   5.890   5.495  10.836
   85MYC    C4515512   5.712   5.471  10.959
   85MYC    H8515513   5.734   5.369  10.992
   85MYC    H8615514   5.604   5.478  10.944
   85MYC    C4415515   5.752   5.569  11.072
   85MYC    H8315516   5.678   5.558  11.152
   85MYC    H8415517   5.742   5.672  11.035
   85MYC    C1815518   5.891   5.547  11.131
   85MYC    H3115519   5.947   5.467  11.083
   85MYC    C1715520   5.971   5.664  11.185
   85MYC    H3015521   5.923   5.761  11.183
   85MYC    C1915522   5.912   5.563  11.280
   85MYC    H3215523   5.828   5.597  11.341
   85MYC    H3315524   5.979   5.494  11.330
   85MYC    C1615525   6.123   5.673  11.170
   85MYC    H2815526   6.167   5.574  11.154
   85MYC    H2915527   6.165   5.711  11.264
   85MYC    C1515528   6.167   5.769  11.057
   85MYC    H2615529   6.274   5.790  11.068
   85MYC    H2715530   6.116   5.865  11.069
   85MYC    C1415531   6.143   5.713  10.914
   85MYC    H2415532   6.066   5.635  10.916
   85MYC    H2515533   6.235   5.665  10.879
   85MYC    C1315534   6.099   5.822  10.814
   85MYC    H2215535   6.170   5.906  10.817
   85MYC    H2315536   6.001   5.861  10.844
   85MYC    C1215537   6.090   5.770  10.669
   85MYC    H2015538   6.025   5.681  10.668
   85MYC    H2115539   6.190   5.738  10.637
   85MYC    C1115540   6.034   5.875  10.569
   85MYC    H1815541   6.084   5.971  10.587
   85MYC    H1915542   5.927   5.890  10.589
   85MYC    C1015543   6.055   5.837  10.421
   85MYC    H1615544   6.163   5.828  10.403
   85MYC    H1715545   6.020   5.920  10.358
   85MYC     C915546   5.985   5.706  10.376
   85MYC    H1415547   5.876   5.719  10.380
   85MYC    H1515548   6.010   5.626  10.447
   85MYC     C815549   6.028   5.659  10.235
   85MYC    H1215550   6.042   5.550  10.237
   85MYC    H1315551   6.127   5.700  10.212
   85MYC     C715552   5.931   5.694  10.121
   85MYC    H1015553   5.915   5.802  10.118
   85MYC    H1115554   5.833   5.647  10.141
   85MYC     C615555   5.985   5.644   9.986
   85MYC     H815556   5.995   5.535   9.989
   85MYC     H915557   6.086   5.685   9.973
   85MYC     C515558   5.901   5.684   9.864
   85MYC     H615559   5.887   5.792   9.866
   85MYC     H715560   5.801   5.639   9.872
   85MYC     C415561   5.969   5.638   9.733
   85MYC     H415562   5.950   5.531   9.721
   85MYC     H515563   6.078   5.646   9.743
   85MYC     C215564   5.927   5.709   9.602
   85MYC     H215565   5.955   5.640   9.522
   85MYC     O315566   5.786   5.728   9.597
   85MYC     H315567   5.760   5.784   9.672
   85MYC     C115568   6.005   5.842   9.575
   85MYC     H115569   6.111   5.814   9.572
   85MYC    C8115570   5.990   5.947   9.686
   85MYC    O8215571   5.887   6.008   9.710
   85MYC    O8315572   6.102   5.967   9.760
   85MYC   H10515573   6.076   6.032   9.828
   85MYC    C2015574   5.973   5.907   9.438
   85MYC    H3415575   5.872   5.948   9.438
   85MYC    H3515576   6.042   5.991   9.422
   85MYC    C2115577   5.986   5.808   9.320
   85MYC    H3615578   6.078   5.750   9.330
   85MYC    H3715579   5.902   5.738   9.324
   85MYC    C2215580   5.985   5.876   9.183
   85MYC    H3815581   5.902   5.948   9.178
   85MYC    H3915582   6.078   5.933   9.169
   85MYC    C2315583   5.970   5.773   9.070
   85MYC    H4015584   6.049   5.697   9.078
   85MYC    H4115585   5.874   5.721   9.083
   85MYC    C2415586   5.974   5.836   8.931
   85MYC    H4215587   5.910   5.925   8.930
   85MYC    H4315588   6.077   5.870   8.910
   85MYC    C2515589   5.927   5.740   8.821
   85MYC    H4415590   5.989   5.650   8.822
   85MYC    H4515591   5.824   5.709   8.843
   85MYC    C2615592   5.932   5.805   8.683
   85MYC    H4615593   5.877   5.899   8.684
   85MYC    H4715594   6.037   5.830   8.659
   85MYC    C2715595   5.875   5.714   8.572
   85MYC    H4815596   5.929   5.618   8.573
   85MYC    H4915597   5.770   5.693   8.593
   85MYC    C2815598   5.889   5.780   8.434
   85MYC    H5015599   5.829   5.872   8.432
   85MYC    H5115600   5.994   5.809   8.419
   85MYC    C2915601   5.846   5.687   8.320
   85MYC    H5215602   5.902   5.593   8.326
   85MYC    H5315603   5.739   5.663   8.330
   85MYC    C3015604   5.872   5.753   8.183
   85MYC    H5415605   5.811   5.844   8.175
   85MYC    H5515606   5.977   5.784   8.178
   85MYC    C3115607   5.841   5.660   8.066
   85MYC    H5615608   5.903   5.570   8.073
   85MYC    H5715609   5.736   5.628   8.070
   85MYC    C3215610   5.868   5.729   7.931
   85MYC    H5815611   5.806   5.819   7.924
   85MYC    H5915612   5.972   5.762   7.927
   85MYC    C3315613   5.839   5.637   7.811
   85MYC    H6015614   5.907   5.551   7.814
   85MYC    H6115615   5.737   5.598   7.819
   85MYC    C3415616   5.856   5.711   7.678
   85MYC    H6215617   5.791   5.800   7.678
   85MYC    H6315618   5.959   5.747   7.668
   85MYC    C3515619   5.821   5.623   7.557
   85MYC    H6415620   5.889   5.537   7.554
   85MYC    H6515621   5.719   5.584   7.569
   85MYC    C3615622   5.830   5.700   7.424
   85MYC    H6615623   5.767   5.790   7.430
   85MYC    H6715624   5.933   5.734   7.409
   85MYC    C3715625   5.786   5.615   7.304
   85MYC    H6815626   5.847   5.524   7.299
   85MYC    H6915627   5.682   5.583   7.318
   85MYC    C3815628   5.797   5.691   7.171
   85MYC    H7015629   5.738   5.783   7.176
   85MYC    H7115630   5.902   5.721   7.156
   85MYC    C3915631   5.751   5.607   7.050
   85MYC    H7215632   5.807   5.513   7.049
   85MYC    H7315633   5.645   5.581   7.062
   85MYC    C4015634   5.771   5.680   6.916
   85MYC    H7415635   5.714   5.774   6.917
   85MYC    H7515636   5.877   5.708   6.906
   85MYC    C4115637   5.729   5.595   6.795
   85MYC    H7615638   5.784   5.500   6.799
   85MYC    H7715639   5.623   5.571   6.803
   85MYC    C4215640   5.757   5.664   6.661
   85MYC    H7815641   5.701   5.758   6.655
   85MYC    H7915642   5.864   5.690   6.654
   85MYC    C4315643   5.720   5.576   6.540
   85MYC    H8015644   5.745   5.626   6.446
   85MYC    H8115645   5.613   5.553   6.540
   85MYC    H8215646   5.776   5.482   6.545
   86MYC   HH1515647   6.218   0.371   6.205
   86MYC    C8015648   6.188   0.317   6.114
   86MYC   H10015649   6.271   0.251   6.085
   86MYC   H10115650   6.101   0.255   6.138
   86MYC    C7915651   6.156   0.417   6.002
   86MYC   H10215652   6.244   0.479   5.983
   86MYC   H10315653   6.076   0.484   6.035
   86MYC    C7815654   6.112   0.348   5.871
   86MYC   HH1415655   6.014   0.300   5.886
   86MYC   H10415656   6.183   0.268   5.846
   86MYC    C7715657   6.103   0.445   5.751
   86MYC   H10615658   6.200   0.494   5.739
   86MYC   H10715659   6.030   0.524   5.774
   86MYC    C7615660   6.064   0.375   5.620
   86MYC   H10815661   5.960   0.342   5.625
   86MYC   H10915662   6.126   0.285   5.607
   86MYC    C7515663   6.083   0.466   5.496
   86MYC   H11015664   6.186   0.504   5.495
   86MYC   H11115665   6.017   0.553   5.505
   86MYC    C7415666   6.055   0.393   5.364
   86MYC   H11215667   5.951   0.359   5.361
   86MYC   H11315668   6.118   0.302   5.359
   86MYC    C7315669   6.084   0.480   5.240
   86MYC   HH1315670   6.185   0.524   5.249
   86MYC   H11415671   6.013   0.564   5.238
   86MYC    C7215672   6.076   0.402   5.108
   86MYC   H11515673   5.979   0.351   5.102
   86MYC   H11615674   6.153   0.323   5.109
   86MYC    C7115675   6.094   0.491   4.984
   86MYC   H11715676   6.184   0.553   4.997
   86MYC   H11815677   6.009   0.559   4.975
   86MYC    C7015678   6.109   0.409   4.855
   86MYC   H11915679   6.027   0.336   4.848
   86MYC   H12015680   6.202   0.351   4.860
   86MYC    C6915681   6.110   0.496   4.728
   86MYC   H12115682   6.181   0.579   4.741
   86MYC   H12215683   6.010   0.541   4.715
   86MYC    C6815684   6.148   0.416   4.603
   86MYC   HH1215685   6.083   0.328   4.595
   86MYC   H12315686   6.251   0.379   4.615
   86MYC    C6715687   6.138   0.498   4.473
   86MYC   H12415688   6.193   0.592   4.485
   86MYC   H12515689   6.033   0.523   4.455
   86MYC    C6615690   6.195   0.421   4.353
   86MYC   H12615691   6.146   0.323   4.346
   86MYC   H12715692   6.302   0.403   4.369
   86MYC    C6515693   6.175   0.497   4.220
   86MYC   H12815694   6.222   0.596   4.226
   86MYC   H12915695   6.068   0.513   4.205
   86MYC    C6415696   6.233   0.419   4.101
   86MYC   H13015697   6.195   0.316   4.103
   86MYC   H13115698   6.342   0.413   4.110
   86MYC    C6315699   6.195   0.484   3.967
   86MYC   HH1115700   6.241   0.583   3.960
   86MYC   H13215701   6.086   0.499   3.965
   86MYC    C6215702   6.236   0.399   3.846
   86MYC   H13315703   6.196   0.298   3.857
   86MYC   H13415704   6.345   0.391   3.841
   86MYC    C6115705   6.183   0.461   3.716
   86MYC   H13515706   6.231   0.559   3.701
   86MYC   H13615707   6.076   0.479   3.726
   86MYC    C6015708   6.204   0.373   3.594
   86MYC   H13715709   6.151   0.279   3.601
   86MYC    C5815710   6.210   0.441   3.460
   86MYC   H13815711   6.212   0.549   3.460
   86MYC    C5915712   6.333   0.372   3.515
   86MYC   H13915713   6.364   0.279   3.469
   86MYC   H14015714   6.415   0.436   3.549
   86MYC    C5715715   6.131   0.386   3.343
   86MYC   HH1015716   6.030   0.428   3.345
   86MYC   H14115717   6.120   0.277   3.350
   86MYC    C5615718   6.200   0.421   3.211
   86MYC   H14215719   6.287   0.357   3.198
   86MYC   H14315720   6.237   0.525   3.216
   86MYC    C5515721   6.108   0.409   3.088
   86MYC   H14415722   6.023   0.477   3.099
   86MYC   H14515723   6.070   0.307   3.081
   86MYC    C5415724   6.186   0.444   2.960
   86MYC   H14615725   6.264   0.368   2.945
   86MYC   H14715726   6.237   0.540   2.974
   86MYC    C5315727   6.098   0.453   2.834
   86MYC   H14815728   6.029   0.538   2.843
   86MYC   H14915729   6.039   0.362   2.824
   86MYC    C5215730   6.187   0.471   2.710
   86MYC    H9915731   6.252   0.383   2.702
   86MYC   H15015732   6.254   0.557   2.725
   86MYC    C5115733   6.110   0.489   2.579
   86MYC    H9715734   6.064   0.588   2.576
   86MYC    H9815735   6.029   0.415   2.573
   86MYC    C5015736   6.204   0.470   2.459
   86MYC    H9515737   6.246   0.369   2.463
   86MYC    H9615738   6.289   0.540   2.467
   86MYC    C4915739   6.136   0.490   2.322
   86MYC    H9315740   6.120   0.597   2.304
   86MYC    H9415741   6.038   0.441   2.323
   86MYC    C4815742   6.221   0.428   2.209
   86MYC    H9115743   6.231   0.321   2.228
   86MYC    H9215744   6.322   0.471   2.211
   86MYC    C4715745   6.161   0.448   2.069
   86MYC    H8915746   6.173   0.553   2.040
   86MYC    H9015747   6.053   0.428   2.071
   86MYC    C4615748   6.227   0.358   1.964
   86MYC    H8715749   6.216   0.253   1.994
   86MYC    H8815750   6.334   0.381   1.961
   86MYC    C4515751   6.166   0.377   1.824
   86MYC    H8515752   6.181   0.481   1.792
   86MYC    H8615753   6.058   0.361   1.832
   86MYC    C4415754   6.223   0.282   1.717
   86MYC    H8315755   6.168   0.301   1.624
   86MYC    H8415756   6.201   0.179   1.746
   86MYC    C1815757   6.373   0.300   1.692
   86MYC    H3115758   6.412   0.394   1.729
   86MYC    C1715759   0.017   0.181   1.689
   86MYC    H3015760   6.423   0.083   1.704
   86MYC    C1915761   6.431   0.252   1.561
   86MYC    H3215762   6.364   0.201   1.492
   86MYC    H3315763   0.056   0.314   1.514
   86MYC    C1615764   0.160   0.189   1.741
   86MYC    H2815765   0.194   0.294   1.743
   86MYC    H2915766   0.226   0.138   1.670
   86MYC    C1515767   0.184   0.127   1.881
   86MYC    H2615768   0.292   0.121   1.898
   86MYC    H2715769   0.146   0.024   1.883
   86MYC    C1415770   0.120   0.207   1.996
   86MYC    H2415771   0.011   0.197   1.991
   86MYC    H2515772   0.144   0.314   1.983
   86MYC    C1315773   0.166   0.163   2.137
   86MYC    H2215774   0.275   0.153   2.139
   86MYC    H2315775   0.124   0.064   2.161
   86MYC    C1215776   0.124   0.265   2.245
   86MYC    H2015777   0.015   0.280   2.241
   86MYC    H2115778   0.169   0.362   2.221
   86MYC    C1115779   0.163   0.229   2.390
   86MYC    H1815780   0.155   0.322   2.449
   86MYC    H1915781   0.269   0.201   2.394
   86MYC    C1015782   0.079   0.118   2.457
   86MYC    H1615783   0.140   0.027   2.467
   86MYC    H1715784   6.444   0.091   2.393
   86MYC     C915785   0.024   0.158   2.596
   86MYC    H1415786   6.406   0.080   2.632
   86MYC    H1515787   6.413   0.249   2.583
   86MYC     C815788   0.132   0.185   2.703
   86MYC    H1215789   0.214   0.244   2.661
   86MYC    H1315790   0.175   0.090   2.736
   86MYC     C715791   0.076   0.261   2.826
   86MYC    H1015792   6.446   0.200   2.872
   86MYC    H1115793   0.029   0.354   2.792
   86MYC     C615794   0.182   0.296   2.932
   86MYC     H815795   0.259   0.359   2.886
   86MYC     H915796   0.232   0.203   2.964
   86MYC     C515797   0.122   0.368   3.054
   86MYC     H615798   0.046   0.304   3.100
   86MYC     H715799   0.069   0.457   3.018
   86MYC     C415800   0.225   0.413   3.161
   86MYC     H415801   0.171   0.482   3.229
   86MYC     H515802   0.302   0.475   3.113
   86MYC     C215803   0.291   0.305   3.252
   86MYC     H215804   0.271   0.337   3.354
   86MYC     O315805   0.230   0.177   3.234
   86MYC     H315806   0.256   0.143   3.147
   86MYC     C115807   0.447   0.295   3.238
   86MYC     H115808   0.484   0.396   3.257
   86MYC    C8115809   0.492   0.255   3.096
   86MYC    O8215810   0.472   0.146   3.046
   86MYC    O8315811   0.564   0.349   3.032
   86MYC   H10515812   0.589   0.309   2.947
   86MYC    C2015813   0.515   0.202   3.343
   86MYC    H3415814   0.493   0.097   3.319
   86MYC    H3515815   0.623   0.214   3.335
   86MYC    C2115816   0.471   0.228   3.489
   86MYC    H3615817   0.473   0.336   3.508
   86MYC    H3715818   0.368   0.195   3.501
   86MYC    C2215819   0.558   0.157   3.595
   86MYC    H3815820   0.568   0.051   3.570
   86MYC    H3915821   0.659   0.201   3.595
   86MYC    C2315822   0.495   0.171   3.735
   86MYC    H4015823   0.476   0.277   3.756
   86MYC    H4115824   0.398   0.121   3.735
   86MYC    C2415825   0.580   0.114   3.850
   86MYC    H4215826   0.604   0.008   3.830
   86MYC    H4315827   0.675   0.168   3.856
   86MYC    C2515828   0.506   0.126   3.985
   86MYC    H4415829   0.474   0.230   3.999
   86MYC    H4515830   0.415   0.065   3.980
   86MYC    C2615831   0.588   0.081   4.108
   86MYC    H4615832   0.614   6.425   4.098
   86MYC    H4715833   0.681   0.139   4.112
   86MYC    C2715834   0.507   0.103   4.238
   86MYC    H4815835   0.479   0.209   4.244
   86MYC    H4915836   0.414   0.046   4.232
   86MYC    C2815837   0.582   0.063   4.366
   86MYC    H5015838   0.603   6.406   4.364
   86MYC    H5115839   0.678   0.116   4.371
   86MYC    C2915840   0.499   0.098   4.491
   86MYC    H5215841   0.482   0.206   4.494
   86MYC    H5315842   0.400   0.051   4.482
   86MYC    C3015843   0.563   0.054   4.624
   86MYC    H5415844   0.575   6.395   4.624
   86MYC    H5515845   0.664   0.097   4.632
   86MYC    C3115846   0.478   0.098   4.744
   86MYC    H5615847   0.471   0.207   4.745
   86MYC    H5715848   0.376   0.059   4.732
   86MYC    C3215849   0.532   0.050   4.879
   86MYC    H5815850   0.534   6.390   4.882
   86MYC    H5915851   0.636   0.084   4.891
   86MYC    C3315852   0.447   0.102   4.997
   86MYC    H6015853   0.447   0.212   4.994
   86MYC    H6115854   0.344   0.069   4.984
   86MYC    C3415855   0.498   0.056   5.134
   86MYC    H6215856   0.493   6.396   5.139
   86MYC    H6315857   0.604   0.084   5.145
   86MYC    C3515858   0.418   0.117   5.250
   86MYC    H6415859   0.423   0.227   5.244
   86MYC    H6515860   0.312   0.090   5.239
   86MYC    C3615861   0.468   0.072   5.388
   86MYC    H6615862   0.457   6.413   5.396
   86MYC    H6715863   0.575   0.093   5.396
   86MYC    C3715864   0.394   0.140   5.505
   86MYC    H6815865   0.411   0.248   5.500
   86MYC    H6915866   0.286   0.123   5.494
   86MYC    C3815867   0.440   0.086   5.642
   86MYC    H7015868   0.419   6.429   5.645
   86MYC    H7115869   0.548   0.099   5.652
   86MYC    C3915870   0.370   0.156   5.761
   86MYC    H7215871   0.400   0.261   5.764
   86MYC    H7315872   0.261   0.154   5.745
   86MYC    C4015873   0.403   0.087   5.895
   86MYC    H7415874   0.369   6.433   5.890
   86MYC    H7515875   0.511   0.086   5.910
   86MYC    C4115876   0.336   0.155   6.016
   86MYC    H7615877   0.377   0.256   6.029
   86MYC    H7715878   0.229   0.166   5.997
   86MYC    C4215879   0.355   0.075   6.147
   86MYC    H7815880   0.311   6.425   6.135
   86MYC    H7915881   0.462   0.061   6.166
   86MYC    C4315882   0.290   0.142   6.269
   86MYC    H8015883   0.302   0.079   6.358
   86MYC    H8115884   0.183   0.159   6.252
   86MYC    H8215885   0.338   0.239   6.290
   87MYC   HH1515886   0.035   0.835   6.206
   87MYC    C8015887   0.038   0.912   6.128
   87MYC   H10015888   6.431   0.999   6.162
   87MYC   H10115889   0.143   0.942   6.113
   87MYC    C7915890   6.429   0.856   5.997
   87MYC   H10215891   6.326   0.823   6.015
   87MYC   H10315892   0.036   0.767   5.967
   87MYC    C7815893   6.431   0.958   5.881
   87MYC   HH1415894   0.085   0.986   5.860
   87MYC   H10415895   6.379   1.050   5.912
   87MYC    C7715896   6.365   0.904   5.753
   87MYC   H10615897   6.259   0.884   5.772
   87MYC   H10715898   6.412   0.808   5.727
   87MYC    C7615899   6.378   1.000   5.633
   87MYC   H10815900   0.035   1.019   5.614
   87MYC   H10915901   6.331   1.096   5.657
   87MYC    C7515902   6.314   0.942   5.505
   87MYC   H11015903   6.205   0.937   5.518
   87MYC   H11115904   6.349   0.839   5.491
   87MYC    C7415905   6.347   1.023   5.378
   87MYC   H11215906   0.006   1.037   5.372
   87MYC   H11315907   6.302   1.123   5.384
   87MYC    C7315908   6.298   0.953   5.250
   87MYC   HH1315909   6.189   0.955   5.245
   87MYC   H11415910   6.327   0.847   5.255
   87MYC    C7215911   6.358   1.014   5.121
   87MYC   H11515912   0.016   1.023   5.134
   87MYC   H11615913   6.318   1.115   5.107
   87MYC    C7115914   6.329   0.928   4.997
   87MYC   H11715915   6.223   0.937   4.969
   87MYC   H11815916   6.347   0.822   5.020
   87MYC    C7015917   6.418   0.967   4.877
   87MYC   H11915918   0.074   0.957   4.906
   87MYC   H12015919   6.402   1.072   4.852
   87MYC    C6915920   6.392   0.879   4.753
   87MYC   H12115921   6.291   0.900   4.716
   87MYC   H12215922   6.395   0.773   4.782
   87MYC    C6815923   0.045   0.904   4.641
   87MYC   HH1215924   0.144   0.871   4.675
   87MYC   H12315925   0.051   1.011   4.620
   87MYC    C6715926   0.007   0.829   4.512
   87MYC   H12415927   6.359   0.865   4.479
   87MYC   H12515928   6.447   0.722   4.533
   87MYC    C6615929   0.109   0.850   4.398
   87MYC   H12615930   0.203   0.798   4.423
   87MYC   H12715931   0.132   0.957   4.389
   87MYC    C6515932   0.055   0.798   4.264
   87MYC   H12815933   6.409   0.848   4.244
   87MYC   H12915934   0.033   0.691   4.273
   87MYC    C6415935   0.150   0.822   4.146
   87MYC   H13015936   0.239   0.758   4.156
   87MYC   H13115937   0.184   0.926   4.146
   87MYC    C6315938   0.080   0.793   4.013
   87MYC   HH1115939   6.441   0.858   4.004
   87MYC   H13215940   0.043   0.689   4.013
   87MYC    C6215941   0.169   0.814   3.889
   87MYC   H13315942   0.250   0.741   3.890
   87MYC   H13415943   0.214   0.914   3.892
   87MYC    C6115944   0.087   0.799   3.760
   87MYC   H13515945   0.011   0.879   3.757
   87MYC   H13615946   0.032   0.704   3.763
   87MYC    C6015947   0.171   0.802   3.634
   87MYC   H13715948   0.240   0.719   3.628
   87MYC    C5815949   0.104   0.845   3.506
   87MYC   H13815950   0.002   0.884   3.515
   87MYC    C5915951   0.214   0.930   3.565
   87MYC   H13915952   0.310   0.930   3.515
   87MYC   H14015953   0.185   1.024   3.610
   87MYC    C5715954   0.123   0.765   3.379
   87MYC   HH1015955   0.066   0.671   3.386
   87MYC   H14115956   0.229   0.736   3.368
   87MYC    C5615957   0.077   0.843   3.256
   87MYC   H14215958   0.132   0.938   3.251
   87MYC   H14315959   6.421   0.868   3.265
   87MYC    C5515960   0.100   0.764   3.126
   87MYC   H14415961   0.044   0.670   3.131
   87MYC   H14515962   0.206   0.738   3.119
   87MYC    C5415963   0.058   0.843   3.001
   87MYC   H14615964   0.102   0.943   3.005
   87MYC   H14715965   6.399   0.855   3.001
   87MYC    C5315966   0.103   0.772   2.873
   87MYC   H14815967   0.050   0.677   2.863
   87MYC   H14915968   0.210   0.749   2.880
   87MYC    C5215969   0.079   0.858   2.747
   87MYC    H9915970   0.124   0.957   2.761
   87MYC   H15015971   6.421   0.872   2.733
   87MYC    C5115972   0.139   0.792   2.623
   87MYC    H9715973   0.097   0.691   2.613
   87MYC    H9815974   0.247   0.781   2.636
   87MYC    C5015975   0.111   0.870   2.493
   87MYC    H9515976   0.153   0.972   2.500
   87MYC    H9615977   0.003   0.881   2.480
   87MYC    C4915978   0.171   0.797   2.372
   87MYC    H9315979   0.149   0.690   2.381
   87MYC    H9415980   0.280   0.808   2.377
   87MYC    C4815981   0.122   0.849   2.236
   87MYC    H9115982   0.185   0.933   2.204
   87MYC    H9215983   0.020   0.887   2.247
   87MYC    C4715984   0.123   0.739   2.128
   87MYC    H8915985   0.068   0.652   2.167
   87MYC    H9015986   0.226   0.706   2.109
   87MYC    C4615987   0.057   0.784   1.997
   87MYC    H8715988   0.124   0.854   1.945
   87MYC    H8815989   6.416   0.840   2.021
   87MYC    C4515990   0.018   0.667   1.905
   87MYC    H8515991   6.389   0.609   1.954
   87MYC    H8615992   0.103   0.599   1.893
   87MYC    C4415993   6.417   0.711   1.766
   87MYC    H8315994   6.390   0.622   1.708
   87MYC    H8415995   0.050   0.758   1.712
   87MYC    C1815996   6.299   0.806   1.769
   87MYC    H3115997   6.217   0.766   1.827
   87MYC    C1715998   6.314   0.957   1.769
   87MYC    H3015999   6.415   0.998   1.762
   87MYC    C1916000   6.263   0.885   1.646
   87MYC    H3216001   6.329   0.880   1.560
   87MYC    H3316002   6.158   0.893   1.621
   87MYC    C1616003   6.216   1.047   1.845
   87MYC    H2816004   6.157   0.988   1.915
   87MYC    H2916005   6.144   1.089   1.774
   87MYC    C1516006   6.280   1.165   1.921
   87MYC    H2616007   6.199   1.231   1.953
   87MYC    H2716008   6.342   1.224   1.851
   87MYC    C1416009   6.365   1.128   2.045
   87MYC    H2416010   0.005   1.074   2.014
   87MYC    H2516011   6.307   1.061   2.110
   87MYC    C1316012   6.407   1.253   2.126
   87MYC    H2216013   6.317   1.313   2.147
   87MYC    H2316014   0.023   1.314   2.065
   87MYC    C1216015   0.025   1.223   2.262
   87MYC    H2016016   0.107   1.152   2.247
   87MYC    H2116017   6.401   1.174   2.328
   87MYC    C1116018   0.080   1.351   2.328
   87MYC    H1816019   0.008   1.433   2.317
   87MYC    H1916020   0.170   1.381   2.274
   87MYC    C1016021   0.116   1.336   2.478
   87MYC    H1616022   0.187   1.416   2.503
   87MYC    H1716023   0.170   1.242   2.495
   87MYC     C916024   6.446   1.348   2.576
   87MYC    H1416025   6.362   1.397   2.527
   87MYC    H1516026   0.027   1.416   2.657
   87MYC     C816027   6.399   1.216   2.640
   87MYC    H1216028   0.034   1.168   2.690
   87MYC    H1316029   6.363   1.147   2.562
   87MYC     C716030   6.286   1.239   2.744
   87MYC    H1016031   6.196   1.275   2.692
   87MYC    H1116032   6.319   1.319   2.811
   87MYC     C616033   6.250   1.114   2.828
   87MYC     H816034   6.340   1.079   2.880
   87MYC     H916035   6.222   1.033   2.760
   87MYC     C516036   6.135   1.134   2.931
   87MYC     H616037   6.128   1.045   2.994
   87MYC     H716038   6.041   1.139   2.874
   87MYC     C416039   6.141   1.260   3.023
   87MYC     H416040   6.041   1.274   3.066
   87MYC     H516041   6.155   1.349   2.960
   87MYC     C216042   6.242   1.259   3.142
   87MYC     H216043   6.195   1.200   3.222
   87MYC     O316044   6.364   1.193   3.105
   87MYC     H316045   6.408   1.250   3.040
   87MYC     C116046   6.272   1.402   3.199
   87MYC     H116047   6.178   1.443   3.237
   87MYC    C8116048   6.319   1.501   3.090
   87MYC    O8216049   6.260   1.604   3.062
   87MYC    O8316050   6.431   1.463   3.023
   87MYC   H10516051   0.001   1.536   2.961
   87MYC    C2016052   6.373   1.403   3.318
   87MYC    H3416053   0.009   1.339   3.294
   87MYC    H3516054   6.414   1.505   3.329
   87MYC    C2116055   6.315   1.361   3.454
   87MYC    H3616056   6.246   1.439   3.490
   87MYC    H3716057   6.256   1.269   3.443
   87MYC    C2216058   6.425   1.337   3.560
   87MYC    H3816059   0.037   1.253   3.526
   87MYC    H3916060   0.041   1.425   3.565
   87MYC    C2316061   6.372   1.307   3.702
   87MYC    H4016062   6.333   1.399   3.747
   87MYC    H4116063   6.288   1.237   3.695
   87MYC    C2416064   0.031   1.246   3.793
   87MYC    H4216065   0.066   1.154   3.745
   87MYC    H4316066   0.117   1.314   3.798
   87MYC    C2516067   6.433   1.209   3.935
   87MYC    H4416068   6.325   1.193   3.936
   87MYC    H4516069   0.029   1.113   3.963
   87MYC    C2616070   0.022   1.313   4.043
   87MYC    H4616071   0.131   1.321   4.046
   87MYC    H4716072   6.433   1.412   4.015
   87MYC    C2716073   6.418   1.275   4.182
   87MYC    H4816074   6.311   1.296   4.187
   87MYC    H4916075   6.430   1.167   4.198
   87MYC    C2816076   0.041   1.348   4.297
   87MYC    H5016077   0.145   1.314   4.301
   87MYC    H5116078   0.043   1.456   4.277
   87MYC    C2916079   6.424   1.324   4.434
   87MYC    H5216080   6.326   1.373   4.435
   87MYC    H5316081   6.407   1.216   4.448
   87MYC    C3016082   0.059   1.376   4.552
   87MYC    H5416083   0.151   1.316   4.559
   87MYC    H5516084   0.089   1.480   4.532
   87MYC    C3116085   6.433   1.370   4.686
   87MYC    H5616086   6.346   1.436   4.682
   87MYC    H5716087   6.397   1.268   4.703
   87MYC    C3216088   0.072   1.412   4.805
   87MYC    H5816089   0.160   1.346   4.809
   87MYC    H5916090   0.109   1.514   4.789
   87MYC    C3316091   6.449   1.406   4.941
   87MYC    H6016092   6.360   1.471   4.938
   87MYC    H6116093   6.413   1.303   4.958
   87MYC    C3416094   0.090   1.449   5.057
   87MYC    H6216095   0.185   1.395   5.049
   87MYC    H6316096   0.113   1.556   5.047
   87MYC    C3516097   0.031   1.423   5.197
   87MYC    H6416098   6.383   1.473   5.206
   87MYC    H6516099   0.014   1.315   5.210
   87MYC    C3616100   0.124   1.474   5.309
   87MYC    H6616101   0.226   1.438   5.289
   87MYC    H6716102   0.128   1.584   5.303
   87MYC    C3716103   0.082   1.431   5.451
   87MYC    H6816104   6.429   1.464   5.470
   87MYC    H6916105   0.084   1.322   5.458
   87MYC    C3816106   0.176   1.492   5.557
   87MYC    H7016107   0.280   1.462   5.535
   87MYC    H7116108   0.172   1.601   5.549
   87MYC    C3916109   0.143   1.451   5.702
   87MYC    H7216110   0.039   1.479   5.724
   87MYC    H7316111   0.150   1.342   5.712
   87MYC    C4016112   0.237   1.519   5.804
   87MYC    H7416113   0.340   1.488   5.783
   87MYC    H7516114   0.233   1.628   5.789
   87MYC    C4116115   0.204   1.487   5.951
   87MYC    H7616116   0.100   1.518   5.972
   87MYC    H7716117   0.209   1.379   5.967
   87MYC    C4216118   0.299   1.559   6.049
   87MYC    H7816119   0.401   1.526   6.030
   87MYC    H7916120   0.296   1.667   6.030
   87MYC    C4316121   0.264   1.534   6.197
   87MYC    H8016122   0.268   1.427   6.220
   87MYC    H8116123   0.164   1.571   6.220
   87MYC    H8216124   0.336   1.585   6.262
   88MYC   HH1516125   6.246   2.002   6.244
   88MYC    C8016126   6.315   2.015   6.160
   88MYC   H10016127   6.332   2.122   6.145
   88MYC   H10116128   6.410   1.968   6.186
   88MYC    C7916129   6.256   1.951   6.033
   88MYC   H10216130   6.159   1.996   6.011
   88MYC   H10316131   6.238   1.844   6.051
   88MYC    C7816132   6.348   1.967   5.909
   88MYC   HH1416133   6.443   1.915   5.928
   88MYC   H10416134   6.372   2.073   5.895
   88MYC    C7716135   6.285   1.911   5.780
   88MYC   H10616136   6.186   1.957   5.766
   88MYC   H10716137   6.269   1.803   5.791
   88MYC    C7616138   6.372   1.938   5.655
   88MYC   H10816139   0.019   1.889   5.667
   88MYC   H10916140   6.390   2.046   5.646
   88MYC    C7516141   6.305   1.887   5.526
   88MYC   H11016142   6.207   1.935   5.514
   88MYC   H11116143   6.287   1.779   5.535
   88MYC    C7416144   6.390   1.913   5.400
   88MYC   H11216145   0.037   1.862   5.409
   88MYC   H11316146   6.411   2.021   5.392
   88MYC    C7316147   6.319   1.866   5.271
   88MYC   HH1316148   6.227   1.924   5.259
   88MYC   H11416149   6.291   1.761   5.282
   88MYC    C7216150   6.406   1.881   5.145
   88MYC   H11516151   0.044   1.817   5.153
   88MYC   H11616152   6.441   1.985   5.137
   88MYC    C7116153   6.327   1.845   5.018
   88MYC   H11716154   6.245   1.917   5.005
   88MYC   H11816155   6.281   1.746   5.030
   88MYC    C7016156   6.413   1.843   4.890
   88MYC   H11916157   0.031   1.757   4.893
   88MYC   H12016158   0.025   1.933   4.885
   88MYC    C6916159   6.325   1.836   4.764
   88MYC   H12116160   6.270   1.930   4.755
   88MYC   H12216161   6.251   1.756   4.775
   88MYC    C6816162   6.404   1.810   4.634
   88MYC   HH1216163   6.433   1.704   4.629
   88MYC   H12316164   0.047   1.869   4.635
   88MYC    C6716165   6.322   1.849   4.510
   88MYC   H12416166   6.315   1.959   4.507
   88MYC   H12516167   6.220   1.811   4.520
   88MYC    C6616168   6.381   1.798   4.377
   88MYC   H12616169   6.357   1.691   4.366
   88MYC   H12716170   0.040   1.806   4.379
   88MYC    C6516171   6.325   1.877   4.257
   88MYC   H12816172   6.359   1.981   4.264
   88MYC   H12916173   6.216   1.879   4.264
   88MYC    C6416174   6.365   1.821   4.120
   88MYC   H13016175   6.326   1.719   4.110
   88MYC   H13116176   0.025   1.814   4.112
   88MYC    C6316177   6.310   1.909   4.006
   88MYC   HH1116178   6.362   2.006   4.008
   88MYC   H13216179   6.204   1.929   4.025
   88MYC    C6216180   6.324   1.847   3.866
   88MYC   H13316181   6.272   1.750   3.865
   88MYC   H13416182   6.430   1.827   3.843
   88MYC    C6116183   6.264   1.938   3.758
   88MYC   H13516184   6.324   2.030   3.751
   88MYC   H13616185   6.163   1.969   3.789
   88MYC    C6016186   6.253   1.872   3.622
   88MYC   H13716187   6.189   1.784   3.623
   88MYC    C5816188   6.250   1.958   3.498
   88MYC   H13816189   6.265   2.064   3.512
   88MYC    C5916190   6.369   1.869   3.525
   88MYC   H13916191   6.382   1.780   3.464
   88MYC   H14016192   0.012   1.916   3.555
   88MYC    C5716193   6.152   1.928   3.386
   88MYC   HH1016194   6.053   1.969   3.410
   88MYC   H14116195   6.139   1.819   3.375
   88MYC    C5616196   6.200   1.985   3.252
   88MYC   H14216197   6.303   1.950   3.234
   88MYC   H14316198   6.205   2.095   3.259
   88MYC    C5516199   6.112   1.946   3.132
   88MYC   H14416200   6.013   1.993   3.141
   88MYC   H14516201   6.097   1.837   3.134
   88MYC    C5416202   6.178   1.985   2.999
   88MYC   H14616203   6.281   1.946   2.999
   88MYC   H14716204   6.185   2.094   2.992
   88MYC    C5316205   6.105   1.931   2.875
   88MYC   H14816206   6.012   1.987   2.859
   88MYC   H14916207   6.078   1.826   2.892
   88MYC    C5216208   6.194   1.940   2.749
   88MYC    H9916209   6.292   1.895   2.773
   88MYC   H15016210   6.213   2.045   2.724
   88MYC    C5116211   6.135   1.867   2.628
   88MYC    H9716212   6.046   1.920   2.593
   88MYC    H9816213   6.104   1.767   2.658
   88MYC    C5016214   6.237   1.855   2.513
   88MYC    H9516215   6.333   1.820   2.552
   88MYC    H9616216   6.254   1.954   2.469
   88MYC    C4916217   6.191   1.756   2.404
   88MYC    H9316218   6.093   1.789   2.366
   88MYC    H9416219   6.176   1.657   2.449
   88MYC    C4816220   6.290   1.744   2.287
   88MYC    H9116221   6.387   1.709   2.325
   88MYC    H9216222   6.306   1.843   2.243
   88MYC    C4716223   6.239   1.647   2.179
   88MYC    H8916224   6.137   1.676   2.150
   88MYC    H9016225   6.233   1.546   2.220
   88MYC    C4616226   6.328   1.646   2.053
   88MYC    H8716227   6.428   1.607   2.079
   88MYC    H8816228   6.341   1.749   2.019
   88MYC    C4516229   6.268   1.561   1.939
   88MYC    H8516230   6.167   1.599   1.916
   88MYC    H8616231   6.254   1.458   1.974
   88MYC    C4416232   6.352   1.559   1.811
   88MYC    H8316233   6.302   1.494   1.738
   88MYC    H8416234   6.449   1.512   1.831
   88MYC    C1816235   6.372   1.697   1.748
   88MYC    H3116236   6.282   1.758   1.752
   88MYC    C1716237   0.056   1.769   1.752
   88MYC    H3016238   0.140   1.716   1.795
   88MYC    C1916239   0.003   1.711   1.622
   88MYC    H3216240   0.052   1.622   1.583
   88MYC    H3316241   6.416   1.779   1.547
   88MYC    C1616242   0.063   1.920   1.770
   88MYC    H2816243   6.414   1.960   1.797
   88MYC    H2916244   0.090   1.967   1.675
   88MYC    C1516245   0.166   1.966   1.876
   88MYC    H2616246   0.170   2.076   1.875
   88MYC    H2716247   0.265   1.931   1.846
   88MYC    C1416248   0.135   1.918   2.019
   88MYC    H2416249   0.130   1.809   2.021
   88MYC    H2516250   0.036   1.955   2.050
   88MYC    C1316251   0.240   1.965   2.121
   88MYC    H2216252   0.248   2.074   2.117
   88MYC    H2316253   0.338   1.925   2.092
   88MYC    C1216254   0.209   1.922   2.266
   88MYC    H2016255   0.190   1.814   2.270
   88MYC    H2116256   0.116   1.972   2.298
   88MYC    C1116257   0.324   1.957   2.362
   88MYC    H1816258   0.356   2.061   2.344
   88MYC    H1916259   0.411   1.894   2.338
   88MYC    C1016260   0.292   1.942   2.511
   88MYC    H1616261   0.386   1.952   2.567
   88MYC    H1716262   0.253   1.842   2.532
   88MYC     C916263   0.192   2.049   2.563
   88MYC    H1416264   0.090   2.023   2.531
   88MYC    H1516265   0.216   2.146   2.519
   88MYC     C816266   0.196   2.063   2.716
   88MYC    H1216267   0.299   2.088   2.745
   88MYC    H1316268   0.173   1.966   2.762
   88MYC     C716269   0.101   2.169   2.771
   88MYC    H1016270   6.447   2.133   2.765
   88MYC    H1116271   0.107   2.261   2.711
   88MYC     C616272   0.136   2.203   2.917
   88MYC     H816273   0.230   2.260   2.918
   88MYC     H916274   0.155   2.108   2.970
   88MYC     C516275   0.027   2.280   2.993
   88MYC     H616276   6.391   2.214   3.004
   88MYC     H716277   6.445   2.366   2.933
   88MYC     C416278   0.070   2.331   3.133
   88MYC     H416279   6.431   2.371   3.182
   88MYC     H516280   0.139   2.415   3.121
   88MYC     C216281   0.135   2.224   3.225
   88MYC     H216282   0.078   2.131   3.214
   88MYC     O316283   0.270   2.201   3.185
   88MYC     H316284   0.312   2.289   3.170
   88MYC     C116285   0.131   2.261   3.376
   88MYC     H116286   0.026   2.251   3.407
   88MYC    C8116287   0.169   2.408   3.403
   88MYC    O8216288   0.089   2.491   3.443
   88MYC    O8316289   0.301   2.437   3.392
   88MYC   H10516290   0.309   2.531   3.414
   88MYC    C2016291   0.213   2.161   3.462
   88MYC    H3416292   0.179   2.059   3.440
   88MYC    H3516293   0.319   2.166   3.435
   88MYC    C2116294   0.202   2.185   3.614
   88MYC    H3616295   0.238   2.286   3.638
   88MYC    H3716296   0.097   2.180   3.644
   88MYC    C2216297   0.284   2.083   3.694
   88MYC    H3816298   0.250   1.982   3.670
   88MYC    H3916299   0.390   2.089   3.665
   88MYC    C2316300   0.272   2.107   3.845
   88MYC    H4016301   0.311   2.206   3.870
   88MYC    H4116302   0.165   2.107   3.872
   88MYC    C2416303   0.344   2.001   3.929
   88MYC    H4216304   0.313   1.901   3.896
   88MYC    H4316305   0.453   2.008   3.914
   88MYC    C2516306   0.312   2.017   4.079
   88MYC    H4416307   0.348   2.114   4.113
   88MYC    H4516308   0.202   2.017   4.091
   88MYC    C2616309   0.370   1.905   4.166
   88MYC    H4616310   0.341   1.808   4.123
   88MYC    H4716311   0.480   1.910   4.164
   88MYC    C2716312   0.320   1.911   4.311
   88MYC    H4816313   0.212   1.925   4.309
   88MYC    H4916314   0.338   1.814   4.359
   88MYC    C2816315   0.384   2.021   4.396
   88MYC    H5016316   0.489   1.996   4.416
   88MYC    H5116317   0.383   2.117   4.343
   88MYC    C2916318   0.308   2.037   4.529
   88MYC    H5216319   0.208   2.077   4.508
   88MYC    H5316320   0.293   1.938   4.573
   88MYC    C3016321   0.378   2.126   4.632
   88MYC    H5416322   0.476   2.082   4.655
   88MYC    H5516323   0.398   2.225   4.589
   88MYC    C3116324   0.294   2.140   4.760
   88MYC    H5616325   0.242   2.237   4.759
   88MYC    H5716326   0.215   2.064   4.761
   88MYC    C3216327   0.375   2.127   4.890
   88MYC    H5816328   0.439   2.038   4.885
   88MYC    H5916329   0.441   2.214   4.901
   88MYC    C3316330   0.283   2.115   5.013
   88MYC    H6016331   0.213   2.200   5.014
   88MYC    H6116332   0.223   2.024   5.004
   88MYC    C3416333   0.360   2.112   5.146
   88MYC    H6216334   0.431   2.028   5.146
   88MYC    H6316335   0.419   2.204   5.154
   88MYC    C3516336   0.266   2.100   5.267
   88MYC    H6416337   0.181   2.168   5.253
   88MYC    H6516338   0.224   1.998   5.271
   88MYC    C3616339   0.335   2.133   5.399
   88MYC    H6616340   0.417   2.062   5.417
   88MYC    H6716341   0.381   2.233   5.391
   88MYC    C3716342   0.239   2.133   5.519
   88MYC    H6816343   0.150   2.192   5.495
   88MYC    H6916344   0.206   2.030   5.539
   88MYC    C3816345   0.305   2.192   5.645
   88MYC    H7016346   0.395   2.134   5.669
   88MYC    H7116347   0.336   2.295   5.625
   88MYC    C3916348   0.212   2.192   5.768
   88MYC    H7216349   0.120   2.248   5.746
   88MYC    H7316350   0.182   2.089   5.791
   88MYC    C4016351   0.281   2.253   5.891
   88MYC    H7416352   0.376   2.201   5.909
   88MYC    H7516353   0.306   2.358   5.870
   88MYC    C4116354   0.196   2.247   6.019
   88MYC    H7616355   0.104   2.305   6.005
   88MYC    H7716356   0.166   2.143   6.038
   88MYC    C4216357   0.272   2.302   6.142
   88MYC    H7816358   0.365   2.245   6.155
   88MYC    H7916359   0.301   2.406   6.124
   88MYC    C4316360   0.190   2.294   6.272
   88MYC    H8016361   0.250   2.331   6.356
   88MYC    H8116362   0.161   2.191   6.294
   88MYC    H8216363   0.100   2.355   6.264
   89MYC   HH1516364   6.146   2.331   6.154
   89MYC    C8016365   6.131   2.393   6.065
   89MYC   H10016366   6.036   2.448   6.075
   89MYC   H10116367   6.213   2.466   6.060
   89MYC    C7916368   6.131   2.305   5.938
   89MYC   H10216369   6.048   2.233   5.944
   89MYC   H10316370   6.224   2.249   5.935
   89MYC    C7816371   6.118   2.387   5.808
   89MYC   HH1416372   6.198   2.462   5.806
   89MYC   H10416373   6.023   2.442   5.809
   89MYC    C7716374   6.126   2.301   5.680
   89MYC   H10616375   6.037   2.237   5.673
   89MYC   H10716376   6.213   2.234   5.687
   89MYC    C7616377   6.140   2.387   5.553
   89MYC   H10816378   6.227   2.452   5.564
   89MYC   H10916379   6.052   2.452   5.544
   89MYC    C7516380   6.155   2.305   5.424
   89MYC   H11016381   6.061   2.250   5.404
   89MYC   H11116382   6.234   2.230   5.436
   89MYC    C7416383   6.189   2.395   5.303
   89MYC   H11216384   6.287   2.441   5.320
   89MYC   H11316385   6.116   2.476   5.297
   89MYC    C7316386   6.190   2.320   5.169
   89MYC   HH1316387   6.090   2.278   5.151
   89MYC   H11416388   6.260   2.235   5.174
   89MYC    C7216389   6.230   2.411   5.051
   89MYC   H11516390   6.338   2.430   5.054
   89MYC   H11616391   6.180   2.509   5.063
   89MYC    C7116392   6.189   2.354   4.915
   89MYC   H11716393   6.080   2.340   4.914
   89MYC   H11816394   6.234   2.254   4.901
   89MYC    C7016395   6.231   2.444   4.796
   89MYC   H11916396   6.335   2.422   4.769
   89MYC   H12016397   6.226   2.549   4.826
   89MYC    C6916398   6.139   2.424   4.674
   89MYC   H12116399   6.039   2.463   4.698
   89MYC   H12216400   6.128   2.317   4.654
   89MYC    C6816401   6.191   2.493   4.547
   89MYC   HH1216402   6.283   2.442   4.516
   89MYC   H12316403   6.218   2.597   4.570
   89MYC    C6716404   6.089   2.492   4.433
   89MYC   H12416405   6.009   2.564   4.454
   89MYC   H12516406   6.041   2.393   4.427
   89MYC    C6616407   6.154   2.523   4.297
   89MYC   H12616408   6.229   2.446   4.277
   89MYC   H12716409   6.207   2.619   4.303
   89MYC    C6516410   6.054   2.528   4.180
   89MYC   H12816411   5.990   2.617   4.190
   89MYC   H12916412   5.989   2.440   4.183
   89MYC    C6416413   6.129   2.532   4.046
   89MYC   H13016414   6.189   2.440   4.038
   89MYC   H13116415   6.199   2.616   4.046
   89MYC    C6316416   6.038   2.542   3.922
   89MYC   HH1116417   5.985   2.639   3.923
   89MYC   H13216418   5.963   2.463   3.924
   89MYC    C6216419   6.123   2.530   3.795
   89MYC   H13316420   6.174   2.433   3.797
   89MYC   H13416421   6.201   2.607   3.795
   89MYC    C6116422   6.043   2.540   3.664
   89MYC   H13516423   5.995   2.638   3.658
   89MYC   H13616424   5.963   2.465   3.665
   89MYC    C6016425   6.133   2.516   3.545
   89MYC   H13716426   6.199   2.430   3.559
   89MYC    C5816427   6.081   2.536   3.405
   89MYC   H13816428   5.982   2.578   3.396
   89MYC    C5916429   6.188   2.629   3.460
   89MYC   H13916430   6.289   2.619   3.421
   89MYC   H14016431   6.158   2.730   3.485
   89MYC    C5716432   6.112   2.430   3.301
   89MYC   HH1016433   6.040   2.348   3.312
   89MYC   H14116434   6.211   2.387   3.318
   89MYC    C5616435   6.105   2.486   3.159
   89MYC   H14216436   6.187   2.558   3.144
   89MYC   H14316437   6.012   2.542   3.146
   89MYC    C5516438   6.112   2.376   3.052
   89MYC   H14416439   6.025   2.310   3.062
   89MYC   H14516440   6.201   2.316   3.070
   89MYC    C5416441   6.116   2.434   2.910
   89MYC   H14616442   6.204   2.498   2.900
   89MYC   H14716443   6.028   2.498   2.895
   89MYC    C5316444   6.120   2.326   2.801
   89MYC   H14816445   6.034   2.259   2.811
   89MYC   H14916446   6.211   2.265   2.813
   89MYC    C5216447   6.120   2.390   2.661
   89MYC    H9916448   6.210   2.451   2.650
   89MYC   H15016449   6.034   2.458   2.653
   89MYC    C5116450   6.112   2.288   2.545
   89MYC    H9716451   6.021   2.229   2.554
   89MYC    H9816452   6.198   2.219   2.550
   89MYC    C5016453   6.114   2.362   2.410
   89MYC    H9516454   6.211   2.413   2.399
   89MYC    H9616455   6.037   2.440   2.411
   89MYC    C4916456   6.090   2.273   2.288
   89MYC    H9316457   5.988   2.231   2.292
   89MYC    H9416458   6.160   2.188   2.289
   89MYC    C4816459   6.108   2.353   2.157
   89MYC    H9116460   6.213   2.384   2.149
   89MYC    H9216461   6.048   2.445   2.163
   89MYC    C4716462   6.067   2.275   2.032
   89MYC    H8916463   5.959   2.257   2.035
   89MYC    H9016464   6.116   2.177   2.031
   89MYC    C4616465   6.102   2.351   1.902
   89MYC    H8716466   6.211   2.361   1.895
   89MYC    H8816467   6.061   2.452   1.906
   89MYC    C4516468   6.050   2.279   1.777
   89MYC    H8516469   5.940   2.286   1.775
   89MYC    H8616470   6.075   2.172   1.783
   89MYC    C4416471   6.106   2.333   1.644
   89MYC    H8316472   6.059   2.277   1.562
   89MYC    H8416473   6.213   2.311   1.639
   89MYC    C1816474   6.082   2.482   1.621
   89MYC    H3116475   5.993   2.519   1.671
   89MYC    C1716476   6.197   2.579   1.603
   89MYC    H3016477   6.297   2.537   1.605
   89MYC    C1916478   6.111   2.539   1.485
   89MYC    H3216479   6.154   2.473   1.411
   89MYC    H3316480   6.040   2.610   1.447
   89MYC    C1616481   6.190   2.723   1.653
   89MYC    H2816482   6.108   2.734   1.725
   89MYC    H2916483   6.167   2.789   1.569
   89MYC    C1516484   6.321   2.773   1.718
   89MYC    H2616485   6.311   2.880   1.736
   89MYC    H2716486   6.404   2.760   1.647
   89MYC    C1416487   6.356   2.703   1.852
   89MYC    H2416488   6.365   2.595   1.837
   89MYC    H2516489   6.274   2.720   1.922
   89MYC    C1316490   0.037   2.757   1.912
   89MYC    H2216491   0.034   2.867   1.911
   89MYC    H2316492   0.121   2.729   1.847
   89MYC    C1216493   0.066   2.708   2.056
   89MYC    H2016494   0.094   2.602   2.054
   89MYC    H2116495   6.425   2.717   2.116
   89MYC    C1116496   0.179   2.791   2.121
   89MYC    H1816497   0.149   2.896   2.122
   89MYC    H1916498   0.269   2.784   2.059
   89MYC    C1016499   0.218   2.751   2.266
   89MYC    H1616500   0.296   2.820   2.299
   89MYC    H1716501   0.262   2.651   2.265
   89MYC     C916502   0.101   2.755   2.367
   89MYC    H1416503   0.038   2.667   2.351
   89MYC    H1516504   0.038   2.843   2.347
   89MYC     C816505   0.148   2.759   2.514
   89MYC    H1216506   0.192   2.858   2.534
   89MYC    H1316507   0.227   2.685   2.530
   89MYC     C716508   0.034   2.732   2.615
   89MYC    H1016509   0.005   2.627   2.607
   89MYC    H1116510   6.396   2.792   2.586
   89MYC     C616511   0.071   2.765   2.761
   89MYC     H816512   0.087   2.873   2.769
   89MYC     H916513   0.166   2.717   2.784
   89MYC     C516514   6.413   2.718   2.863
   89MYC     H616515   6.440   2.618   2.899
   89MYC     H716516   6.319   2.705   2.809
   89MYC     C416517   6.383   2.814   2.982
   89MYC     H416518   6.275   2.810   2.999
   89MYC     H516519   6.402   2.918   2.953
   89MYC     C216520   6.449   2.787   3.121
   89MYC     H216521   6.388   2.845   3.192
   89MYC     O316522   6.437   2.649   3.155
   89MYC     H316523   0.018   2.638   3.247
   89MYC     C116524   0.145   2.838   3.141
   89MYC     H116525   0.140   2.947   3.128
   89MYC    C8116526   0.244   2.784   3.036
   89MYC    O8216527   0.279   2.668   3.029
   89MYC    O8316528   0.302   2.880   2.960
   89MYC   H10516529   0.365   2.833   2.903
   89MYC    C2016530   0.203   2.811   3.284
   89MYC    H3416531   0.203   2.703   3.302
   89MYC    H3516532   0.308   2.843   3.286
   89MYC    C2116533   0.130   2.882   3.401
   89MYC    H3616534   0.148   2.990   3.394
   89MYC    H3716535   0.022   2.866   3.394
   89MYC    C2216536   0.177   2.830   3.538
   89MYC    H3816537   0.155   2.723   3.544
   89MYC    H3916538   0.286   2.840   3.546
   89MYC    C2316539   0.112   2.901   3.659
   89MYC    H4016540   0.153   3.003   3.668
   89MYC    H4116541   0.004   2.910   3.643
   89MYC    C2416542   0.137   2.824   3.790
   89MYC    H4216543   0.093   2.724   3.780
   89MYC    H4316544   0.245   2.810   3.803
   89MYC    C2516545   0.079   2.891   3.916
   89MYC    H4416546   0.128   2.988   3.932
   89MYC    H4516547   6.422   2.911   3.902
   89MYC    C2616548   0.099   2.803   4.041
   89MYC    H4616549   0.051   2.706   4.025
   89MYC    H4716550   0.207   2.782   4.053
   89MYC    C2716551   0.045   2.864   4.172
   89MYC    H4816552   0.090   2.963   4.187
   89MYC    H4916553   6.386   2.878   4.163
   89MYC    C2816554   0.076   2.775   4.294
   89MYC    H5016555   0.033   2.675   4.278
   89MYC    H5116556   0.184   2.763   4.302
   89MYC    C2916557   0.022   2.833   4.426
   89MYC    H5216558   0.052   2.938   4.435
   89MYC    H5316559   6.362   2.831   4.425
   89MYC    C3016560   0.073   2.755   4.550
   89MYC    H5416561   0.045   2.649   4.541
   89MYC    H5516562   0.182   2.761   4.552
   89MYC    C3116563   0.017   2.811   4.682
   89MYC    H5616564   0.034   2.920   4.685
   89MYC    H5716565   6.358   2.796   4.685
   89MYC    C3216566   0.082   2.748   4.807
   89MYC    H5816567   0.064   2.640   4.807
   89MYC    H5916568   0.190   2.763   4.802
   89MYC    C3316569   0.028   2.809   4.938
   89MYC    H6016570   0.035   2.919   4.932
   89MYC    H6116571   6.372   2.785   4.949
   89MYC    C3416572   0.106   2.762   5.063
   89MYC    H6216573   0.098   2.653   5.072
   89MYC    H6316574   0.212   2.786   5.050
   89MYC    C3516575   0.054   2.828   5.192
   89MYC    H6416576   0.050   2.937   5.178
   89MYC    H6516577   6.402   2.795   5.212
   89MYC    C3616578   0.143   2.798   5.315
   89MYC    H6616579   0.150   2.689   5.327
   89MYC    H6716580   0.245   2.835   5.296
   89MYC    C3716581   0.090   2.860   5.445
   89MYC    H6816582   0.075   2.968   5.430
   89MYC    H6916583   6.441   2.817   5.467
   89MYC    C3816584   0.184   2.838   5.565
   89MYC    H7016585   0.206   2.731   5.573
   89MYC    H7116586   0.279   2.889   5.546
   89MYC    C3916587   0.125   2.887   5.699
   89MYC    H7216588   0.102   2.994   5.692
   89MYC    H7316589   0.030   2.835   5.716
   89MYC    C4016590   0.219   2.862   5.818
   89MYC    H7416591   0.253   2.758   5.816
   89MYC    H7516592   0.309   2.925   5.807
   89MYC    C4116593   0.153   2.891   5.954
   89MYC    H7616594   0.119   2.995   5.957
   89MYC    H7716595   0.064   2.828   5.965
   89MYC    C4216596   0.247   2.865   6.074
   89MYC    H7816597   0.289   2.763   6.066
   89MYC    H7916598   0.332   2.934   6.069
   89MYC    C4316599   0.177   2.879   6.210
   89MYC    H8016600   0.249   2.863   6.292
   89MYC    H8116601   0.097   2.805   6.220
   89MYC    H8216602   0.134   2.979   6.222
   90MYC   HH1516603   6.298   3.427   6.231
   90MYC    C8016604   6.323   3.386   6.133
   90MYC   H10016605   6.431   3.372   6.127
   90MYC   H10116606   6.275   3.287   6.124
   90MYC    C7916607   6.274   3.480   6.022
   90MYC   H10216608   6.316   3.580   6.038
   90MYC   H10316609   6.164   3.490   6.029
   90MYC    C7816610   6.312   3.432   5.880
   90MYC   HH1416611   6.272   3.331   5.864
   90MYC   H10416612   6.421   3.425   5.873
   90MYC    C7716613   6.260   3.525   5.769
   90MYC   H10616614   6.291   3.628   5.790
   90MYC   H10716615   6.150   3.524   5.770
   90MYC    C7616616   6.310   3.485   5.628
   90MYC   H10816617   6.284   3.380   5.609
   90MYC   H10916618   6.419   3.492   5.626
   90MYC    C7516619   6.250   3.573   5.517
   90MYC   H11016620   6.270   3.679   5.539
   90MYC   H11116621   6.141   3.561   5.515
   90MYC    C7416622   6.307   3.540   5.377
   90MYC   H11216623   6.295   3.432   5.358
   90MYC   H11316624   6.415   3.561   5.375
   90MYC    C7316625   6.238   3.618   5.264
   90MYC   HH1316626   6.250   3.726   5.281
   90MYC   H11416627   6.130   3.598   5.267
   90MYC    C7216628   6.291   3.582   5.124
   90MYC   H11516629   6.285   3.474   5.110
   90MYC   H11616630   6.398   3.609   5.118
   90MYC    C7116631   6.214   3.652   5.010
   90MYC   H11716632   6.226   3.761   5.019
   90MYC   H11816633   6.107   3.630   5.021
   90MYC    C7016634   6.260   3.606   4.871
   90MYC   H11916635   6.250   3.497   4.864
   90MYC   H12016636   6.367   3.629   4.859
   90MYC    C6916637   6.181   3.671   4.756
   90MYC   H12116638   6.195   3.780   4.759
   90MYC   H12216639   6.074   3.652   4.769
   90MYC    C6816640   6.226   3.618   4.618
   90MYC   HH1216641   6.211   3.510   4.616
   90MYC   H12316642   6.334   3.636   4.606
   90MYC    C6716643   6.151   3.682   4.500
   90MYC   H12416644   6.165   3.791   4.502
   90MYC   H12516645   6.043   3.663   4.510
   90MYC    C6616646   6.201   3.627   4.365
   90MYC   H12616647   6.185   3.518   4.363
   90MYC   H12716648   6.309   3.644   4.358
   90MYC    C6516649   6.132   3.690   4.243
   90MYC   H12816650   6.143   3.799   4.247
   90MYC   H12916651   6.025   3.667   4.245
   90MYC    C6416652   6.193   3.639   4.111
   90MYC   H13016653   6.179   3.530   4.105
   90MYC   H13116654   6.300   3.658   4.110
   90MYC    C6316655   6.130   3.703   3.986
   90MYC   HH1116656   6.135   3.812   3.994
   90MYC   H13216657   6.024   3.675   3.982
   90MYC    C6216658   6.198   3.659   3.855
   90MYC   H13316659   6.188   3.550   3.844
   90MYC   H13416660   6.306   3.680   3.861
   90MYC    C6116661   6.139   3.728   3.731
   90MYC   H13516662   6.151   3.837   3.741
   90MYC   H13616663   6.032   3.708   3.727
   90MYC    C6016664   6.203   3.680   3.601
   90MYC   H13716665   6.198   3.573   3.590
   90MYC    C5816666   6.190   3.764   3.476
   90MYC   H13816667   6.146   3.862   3.486
   90MYC    C5916668   6.326   3.746   3.541
   90MYC   H13916669   6.398   3.681   3.491
   90MYC   H14016670   6.368   3.831   3.593
   90MYC    C5716671   6.152   3.696   3.345
   90MYC   HH1016672   6.043   3.685   3.342
   90MYC   H14116673   6.194   3.595   3.342
   90MYC    C5616674   6.197   3.773   3.219
   90MYC   H14216675   6.307   3.781   3.219
   90MYC   H14316676   6.157   3.875   3.222
   90MYC    C5516677   6.151   3.703   3.089
   90MYC   H14416678   6.042   3.698   3.088
   90MYC   H14516679   6.189   3.600   3.088
   90MYC    C5416680   6.199   3.774   2.961
   90MYC   H14616681   6.309   3.776   2.960
   90MYC   H14716682   6.165   3.878   2.962
   90MYC    C5316683   6.148   3.706   2.832
   90MYC   H14816684   6.039   3.715   2.827
   90MYC   H14916685   6.171   3.598   2.835
   90MYC    C5216686   6.210   3.765   2.704
   90MYC    H9916687   6.317   3.739   2.700
   90MYC   H15016688   6.205   3.875   2.709
   90MYC    C5116689   6.141   3.719   2.573
   90MYC    H9716690   6.036   3.749   2.576
   90MYC    H9816691   6.144   3.609   2.566
   90MYC    C5016692   6.208   3.780   2.447
   90MYC    H9516693   6.306   3.731   2.432
   90MYC    H9616694   6.228   3.886   2.466
   90MYC    C4916695   6.124   3.769   2.318
   90MYC    H9316696   6.025   3.811   2.336
   90MYC    H9416697   6.110   3.664   2.291
   90MYC    C4816698   6.190   3.845   2.201
   90MYC    H9116699   6.289   3.802   2.180
   90MYC    H9216700   6.207   3.949   2.233
   90MYC    C4716701   6.108   3.849   2.070
   90MYC    H8916702   6.137   3.939   2.015
   90MYC    H9016703   6.001   3.861   2.095
   90MYC    C4616704   6.126   3.728   1.976
   90MYC    H8716705   6.092   3.637   2.026
   90MYC    H8816706   6.233   3.716   1.955
   90MYC    C4516707   6.050   3.748   1.843
   90MYC    H8516708   6.089   3.836   1.790
   90MYC    H8616709   5.945   3.769   1.866
   90MYC    C4416710   6.053   3.626   1.748
   90MYC    H8316711   5.984   3.646   1.665
   90MYC    H8416712   6.013   3.539   1.801
   90MYC    C1816713   6.189   3.593   1.689
   90MYC    H3116714   6.231   3.676   1.632
   90MYC    C1716715   6.286   3.502   1.760
   90MYC    H3016716   6.252   3.460   1.855
   90MYC    C1916717   6.215   3.455   1.635
   90MYC    H3216718   6.138   3.379   1.648
   90MYC    H3316719   6.273   3.446   1.544
   90MYC    C1616720   6.435   3.529   1.758
   90MYC    H2816721   0.011   3.601   1.836
   90MYC    H2916722   0.012   3.577   1.663
   90MYC    C1516723   0.071   3.401   1.771
   90MYC    H2616724   0.173   3.423   1.738
   90MYC    H2716725   0.032   3.326   1.702
   90MYC    C1416726   0.077   3.341   1.914
   90MYC    H2416727   0.116   3.239   1.907
   90MYC    H2516728   6.425   3.332   1.955
   90MYC    C1316729   0.165   3.422   2.011
   90MYC    H2216730   0.129   3.526   2.017
   90MYC    H2316731   0.267   3.426   1.970
   90MYC    C1216732   0.170   3.364   2.153
   90MYC    H2016733   0.193   3.257   2.148
   90MYC    H2116734   0.071   3.373   2.199
   90MYC    C1116735   0.276   3.433   2.241
   90MYC    H1816736   0.258   3.541   2.241
   90MYC    H1916737   0.374   3.419   2.194
   90MYC    C1016738   0.284   3.383   2.386
   90MYC    H1616739   0.380   3.416   2.429
   90MYC    H1716740   0.287   3.273   2.386
   90MYC     C916741   0.170   3.432   2.477
   90MYC    H1416742   0.074   3.391   2.443
   90MYC    H1516743   0.163   3.541   2.470
   90MYC     C816744   0.191   3.393   2.625
   90MYC    H1216745   0.293   3.422   2.655
   90MYC    H1316746   0.185   3.284   2.636
   90MYC     C716747   0.090   3.460   2.721
   90MYC    H1016748   6.439   3.421   2.701
   90MYC    H1116749   0.088   3.567   2.700
   90MYC     C616750   0.126   3.439   2.870
   90MYC     H816751   0.231   3.466   2.885
   90MYC     H916752   0.117   3.332   2.895
   90MYC     C516753   0.038   3.524   2.965
   90MYC     H616754   6.384   3.489   2.962
   90MYC     H716755   0.037   3.626   2.926
   90MYC     C416756   0.090   3.530   3.110
   90MYC     H416757   0.048   3.620   3.157
   90MYC     H516758   0.198   3.547   3.107
   90MYC     C216759   0.058   3.411   3.206
   90MYC     H216760   6.433   3.449   3.277
   90MYC     O316761   0.001   3.300   3.138
   90MYC     H316762   0.063   3.272   3.068
   90MYC     C116763   0.183   3.366   3.289
   90MYC     H116764   0.236   3.458   3.317
   90MYC    C8116765   0.282   3.282   3.204
   90MYC    O8216766   0.265   3.165   3.177
   90MYC    O8316767   0.387   3.351   3.155
   90MYC   H10516768   0.437   3.287   3.102
   90MYC    C2016769   0.147   3.291   3.419
   90MYC    H3416770   0.082   3.206   3.396
   90MYC    H3516771   0.240   3.250   3.460
   90MYC    C2116772   0.079   3.378   3.528
   90MYC    H3616773   0.124   3.478   3.530
   90MYC    H3716774   6.423   3.392   3.504
   90MYC    C2216775   0.093   3.313   3.667
   90MYC    H3816776   0.043   3.215   3.665
   90MYC    H3916777   0.199   3.294   3.685
   90MYC    C2316778   0.037   3.394   3.785
   90MYC    H4016779   0.075   3.497   3.781
   90MYC    H4116780   6.377   3.399   3.777
   90MYC    C2416781   0.078   3.328   3.918
   90MYC    H4216782   0.044   3.223   3.916
   90MYC    H4316783   0.187   3.326   3.923
   90MYC    C2516784   0.023   3.395   4.045
   90MYC    H4416785   0.053   3.501   4.047
   90MYC    H4516786   6.363   3.391   4.044
   90MYC    C2616787   0.077   3.323   4.170
   90MYC    H4616788   0.052   3.216   4.162
   90MYC    H4716789   0.186   3.330   4.170
   90MYC    C2716790   0.023   3.376   4.304
   90MYC    H4816791   0.045   3.483   4.313
   90MYC    H4916792   6.363   3.364   4.306
   90MYC    C2816793   0.086   3.300   4.422
   90MYC    H5016794   0.067   3.192   4.409
   90MYC    H5116795   0.194   3.313   4.418
   90MYC    C2916796   0.035   3.343   4.560
   90MYC    H5216797   0.050   3.451   4.572
   90MYC    H5316798   6.377   3.324   4.568
   90MYC    C3016799   0.109   3.268   4.672
   90MYC    H5416800   0.094   3.160   4.661
   90MYC    H5516801   0.217   3.286   4.662
   90MYC    C3116802   0.065   3.310   4.814
   90MYC    H5616803   0.072   3.419   4.823
   90MYC    H5716804   6.410   3.283   4.829
   90MYC    C3216805   0.152   3.245   4.923
   90MYC    H5816806   0.145   3.135   4.915
   90MYC    H5916807   0.257   3.271   4.906
   90MYC    C3316808   0.112   3.288   5.065
   90MYC    H6016809   0.111   3.397   5.070
   90MYC    H6116810   0.010   3.254   5.086
   90MYC    C3416811   0.207   3.233   5.174
   90MYC    H6216812   0.207   3.124   5.171
   90MYC    H6316813   0.309   3.266   5.152
   90MYC    C3516814   0.167   3.281   5.315
   90MYC    H6416815   0.162   3.390   5.315
   90MYC    H6516816   0.067   3.244   5.339
   90MYC    C3616817   0.266   3.236   5.424
   90MYC    H6616818   0.269   3.126   5.428
   90MYC    H6716819   0.367   3.269   5.397
   90MYC    C3716820   0.230   3.291   5.563
   90MYC    H6816821   0.221   3.401   5.556
   90MYC    H6916822   0.131   3.254   5.593
   90MYC    C3816823   0.333   3.255   5.671
   90MYC    H7016824   0.335   3.147   5.685
   90MYC    H7116825   0.433   3.286   5.637
   90MYC    C3916826   0.303   3.323   5.806
   90MYC    H7216827   0.293   3.431   5.791
   90MYC    H7316828   0.208   3.287   5.845
   90MYC    C4016829   0.414   3.299   5.911
   90MYC    H7416830   0.420   3.191   5.932
   90MYC    H7516831   0.511   3.329   5.868
   90MYC    C4116832   0.391   3.375   6.042
   90MYC    H7616833   0.372   3.481   6.020
   90MYC    H7716834   0.300   3.337   6.090
   90MYC    C4216835   0.509   3.364   6.140
   90MYC    H7816836   0.529   3.259   6.162
   90MYC    H7916837   0.600   3.405   6.093
   90MYC    C4316838   0.484   3.439   6.272
   90MYC    H8016839   0.570   3.431   6.339
   90MYC    H8116840   0.396   3.396   6.322
   90MYC    H8216841   0.464   3.545   6.254
   91MYC   HH1516842   0.008   4.604   6.235
   91MYC    C8016843   6.400   4.570   6.148
   91MYC   H10016844   6.392   4.461   6.154
   91MYC   H10116845   6.299   4.613   6.155
   91MYC    C7916846   0.019   4.613   6.018
   91MYC   H10216847   0.121   4.574   6.016
   91MYC   H10316848   0.026   4.723   6.016
   91MYC    C7816849   6.394   4.566   5.891
   91MYC   HH1416850   6.290   4.601   5.896
   91MYC   H10416851   6.391   4.456   5.890
   91MYC    C7716852   0.008   4.617   5.761
   91MYC   H10616853   0.112   4.583   5.756
   91MYC   H10716854   0.010   4.727   5.763
   91MYC    C7616855   6.383   4.570   5.635
   91MYC   H10816856   6.277   4.597   5.644
   91MYC   H10916857   6.389   4.461   5.628
   91MYC    C7516858   6.440   4.633   5.506
   91MYC   H11016859   0.096   4.606   5.495
   91MYC   H11116860   6.435   4.742   5.514
   91MYC    C7416861   6.364   4.589   5.380
   91MYC   H11216862   6.257   4.609   5.394
   91MYC   H11316863   6.375   4.480   5.366
   91MYC    C7316864   6.412   4.662   5.253
   91MYC   HH1316865   0.068   4.639   5.235
   91MYC   H11416866   6.404   4.770   5.268
   91MYC    C7216867   6.330   4.622   5.128
   91MYC   H11516868   6.224   4.637   5.149
   91MYC   H11616869   6.344   4.515   5.108
   91MYC    C7116870   6.369   4.703   5.003
   91MYC   H11716871   0.026   4.689   4.981
   91MYC   H11816872   6.354   4.810   5.022
   91MYC    C7016873   6.286   4.661   4.880
   91MYC   H11916874   6.179   4.671   4.903
   91MYC   H12016875   6.305   4.555   4.860
   91MYC    C6916876   6.317   4.744   4.754
   91MYC   H12116877   6.426   4.747   4.738
   91MYC   H12216878   6.283   4.847   4.767
   91MYC    C6816879   6.250   4.682   4.630
   91MYC   HH1216880   6.142   4.675   4.646
   91MYC   H12316881   6.287   4.579   4.619
   91MYC    C6716882   6.276   4.759   4.499
   91MYC   H12416883   6.381   4.792   4.495
   91MYC   H12516884   6.213   4.848   4.496
   91MYC    C6616885   6.248   4.669   4.377
   91MYC   H12616886   6.149   4.623   4.388
   91MYC   H12716887   6.321   4.587   4.377
   91MYC    C6516888   6.254   4.741   4.241
   91MYC   H12816889   6.345   4.802   4.235
   91MYC   H12916890   6.168   4.809   4.233
   91MYC    C6416891   6.252   4.639   4.126
   91MYC   H13016892   6.175   4.563   4.145
   91MYC   H13116893   6.349   4.586   4.125
   91MYC    C6316894   6.227   4.701   3.988
   91MYC   HH1116895   6.295   4.786   3.973
   91MYC   H13216896   6.125   4.740   3.984
   91MYC    C6216897   6.249   4.599   3.875
   91MYC   H13316898   6.193   4.507   3.896
   91MYC   H13416899   6.356   4.571   3.875
   91MYC    C6116900   6.209   4.651   3.736
   91MYC   H13516901   6.235   4.758   3.729
   91MYC   H13616902   6.101   4.644   3.724
   91MYC    C6016903   6.280   4.575   3.626
   91MYC   H13716904   6.257   4.468   3.626
   91MYC    C5816905   6.305   4.638   3.491
   91MYC   H13816906   6.272   4.741   3.480
   91MYC    C5916907   6.420   4.614   3.585
   91MYC   H13916908   0.040   4.534   3.561
   91MYC   H14016909   0.015   4.700   3.633
   91MYC    C5716910   6.293   4.558   3.362
   91MYC   HH1016911   6.190   4.564   3.325
   91MYC   H14116912   6.315   4.452   3.380
   91MYC    C5616913   6.390   4.613   3.256
   91MYC   H14216914   0.044   4.598   3.288
   91MYC   H14316915   6.375   4.722   3.249
   91MYC    C5516916   6.370   4.552   3.116
   91MYC   H14416917   6.264   4.552   3.091
   91MYC   H14516918   6.402   4.447   3.116
   91MYC    C5416919   6.448   4.630   3.008
   91MYC   H14616920   0.104   4.601   3.011
   91MYC   H14716921   6.444   4.737   3.032
   91MYC    C5316922   6.392   4.611   2.866
   91MYC   H14816923   6.286   4.637   2.867
   91MYC   H14916924   6.400   4.505   2.838
   91MYC    C5216925   0.015   4.699   2.763
   91MYC    H9916926   0.117   4.662   2.748
   91MYC   H15016927   0.023   4.800   2.804
   91MYC    C5116928   6.392   4.711   2.627
   91MYC    H9716929   6.446   4.784   2.565
   91MYC    H9816930   6.292   4.752   2.644
   91MYC    C5016931   6.380   4.578   2.550
   91MYC    H9516932   6.337   4.501   2.614
   91MYC    H9616933   0.031   4.543   2.522
   91MYC    C4916934   6.292   4.592   2.424
   91MYC    H9316935   6.333   4.670   2.360
   91MYC    H9416936   6.192   4.624   2.454
   91MYC    C4816937   6.282   4.461   2.344
   91MYC    H9116938   6.247   4.380   2.410
   91MYC    H9216939   6.382   4.432   2.309
   91MYC    C4716940   6.186   4.473   2.224
   91MYC    H8916941   6.211   4.563   2.167
   91MYC    H9016942   6.083   4.485   2.261
   91MYC    C4616943   6.193   4.351   2.131
   91MYC    H8716944   6.178   4.259   2.189
   91MYC    H8816945   6.293   4.345   2.087
   91MYC    C4516946   6.087   4.356   2.018
   91MYC    H8516947   6.085   4.455   1.972
   91MYC    H8616948   5.988   4.340   2.064
   91MYC    C4416949   6.107   4.249   1.910
   91MYC    H8316950   6.013   4.235   1.856
   91MYC    H8416951   6.129   4.153   1.958
   91MYC    C1816952   6.218   4.283   1.811
   91MYC    H3116953   6.308   4.320   1.859
   91MYC    C1716954   6.238   4.198   1.689
   91MYC    H3016955   6.166   4.118   1.672
   91MYC    C1916956   6.187   4.339   1.674
   91MYC    H3216957   6.083   4.353   1.646
   91MYC    H3316958   6.256   4.414   1.634
   91MYC    C1616959   6.379   4.160   1.644
   91MYC    H2816960   6.447   4.245   1.656
   91MYC    H2916961   6.376   4.138   1.537
   91MYC    C1516962   6.438   4.038   1.718
   91MYC    H2616963   0.084   4.013   1.671
   91MYC    H2716964   6.372   3.951   1.703
   91MYC    C1416965   0.010   4.059   1.869
   91MYC    H2416966   6.363   4.068   1.919
   91MYC    H2516967   0.064   4.154   1.885
   91MYC    C1316968   0.090   3.945   1.934
   91MYC    H2216969   0.190   3.943   1.889
   91MYC    H2316970   0.041   3.850   1.913
   91MYC    C1216971   0.107   3.962   2.086
   91MYC    H2016972   0.007   3.969   2.132
   91MYC    H2116973   0.158   4.056   2.107
   91MYC    C1116974   0.184   3.845   2.151
   91MYC    H1816975   0.288   3.845   2.115
   91MYC    H1916976   0.139   3.750   2.119
   91MYC    C1016977   0.184   3.848   2.305
   91MYC    H1616978   0.223   3.753   2.343
   91MYC    H1716979   0.080   3.855   2.340
   91MYC     C916980   0.266   3.963   2.368
   91MYC    H1416981   0.235   4.060   2.325
   91MYC    H1516982   0.372   3.949   2.342
   91MYC     C816983   0.249   3.968   2.521
   91MYC    H1216984   0.267   3.868   2.562
   91MYC    H1316985   0.145   3.994   2.544
   91MYC     C716986   0.343   4.068   2.590
   91MYC    H1016987   0.325   4.170   2.551
   91MYC    H1116988   0.447   4.042   2.566
   91MYC     C616989   0.325   4.067   2.743
   91MYC     H816990   0.333   3.963   2.778
   91MYC     H916991   0.223   4.100   2.767
   91MYC     C516992   0.428   4.154   2.818
   91MYC     H616993   0.399   4.260   2.811
   91MYC     H716994   0.525   4.145   2.767
   91MYC     C416995   0.448   4.111   2.965
   91MYC     H416996   0.543   4.154   2.999
   91MYC     H516997   0.465   4.003   2.966
   91MYC     C216998   0.341   4.149   3.071
   91MYC     H216999   0.388   4.224   3.136
   91MYC     O317000   0.225   4.210   3.012
   91MYC     H317001   0.176   4.141   2.965
   91MYC     C117002   0.301   4.030   3.163
   91MYC     H117003   0.395   3.977   3.185
   91MYC    C8117004   0.207   3.930   3.092
   91MYC    O8217005   0.090   3.953   3.064
   91MYC    O8317006   0.264   3.813   3.059
   91MYC   H10517007   0.195   3.762   3.013
   91MYC    C2017008   0.243   4.076   3.299
   91MYC    H3417009   0.300   4.162   3.336
   91MYC    H3517010   0.140   4.110   3.286
   91MYC    C2117011   0.248   3.966   3.408
   91MYC    H3617012   0.193   3.877   3.374
   91MYC    H3717013   0.353   3.936   3.422
   91MYC    C2217014   0.191   4.014   3.542
   91MYC    H3817015   0.239   4.108   3.570
   91MYC    H3917016   0.084   4.034   3.530
   91MYC    C2317017   0.210   3.912   3.657
   91MYC    H4017018   0.168   3.815   3.629
   91MYC    H4117019   0.318   3.897   3.674
   91MYC    C2417020   0.145   3.961   3.788
   91MYC    H4217021   0.186   4.060   3.813
   91MYC    H4317022   0.037   3.975   3.772
   91MYC    C2517023   0.167   3.866   3.907
   91MYC    H4417024   0.124   3.768   3.884
   91MYC    H4517025   0.274   3.853   3.923
   91MYC    C2617026   0.103   3.919   4.037
   91MYC    H4617027   0.138   4.022   4.054
   91MYC    H4717028   6.444   3.924   4.025
   91MYC    C2717029   0.138   3.834   4.160
   91MYC    H4817030   0.101   3.732   4.147
   91MYC    H4917031   0.248   3.828   4.170
   91MYC    C2817032   0.081   3.895   4.290
   91MYC    H5017033   0.107   4.001   4.294
   91MYC    H5117034   6.421   3.889   4.286
   91MYC    C2917035   0.132   3.826   4.418
   91MYC    H5217036   0.104   3.720   4.417
   91MYC    H5317037   0.241   3.831   4.420
   91MYC    C3017038   0.075   3.892   4.544
   91MYC    H5417039   0.088   4.001   4.536
   91MYC    H5517040   6.417   3.873   4.550
   91MYC    C3117041   0.143   3.846   4.674
   91MYC    H5617042   0.136   3.737   4.683
   91MYC    H5717043   0.250   3.871   4.670
   91MYC    C3217044   0.080   3.911   4.798
   91MYC    H5817045   0.071   4.020   4.781
   91MYC    H5917046   6.428   3.872   4.811
   91MYC    C3317047   0.160   3.889   4.928
   91MYC    H6017048   0.181   3.782   4.940
   91MYC    H6117049   0.256   3.941   4.920
   91MYC    C3417050   0.083   3.939   5.051
   91MYC    H6217051   0.048   4.042   5.034
   91MYC    H6317052   6.443   3.877   5.063
   91MYC    C3517053   0.165   3.935   5.181
   91MYC    H6417054   0.222   3.841   5.186
   91MYC    H6517055   0.238   4.017   5.181
   91MYC    C3617056   0.075   3.944   5.306
   91MYC    H6617057   0.008   4.030   5.297
   91MYC    H6717058   0.011   3.854   5.308
   91MYC    C3717059   0.153   3.955   5.438
   91MYC    H6817060   0.244   3.894   5.433
   91MYC    H6917061   0.184   4.059   5.453
   91MYC    C3817062   0.069   3.907   5.558
   91MYC    H7017063   6.419   3.953   5.554
   91MYC    H7117064   0.055   3.798   5.550
   91MYC    C3917065   0.133   3.939   5.695
   91MYC    H7217066   0.239   3.909   5.693
   91MYC    H7317067   0.131   4.047   5.710
   91MYC    C4017068   0.062   3.868   5.812
   91MYC    H7417069   6.404   3.887   5.806
   91MYC    H7517070   0.076   3.759   5.801
   91MYC    C4117071   0.115   3.913   5.950
   91MYC    H7617072   0.223   3.899   5.954
   91MYC    H7717073   0.095   4.020   5.962
   91MYC    C4217074   0.050   3.836   6.067
   91MYC    H7817075   6.390   3.845   6.060
   91MYC    H7917076   0.073   3.729   6.057
   91MYC    C4317077   0.096   3.886   6.205
   91MYC    H8017078   0.047   3.829   6.284
   91MYC    H8117079   0.071   3.992   6.218
   91MYC    H8217080   0.204   3.874   6.216
   92MYC   HH1517081   0.312   5.749   6.200
   92MYC    C8017082   0.262   5.666   6.149
   92MYC   H10017083   0.277   5.576   6.209
   92MYC   H10117084   0.154   5.688   6.145
   92MYC    C7917085   0.319   5.648   6.007
   92MYC   H10217086   0.427   5.634   6.015
   92MYC   H10317087   0.302   5.739   5.949
   92MYC    C7817088   0.258   5.527   5.933
   92MYC   HH1417089   0.149   5.537   5.929
   92MYC   H10417090   0.280   5.436   5.990
   92MYC    C7717091   0.313   5.511   5.789
   92MYC   H10617092   0.422   5.517   5.792
   92MYC   H10717093   0.278   5.596   5.728
   92MYC    C7617094   0.272   5.378   5.723
   92MYC   H10817095   0.163   5.367   5.723
   92MYC   H10917096   0.312   5.296   5.784
   92MYC    C7517097   0.326   5.363   5.579
   92MYC   H11017098   0.332   5.256   5.555
   92MYC   H11117099   0.428   5.401   5.575
   92MYC    C7417100   0.239   5.433   5.471
   92MYC   H11217101   0.218   5.536   5.501
   92MYC   H11317102   0.143   5.381   5.464
   92MYC    C7317103   0.309   5.433   5.334
   92MYC   HH1317104   0.347   5.332   5.313
   92MYC   H11417105   0.396   5.500   5.338
   92MYC    C7217106   0.217   5.476   5.217
   92MYC   H11517107   0.174   5.575   5.238
   92MYC   H11617108   0.134   5.405   5.209
   92MYC    C7117109   0.295   5.480   5.084
   92MYC   H11717110   0.349   5.385   5.071
   92MYC   H11817111   0.371   5.559   5.089
   92MYC    C7017112   0.206   5.503   4.960
   92MYC   H11917113   0.157   5.601   4.967
   92MYC   H12017114   0.128   5.427   4.957
   92MYC    C6917115   0.289   5.496   4.830
   92MYC   H12117116   0.340   5.399   4.826
   92MYC   H12217117   0.367   5.573   4.833
   92MYC    C6817118   0.205   5.513   4.702
   92MYC   HH1217119   0.159   5.613   4.702
   92MYC   H12317120   0.123   5.440   4.702
   92MYC    C6717121   0.290   5.495   4.575
   92MYC   H12417122   0.335   5.394   4.577
   92MYC   H12517123   0.374   5.566   4.577
   92MYC    C6617124   0.211   5.513   4.445
   92MYC   H12617125   0.171   5.615   4.441
   92MYC   H12717126   0.125   5.445   4.444
   92MYC    C6517127   0.298   5.488   4.321
   92MYC   H12817128   0.332   5.384   4.322
   92MYC   H12917129   0.388   5.551   4.327
   92MYC    C6417130   0.225   5.516   4.189
   92MYC   H13017131   0.192   5.621   4.187
   92MYC   H13117132   0.135   5.454   4.181
   92MYC    C6317133   0.316   5.490   4.067
   92MYC   HH1117134   0.341   5.384   4.063
   92MYC   H13217135   0.410   5.545   4.081
   92MYC    C6217136   0.253   5.533   3.934
   92MYC   H13317137   0.226   5.639   3.938
   92MYC   H13417138   0.160   5.476   3.918
   92MYC    C6117139   0.349   5.509   3.816
   92MYC   H13517140   0.376   5.403   3.813
   92MYC   H13617141   0.442   5.565   3.833
   92MYC    C6017142   0.290   5.551   3.683
   92MYC   H13717143   0.271   5.658   3.677
   92MYC    C5817144   0.333   5.482   3.557
   92MYC   H13817145   0.401   5.398   3.567
   92MYC    C5917146   0.193   5.462   3.609
   92MYC   H13917147   0.111   5.509   3.555
   92MYC   H14017148   0.169   5.365   3.653
   92MYC    C5717149   0.358   5.560   3.429
   92MYC   HH1017150   0.463   5.590   3.423
   92MYC   H14117151   0.299   5.653   3.429
   92MYC    C5617152   0.321   5.477   3.305
   92MYC   H14217153   0.216   5.446   3.313
   92MYC   H14317154   0.381   5.385   3.304
   92MYC    C5517155   0.341   5.552   3.173
   92MYC   H14417156   0.448   5.575   3.160
   92MYC   H14517157   0.288   5.648   3.177
   92MYC    C5417158   0.291   5.471   3.054
   92MYC   H14617159   0.183   5.453   3.065
   92MYC   H14717160   0.339   5.372   3.053
   92MYC    C5317161   0.316   5.541   2.920
   92MYC   H14817162   0.424   5.557   2.908
   92MYC   H14917163   0.269   5.641   2.922
   92MYC    C5217164   0.262   5.462   2.800
   92MYC    H9917165   0.154   5.450   2.810
   92MYC   H15017166   0.306   5.361   2.800
   92MYC    C5117167   0.295   5.531   2.667
   92MYC    H9717168   0.404   5.541   2.658
   92MYC    H9817169   0.253   5.633   2.669
   92MYC    C5017170   0.241   5.457   2.544
   92MYC    H9517171   0.131   5.454   2.548
   92MYC    H9617172   0.277   5.353   2.545
   92MYC    C4917173   0.286   5.526   2.415
   92MYC    H9317174   0.396   5.528   2.412
   92MYC    H9417175   0.253   5.631   2.418
   92MYC    C4817176   0.234   5.461   2.287
   92MYC    H9117177   0.124   5.463   2.287
   92MYC    H9217178   0.264   5.355   2.283
   92MYC    C4717179   0.286   5.535   2.163
   92MYC    H8917180   0.396   5.524   2.158
   92MYC    H9017181   0.265   5.642   2.174
   92MYC    C4617182   0.226   5.486   2.030
   92MYC    H8717183   0.117   5.501   2.034
   92MYC    H8817184   0.245   5.379   2.019
   92MYC    C4517185   0.284   5.564   1.911
   92MYC    H8517186   0.390   5.539   1.900
   92MYC    H8617187   0.279   5.670   1.935
   92MYC    C4417188   0.212   5.542   1.777
   92MYC    H8317189   0.264   5.599   1.699
   92MYC    H8417190   0.111   5.584   1.784
   92MYC    C1817191   0.205   5.396   1.735
   92MYC    H3117192   0.303   5.352   1.724
   92MYC    C1717193   0.095   5.307   1.787
   92MYC    H3017194   0.021   5.356   1.850
   92MYC    C1917195   0.097   5.347   1.642
   92MYC    H3217196   0.023   5.419   1.610
   92MYC    H3317197   0.123   5.271   1.569
   92MYC    C1617198   0.122   5.162   1.826
   92MYC    H2817199   0.190   5.160   1.912
   92MYC    H2917200   0.174   5.111   1.745
   92MYC    C1517201   6.444   5.082   1.860
   92MYC    H2617202   0.022   4.977   1.875
   92MYC    H2717203   6.374   5.086   1.777
   92MYC    C1417204   6.375   5.134   1.988
   92MYC    H2417205   6.330   5.232   1.969
   92MYC    H2517206   0.001   5.147   2.066
   92MYC    C1317207   6.264   5.040   2.041
   92MYC    H2217208   6.306   4.940   2.055
   92MYC    H2317209   6.183   5.033   1.967
   92MYC    C1217210   6.209   5.091   2.175
   92MYC    H2017211   6.156   5.186   2.159
   92MYC    H2117212   6.295   5.114   2.239
   92MYC    C1117213   6.116   4.993   2.247
   92MYC    H1817214   6.166   4.896   2.260
   92MYC    H1917215   6.027   4.975   2.184
   92MYC    C1017216   6.069   5.044   2.385
   92MYC    H1617217   5.997   4.973   2.427
   92MYC    H1717218   6.016   5.139   2.372
   92MYC     C917219   6.184   5.064   2.487
   92MYC    H1417220   6.255   5.140   2.451
   92MYC    H1517221   6.240   4.970   2.498
   92MYC     C817222   6.133   5.110   2.624
   92MYC    H1217223   6.063   5.035   2.662
   92MYC    H1317224   6.078   5.204   2.612
   92MYC     C717225   6.245   5.133   2.728
   92MYC    H1017226   6.305   5.221   2.700
   92MYC    H1117227   6.312   5.046   2.730
   92MYC     C617228   6.185   5.153   2.868
   92MYC     H817229   6.126   5.063   2.889
   92MYC     H917230   6.114   5.237   2.866
   92MYC     C517231   6.286   5.177   2.982
   92MYC     H617232   6.273   5.278   3.022
   92MYC     H717233   6.388   5.173   2.942
   92MYC     C417234   6.274   5.074   3.096
   92MYC     H417235   6.362   5.086   3.160
   92MYC     H517236   6.282   4.973   3.053
   92MYC     C217237   6.150   5.083   3.190
   92MYC     H217238   6.169   5.168   3.257
   92MYC     O317239   6.030   5.110   3.118
   92MYC     H317240   6.015   5.206   3.121
   92MYC     C117241   6.130   4.954   3.276
   92MYC     H117242   6.231   4.914   3.292
   92MYC    C8117243   6.050   4.845   3.199
   92MYC    O8217244   5.928   4.836   3.200
   92MYC    O8317245   6.124   4.772   3.114
   92MYC   H10517246   6.061   4.716   3.065
   92MYC    C2017247   6.065   4.981   3.414
   92MYC    H3417248   5.967   5.029   3.400
   92MYC    H3517249   6.046   4.884   3.462
   92MYC    C2117250   6.151   5.068   3.509
   92MYC    H3617251   6.254   5.030   3.509
   92MYC    H3717252   6.154   5.171   3.473
   92MYC    C2217253   6.096   5.066   3.652
   92MYC    H3817254   5.992   5.100   3.652
   92MYC    H3917255   6.096   4.962   3.688
   92MYC    C2317256   6.178   5.154   3.750
   92MYC    H4017257   6.285   5.139   3.731
   92MYC    H4117258   6.155   5.260   3.732
   92MYC    C2417259   6.147   5.117   3.896
   92MYC    H4217260   6.039   5.125   3.914
   92MYC    H4317261   6.174   5.012   3.911
   92MYC    C2517262   6.222   5.203   3.999
   92MYC    H4417263   6.327   5.213   3.971
   92MYC    H4517264   6.178   5.304   4.002
   92MYC    C2617265   6.213   5.138   4.138
   92MYC    H4617266   6.108   5.117   4.161
   92MYC    H4717267   6.265   5.042   4.135
   92MYC    C2717268   6.271   5.223   4.252
   92MYC    H4817269   6.375   5.252   4.229
   92MYC    H4917270   6.213   5.316   4.262
   92MYC    C2817271   6.267   5.146   4.385
   92MYC    H5017272   6.165   5.108   4.400
   92MYC    H5117273   6.332   5.058   4.377
   92MYC    C2917274   6.308   5.228   4.508
   92MYC    H5217275   6.410   5.265   4.495
   92MYC    H5317276   6.242   5.315   4.516
   92MYC    C3017277   6.298   5.143   4.635
   92MYC    H5417278   6.199   5.097   4.640
   92MYC    H5517279   6.370   5.060   4.629
   92MYC    C3117280   6.323   5.223   4.765
   92MYC    H5617281   6.426   5.259   4.767
   92MYC    H5717282   6.257   5.310   4.767
   92MYC    C3217283   6.296   5.136   4.889
   92MYC    H5817284   6.192   5.101   4.887
   92MYC    H5917285   6.359   5.046   4.884
   92MYC    C3317286   6.322   5.209   5.022
   92MYC    H6017287   6.426   5.243   5.025
   92MYC    H6117288   6.258   5.298   5.028
   92MYC    C3417289   6.295   5.118   5.143
   92MYC    H6217290   6.190   5.085   5.140
   92MYC    H6317291   6.357   5.028   5.135
   92MYC    C3517292   6.322   5.187   5.277
   92MYC    H6417293   6.427   5.220   5.280
   92MYC    H6517294   6.260   5.276   5.285
   92MYC    C3617295   6.295   5.095   5.398
   92MYC    H6617296   6.191   5.061   5.394
   92MYC    H6717297   6.358   5.006   5.392
   92MYC    C3717298   6.320   5.167   5.532
   92MYC    H6817299   6.426   5.196   5.538
   92MYC    H6917300   6.261   5.259   5.533
   92MYC    C3817301   6.284   5.082   5.655
   92MYC    H7017302   6.181   5.046   5.645
   92MYC    H7117303   6.349   4.993   5.659
   92MYC    C3917304   6.297   5.163   5.785
   92MYC    H7217305   6.402   5.193   5.798
   92MYC    H7317306   6.238   5.255   5.775
   92MYC    C4017307   6.250   5.088   5.911
   92MYC    H7417308   6.149   5.049   5.894
   92MYC    H7517309   6.316   5.001   5.929
   92MYC    C4117310   6.249   5.179   6.036
   92MYC    H7617311   6.350   5.217   6.053
   92MYC    H7717312   6.185   5.266   6.015
   92MYC    C4217313   6.198   5.109   6.163
   92MYC    H7817314   6.098   5.067   6.144
   92MYC    H7917315   6.263   5.025   6.188
   92MYC    C4317316   6.190   5.204   6.284
   92MYC    H8017317   6.152   5.152   6.372
   92MYC    H8117318   6.124   5.289   6.262
   92MYC    H8217319   6.290   5.244   6.308
   93MYC   HH1517320   6.186   5.653   6.225
   93MYC    C8017321   6.238   5.702   6.141
   93MYC   H10017322   6.194   5.802   6.128
   93MYC   H10117323   6.344   5.714   6.168
   93MYC    C7917324   6.223   5.618   6.013
   93MYC   H10217325   6.117   5.598   5.997
   93MYC   H10317326   6.273   5.522   6.027
   93MYC    C7817327   6.280   5.689   5.888
   93MYC   HH1417328   6.384   5.718   5.905
   93MYC   H10417329   6.223   5.781   5.872
   93MYC    C7717330   6.273   5.601   5.760
   93MYC   H10617331   6.186   5.535   5.766
   93MYC   H10717332   6.362   5.536   5.757
   93MYC    C7617333   6.264   5.684   5.631
   93MYC   H10817334   6.346   5.757   5.627
   93MYC   H10917335   6.170   5.742   5.634
   93MYC    C7517336   6.266   5.599   5.502
   93MYC   H11017337   6.200   5.512   5.514
   93MYC   H11117338   6.367   5.561   5.486
   93MYC    C7417339   6.220   5.679   5.378
   93MYC   H11217340   6.279   5.772   5.371
   93MYC   H11317341   6.115   5.709   5.392
   93MYC    C7317342   6.234   5.601   5.246
   93MYC   HH1317343   6.178   5.507   5.254
   93MYC   H11417344   6.339   5.574   5.232
   93MYC    C7217345   6.184   5.681   5.124
   93MYC   H11517346   6.239   5.776   5.119
   93MYC   H11617347   6.078   5.705   5.137
   93MYC    C7117348   6.203   5.604   4.992
   93MYC   H11717349   6.141   5.514   4.993
   93MYC   H11817350   6.308   5.570   4.985
   93MYC    C7017351   6.170   5.687   4.867
   93MYC   H11917352   6.235   5.776   4.865
   93MYC   H12017353   6.066   5.723   4.873
   93MYC    C6917354   6.189   5.607   4.737
   93MYC   H12117355   6.114   5.527   4.733
   93MYC   H12217356   6.287   5.559   4.738
   93MYC    C6817357   6.179   5.693   4.609
   93MYC   HH1217358   6.255   5.772   4.613
   93MYC   H12317359   6.081   5.743   4.606
   93MYC    C6717360   6.198   5.609   4.481
   93MYC   H12417361   6.116   5.537   4.474
   93MYC   H12517362   6.291   5.553   4.489
   93MYC    C6617363   6.203   5.694   4.353
   93MYC   H12617364   6.286   5.765   4.360
   93MYC   H12717365   6.111   5.754   4.345
   93MYC    C6517366   6.219   5.608   4.226
   93MYC   H12817367   6.133   5.542   4.216
   93MYC   H12917368   6.308   5.545   4.237
   93MYC    C6417369   6.234   5.693   4.099
   93MYC   H13017370   6.321   5.759   4.110
   93MYC   H13117371   6.146   5.758   4.088
   93MYC    C6317372   6.251   5.609   3.971
   93MYC   HH1117373   6.162   5.547   3.955
   93MYC   H13217374   6.336   5.540   3.984
   93MYC    C6217375   6.276   5.697   3.847
   93MYC   H13317376   6.364   5.760   3.866
   93MYC   H13417377   6.191   5.765   3.834
   93MYC    C6117378   6.298   5.618   3.717
   93MYC   H13517379   6.205   5.566   3.690
   93MYC   H13617380   6.374   5.541   3.734
   93MYC    C6017381   6.344   5.710   3.604
   93MYC   H13717382   6.439   5.757   3.626
   93MYC    C5817383   6.316   5.679   3.459
   93MYC   H13817384   6.256   5.591   3.437
   93MYC    C5917385   6.245   5.794   3.527
   93MYC   H13917386   6.274   5.895   3.501
   93MYC   H14017387   6.139   5.782   3.549
   93MYC    C5717388   6.424   5.705   3.355
   93MYC   HH1017389   0.036   5.615   3.343
   93MYC   H14117390   0.042   5.783   3.392
   93MYC    C5617391   6.371   5.750   3.218
   93MYC   H14217392   0.005   5.797   3.165
   93MYC   H14317393   6.295   5.828   3.231
   93MYC    C5517394   6.315   5.637   3.128
   93MYC   H14417395   6.223   5.596   3.172
   93MYC   H14517396   6.389   5.556   3.123
   93MYC    C5417397   6.288   5.690   2.986
   93MYC   H14617398   6.376   5.745   2.952
   93MYC   H14717399   6.205   5.761   2.989
   93MYC    C5317400   6.257   5.581   2.881
   93MYC   H14817401   6.160   5.534   2.902
   93MYC   H14917402   6.334   5.502   2.887
   93MYC    C5217403   6.258   5.641   2.739
   93MYC    H9917404   6.355   5.690   2.722
   93MYC   H15017405   6.181   5.719   2.732
   93MYC    C5117406   6.235   5.539   2.626
   93MYC    H9717407   6.132   5.501   2.631
   93MYC    H9817408   6.302   5.453   2.640
   93MYC    C5017409   6.262   5.601   2.487
   93MYC    H9517410   6.368   5.628   2.480
   93MYC    H9617411   6.204   5.694   2.478
   93MYC    C4917412   6.225   5.508   2.370
   93MYC    H9317413   6.117   5.490   2.373
   93MYC    H9417414   6.274   5.411   2.382
   93MYC    C4817415   6.264   5.569   2.233
   93MYC    H9117416   6.372   5.559   2.218
   93MYC    H9217417   6.243   5.676   2.233
   93MYC    C4717418   6.189   5.502   2.116
   93MYC    H8917419   6.082   5.507   2.136
   93MYC    H9017420   6.217   5.397   2.112
   93MYC    C4617421   6.217   5.566   1.978
   93MYC    H8717422   6.323   5.553   1.953
   93MYC    H8817423   6.199   5.674   1.984
   93MYC    C4517424   6.129   5.505   1.867
   93MYC    H8517425   6.024   5.531   1.887
   93MYC    H8617426   6.136   5.395   1.872
   93MYC    C4417427   6.165   5.549   1.725
   93MYC    H8317428   6.104   5.491   1.655
   93MYC    H8417429   6.269   5.523   1.704
   93MYC    C1817430   6.142   5.698   1.697
   93MYC    H3117431   6.041   5.730   1.723
   93MYC    C1717432   6.252   5.800   1.714
   93MYC    H3017433   6.348   5.762   1.747
   93MYC    C1917434   6.205   5.761   1.576
   93MYC    H3217435   6.267   5.698   1.514
   93MYC    H3317436   6.149   5.837   1.522
   93MYC    C1617437   6.220   5.939   1.766
   93MYC    H2817438   6.187   5.932   1.870
   93MYC    H2917439   6.134   5.980   1.711
   93MYC    C1517440   6.336   6.041   1.751
   93MYC    H2617441   6.293   6.142   1.744
   93MYC    H2717442   6.387   6.024   1.656
   93MYC    C1417443   6.438   6.040   1.868
   93MYC    H2417444   0.075   6.101   1.840
   93MYC    H2517445   0.025   5.938   1.885
   93MYC    C1317446   6.377   6.096   1.997
   93MYC    H2217447   6.293   6.032   2.028
   93MYC    H2317448   6.334   6.195   1.976
   93MYC    C1217449   0.022   6.110   2.118
   93MYC    H2017450   0.097   6.187   2.098
   93MYC    H2117451   0.075   6.015   2.134
   93MYC    C1117452   6.390   6.146   2.243
   93MYC    H1817453   6.314   6.068   2.258
   93MYC    H1917454   6.335   6.239   2.226
   93MYC    C1017455   0.021   6.161   2.373
   93MYC    H1617456   0.072   6.258   2.374
   93MYC    H1717457   0.098   6.083   2.379
   93MYC     C917458   6.377   6.148   2.495
   93MYC    H1417459   6.334   6.047   2.494
   93MYC    H1517460   6.293   6.218   2.484
   93MYC     C817461   6.444   6.172   2.632
   93MYC    H1217462   0.009   6.280   2.646
   93MYC    H1317463   0.092   6.124   2.635
   93MYC     C717464   6.356   6.115   2.745
   93MYC    H1017465   6.359   6.006   2.739
   93MYC    H1117466   6.251   6.145   2.728
   93MYC     C617467   6.396   6.160   2.886
   93MYC     H817468   6.379   6.268   2.894
   93MYC     H917469   0.054   6.142   2.901
   93MYC     C517470   6.315   6.087   2.993
   93MYC     H617471   6.346   5.982   2.997
   93MYC     H717472   6.210   6.086   2.961
   93MYC     C417473   6.318   6.146   3.136
   93MYC     H417474   6.249   6.087   3.196
   93MYC     H517475   6.275   6.247   3.133
   93MYC     C217476   0.003   6.149   3.213
   93MYC     H217477   6.425   6.126   3.317
   93MYC     O317478   0.091   6.045   3.169
   93MYC     H317479   0.128   6.072   3.083
   93MYC     C117480   0.077   6.287   3.216
   93MYC     H117481   6.449   6.364   3.223
   93MYC    C8117482   0.157   6.318   3.088
   93MYC    O8217483   0.257   6.257   3.053
   93MYC    O8317484   0.109   6.421   3.016
   93MYC   H10517485   0.170   6.429   2.940
   93MYC    C2017486   0.165   6.301   3.343
   93MYC    H3417487   0.220   6.208   3.361
   93MYC    H3517488   0.241   6.379   3.327
   93MYC    C2117489   0.082   6.339   3.467
   93MYC    H3617490   0.036   6.437   3.452
   93MYC    H3717491   6.449   6.268   3.480
   93MYC    C2217492   0.163   6.342   3.598
   93MYC    H3817493   0.210   6.244   3.613
   93MYC    H3917494   0.244   6.416   3.589
   93MYC    C2317495   0.075   6.375   3.719
   93MYC    H4017496   0.030   0.025   3.707
   93MYC    H4117497   6.442   6.303   3.724
   93MYC    C2417498   0.153   6.371   3.852
   93MYC    H4217499   0.206   6.275   3.859
   93MYC    H4317500   0.229   6.450   3.851
   93MYC    C2517501   0.063   6.387   3.975
   93MYC    H4417502   0.008   0.032   3.969
   93MYC    H4517503   6.438   6.307   3.977
   93MYC    C2617504   0.144   6.384   4.106
   93MYC    H4617505   0.216   6.301   4.102
   93MYC    H4717506   0.202   0.027   4.114
   93MYC    C2717507   0.057   6.366   4.232
   93MYC    H4817508   6.432   6.446   4.236
   93MYC    H4917509   0.003   6.271   4.224
   93MYC    C2817510   0.142   6.368   4.361
   93MYC    H5017511   0.230   6.305   4.347
   93MYC    H5117512   0.177   0.020   4.378
   93MYC    C2917513   0.064   6.318   4.484
   93MYC    H5217514   6.419   6.373   4.492
   93MYC    H5317515   0.039   6.212   4.469
   93MYC    C3017516   0.144   6.335   4.614
   93MYC    H5417517   0.246   6.296   4.601
   93MYC    H5517518   0.153   6.442   4.636
   93MYC    C3117519   0.078   6.263   4.733
   93MYC    H5617520   6.421   6.288   4.736
   93MYC    H5717521   0.086   6.155   4.719
   93MYC    C3217522   0.142   6.302   4.868
   93MYC    H5817523   0.250   6.284   4.864
   93MYC    H5917524   0.128   6.409   4.884
   93MYC    C3317525   0.082   6.224   4.987
   93MYC    H6017526   6.422   6.227   4.979
   93MYC    H6117527   0.112   6.119   4.980
   93MYC    C3417528   0.124   6.282   5.123
   93MYC    H6217529   0.233   6.276   5.133
   93MYC    H6317530   0.098   6.389   5.125
   93MYC    C3517531   0.057   6.211   5.241
   93MYC    H6417532   6.398   6.210   5.225
   93MYC    H6517533   0.090   6.107   5.245
   93MYC    C3617534   0.087   6.280   5.376
   93MYC    H6617535   0.195   6.278   5.393
   93MYC    H6717536   0.056   6.385   5.370
   93MYC    C3717537   0.014   6.213   5.494
   93MYC    H6817538   6.356   6.216   5.477
   93MYC    H6917539   0.044   6.108   5.500
   93MYC    C3817540   0.046   6.283   5.628
   93MYC    H7017541   0.155   6.285   5.642
   93MYC    H7117542   0.012   6.387   5.624
   93MYC    C3917543   6.431   6.213   5.749
   93MYC    H7217544   6.322   6.218   5.740
   93MYC    H7317545   0.009   6.106   5.748
   93MYC    C4017546   0.026   6.275   5.883
   93MYC    H7417547   0.135   6.273   5.889
   93MYC    H7517548   6.445   6.380   5.886
   93MYC    C4117549   6.417   6.202   6.005
   93MYC    H7617550   6.307   6.208   6.002
   93MYC    H7717551   6.443   6.095   6.000
   93MYC    C4217552   0.018   6.259   6.139
   93MYC    H7817553   0.127   6.248   6.144
   93MYC    H7917554   6.446   6.366   6.144
   93MYC    C4317555   6.405   6.190   6.261
   93MYC    H8017556   6.428   6.083   6.261
   93MYC    H8117557   6.296   6.202   6.259
   93MYC    H8217558   6.443   6.234   6.354
   94MYC   HH1517559   0.797   6.422   6.299
   94MYC    C8017560   0.820   0.023   6.205
   94MYC   H10017561   0.764   0.117   6.202
   94MYC   H10117562   0.927   0.046   6.203
   94MYC    C7917563   0.782   6.383   6.085
   94MYC   H10217564   0.675   6.361   6.090
   94MYC   H10317565   0.835   6.288   6.094
   94MYC    C7817566   0.816   6.448   5.949
   94MYC   HH1417567   0.923   0.020   5.946
   94MYC   H10417568   0.764   0.094   5.941
   94MYC    C7717569   0.779   6.360   5.828
   94MYC   H10617570   0.670   6.347   5.824
   94MYC   H10717571   0.823   6.260   5.840
   94MYC    C7617572   0.828   6.421   5.696
   94MYC   H10817573   0.938   6.430   5.700
   94MYC   H10917574   0.789   0.073   5.686
   94MYC    C7517575   0.790   6.339   5.571
   94MYC   H11017576   0.681   6.335   5.561
   94MYC   H11117577   0.826   6.236   5.581
   94MYC    C7417578   0.851   6.401   5.443
   94MYC   H11217579   0.960   6.402   5.453
   94MYC   H11317580   0.819   0.056   5.435
   94MYC    C7317581   0.814   6.328   5.313
   94MYC   HH1317582   0.705   6.329   5.301
   94MYC   H11417583   0.844   6.223   5.321
   94MYC    C7217584   0.881   6.392   5.191
   94MYC   H11517585   0.990   6.389   5.204
   94MYC   H11617586   0.853   0.048   5.185
   94MYC    C7117587   0.845   6.323   5.058
   94MYC   H11717588   0.737   6.329   5.042
   94MYC   H11817589   0.871   6.217   5.064
   94MYC    C7017590   0.919   6.387   4.939
   94MYC   H11917591   1.027   6.377   4.954
   94MYC   H12017592   0.896   0.044   4.934
   94MYC    C6917593   0.881   6.321   4.805
   94MYC   H12117594   0.773   6.335   4.788
   94MYC   H12217595   0.899   6.213   4.811
   94MYC    C6817596   0.959   6.379   4.686
   94MYC   HH1217597   1.066   6.358   4.698
   94MYC   H12317598   0.948   0.039   4.683
   94MYC    C6717599   0.910   6.320   4.553
   94MYC   H12417600   0.804   6.345   4.539
   94MYC   H12517601   0.916   6.211   4.557
   94MYC    C6617602   0.989   6.369   4.430
   94MYC   H12617603   1.092   6.333   4.436
   94MYC   H12717604   0.992   0.029   4.429
   94MYC    C6517605   0.924   6.319   4.300
   94MYC   H12817606   0.825   6.364   4.290
   94MYC   H12917607   0.909   6.210   4.307
   94MYC    C6417608   1.006   6.349   4.174
   94MYC   H13017609   1.100   6.292   4.176
   94MYC   H13117610   1.032   0.006   4.171
   94MYC    C6317611   0.927   6.311   4.048
   94MYC   HH1117612   0.839   6.377   4.041
   94MYC   H13217613   0.890   6.208   4.058
   94MYC    C6217614   1.009   6.322   3.919
   94MYC   H13317615   1.090   6.249   3.920
   94MYC   H13417616   1.054   6.422   3.912
   94MYC    C6117617   0.920   6.298   3.796
   94MYC   H13517618   0.837   6.370   3.798
   94MYC   H13617619   0.874   6.199   3.803
   94MYC    C6017620   0.995   6.312   3.665
   94MYC   H13717621   1.066   6.231   3.649
   94MYC    C5817622   0.924   6.367   3.545
   94MYC   H13817623   0.823   6.403   3.561
   94MYC    C5917624   1.034   6.447   3.610
   94MYC   H13917625   1.129   0.005   3.558
   94MYC   H14017626   1.005   0.086   3.666
   94MYC    C5717627   0.942   6.304   3.408
   94MYC   HH1017628   0.869   6.224   3.395
   94MYC   H14117629   1.041   6.259   3.399
   94MYC    C5617630   0.923   6.409   3.298
   94MYC   H14217631   1.003   0.034   3.305
   94MYC   H14317632   0.828   0.011   3.313
   94MYC    C5517633   0.925   6.346   3.157
   94MYC   H14417634   0.845   6.272   3.150
   94MYC   H14517635   1.020   6.294   3.142
   94MYC    C5417636   0.906   0.003   3.048
   94MYC   H14617637   0.989   0.074   3.052
   94MYC   H14717638   0.813   0.059   3.067
   94MYC    C5317639   0.898   6.391   2.908
   94MYC   H14817640   0.814   6.320   2.904
   94MYC   H14917641   0.990   6.333   2.889
   94MYC    C5217642   0.882   0.047   2.797
   94MYC    H9917643   0.967   0.116   2.800
   94MYC   H15017644   0.791   0.105   2.816
   94MYC    C5117645   0.873   6.432   2.658
   94MYC    H9717646   0.785   6.367   2.654
   94MYC    H9817647   0.961   6.368   2.643
   94MYC    C5017648   0.867   0.085   2.543
   94MYC    H9517649   0.955   0.150   2.547
   94MYC    H9617650   0.778   0.148   2.555
   94MYC    C4917651   0.861   0.014   2.406
   94MYC    H9317652   0.770   6.404   2.401
   94MYC    H9417653   0.945   6.394   2.400
   94MYC    C4817654   0.867   0.109   2.285
   94MYC    H9117655   0.959   0.169   2.291
   94MYC    H9217656   0.782   0.179   2.289
   94MYC    C4717657   0.866   0.030   2.153
   94MYC    H8917658   0.776   6.418   2.150
   94MYC    H9017659   0.951   6.412   2.152
   94MYC    C4617660   0.871   0.118   2.027
   94MYC    H8717661   0.955   0.188   2.035
   94MYC    H8817662   0.779   0.178   2.021
   94MYC    C4517663   0.888   0.035   1.898
   94MYC    H8517664   0.809   6.410   1.891
   94MYC    H8617665   0.983   6.430   1.907
   94MYC    C4417666   0.893   0.118   1.768
   94MYC    H8317667   0.935   0.054   1.688
   94MYC    H8417668   0.962   0.202   1.780
   94MYC    C1817669   0.755   0.167   1.722
   94MYC    H3117670   0.686   0.085   1.707
   94MYC    C1717671   0.696   0.295   1.776
   94MYC    H3017672   0.761   0.351   1.841
   94MYC    C1917673   0.739   0.285   1.631
   94MYC    H3217674   0.828   0.340   1.601
   94MYC    H3317675   0.662   0.279   1.555
   94MYC    C1617676   0.549   0.296   1.818
   94MYC    H2817677   0.535   0.219   1.895
   94MYC    H2917678   0.486   0.266   1.734
   94MYC    C1517679   0.499   0.431   1.874
   94MYC    H2617680   0.395   0.417   1.907
   94MYC    H2717681   0.497   0.506   1.794
   94MYC    C1417682   0.583   0.484   1.992
   94MYC    H2417683   0.675   0.529   1.952
   94MYC    H2517684   0.614   0.400   2.056
   94MYC    C1317685   0.513   0.588   2.080
   94MYC    H2217686   0.424   0.543   2.124
   94MYC    H2317687   0.480   0.672   2.017
   94MYC    C1217688   0.605   0.641   2.192
   94MYC    H2017689   0.689   0.696   2.148
   94MYC    H2117690   0.648   0.556   2.247
   94MYC    C1117691   0.529   0.732   2.290
   94MYC    H1817692   0.449   0.674   2.336
   94MYC    H1917693   0.481   0.812   2.233
   94MYC    C1017694   0.614   0.797   2.401
   94MYC    H1617695   0.549   0.864   2.458
   94MYC    H1717696   0.692   0.859   2.355
   94MYC     C917697   0.679   0.697   2.500
   94MYC    H1417698   0.757   0.641   2.448
   94MYC    H1517699   0.604   0.625   2.534
   94MYC     C817700   0.741   0.767   2.623
   94MYC    H1217701   0.663   0.821   2.677
   94MYC    H1317702   0.815   0.841   2.589
   94MYC     C717703   0.809   0.668   2.720
   94MYC    H1017704   0.885   0.612   2.665
   94MYC    H1117705   0.735   0.595   2.755
   94MYC     C617706   0.876   0.736   2.842
   94MYC     H817707   0.800   0.790   2.901
   94MYC     H917708   0.946   0.812   2.806
   94MYC     C517709   0.952   0.636   2.931
   94MYC     H617710   1.041   0.685   2.973
   94MYC     H717711   0.991   0.557   2.867
   94MYC     C417712   0.867   0.570   3.044
   94MYC     H417713   0.906   0.469   3.060
   94MYC     H517714   0.765   0.555   3.007
   94MYC     C217715   0.865   0.641   3.184
   94MYC     H217716   0.920   0.575   3.252
   94MYC     O317717   0.932   0.767   3.182
   94MYC     H317718   0.870   0.833   3.144
   94MYC     C117719   0.721   0.657   3.242
   94MYC     H117720   0.672   0.559   3.236
   94MYC    C8117721   0.636   0.755   3.157
   94MYC    O8217722   0.663   0.872   3.139
   94MYC    O8317723   0.521   0.702   3.109
   94MYC   H10517724   0.477   0.774   3.061
   94MYC    C2017725   0.717   0.700   3.391
   94MYC    H3417726   0.778   0.790   3.405
   94MYC    H3517727   0.614   0.729   3.416
   94MYC    C2117728   0.762   0.590   3.490
   94MYC    H3617729   0.703   0.499   3.473
   94MYC    H3717730   0.867   0.565   3.472
   94MYC    C2217731   0.746   0.634   3.637
   94MYC    H3817732   0.805   0.725   3.654
   94MYC    H3917733   0.641   0.660   3.655
   94MYC    C2317734   0.789   0.527   3.740
   94MYC    H4017735   0.735   0.433   3.719
   94MYC    H4117736   0.896   0.506   3.729
   94MYC    C2417737   0.759   0.571   3.884
   94MYC    H4217738   0.805   0.670   3.902
   94MYC    H4317739   0.651   0.584   3.895
   94MYC    C2517740   0.809   0.474   3.993
   94MYC    H4417741   0.770   0.373   3.974
   94MYC    H4517742   0.919   0.468   3.989
   94MYC    C2617743   0.765   0.520   4.133
   94MYC    H4617744   0.797   0.623   4.149
   94MYC    H4717745   0.655   0.520   4.137
   94MYC    C2717746   0.818   0.433   4.249
   94MYC    H4817747   0.792   0.328   4.232
   94MYC    H4917748   0.928   0.440   4.252
   94MYC    C2817749   0.760   0.479   4.384
   94MYC    H5017750   0.783   0.585   4.399
   94MYC    H5117751   0.651   0.471   4.380
   94MYC    C2917752   0.811   0.400   4.506
   94MYC    H5217753   0.794   0.293   4.491
   94MYC    H5317754   0.919   0.414   4.516
   94MYC    C3017755   0.741   0.445   4.636
   94MYC    H5417756   0.755   0.554   4.648
   94MYC    H5517757   0.633   0.428   4.626
   94MYC    C3117758   0.792   0.374   4.763
   94MYC    H5617759   0.778   0.266   4.752
   94MYC    H5717760   0.899   0.392   4.773
   94MYC    C3217761   0.719   0.424   4.889
   94MYC    H5817762   0.730   0.533   4.896
   94MYC    H5917763   0.611   0.404   4.879
   94MYC    C3317764   0.770   0.359   5.019
   94MYC    H6017765   0.752   0.251   5.015
   94MYC    H6117766   0.878   0.374   5.026
   94MYC    C3417767   0.702   0.419   5.144
   94MYC    H6217768   0.720   0.527   5.146
   94MYC    H6317769   0.594   0.404   5.136
   94MYC    C3517770   0.753   0.356   5.275
   94MYC    H6417771   0.725   0.250   5.278
   94MYC    H6517772   0.862   0.361   5.278
   94MYC    C3617773   0.696   0.427   5.399
   94MYC    H6617774   0.728   0.532   5.397
   94MYC    H6717775   0.587   0.427   5.394
   94MYC    C3717776   0.741   0.363   5.531
   94MYC    H6817777   0.699   0.262   5.538
   94MYC    H6917778   0.850   0.352   5.532
   94MYC    C3817779   0.698   0.445   5.654
   94MYC    H7017780   0.747   0.542   5.651
   94MYC    H7117781   0.590   0.463   5.649
   94MYC    C3917782   0.730   0.375   5.788
   94MYC    H7217783   0.672   0.282   5.795
   94MYC    H7317784   0.836   0.347   5.790
   94MYC    C4017785   0.699   0.464   5.910
   94MYC    H7417786   0.763   0.553   5.906
   94MYC    H7517787   0.595   0.500   5.904
   94MYC    C4117788   0.719   0.392   6.045
   94MYC    H7617789   0.648   0.308   6.051
   94MYC    H7717790   0.820   0.349   6.049
   94MYC    C4217791   0.698   0.485   6.166
   94MYC    H7817792   0.773   0.565   6.163
   94MYC    H7917793   0.600   0.532   6.160
   94MYC    C4317794   0.710   0.412   6.301
   94MYC    H8017795   0.807   0.362   6.310
   94MYC    H8117796   0.631   0.336   6.310
   94MYC    H8217797   0.699   0.483   6.384
   95MYC   HH1517798   0.968   0.799   6.255
   95MYC    C8017799   0.946   0.861   6.168
   95MYC   H10017800   0.838   0.881   6.166
   95MYC   H10117801   0.999   0.957   6.180
   95MYC    C7917802   0.990   0.790   6.039
   95MYC   H10217803   0.937   0.695   6.030
   95MYC   H10317804   1.097   0.766   6.045
   95MYC    C7817805   0.965   0.875   5.913
   95MYC   HH1417806   1.027   0.966   5.917
   95MYC   H10417807   0.860   0.908   5.911
   95MYC    C7717808   0.995   0.800   5.781
   95MYC   H10617809   0.930   0.712   5.774
   95MYC   H10717810   1.099   0.764   5.783
   95MYC    C7617811   0.974   0.889   5.657
   95MYC   H10817812   1.046   0.972   5.660
   95MYC   H10917813   0.874   0.934   5.662
   95MYC    C7517814   0.989   0.814   5.524
   95MYC   H11017815   0.917   0.731   5.520
   95MYC   H11117816   1.089   0.770   5.517
   95MYC    C7417817   0.966   0.907   5.404
   95MYC   H11217818   1.040   0.988   5.406
   95MYC   H11317819   0.867   0.954   5.414
   95MYC    C7317820   0.974   0.836   5.267
   95MYC   HH1317821   0.902   0.753   5.264
   95MYC   H11417822   1.074   0.793   5.254
   95MYC    C7217823   0.944   0.934   5.152
   95MYC   H11517824   1.014   1.018   5.158
   95MYC   H11617825   0.843   0.975   5.166
   95MYC    C7117826   0.953   0.870   5.012
   95MYC   H11717827   0.883   0.786   5.005
   95MYC   H11817828   1.054   0.830   4.997
   95MYC    C7017829   0.921   0.973   4.903
   95MYC   H11917830   0.988   1.059   4.914
   95MYC   H12017831   0.819   1.010   4.917
   95MYC    C6917832   0.935   0.918   4.760
   95MYC   H12117833   0.866   0.834   4.746
   95MYC   H12217834   1.037   0.879   4.746
   95MYC    C6817835   0.908   1.027   4.655
   95MYC   HH1217836   0.977   1.111   4.671
   95MYC   H12317837   0.806   1.066   4.669
   95MYC    C6717838   0.923   0.977   4.511
   95MYC   H12417839   0.848   0.899   4.491
   95MYC   H12517840   1.022   0.932   4.498
   95MYC    C6617841   0.906   1.091   4.409
   95MYC   H12617842   0.984   1.166   4.427
   95MYC   H12717843   0.809   1.141   4.425
   95MYC    C6517844   0.914   1.043   4.264
   95MYC   H12817845   0.828   0.978   4.243
   95MYC   H12917846   1.004   0.982   4.251
   95MYC    C6417847   0.918   1.159   4.164
   95MYC   H13017848   1.008   1.218   4.182
   95MYC   H13117849   0.832   1.226   4.181
   95MYC    C6317850   0.915   1.110   4.019
   95MYC   HH1117851   0.818   1.065   3.997
   95MYC   H13217852   0.991   1.031   4.006
   95MYC    C6217853   0.944   1.222   3.918
   95MYC   H13317854   1.045   1.262   3.936
   95MYC   H13417855   0.873   1.305   3.932
   95MYC    C6117856   0.934   1.171   3.774
   95MYC   H13517857   0.830   1.146   3.752
   95MYC   H13617858   0.992   1.078   3.764
   95MYC    C6017859   0.987   1.271   3.672
   95MYC   H13717860   1.093   1.292   3.685
   95MYC    C5817861   0.936   1.261   3.531
   95MYC   H13817862   0.854   1.191   3.514
   95MYC    C5917863   0.904   1.383   3.614
   95MYC   H13917864   0.955   1.476   3.590
   95MYC   H14017865   0.802   1.394   3.650
   95MYC    C5717866   1.037   1.259   3.418
   95MYC   HH1017867   1.090   1.163   3.421
   95MYC   H14117868   1.113   1.338   3.432
   95MYC    C5617869   0.971   1.276   3.281
   95MYC   H14217870   0.938   1.380   3.269
   95MYC   H14317871   0.881   1.213   3.276
   95MYC    C5517872   1.065   1.236   3.166
   95MYC   H14417873   1.094   1.131   3.178
   95MYC   H14517874   1.157   1.296   3.171
   95MYC    C5417875   0.997   1.255   3.029
   95MYC   H14617876   0.976   1.361   3.013
   95MYC   H14717877   0.901   1.203   3.030
   95MYC    C5317878   1.081   1.202   2.911
   95MYC   H14817879   1.107   1.097   2.931
   95MYC   H14917880   1.175   1.258   2.904
   95MYC    C5217881   1.004   1.211   2.779
   95MYC    H9917882   0.986   1.317   2.754
   95MYC   H15017883   0.906   1.164   2.791
   95MYC    C5117884   1.078   1.143   2.662
   95MYC    H9717885   1.107   1.042   2.693
   95MYC    H9817886   1.170   1.198   2.639
   95MYC    C5017887   0.990   1.135   2.536
   95MYC    H9517888   0.974   1.235   2.495
   95MYC    H9617889   0.892   1.095   2.563
   95MYC    C4917890   1.052   1.044   2.428
   95MYC    H9317891   1.071   0.945   2.471
   95MYC    H9417892   1.149   1.084   2.397
   95MYC    C4817893   0.961   1.029   2.305
   95MYC    H9117894   0.950   1.126   2.255
   95MYC    H9217895   0.861   0.999   2.337
   95MYC    C4717896   1.015   0.925   2.204
   95MYC    H8917897   1.012   0.825   2.250
   95MYC    H9017898   1.120   0.948   2.183
   95MYC    C4617899   0.937   0.923   2.071
   95MYC    H8717900   0.936   1.025   2.030
   95MYC    H8817901   0.833   0.895   2.090
   95MYC    C4517902   0.999   0.826   1.968
   95MYC    H8517903   0.978   0.723   1.998
   95MYC    H8617904   1.108   0.839   1.971
   95MYC    C4417905   0.952   0.848   1.823
   95MYC    H8317906   1.027   0.804   1.756
   95MYC    H8417907   0.953   0.956   1.802
   95MYC    C1817908   0.815   0.790   1.792
   95MYC    H3117909   0.757   0.764   1.881
   95MYC    C1717910   0.738   0.844   1.674
   95MYC    H3017911   0.789   0.918   1.612
   95MYC    C1917912   0.793   0.703   1.671
   95MYC    H3217913   0.878   0.683   1.607
   95MYC    H3317914   0.723   0.621   1.680
   95MYC    C1617915   0.588   0.869   1.681
   95MYC    H2817916   0.541   0.782   1.729
   95MYC    H2917917   0.548   0.874   1.579
   95MYC    C1517918   0.546   0.998   1.757
   95MYC    H2617919   0.439   1.015   1.738
   95MYC    H2717920   0.599   1.083   1.714
   95MYC    C1417921   0.568   0.992   1.910
   95MYC    H2417922   0.675   0.977   1.929
   95MYC    H2517923   0.515   0.906   1.951
   95MYC    C1317924   0.525   1.120   1.986
   95MYC    H2217925   0.419   1.140   1.968
   95MYC    H2317926   0.581   1.205   1.946
   95MYC    C1217927   0.551   1.108   2.138
   95MYC    H2017928   0.650   1.064   2.154
   95MYC    H2117929   0.478   1.038   2.181
   95MYC    C1117930   0.544   1.242   2.214
   95MYC    H1817931   0.442   1.282   2.211
   95MYC    H1917932   0.608   1.314   2.162
   95MYC    C1017933   0.592   1.233   2.361
   95MYC    H1617934   0.614   1.334   2.397
   95MYC    H1717935   0.687   1.178   2.365
   95MYC     C917936   0.491   1.169   2.459
   95MYC    H1417937   0.453   1.075   2.418
   95MYC    H1517938   0.405   1.236   2.468
   95MYC     C817939   0.551   1.143   2.600
   95MYC    H1217940   0.599   1.235   2.636
   95MYC    H1317941   0.629   1.067   2.592
   95MYC     C717942   0.445   1.099   2.703
   95MYC    H1017943   0.391   1.011   2.664
   95MYC    H1117944   0.371   1.179   2.715
   95MYC     C617945   0.505   1.063   2.842
   95MYC     H817946   0.573   1.143   2.875
   95MYC     H917947   0.566   0.973   2.831
   95MYC     C517948   0.397   1.038   2.950
   95MYC     H617949   0.440   0.978   3.031
   95MYC     H717950   0.318   0.976   2.907
   95MYC     C417951   0.335   1.168   3.009
   95MYC     H417952   0.227   1.152   3.021
   95MYC     H517953   0.346   1.249   2.937
   95MYC     C217954   0.393   1.210   3.147
   95MYC     H217955   0.363   1.132   3.219
   95MYC     O317956   0.536   1.214   3.142
   95MYC     H317957   0.562   1.297   3.098
   95MYC     C117958   0.337   1.346   3.199
   95MYC     H117959   0.228   1.333   3.211
   95MYC    C8117960   0.355   1.462   3.097
   95MYC    O8217961   0.264   1.527   3.051
   95MYC    O8317962   0.483   1.484   3.059
   95MYC   H10517963   0.478   1.559   2.996
   95MYC    C2017964   0.392   1.390   3.338
   95MYC    H3417965   0.498   1.415   3.328
   95MYC    H3517966   0.341   1.483   3.367
   95MYC    C2117967   0.375   1.287   3.452
   95MYC    H3617968   0.269   1.258   3.460
   95MYC    H3717969   0.432   1.197   3.429
   95MYC    C2217970   0.423   1.343   3.588
   95MYC    H3817971   0.526   1.379   3.577
   95MYC    H3917972   0.361   1.430   3.614
   95MYC    C2317973   0.417   1.241   3.703
   95MYC    H4017974   0.314   1.205   3.714
   95MYC    H4117975   0.478   1.153   3.678
   95MYC    C2417976   0.465   1.301   3.836
   95MYC    H4217977   0.572   1.326   3.827
   95MYC    H4317978   0.411   1.394   3.855
   95MYC    C2517979   0.446   1.207   3.958
   95MYC    H4417980   0.341   1.179   3.965
   95MYC    H4517981   0.504   1.115   3.942
   95MYC    C2617982   0.490   1.274   4.090
   95MYC    H4617983   0.597   1.298   4.084
   95MYC    H4717984   0.437   1.369   4.100
   95MYC    C2717985   0.464   1.188   4.214
   95MYC    H4817986   0.359   1.156   4.215
   95MYC    H4917987   0.525   1.097   4.209
   95MYC    C2817988   0.493   1.263   4.346
   95MYC    H5017989   0.599   1.294   4.346
   95MYC    H5117990   0.433   1.354   4.349
   95MYC    C2917991   0.465   1.179   4.472
   95MYC    H5217992   0.362   1.142   4.468
   95MYC    H5317993   0.531   1.092   4.473
   95MYC    C3017994   0.485   1.260   4.602
   95MYC    H5417995   0.587   1.300   4.604
   95MYC    H5517996   0.417   1.346   4.602
   95MYC    C3117997   0.460   1.176   4.729
   95MYC    H5617998   0.359   1.135   4.727
   95MYC    H5717999   0.529   1.090   4.729
   95MYC    C3218000   0.480   1.257   4.859
   95MYC    H5818001   0.580   1.303   4.858
   95MYC    H5918002   0.407   1.339   4.862
   95MYC    C3318003   0.466   1.171   4.986
   95MYC    H6018004   0.367   1.124   4.987
   95MYC    H6118005   0.540   1.090   4.983
   95MYC    C3418006   0.484   1.253   5.116
   95MYC    H6218007   0.578   1.309   5.110
   95MYC    H6318008   0.403   1.326   5.124
   95MYC    C3518009   0.486   1.165   5.243
   95MYC    H6418010   0.398   1.100   5.244
   95MYC    H6518011   0.574   1.099   5.239
   95MYC    C3618012   0.489   1.248   5.373
   95MYC    H6618013   0.566   1.326   5.365
   95MYC    H6718014   0.392   1.299   5.384
   95MYC    C3718015   0.517   1.164   5.499
   95MYC    H6818016   0.452   1.075   5.498
   95MYC    H6918017   0.620   1.128   5.495
   95MYC    C3818018   0.493   1.242   5.629
   95MYC    H7018019   0.541   1.341   5.622
   95MYC    H7118020   0.386   1.259   5.641
   95MYC    C3918021   0.547   1.170   5.755
   95MYC    H7218022   0.514   1.065   5.753
   95MYC    H7318023   0.657   1.169   5.751
   95MYC    C4018024   0.500   1.236   5.886
   95MYC    H7418025   0.521   1.343   5.882
   95MYC    H7518026   0.391   1.224   5.894
   95MYC    C4118027   0.568   1.176   6.011
   95MYC    H7618028   0.561   1.067   6.008
   95MYC    H7718029   0.674   1.202   6.010
   95MYC    C4218030   0.504   1.226   6.143
   95MYC    H7818031   0.502   1.335   6.144
   95MYC    H7918032   0.400   1.192   6.147
   95MYC    C4318033   0.578   1.176   6.269
   95MYC    H8018034   0.524   1.207   6.359
   95MYC    H8118035   0.679   1.218   6.273
   95MYC    H8218036   0.586   1.067   6.269
   96MYC   HH1518037   0.639   1.812   6.313
   96MYC    C8018038   0.640   1.863   6.216
   96MYC   H10018039   0.548   1.922   6.207
   96MYC   H10118040   0.726   1.932   6.215
   96MYC    C7918041   0.651   1.761   6.101
   96MYC   H10218042   0.567   1.692   6.108
   96MYC   H10318043   0.742   1.702   6.114
   96MYC    C7818044   0.653   1.827   5.962
   96MYC   HH1418045   0.740   1.893   5.955
   96MYC   H10418046   0.564   1.890   5.951
   96MYC    C7718047   0.656   1.725   5.846
   96MYC   H10618048   0.566   1.663   5.850
   96MYC   H10718049   0.742   1.658   5.859
   96MYC    C7618050   0.666   1.793   5.708
   96MYC   H10818051   0.759   1.850   5.703
   96MYC   H10918052   0.584   1.865   5.698
   96MYC    C7518053   0.659   1.694   5.590
   96MYC   H11018054   0.562   1.643   5.591
   96MYC   H11118055   0.736   1.617   5.602
   96MYC    C7418056   0.679   1.765   5.455
   96MYC   H11218057   0.780   1.807   5.451
   96MYC   H11318058   0.608   1.849   5.448
   96MYC    C7318059   0.658   1.673   5.333
   96MYC   HH1318060   0.555   1.635   5.334
   96MYC   H11418061   0.724   1.586   5.340
   96MYC    C7218062   0.684   1.747   5.200
   96MYC   H11518063   0.790   1.776   5.196
   96MYC   H11618064   0.626   1.840   5.199
   96MYC    C7118065   0.648   1.665   5.075
   96MYC   H11718066   0.542   1.639   5.078
   96MYC   H11818067   0.704   1.571   5.076
   96MYC    C7018068   0.680   1.742   4.945
   96MYC   H11918069   0.788   1.762   4.941
   96MYC   H12018070   0.629   1.840   4.948
   96MYC    C6918071   0.636   1.667   4.818
   96MYC   H12118072   0.527   1.655   4.818
   96MYC   H12218073   0.680   1.567   4.819
   96MYC    C6818074   0.680   1.741   4.690
   96MYC   HH1218075   0.789   1.748   4.689
   96MYC   H12318076   0.641   1.843   4.691
   96MYC    C6718077   0.632   1.670   4.562
   96MYC   H12418078   0.523   1.676   4.557
   96MYC   H12518079   0.659   1.564   4.566
   96MYC    C6618080   0.693   1.732   4.435
   96MYC   H12618081   0.802   1.722   4.438
   96MYC   H12718082   0.671   1.839   4.432
   96MYC    C6518083   0.640   1.666   4.306
   96MYC   H12818084   0.532   1.679   4.301
   96MYC   H12918085   0.659   1.558   4.311
   96MYC    C6418086   0.705   1.723   4.179
   96MYC   H13018087   0.812   1.701   4.180
   96MYC   H13118088   0.695   1.832   4.179
   96MYC    C6318089   0.642   1.666   4.051
   96MYC   HH1118090   0.533   1.683   4.053
   96MYC   H13218091   0.657   1.557   4.050
   96MYC    C6218092   0.700   1.727   3.923
   96MYC   H13318093   0.808   1.708   3.921
   96MYC   H13418094   0.686   1.836   3.924
   96MYC    C6118095   0.635   1.669   3.797
   96MYC   H13518096   0.530   1.701   3.792
   96MYC   H13618097   0.634   1.560   3.804
   96MYC    C6018098   0.709   1.709   3.671
   96MYC   H13718099   0.815   1.684   3.676
   96MYC    C5818100   0.642   1.692   3.537
   96MYC   H13818101   0.537   1.664   3.536
   96MYC    C5918102   0.673   1.831   3.589
   96MYC   H13918103   0.755   1.885   3.542
   96MYC   H14018104   0.590   1.892   3.622
   96MYC    C5718105   0.721   1.626   3.425
   96MYC   HH1018106   0.699   1.519   3.424
   96MYC   H14118107   0.828   1.636   3.444
   96MYC    C5618108   0.690   1.685   3.287
   96MYC   H14218109   0.715   1.792   3.286
   96MYC   H14318110   0.582   1.678   3.267
   96MYC    C5518111   0.767   1.613   3.175
   96MYC   H14418112   0.732   1.509   3.169
   96MYC   H14518113   0.873   1.608   3.201
   96MYC    C5418114   0.753   1.681   3.038
   96MYC   H14618115   0.804   1.778   3.041
   96MYC   H14718116   0.647   1.701   3.018
   96MYC    C5318117   0.812   1.596   2.924
   96MYC   H14818118   0.764   1.498   2.923
   96MYC   H14918119   0.919   1.580   2.943
   96MYC    C5218120   0.794   1.663   2.788
   96MYC    H9918121   0.848   1.758   2.788
   96MYC   H15018122   0.688   1.686   2.773
   96MYC    C5118123   0.843   1.577   2.670
   96MYC    H9718124   0.792   1.480   2.672
   96MYC    H9818125   0.950   1.558   2.680
   96MYC    C5018126   0.815   1.647   2.536
   96MYC    H9518127   0.865   1.744   2.534
   96MYC    H9618128   0.708   1.666   2.528
   96MYC    C4918129   0.861   1.566   2.413
   96MYC    H9318130   0.815   1.466   2.417
   96MYC    H9418131   0.969   1.552   2.415
   96MYC    C4818132   0.820   1.636   2.282
   96MYC    H9118133   0.870   1.733   2.276
   96MYC    H9218134   0.712   1.655   2.285
   96MYC    C4718135   0.851   1.555   2.155
   96MYC    H8918136   0.797   1.459   2.160
   96MYC    H9018137   0.958   1.531   2.151
   96MYC    C4618138   0.811   1.631   2.028
   96MYC    H8718139   0.882   1.714   2.012
   96MYC    H8818140   0.713   1.677   2.044
   96MYC    C4518141   0.805   1.543   1.902
   96MYC    H8518142   0.728   1.466   1.915
   96MYC    H8618143   0.901   1.490   1.890
   96MYC    C4418144   0.775   1.621   1.772
   96MYC    H8318145   0.763   1.550   1.689
   96MYC    H8418146   0.863   1.682   1.747
   96MYC    C1818147   0.651   1.710   1.780
   96MYC    H3118148   0.578   1.677   1.853
   96MYC    C1718149   0.664   1.858   1.752
   96MYC    H3018150   0.760   1.894   1.717
   96MYC    C1918151   0.591   1.769   1.655
   96MYC    H3218152   0.639   1.746   1.560
   96MYC    H3318153   0.482   1.777   1.650
   96MYC    C1618154   0.588   1.963   1.833
   96MYC    H2818155   0.526   1.915   1.910
   96MYC    H2918156   0.518   2.014   1.765
   96MYC    C1518157   0.678   2.071   1.897
   96MYC    H2618158   0.615   2.158   1.917
   96MYC    H2718159   0.753   2.103   1.825
   96MYC    C1418160   0.747   2.032   2.030
   96MYC    H2418161   0.819   1.950   2.012
   96MYC    H2518162   0.672   1.994   2.100
   96MYC    C1318163   0.821   2.153   2.093
   96MYC    H2218164   0.754   2.240   2.094
   96MYC    H2318165   0.905   2.181   2.029
   96MYC    C1218166   0.872   2.129   2.237
   96MYC    H2018167   0.948   2.051   2.237
   96MYC    H2118168   0.789   2.093   2.299
   96MYC    C1118169   0.931   2.258   2.301
   96MYC    H1818170   0.849   2.328   2.321
   96MYC    H1918171   0.997   2.307   2.228
   96MYC    C1018172   1.012   2.236   2.431
   96MYC    H1618173   1.031   2.334   2.475
   96MYC    H1718174   1.109   2.193   2.407
   96MYC     C918175   0.943   2.148   2.537
   96MYC    H1418176   0.924   2.048   2.496
   96MYC    H1518177   0.845   2.191   2.561
   96MYC     C818178   1.027   2.131   2.666
   96MYC    H1218179   1.064   2.229   2.700
   96MYC    H1318180   1.115   2.071   2.643
   96MYC     C718181   0.950   2.063   2.782
   96MYC    H1018182   1.021   2.025   2.855
   96MYC    H1118183   0.896   1.977   2.742
   96MYC     C618184   0.851   2.158   2.853
   96MYC     H818185   0.789   2.210   2.779
   96MYC     H918186   0.908   2.235   2.905
   96MYC     C518187   0.757   2.086   2.952
   96MYC     H618188   0.816   2.026   3.023
   96MYC     H718189   0.695   2.015   2.896
   96MYC     C418190   0.663   2.182   3.031
   96MYC     H418191   0.568   2.128   3.050
   96MYC     H518192   0.637   2.267   2.967
   96MYC     C218193   0.718   2.231   3.168
   96MYC     H218194   0.736   2.141   3.228
   96MYC     O318195   0.842   2.299   3.150
   96MYC     H318196   0.825   2.379   3.096
   96MYC     C118197   0.617   2.320   3.247
   96MYC     H118198   0.528   2.258   3.262
   96MYC    C8118199   0.572   2.444   3.165
   96MYC    O8218200   0.640   2.543   3.147
   96MYC    O8318201   0.448   2.432   3.111
   96MYC   H10518202   0.431   2.516   3.065
   96MYC    C2018203   0.669   2.364   3.387
   96MYC    H3418204   0.767   2.412   3.377
   96MYC    H3518205   0.601   2.441   3.426
   96MYC    C2118206   0.677   2.250   3.491
   96MYC    H3618207   0.576   2.211   3.510
   96MYC    H3718208   0.737   2.167   3.453
   96MYC    C2218209   0.739   2.298   3.624
   96MYC    H3818210   0.846   2.319   3.608
   96MYC    H3918211   0.693   2.394   3.653
   96MYC    C2318212   0.723   2.199   3.741
   96MYC    H4018213   0.616   2.185   3.760
   96MYC    H4118214   0.764   2.102   3.714
   96MYC    C2418215   0.791   2.250   3.870
   96MYC    H4218216   0.900   2.240   3.859
   96MYC    H4318217   0.770   2.357   3.882
   96MYC    C2518218   0.746   2.176   3.998
   96MYC    H4418219   0.637   2.187   4.008
   96MYC    H4518220   0.767   2.069   3.988
   96MYC    C2618221   0.814   2.231   4.125
   96MYC    H4618222   0.922   2.211   4.119
   96MYC    H4718223   0.802   2.340   4.128
   96MYC    C2718224   0.757   2.171   4.255
   96MYC    H4818225   0.649   2.192   4.260
   96MYC    H4918226   0.769   2.062   4.252
   96MYC    C2818227   0.825   2.226   4.381
   96MYC    H5018228   0.933   2.203   4.378
   96MYC    H5118229   0.816   2.336   4.382
   96MYC    C2918230   0.765   2.169   4.511
   96MYC    H5218231   0.658   2.194   4.514
   96MYC    H5318232   0.772   2.060   4.509
   96MYC    C3018233   0.833   2.222   4.639
   96MYC    H5418234   0.939   2.196   4.637
   96MYC    H5518235   0.826   2.332   4.640
   96MYC    C3118236   0.768   2.166   4.767
   96MYC    H5618237   0.662   2.192   4.767
   96MYC    H5718238   0.774   2.056   4.765
   96MYC    C3218239   0.832   2.218   4.897
   96MYC    H5818240   0.938   2.189   4.899
   96MYC    H5918241   0.829   2.328   4.897
   96MYC    C3318242   0.761   2.164   5.023
   96MYC    H6018243   0.655   2.191   5.017
   96MYC    H6118244   0.766   2.055   5.024
   96MYC    C3418245   0.820   2.219   5.154
   96MYC    H6218246   0.924   2.187   5.164
   96MYC    H6318247   0.820   2.329   5.151
   96MYC    C3518248   0.740   2.173   5.278
   96MYC    H6418249   0.636   2.207   5.268
   96MYC    H6518250   0.737   2.063   5.281
   96MYC    C3618251   0.798   2.225   5.411
   96MYC    H6618252   0.899   2.185   5.424
   96MYC    H6718253   0.807   2.334   5.405
   96MYC    C3718254   0.711   2.188   5.533
   96MYC    H6818255   0.613   2.236   5.522
   96MYC    H6918256   0.694   2.080   5.534
   96MYC    C3818257   0.775   2.231   5.666
   96MYC    H7018258   0.869   2.176   5.680
   96MYC    H7118259   0.801   2.338   5.661
   96MYC    C3918260   0.683   2.209   5.788
   96MYC    H7218261   0.595   2.274   5.779
   96MYC    H7318262   0.646   2.106   5.788
   96MYC    C4018263   0.754   2.238   5.922
   96MYC    H7418264   0.834   2.164   5.936
   96MYC    H7518265   0.801   2.336   5.917
   96MYC    C4118266   0.659   2.234   6.043
   96MYC    H7618267   0.585   2.314   6.033
   96MYC    H7718268   0.604   2.139   6.044
   96MYC    C4218269   0.734   2.251   6.178
   96MYC    H7818270   0.803   2.167   6.191
   96MYC    H7918271   0.794   2.342   6.175
   96MYC    C4318272   0.639   2.258   6.299
   96MYC    H8018273   0.697   2.264   6.392
   96MYC    H8118274   0.575   2.169   6.304
   96MYC    H8218275   0.574   2.346   6.293
   97MYC   HH1518276   0.729   2.995   6.159
   97MYC    C8018277   0.778   3.018   6.064
   97MYC   H10018278   0.801   3.125   6.062
   97MYC   H10118279   0.873   2.962   6.060
   97MYC    C7918280   0.687   2.980   5.946
   97MYC   H10218281   0.594   3.038   5.953
   97MYC   H10318282   0.659   2.874   5.955
   97MYC    C7818283   0.753   3.004   5.808
   97MYC   HH1418284   0.838   2.936   5.796
   97MYC   H10418285   0.793   3.106   5.805
   97MYC    C7718286   0.654   2.986   5.691
   97MYC   H10618287   0.575   3.061   5.700
   97MYC   H10718288   0.606   2.887   5.698
   97MYC    C7618289   0.722   2.999   5.553
   97MYC   H10818290   0.784   2.911   5.535
   97MYC   H10918291   0.788   3.086   5.553
   97MYC    C7518292   0.619   3.015   5.439
   97MYC   H11018293   0.565   3.109   5.453
   97MYC   H11118294   0.545   2.934   5.444
   97MYC    C7418295   0.684   3.014   5.299
   97MYC   H11218296   0.717   2.911   5.275
   97MYC   H11318297   0.774   3.077   5.298
   97MYC    C7318298   0.588   3.064   5.189
   97MYC   HH1318299   0.572   3.172   5.202
   97MYC   H11418300   0.490   3.015   5.202
   97MYC    C7218301   0.639   3.036   5.047
   97MYC   H11518302   0.644   2.928   5.032
   97MYC   H11618303   0.741   3.075   5.035
   97MYC    C7118304   0.548   3.098   4.938
   97MYC   H11718305   0.568   3.206   4.932
   97MYC   H11818306   0.443   3.085   4.966
   97MYC    C7018307   0.571   3.033   4.800
   97MYC   H11918308   0.545   2.927   4.807
   97MYC   H12018309   0.677   3.038   4.774
   97MYC    C6918310   0.489   3.098   4.687
   97MYC   H12118311   0.531   3.196   4.665
   97MYC   H12218312   0.385   3.113   4.720
   97MYC    C6818313   0.489   3.011   4.560
   97MYC   HH1218314   0.428   2.921   4.577
   97MYC   H12318315   0.592   2.977   4.541
   97MYC    C6718316   0.438   3.085   4.435
   97MYC   H12418317   0.501   3.174   4.420
   97MYC   H12518318   0.335   3.119   4.450
   97MYC    C6618319   0.445   2.997   4.309
   97MYC   H12618320   0.359   2.929   4.307
   97MYC   H12718321   0.535   2.934   4.315
   97MYC    C6518322   0.451   3.077   4.178
   97MYC   H12818323   0.526   3.156   4.187
   97MYC   H12918324   0.354   3.126   4.160
   97MYC    C6418325   0.488   2.988   4.058
   97MYC   H13018326   0.411   2.912   4.042
   97MYC   H13118327   0.582   2.935   4.081
   97MYC    C6318328   0.508   3.069   3.928
   97MYC   HH1118329   0.577   3.152   3.947
   97MYC   H13218330   0.412   3.112   3.897
   97MYC    C6218331   0.566   2.983   3.814
   97MYC   H13318332   0.501   2.897   3.796
   97MYC   H13418333   0.664   2.944   3.843
   97MYC    C6118334   0.580   3.063   3.684
   97MYC   H13518335   0.642   3.152   3.702
   97MYC   H13618336   0.481   3.100   3.654
   97MYC    C6018337   0.639   2.982   3.569
   97MYC   H13718338   0.591   2.885   3.558
   97MYC    C5818339   0.675   3.055   3.443
   97MYC   H13818340   0.666   3.164   3.446
   97MYC    C5918341   0.784   2.993   3.527
   97MYC   H13918342   0.832   2.903   3.489
   97MYC   H14018343   0.849   3.059   3.583
   97MYC    C5718344   0.629   2.997   3.310
   97MYC   HH1018345   0.520   2.985   3.313
   97MYC   H14118346   0.671   2.897   3.294
   97MYC    C5618347   0.665   3.088   3.191
   97MYC   H14218348   0.774   3.090   3.178
   97MYC   H14318349   0.633   3.190   3.212
   97MYC    C5518350   0.598   3.042   3.060
   97MYC   H14418351   0.489   3.036   3.075
   97MYC   H14518352   0.633   2.941   3.034
   97MYC    C5418353   0.627   3.138   2.943
   97MYC   H14618354   0.736   3.143   2.928
   97MYC   H14718355   0.594   3.239   2.970
   97MYC    C5318356   0.559   3.096   2.811
   97MYC   H14818357   0.450   3.103   2.821
   97MYC   H14918358   0.584   2.991   2.789
   97MYC    C5218359   0.606   3.184   2.694
   97MYC    H9918360   0.716   3.182   2.693
   97MYC   H15018361   0.577   3.288   2.712
   97MYC    C5118362   0.555   3.141   2.555
   97MYC    H9718363   0.449   3.169   2.544
   97MYC    H9818364   0.561   3.032   2.545
   97MYC    C5018365   0.640   3.206   2.444
   97MYC    H9518366   0.743   3.172   2.457
   97MYC    H9618367   0.639   3.315   2.458
   97MYC    C4918368   0.599   3.174   2.300
   97MYC    H9318369   0.498   3.210   2.280
   97MYC    H9418370   0.599   3.066   2.285
   97MYC    C4818371   0.698   3.241   2.201
   97MYC    H9118372   0.799   3.205   2.222
   97MYC    H9218373   0.699   3.349   2.219
   97MYC    C4718374   0.666   3.216   2.052
   97MYC    H8918375   0.719   3.290   1.992
   97MYC    H9018376   0.559   3.233   2.034
   97MYC    C4618377   0.707   3.075   2.003
   97MYC    H8718378   0.664   2.999   2.069
   97MYC    H8818379   0.816   3.066   2.010
   97MYC    C4518380   0.662   3.048   1.858
   97MYC    H8518381   0.695   3.129   1.793
   97MYC    H8618382   0.553   3.050   1.856
   97MYC    C4418383   0.710   2.912   1.802
   97MYC    H8318384   0.648   2.887   1.716
   97MYC    H8418385   0.693   2.833   1.876
   97MYC    C1818386   0.857   2.914   1.760
   97MYC    H3118387   0.925   2.915   1.844
   97MYC    C1718388   0.904   2.847   1.633
   97MYC    H3018389   0.828   2.799   1.572
   97MYC    C1918390   0.897   2.997   1.641
   97MYC    H3218391   0.817   3.047   1.585
   97MYC    H3318392   0.989   3.053   1.648
   97MYC    C1618393   1.040   2.780   1.619
   97MYC    H2818394   1.113   2.824   1.689
   97MYC    H2918395   1.078   2.801   1.519
   97MYC    C1518396   1.036   2.626   1.637
   97MYC    H2618397   1.125   2.583   1.589
   97MYC    H2718398   0.950   2.586   1.583
   97MYC    C1418399   1.030   2.575   1.782
   97MYC    H2418400   0.998   2.470   1.780
   97MYC    H2518401   0.954   2.631   1.838
   97MYC    C1318402   1.166   2.582   1.856
   97MYC    H2218403   1.201   2.686   1.859
   97MYC    H2318404   1.241   2.524   1.800
   97MYC    C1218405   1.156   2.527   2.000
   97MYC    H2018406   1.119   2.424   1.998
   97MYC    H2118407   1.082   2.587   2.054
   97MYC    C1118408   1.292   2.531   2.074
   97MYC    H1818409   1.335   2.631   2.062
   97MYC    H1918410   1.362   2.462   2.025
   97MYC    C1018411   1.286   2.499   2.224
   97MYC    H1618412   1.387   2.512   2.265
   97MYC    H1718413   1.259   2.393   2.239
   97MYC     C918414   1.189   2.588   2.304
   97MYC    H1418415   1.086   2.557   2.282
   97MYC    H1518416   1.199   2.692   2.271
   97MYC     C818417   1.211   2.583   2.457
   97MYC    H1218418   1.309   2.625   2.480
   97MYC    H1318419   1.211   2.479   2.491
   97MYC     C718420   1.102   2.662   2.533
   97MYC    H1018421   1.005   2.614   2.518
   97MYC    H1118422   1.095   2.763   2.492
   97MYC     C618423   1.130   2.672   2.685
   97MYC     H818424   1.225   2.724   2.700
   97MYC     H918425   1.142   2.570   2.723
   97MYC     C518426   1.017   2.744   2.762
   97MYC     H618427   0.931   2.677   2.771
   97MYC     H718428   0.982   2.827   2.700
   97MYC     C418429   1.055   2.805   2.901
   97MYC     H418430   0.998   2.899   2.910
   97MYC     H518431   1.160   2.836   2.899
   97MYC     C218432   1.028   2.725   3.031
   97MYC     H218433   1.021   2.800   3.111
   97MYC     O318434   0.902   2.658   3.023
   97MYC     H318435   0.832   2.726   3.024
   97MYC     C118436   1.141   2.627   3.078
   97MYC     H118437   1.230   2.689   3.094
   97MYC    C8118438   1.178   2.521   2.974
   97MYC    O8218439   1.106   2.429   2.939
   97MYC    O8318440   1.307   2.530   2.930
   97MYC   H10518441   1.321   2.449   2.878
   97MYC    C2018442   1.109   2.557   3.214
   97MYC    H3418443   1.008   2.515   3.212
   97MYC    H3518444   1.177   2.471   3.225
   97MYC    C2118445   1.126   2.646   3.340
   97MYC    H3618446   1.232   2.672   3.350
   97MYC    H3718447   1.071   2.740   3.328
   97MYC    C2218448   1.077   2.574   3.467
   97MYC    H3818449   0.967   2.569   3.465
   97MYC    H3918450   1.114   2.471   3.468
   97MYC    C2318451   1.121   2.643   3.598
   97MYC    H4018452   1.231   2.643   3.602
   97MYC    H4118453   1.088   2.747   3.599
   97MYC    C2418454   1.066   2.571   3.724
   97MYC    H4218455   0.957   2.582   3.727
   97MYC    H4318456   1.088   2.464   3.716
   97MYC    C2518457   1.127   2.624   3.856
   97MYC    H4418458   1.236   2.611   3.852
   97MYC    H4518459   1.107   2.731   3.864
   97MYC    C2618460   1.071   2.551   3.980
   97MYC    H4618461   0.963   2.569   3.987
   97MYC    H4718462   1.085   2.443   3.968
   97MYC    C2718463   1.139   2.596   4.112
   97MYC    H4818464   1.247   2.578   4.104
   97MYC    H4918465   1.125   2.704   4.125
   97MYC    C2818466   1.083   2.522   4.235
   97MYC    H5018467   0.976   2.541   4.244
   97MYC    H5118468   1.095   2.413   4.221
   97MYC    C2918469   1.153   2.563   4.367
   97MYC    H5218470   1.261   2.541   4.359
   97MYC    H5318471   1.144   2.672   4.380
   97MYC    C3018472   1.096   2.492   4.491
   97MYC    H5418473   0.989   2.517   4.500
   97MYC    H5518474   1.103   2.383   4.478
   97MYC    C3118475   1.168   2.532   4.621
   97MYC    H5618476   1.273   2.501   4.615
   97MYC    H5718477   1.167   2.641   4.631
   97MYC    C3218478   1.105   2.470   4.748
   97MYC    H5818479   0.999   2.500   4.753
   97MYC    H5918480   1.106   2.361   4.740
   97MYC    C3318481   1.176   2.512   4.878
   97MYC    H6018482   1.280   2.477   4.875
   97MYC    H6118483   1.180   2.622   4.882
   97MYC    C3418484   1.107   2.459   5.005
   97MYC    H6218485   1.001   2.491   5.004
   97MYC    H6318486   1.108   2.350   5.004
   97MYC    C3518487   1.173   2.510   5.135
   97MYC    H6418488   1.278   2.479   5.137
   97MYC    H6518489   1.171   2.620   5.135
   97MYC    C3618490   1.102   2.458   5.262
   97MYC    H6618491   0.995   2.482   5.256
   97MYC    H6718492   1.111   2.349   5.266
   97MYC    C3718493   1.160   2.519   5.392
   97MYC    H6818494   1.268   2.504   5.394
   97MYC    H6918495   1.142   2.627   5.391
   97MYC    C3818496   1.097   2.458   5.519
   97MYC    H7018497   0.988   2.466   5.514
   97MYC    H7118498   1.122   2.351   5.523
   97MYC    C3918499   1.146   2.526   5.649
   97MYC    H7218500   1.255   2.530   5.649
   97MYC    H7318501   1.110   2.630   5.650
   97MYC    C4018502   1.097   2.454   5.777
   97MYC    H7418503   0.988   2.445   5.774
   97MYC    H7518504   1.138   2.352   5.778
   97MYC    C4118505   1.139   2.527   5.906
   97MYC    H7618506   1.247   2.543   5.906
   97MYC    H7718507   1.091   2.626   5.908
   97MYC    C4218508   1.099   2.449   6.034
   97MYC    H7818509   0.991   2.432   6.034
   97MYC    H7918510   1.148   2.351   6.033
   97MYC    C4318511   1.138   2.523   6.163
   97MYC    H8018512   1.114   2.461   6.251
   97MYC    H8118513   1.084   2.618   6.172
   97MYC    H8218514   1.246   2.544   6.165
   98MYC   HH1518515   0.531   3.881   6.297
   98MYC    C8018516   0.581   3.831   6.213
   98MYC   H10018517   0.667   3.892   6.183
   98MYC   H10118518   0.618   3.734   6.248
   98MYC    C7918519   0.483   3.813   6.095
   98MYC   H10218520   0.448   3.913   6.064
   98MYC   H10318521   0.396   3.757   6.129
   98MYC    C7818522   0.546   3.741   5.974
   98MYC   HH1418523   0.573   3.639   6.003
   98MYC   H10418524   0.638   3.792   5.946
   98MYC    C7718525   0.452   3.737   5.852
   98MYC   H10618526   0.426   3.840   5.824
   98MYC   H10718527   0.358   3.687   5.879
   98MYC    C7618528   0.514   3.666   5.730
   98MYC   H10818529   0.534   3.561   5.755
   98MYC   H10918530   0.610   3.713   5.706
   98MYC    C7518531   0.423   3.673   5.605
   98MYC   H11018532   0.405   3.778   5.581
   98MYC   H11118533   0.325   3.628   5.628
   98MYC    C7418534   0.484   3.602   5.482
   98MYC   H11218535   0.493   3.495   5.503
   98MYC   H11318536   0.585   3.641   5.465
   98MYC    C7318537   0.400   3.624   5.355
   98MYC   HH1318538   0.392   3.731   5.335
   98MYC   H11418539   0.298   3.587   5.372
   98MYC    C7218540   0.460   3.554   5.231
   98MYC   H11518541   0.458   3.445   5.246
   98MYC   H11618542   0.565   3.583   5.221
   98MYC    C7118543   0.385   3.590   5.102
   98MYC   H11718544   0.390   3.699   5.087
   98MYC   H11818545   0.279   3.563   5.111
   98MYC    C7018546   0.445   3.521   4.978
   98MYC   H11918547   0.432   3.412   4.987
   98MYC   H12018548   0.552   3.540   4.974
   98MYC    C6918549   0.381   3.570   4.847
   98MYC   H12118550   0.395   3.678   4.838
   98MYC   H12218551   0.272   3.552   4.850
   98MYC    C6818552   0.440   3.501   4.723
   98MYC   HH1218553   0.417   3.394   4.727
   98MYC   H12318554   0.550   3.510   4.726
   98MYC    C6718555   0.388   3.560   4.592
   98MYC   H12418556   0.411   3.667   4.589
   98MYC   H12518557   0.279   3.550   4.589
   98MYC    C6618558   0.448   3.493   4.468
   98MYC   H12618559   0.419   3.387   4.466
   98MYC   H12718560   0.558   3.496   4.473
   98MYC    C6518561   0.402   3.561   4.338
   98MYC   H12818562   0.433   3.666   4.340
   98MYC   H12918563   0.292   3.559   4.334
   98MYC    C6418564   0.457   3.495   4.210
   98MYC   H13018565   0.425   3.390   4.206
   98MYC   H13118566   0.567   3.495   4.212
   98MYC    C6318567   0.408   3.570   4.086
   98MYC   HH1118568   0.443   3.674   4.090
   98MYC   H13218569   0.298   3.573   4.089
   98MYC    C6218570   0.452   3.508   3.952
   98MYC   H13318571   0.417   3.404   3.945
   98MYC   H13418572   0.561   3.507   3.945
   98MYC    C6118573   0.393   3.590   3.836
   98MYC   H13518574   0.435   3.692   3.839
   98MYC   H13618575   0.286   3.602   3.854
   98MYC    C6018576   0.409   3.533   3.696
   98MYC   H13718577   0.313   3.520   3.648
   98MYC    C5818578   0.523   3.585   3.611
   98MYC   H13818579   0.600   3.644   3.660
   98MYC    C5918580   0.519   3.439   3.649
   98MYC   H13918581   0.493   3.367   3.572
   98MYC   H14018582   0.591   3.404   3.722
   98MYC    C5718583   0.486   3.641   3.475
   98MYC   HH1018584   0.488   3.750   3.481
   98MYC   H14118585   0.382   3.613   3.450
   98MYC    C5618586   0.577   3.596   3.359
   98MYC   H14218587   0.578   3.486   3.353
   98MYC   H14318588   0.680   3.629   3.378
   98MYC    C5518589   0.526   3.655   3.227
   98MYC   H14418590   0.523   3.764   3.235
   98MYC   H14518591   0.422   3.622   3.211
   98MYC    C5418592   0.609   3.616   3.103
   98MYC   H14618593   0.614   3.507   3.094
   98MYC   H14718594   0.711   3.653   3.115
   98MYC    C5318595   0.545   3.676   2.976
   98MYC   H14818596   0.536   3.784   2.987
   98MYC   H14918597   0.444   3.635   2.965
   98MYC    C5218598   0.623   3.646   2.847
   98MYC    H9918599   0.632   3.538   2.835
   98MYC   H15018600   0.724   3.687   2.855
   98MYC    C5118601   0.556   3.707   2.723
   98MYC    H9718602   0.554   3.817   2.732
   98MYC    H9818603   0.452   3.673   2.717
   98MYC    C5018604   0.630   3.667   2.594
   98MYC    H9518605   0.634   3.558   2.589
   98MYC    H9618606   0.734   3.703   2.599
   98MYC    C4918607   0.564   3.722   2.467
   98MYC    H9318608   0.575   3.831   2.463
   98MYC    H9418609   0.457   3.700   2.469
   98MYC    C4818610   0.625   3.658   2.341
   98MYC    H9118611   0.617   3.549   2.350
   98MYC    H9218612   0.732   3.682   2.335
   98MYC    C4718613   0.555   3.702   2.211
   98MYC    H8918614   0.573   3.809   2.193
   98MYC    H9018615   0.447   3.689   2.223
   98MYC    C4618616   0.603   3.620   2.090
   98MYC    H8718617   0.592   3.513   2.112
   98MYC    H8818618   0.709   3.638   2.073
   98MYC    C4518619   0.522   3.649   1.962
   98MYC    H8518620   0.532   3.755   1.936
   98MYC    H8618621   0.416   3.631   1.984
   98MYC    C4418622   0.564   3.562   1.842
   98MYC    H8318623   0.487   3.571   1.764
   98MYC    H8418624   0.563   3.456   1.873
   98MYC    C1818625   0.700   3.597   1.783
   98MYC    H3118626   0.759   3.665   1.844
   98MYC    C1718627   0.777   3.493   1.703
   98MYC    H3018628   0.728   3.398   1.688
   98MYC    C1918629   0.716   3.612   1.633
   98MYC    H3218630   0.630   3.593   1.570
   98MYC    H3318631   0.785   3.687   1.597
   98MYC    C1618632   0.929   3.481   1.710
   98MYC    H2818633   0.975   3.579   1.726
   98MYC    H2918634   0.965   3.447   1.613
   98MYC    C1518635   0.979   3.383   1.818
   98MYC    H2618636   1.081   3.353   1.790
   98MYC    H2718637   0.918   3.291   1.817
   98MYC    C1418638   0.983   3.443   1.960
   98MYC    H2418639   0.881   3.466   1.994
   98MYC    H2518640   1.036   3.538   1.956
   98MYC    C1318641   1.052   3.350   2.063
   98MYC    H2218642   1.133   3.294   2.013
   98MYC    H2318643   0.981   3.275   2.098
   98MYC    C1218644   1.113   3.426   2.183
   98MYC    H2018645   1.034   3.485   2.231
   98MYC    H2118646   1.186   3.498   2.144
   98MYC    C1118647   1.185   3.336   2.286
   98MYC    H1818648   1.269   3.392   2.330
   98MYC    H1918649   1.229   3.250   2.234
   98MYC    C1018650   1.094   3.285   2.400
   98MYC    H1618651   1.144   3.200   2.449
   98MYC    H1718652   1.001   3.246   2.357
   98MYC     C918653   1.063   3.392   2.507
   98MYC    H1418654   1.025   3.483   2.459
   98MYC    H1518655   1.157   3.420   2.557
   98MYC     C818656   0.960   3.346   2.611
   98MYC    H1218657   0.995   3.254   2.660
   98MYC    H1318658   0.868   3.321   2.558
   98MYC     C718659   0.924   3.451   2.718
   98MYC    H1018660   0.832   3.419   2.768
   98MYC    H1118661   0.903   3.547   2.669
   98MYC     C618662   1.032   3.471   2.826
   98MYC     H818663   1.127   3.501   2.779
   98MYC     H918664   1.051   3.375   2.876
   98MYC     C518665   0.993   3.579   2.931
   98MYC     H618666   0.886   3.571   2.954
   98MYC     H718667   1.009   3.678   2.886
   98MYC     C418668   1.073   3.570   3.063
   98MYC     H418669   1.086   3.671   3.102
   98MYC     H518670   1.173   3.532   3.041
   98MYC     C218671   1.005   3.484   3.174
   98MYC     H218672   0.921   3.544   3.214
   98MYC     O318673   0.951   3.363   3.120
   98MYC     H318674   0.933   3.379   3.025
   98MYC     C118675   1.101   3.452   3.292
   98MYC     H118676   1.138   3.549   3.329
   98MYC    C8118677   1.226   3.373   3.246
   98MYC    O8218678   1.223   3.263   3.195
   98MYC    O8318679   1.344   3.432   3.278
   98MYC   H10518680   1.413   3.370   3.250
   98MYC    C2018681   1.034   3.381   3.413
   98MYC    H3418682   0.959   3.308   3.378
   98MYC    H3518683   1.112   3.322   3.464
   98MYC    C2118684   0.971   3.477   3.516
   98MYC    H3618685   1.043   3.557   3.538
   98MYC    H3718686   0.882   3.524   3.474
   98MYC    C2218687   0.936   3.406   3.649
   98MYC    H3818688   0.851   3.339   3.633
   98MYC    H3918689   1.021   3.343   3.678
   98MYC    C2318690   0.906   3.503   3.765
   98MYC    H4018691   0.984   3.580   3.769
   98MYC    H4118692   0.811   3.555   3.746
   98MYC    C2418693   0.900   3.432   3.902
   98MYC    H4218694   0.819   3.358   3.901
   98MYC    H4318695   0.993   3.376   3.916
   98MYC    C2518696   0.882   3.529   4.020
   98MYC    H4418697   0.961   3.605   4.017
   98MYC    H4518698   0.786   3.581   4.010
   98MYC    C2618699   0.887   3.457   4.157
   98MYC    H4618700   0.809   3.380   4.160
   98MYC    H4718701   0.984   3.405   4.166
   98MYC    C2718702   0.870   3.553   4.276
   98MYC    H4818703   0.948   3.630   4.272
   98MYC    H4918704   0.774   3.604   4.268
   98MYC    C2818705   0.878   3.480   4.412
   98MYC    H5018706   0.803   3.400   4.415
   98MYC    H5118707   0.976   3.431   4.421
   98MYC    C2918708   0.857   3.574   4.532
   98MYC    H5218709   0.931   3.655   4.528
   98MYC    H5318710   0.758   3.621   4.526
   98MYC    C3018711   0.871   3.501   4.668
   98MYC    H5418712   0.798   3.419   4.672
   98MYC    H5518713   0.971   3.457   4.674
   98MYC    C3118714   0.848   3.594   4.788
   98MYC    H5618715   0.919   3.678   4.782
   98MYC    H5718716   0.747   3.637   4.784
   98MYC    C3218717   0.867   3.522   4.923
   98MYC    H5818718   0.795   3.440   4.931
   98MYC    H5918719   0.967   3.478   4.927
   98MYC    C3318720   0.850   3.617   5.043
   98MYC    H6018721   0.921   3.700   5.033
   98MYC    H6118722   0.749   3.660   5.042
   98MYC    C3418723   0.874   3.548   5.179
   98MYC    H6218724   0.799   3.469   5.193
   98MYC    H6318725   0.972   3.500   5.178
   98MYC    C3518726   0.867   3.647   5.297
   98MYC    H6418727   0.938   3.728   5.280
   98MYC    H6518728   0.767   3.692   5.301
   98MYC    C3618729   0.898   3.580   5.432
   98MYC    H6618730   0.824   3.501   5.451
   98MYC    H6718731   0.996   3.530   5.425
   98MYC    C3718732   0.900   3.678   5.550
   98MYC    H6818733   0.968   3.761   5.528
   98MYC    H6918734   0.800   3.722   5.563
   98MYC    C3818735   0.944   3.610   5.681
   98MYC    H7018736   0.883   3.520   5.697
   98MYC    H7118737   1.048   3.577   5.671
   98MYC    C3918738   0.931   3.700   5.806
   98MYC    H7218739   0.982   3.795   5.789
   98MYC    H7318740   0.825   3.722   5.823
   98MYC    C4018741   0.991   3.632   5.932
   98MYC    H7418742   0.971   3.524   5.927
   98MYC    H7518743   1.100   3.644   5.931
   98MYC    C4118744   0.934   3.685   6.064
   98MYC    H7618745   0.946   3.794   6.070
   98MYC    H7718746   0.826   3.665   6.066
   98MYC    C4218747   0.999   3.618   6.187
   98MYC    H7818748   1.015   3.512   6.168
   98MYC    H7918749   1.098   3.663   6.204
   98MYC    C4318750   0.915   3.632   6.315
   98MYC    H8018751   0.967   3.587   6.401
   98MYC    H8118752   0.819   3.579   6.303
   98MYC    H8218753   0.894   3.737   6.338
   99MYC   HH1518754   0.789   4.331   6.221
   99MYC    C8018755   0.845   4.293   6.135
   99MYC   H10018756   0.894   4.378   6.086
   99MYC   H10118757   0.923   4.225   6.172
   99MYC    C7918758   0.751   4.220   6.037
   99MYC   H10218759   0.675   4.291   6.003
   99MYC   H10318760   0.700   4.139   6.090
   99MYC    C7818761   0.826   4.162   5.915
   99MYC   HH1418762   0.905   4.094   5.950
   99MYC   H10418763   0.877   4.244   5.862
   99MYC    C7718764   0.737   4.085   5.815
   99MYC   H10618765   0.687   4.003   5.867
   99MYC   H10718766   0.803   4.039   5.741
   99MYC    C7618767   0.631   4.172   5.743
   99MYC   H10818768   0.679   4.263   5.704
   99MYC   H10918769   0.556   4.205   5.817
   99MYC    C7518770   0.557   4.101   5.628
   99MYC   H11018771   0.476   4.166   5.593
   99MYC   H11118772   0.510   4.009   5.665
   99MYC    C7418773   0.649   4.068   5.508
   99MYC   H11218774   0.724   3.994   5.538
   99MYC   H11318775   0.703   4.159   5.479
   99MYC    C7318776   0.574   4.014   5.385
   99MYC   HH1318777   0.492   4.081   5.360
   99MYC   H11418778   0.530   3.916   5.409
   99MYC    C7218779   0.668   4.000   5.264
   99MYC   H11518780   0.750   3.930   5.288
   99MYC   H11618781   0.715   4.098   5.245
   99MYC    C7118782   0.597   3.953   5.137
   99MYC   H11718783   0.506   4.013   5.122
   99MYC   H11818784   0.565   3.849   5.148
   99MYC    C7018785   0.687   3.968   5.013
   99MYC   H11918786   0.772   3.899   5.020
   99MYC   H12018787   0.728   4.069   5.011
   99MYC    C6918788   0.611   3.944   4.881
   99MYC   H12118789   0.522   4.008   4.879
   99MYC   H12218790   0.577   3.840   4.875
   99MYC    C6818791   0.698   3.977   4.759
   99MYC   HH1218792   0.778   3.903   4.750
   99MYC   H12318793   0.747   4.075   4.774
   99MYC    C6718794   0.618   3.983   4.628
   99MYC   H12418795   0.536   4.055   4.639
   99MYC   H12518796   0.573   3.885   4.608
   99MYC    C6618797   0.706   4.024   4.509
   99MYC   H12618798   0.785   3.950   4.496
   99MYC   H12718799   0.755   4.120   4.531
   99MYC    C6518800   0.627   4.038   4.379
   99MYC   H12818801   0.551   4.117   4.389
   99MYC   H12918802   0.573   3.945   4.358
   99MYC    C6418803   0.719   4.071   4.260
   99MYC   H13018804   0.796   3.993   4.252
   99MYC   H13118805   0.771   4.166   4.278
   99MYC    C6318806   0.642   4.079   4.127
   99MYC   HH1118807   0.570   4.162   4.131
   99MYC   H13218808   0.585   3.987   4.113
   99MYC    C6218809   0.737   4.098   4.008
   99MYC   H13318810   0.815   4.021   4.012
   99MYC   H13418811   0.788   4.195   4.015
   99MYC    C6118812   0.664   4.088   3.874
   99MYC   H13518813   0.593   4.170   3.864
   99MYC   H13618814   0.606   3.995   3.872
   99MYC    C6018815   0.760   4.086   3.757
   99MYC   H13718816   0.847   4.023   3.774
   99MYC    C5818817   0.703   4.083   3.618
   99MYC   H13818818   0.595   4.094   3.609
   99MYC    C5918819   0.779   4.205   3.665
   99MYC   H13918820   0.878   4.222   3.624
   99MYC   H14018821   0.722   4.295   3.686
   99MYC    C5718822   0.760   3.984   3.518
   99MYC   HH1018823   0.719   3.884   3.537
   99MYC   H14118824   0.869   3.977   3.530
   99MYC    C5618825   0.729   4.027   3.375
   99MYC   H14218826   0.764   4.129   3.360
   99MYC   H14318827   0.620   4.028   3.360
   99MYC    C5518828   0.794   3.936   3.270
   99MYC   H14418829   0.757   3.833   3.280
   99MYC   H14518830   0.902   3.932   3.287
   99MYC    C5418831   0.765   3.988   3.129
   99MYC   H14618832   0.778   4.097   3.129
   99MYC   H14718833   0.660   3.969   3.106
   99MYC    C5318834   0.853   3.930   3.017
   99MYC   H14818835   0.838   3.821   3.011
   99MYC   H14918836   0.959   3.947   3.040
   99MYC    C5218837   0.817   3.996   2.884
   99MYC    H9918838   0.831   4.105   2.894
   99MYC   H15018839   0.710   3.980   2.864
   99MYC    C5118840   0.898   3.949   2.762
   99MYC    H9718841   0.883   3.841   2.748
   99MYC    H9818842   1.005   3.966   2.779
   99MYC    C5018843   0.852   4.025   2.637
   99MYC    H9518844   0.878   4.131   2.647
   99MYC    H9618845   0.742   4.019   2.630
   99MYC    C4918846   0.911   3.972   2.506
   99MYC    H9318847   0.893   3.864   2.499
   99MYC    H9418848   1.019   3.987   2.505
   99MYC    C4818849   0.847   4.042   2.384
   99MYC    H9118850   0.879   4.147   2.382
   99MYC    H9218851   0.738   4.041   2.395
   99MYC    C4718852   0.884   3.977   2.250
   99MYC    H8918853   0.868   3.869   2.258
   99MYC    H9018854   0.991   3.993   2.231
   99MYC    C4618855   0.803   4.031   2.132
   99MYC    H8718856   0.825   4.138   2.120
   99MYC    H8818857   0.697   4.023   2.157
   99MYC    C4518858   0.831   3.956   2.000
   99MYC    H8518859   0.799   3.852   2.010
   99MYC    H8618860   0.940   3.955   1.983
   99MYC    C4418861   0.764   4.019   1.876
   99MYC    H8318862   0.797   3.963   1.788
   99MYC    H8418863   0.802   4.121   1.864
   99MYC    C1818864   0.611   4.021   1.880
   99MYC    H3118865   0.568   3.998   1.977
   99MYC    C1718866   0.539   4.125   1.796
   99MYC    H3018867   0.600   4.185   1.730
   99MYC    C1918868   0.527   3.980   1.761
   99MYC    H3218869   0.579   3.945   1.672
   99MYC    H3318870   0.433   3.930   1.780
   99MYC    C1618871   0.420   4.204   1.852
   99MYC    H2818872   0.354   4.139   1.910
   99MYC    H2918873   0.360   4.241   1.768
   99MYC    C1518874   0.461   4.325   1.939
   99MYC    H2618875   0.374   4.390   1.953
   99MYC    H2718876   0.536   4.385   1.886
   99MYC    C1418877   0.516   4.286   2.079
   99MYC    H2418878   0.601   4.218   2.065
   99MYC    H2518879   0.439   4.231   2.134
   99MYC    C1318880   0.567   4.405   2.163
   99MYC    H2218881   0.487   4.479   2.173
   99MYC    H2318882   0.648   4.454   2.108
   99MYC    C1218883   0.617   4.363   2.303
   99MYC    H2018884   0.680   4.274   2.292
   99MYC    H2118885   0.532   4.335   2.366
   99MYC    C1118886   0.701   4.473   2.371
   99MYC    H1818887   0.641   4.565   2.382
   99MYC    H1918888   0.784   4.497   2.304
   99MYC    C1018889   0.762   4.434   2.508
   99MYC    H1618890   0.852   4.493   2.524
   99MYC    H1718891   0.794   4.329   2.505
   99MYC     C918892   0.669   4.455   2.630
   99MYC    H1418893   0.577   4.397   2.617
   99MYC    H1518894   0.640   4.561   2.634
   99MYC     C818895   0.736   4.415   2.763
   99MYC    H1218896   0.836   4.460   2.769
   99MYC    H1318897   0.750   4.306   2.764
   99MYC     C718898   0.656   4.457   2.888
   99MYC    H1018899   0.552   4.422   2.877
   99MYC    H1118900   0.652   4.567   2.893
   99MYC     C618901   0.715   4.401   3.019
   99MYC     H818902   0.813   4.446   3.038
   99MYC     H918903   0.732   4.294   3.007
   99MYC     C518904   0.622   4.421   3.141
   99MYC     H618905   0.651   4.351   3.221
   99MYC     H718906   0.521   4.392   3.112
   99MYC     C418907   0.616   4.565   3.199
   99MYC     H418908   0.516   4.578   3.243
   99MYC     H518909   0.624   4.639   3.119
   99MYC     C218910   0.720   4.593   3.310
   99MYC     H218911   0.711   4.511   3.383
   99MYC     O318912   0.852   4.592   3.256
   99MYC     H318913   0.863   4.673   3.204
   99MYC     C118914   0.693   4.727   3.386
   99MYC     H118915   0.591   4.722   3.424
   99MYC    C8118916   0.701   4.850   3.293
   99MYC    O8218917   0.799   4.882   3.228
   99MYC    O8318918   0.590   4.928   3.295
   99MYC   H10518919   0.611   5.004   3.237
   99MYC    C2018920   0.783   4.747   3.511
   99MYC    H3418921   0.887   4.761   3.481
   99MYC    H3518922   0.752   4.841   3.559
   99MYC    C2118923   0.773   4.632   3.614
   99MYC    H3618924   0.669   4.597   3.619
   99MYC    H3718925   0.835   4.548   3.581
   99MYC    C2218926   0.816   4.675   3.756
   99MYC    H3818927   0.919   4.711   3.754
   99MYC    H3918928   0.753   4.759   3.788
   99MYC    C2318929   0.804   4.561   3.860
   99MYC    H4018930   0.706   4.512   3.850
   99MYC    H4118931   0.881   4.485   3.841
   99MYC    C2418932   0.817   4.614   4.004
   99MYC    H4218933   0.912   4.669   4.014
   99MYC    H4318934   0.737   4.686   4.022
   99MYC    C2518935   0.811   4.505   4.113
   99MYC    H4418936   0.723   4.442   4.098
   99MYC    H4518937   0.899   4.440   4.105
   99MYC    C2618938   0.806   4.568   4.254
   99MYC    H4618939   0.884   4.645   4.262
   99MYC    H4718940   0.710   4.620   4.266
   99MYC    C2718941   0.824   4.468   4.370
   99MYC    H4818942   0.749   4.388   4.361
   99MYC    H4918943   0.923   4.421   4.362
   99MYC    C2818944   0.809   4.536   4.507
   99MYC    H5018945   0.869   4.628   4.508
   99MYC    H5118946   0.705   4.566   4.520
   99MYC    C2918947   0.852   4.448   4.626
   99MYC    H5218948   0.802   4.350   4.619
   99MYC    H5318949   0.960   4.429   4.620
   99MYC    C3018950   0.818   4.513   4.761
   99MYC    H5418951   0.856   4.615   4.763
   99MYC    H5518952   0.708   4.520   4.769
   99MYC    C3118953   0.873   4.437   4.883
   99MYC    H5618954   0.851   4.330   4.874
   99MYC    H5718955   0.982   4.447   4.885
   99MYC    C3218956   0.814   4.489   5.015
   99MYC    H5818957   0.825   4.599   5.018
   99MYC    H5918958   0.706   4.469   5.016
   99MYC    C3318959   0.878   4.429   5.142
   99MYC    H6018960   0.874   4.320   5.137
   99MYC    H6118961   0.984   4.458   5.144
   99MYC    C3418962   0.808   4.478   5.270
   99MYC    H6218963   0.795   4.587   5.264
   99MYC    H6318964   0.707   4.435   5.275
   99MYC    C3518965   0.885   4.445   5.399
   99MYC    H6418966   0.895   4.336   5.410
   99MYC    H6518967   0.987   4.485   5.390
   99MYC    C3618968   0.819   4.504   5.525
   99MYC    H6618969   0.788   4.607   5.504
   99MYC    H6718970   0.727   4.448   5.548
   99MYC    C3718971   0.912   4.505   5.648
   99MYC    H6818972   0.938   4.402   5.675
   99MYC    H6918973   1.005   4.556   5.620
   99MYC    C3818974   0.851   4.577   5.770
   99MYC    H7018975   0.805   4.671   5.737
   99MYC    H7118976   0.771   4.516   5.813
   99MYC    C3918977   0.956   4.611   5.878
   99MYC    H7218978   0.999   4.518   5.917
   99MYC    H7318979   1.039   4.666   5.831
   99MYC    C4018980   0.900   4.696   5.994
   99MYC    H7418981   0.849   4.784   5.952
   99MYC    H7518982   0.825   4.638   6.048
   99MYC    C4118983   1.010   4.743   6.092
   99MYC    H7618984   1.056   4.656   6.140
   99MYC    H7718985   1.089   4.794   6.035
   99MYC    C4218986   0.956   4.840   6.200
   99MYC    H7818987   0.907   4.925   6.152
   99MYC    H7918988   0.880   4.789   6.260
   99MYC    C4318989   1.067   4.893   6.293
   99MYC    H8018990   1.025   4.963   6.367
   99MYC    H8118991   1.144   4.946   6.236
   99MYC    H8218992   1.115   4.811   6.348
  100MYC   HH1518993   0.269   4.915   6.204
  100MYC    C8018994   0.306   4.867   6.113
  100MYC   H10018995   0.416   4.869   6.116
  100MYC   H10118996   0.274   4.762   6.114
  100MYC    C7918997   0.253   4.939   5.988
  100MYC   H10218998   0.285   5.044   5.991
  100MYC   H10318999   0.144   4.939   5.990
  100MYC    C7819000   0.302   4.875   5.856
  100MYC   HH1419001   0.274   4.769   5.855
  100MYC   H10419002   0.412   4.879   5.853
  100MYC    C7719003   0.244   4.944   5.731
  100MYC   H10619004   0.269   5.051   5.734
  100MYC   H10719005   0.134   4.937   5.734
  100MYC    C7619006   0.295   4.883   5.599
  100MYC   H10819007   0.275   4.775   5.598
  100MYC   H10919008   0.404   4.895   5.595
  100MYC    C7519009   0.231   4.948   5.476
  100MYC   H11019010   0.247   5.057   5.480
  100MYC   H11119011   0.123   4.932   5.478
  100MYC    C7419012   0.288   4.896   5.343
  100MYC   H11219013   0.269   4.788   5.334
  100MYC   H11319014   0.397   4.909   5.342
  100MYC    C7319015   0.228   4.968   5.221
  100MYC   HH1319016   0.245   5.076   5.232
  100MYC   H11419017   0.119   4.953   5.220
  100MYC    C7219018   0.286   4.921   5.087
  100MYC   H11519019   0.261   4.815   5.071
  100MYC   H11619020   0.396   4.928   5.090
  100MYC    C7119021   0.234   5.004   4.969
  100MYC   H11719022   0.259   5.110   4.984
  100MYC   H11819023   0.124   4.998   4.966
  100MYC    C7019024   0.290   4.959   4.833
  100MYC   H11919025   0.261   4.854   4.815
  100MYC   H12019026   0.399   4.962   4.835
  100MYC    C6919027   0.238   5.046   4.717
  100MYC   H12119028   0.270   5.150   4.732
  100MYC   H12219029   0.129   5.045   4.718
  100MYC    C6819030   0.287   4.998   4.579
  100MYC   HH1219031   0.265   4.891   4.569
  100MYC   H12319032   0.396   5.009   4.573
  100MYC    C6719033   0.221   5.074   4.463
  100MYC   H12419034   0.241   5.181   4.472
  100MYC   H12519035   0.113   5.060   4.469
  100MYC    C6619036   0.270   5.025   4.325
  100MYC   H12619037   0.267   4.915   4.324
  100MYC   H12719038   0.375   5.054   4.312
  100MYC    C6519039   0.185   5.078   4.209
  100MYC   H12819040   0.186   5.188   4.209
  100MYC   H12919041   0.081   5.046   4.222
  100MYC    C6419042   0.236   5.026   4.073
  100MYC   H13019043   0.249   4.917   4.079
  100MYC   H13119044   0.335   5.069   4.053
  100MYC    C6319045   0.142   5.058   3.956
  100MYC   HH1119046   0.128   5.166   3.948
  100MYC   H13219047   0.044   5.013   3.974
  100MYC    C6219048   0.198   5.004   3.823
  100MYC   H13319049   0.217   4.896   3.833
  100MYC   H13419050   0.295   5.051   3.805
  100MYC    C6119051   0.107   5.027   3.702
  100MYC   H13519052   0.080   5.133   3.696
  100MYC   H13619053   0.013   4.971   3.715
  100MYC    C6019054   0.175   4.983   3.574
  100MYC   H13719055   0.194   4.876   3.571
  100MYC    C5819056   0.149   5.051   3.442
  100MYC   H13819057   0.082   5.136   3.442
  100MYC    C5919058   0.282   5.071   3.512
  100MYC   H13919059   0.370   5.022   3.471
  100MYC   H14019060   0.301   5.168   3.557
  100MYC    C5719061   0.143   4.970   3.313
  100MYC   HH1019062   0.038   4.949   3.289
  100MYC   H14119063   0.192   4.873   3.327
  100MYC    C5619064   0.211   5.044   3.196
  100MYC   H14219065   0.318   5.057   3.219
  100MYC   H14319066   0.168   5.144   3.186
  100MYC    C5519067   0.197   4.969   3.063
  100MYC   H14419068   0.092   4.968   3.033
  100MYC   H14519069   0.228   4.865   3.075
  100MYC    C5419070   0.281   5.033   2.950
  100MYC   H14619071   0.388   5.019   2.974
  100MYC   H14719072   0.262   5.141   2.946
  100MYC    C5319073   0.250   4.971   2.813
  100MYC   H14819074   0.145   4.990   2.790
  100MYC   H14919075   0.264   4.862   2.819
  100MYC    C5219076   0.337   5.026   2.699
  100MYC    H9919077   0.442   5.001   2.718
  100MYC   H15019078   0.328   5.135   2.696
  100MYC    C5119079   0.296   4.969   2.562
  100MYC    H9719080   0.189   4.988   2.545
  100MYC    H9819081   0.310   4.860   2.563
  100MYC    C5019082   0.376   5.030   2.446
  100MYC    H9519083   0.483   5.013   2.463
  100MYC    H9619084   0.360   5.139   2.444
  100MYC    C4919085   0.336   4.970   2.310
  100MYC    H9319086   0.228   4.986   2.294
  100MYC    H9419087   0.352   4.862   2.313
  100MYC    C4819088   0.414   5.030   2.192
  100MYC    H9119089   0.521   5.022   2.211
  100MYC    H9219090   0.390   5.137   2.183
  100MYC    C4719091   0.381   4.959   2.059
  100MYC    H8919092   0.274   4.968   2.038
  100MYC    H9019093   0.401   4.851   2.070
  100MYC    C4619094   0.462   5.013   1.940
  100MYC    H8719095   0.569   5.010   1.964
  100MYC    H8819096   0.436   5.118   1.924
  100MYC    C4519097   0.437   4.932   1.810
  100MYC    H8519098   0.331   4.935   1.783
  100MYC    H8619099   0.460   4.827   1.831
  100MYC    C4419100   0.523   4.979   1.691
  100MYC    H8319101   0.519   4.902   1.613
  100MYC    H8419102   0.628   4.986   1.722
  100MYC    C1819103   0.477   5.112   1.632
  100MYC    H3119104   0.414   5.168   1.699
  100MYC    C1719105   0.570   5.193   1.543
  100MYC    H3019106   0.665   5.147   1.520
  100MYC    C1919107   0.448   5.126   1.484
  100MYC    H3219108   0.465   5.039   1.420
  100MYC    H3319109   0.364   5.188   1.455
  100MYC    C1619110   0.578   5.345   1.555
  100MYC    H2819111   0.479   5.387   1.575
  100MYC    H2919112   0.609   5.386   1.458
  100MYC    C1519113   0.677   5.396   1.662
  100MYC    H2619114   0.676   5.506   1.661
  100MYC    H2719115   0.779   5.365   1.635
  100MYC    C1419116   0.646   5.347   1.806
  100MYC    H2419117   0.657   5.239   1.809
  100MYC    H2519118   0.542   5.370   1.831
  100MYC    C1319119   0.739   5.410   1.912
  100MYC    H2219120   0.719   5.517   1.920
  100MYC    H2319121   0.843   5.399   1.879
  100MYC    C1219122   0.724   5.344   2.051
  100MYC    H2019123   0.735   5.235   2.040
  100MYC    H2119124   0.623   5.362   2.090
  100MYC    C1119125   0.829   5.394   2.153
  100MYC    H1819126   0.805   5.496   2.185
  100MYC    H1919127   0.927   5.401   2.103
  100MYC    C1019128   0.847   5.303   2.277
  100MYC    H1619129   0.942   5.329   2.324
  100MYC    H1719130   0.856   5.199   2.243
  100MYC     C919131   0.736   5.312   2.383
  100MYC    H1419132   0.639   5.286   2.339
  100MYC    H1519133   0.729   5.416   2.418
  100MYC     C819134   0.765   5.219   2.503
  100MYC    H1219135   0.869   5.231   2.534
  100MYC    H1319136   0.754   5.115   2.471
  100MYC     C719137   0.674   5.245   2.625
  100MYC    H1019138   0.569   5.232   2.596
  100MYC    H1119139   0.686   5.349   2.656
  100MYC     C619140   0.706   5.151   2.744
  100MYC     H819141   0.812   5.159   2.770
  100MYC     H919142   0.690   5.047   2.713
  100MYC     C519143   0.620   5.179   2.870
  100MYC     H619144   0.623   5.092   2.935
  100MYC     H719145   0.516   5.191   2.838
  100MYC     C419146   0.659   5.306   2.949
  100MYC     H419147   0.568   5.362   2.973
  100MYC     H519148   0.720   5.372   2.887
  100MYC     C219149   0.734   5.276   3.082
  100MYC     H219150   0.670   5.209   3.141
  100MYC     O319151   0.857   5.211   3.053
  100MYC     H319152   0.837   5.127   3.008
  100MYC     C119153   0.758   5.404   3.167
  100MYC     H119154   0.658   5.446   3.186
  100MYC    C8119155   0.837   5.513   3.091
  100MYC    O8219156   0.955   5.507   3.064
  100MYC    O8319157   0.762   5.621   3.058
  100MYC   H10519158   0.824   5.683   3.016
  100MYC    C2019159   0.822   5.376   3.306
  100MYC    H3419160   0.906   5.306   3.296
  100MYC    H3519161   0.865   5.470   3.344
  100MYC    C2119162   0.721   5.324   3.410
  100MYC    H3619163   0.643   5.400   3.423
  100MYC    H3719164   0.671   5.233   3.374
  100MYC    C2219165   0.786   5.294   3.547
  100MYC    H3819166   0.830   5.193   3.545
  100MYC    H3919167   0.869   5.364   3.564
  100MYC    C2319168   0.687   5.305   3.664
  100MYC    H4019169   0.648   5.408   3.667
  100MYC    H4119170   0.601   5.239   3.648
  100MYC    C2419171   0.752   5.274   3.800
  100MYC    H4219172   0.772   5.166   3.806
  100MYC    H4319173   0.848   5.325   3.807
  100MYC    C2519174   0.665   5.317   3.920
  100MYC    H4419175   0.645   5.425   3.913
  100MYC    H4519176   0.567   5.266   3.915
  100MYC    C2619177   0.732   5.287   4.055
  100MYC    H4619178   0.743   5.178   4.067
  100MYC    H4719179   0.834   5.329   4.054
  100MYC    C2719180   0.656   5.345   4.176
  100MYC    H4819181   0.641   5.453   4.161
  100MYC    H4919182   0.556   5.299   4.181
  100MYC    C2819183   0.731   5.322   4.308
  100MYC    H5019184   0.743   5.214   4.324
  100MYC    H5119185   0.832   5.364   4.299
  100MYC    C2919186   0.662   5.384   4.430
  100MYC    H5219187   0.645   5.491   4.412
  100MYC    H5319188   0.564   5.337   4.445
  100MYC    C3019189   0.747   5.368   4.557
  100MYC    H5419190   0.768   5.261   4.573
  100MYC    H5519191   0.844   5.417   4.542
  100MYC    C3119192   0.681   5.424   4.685
  100MYC    H5619193   0.658   5.531   4.670
  100MYC    H5719194   0.586   5.372   4.703
  100MYC    C3219195   0.773   5.409   4.807
  100MYC    H5819196   0.805   5.304   4.815
  100MYC    H5919197   0.864   5.468   4.791
  100MYC    C3319198   0.708   5.451   4.940
  100MYC    H6019199   0.672   5.555   4.932
  100MYC    H6119200   0.621   5.388   4.960
  100MYC    C3419201   0.808   5.440   5.057
  100MYC    H6219202   0.854   5.341   5.056
  100MYC    H6319203   0.889   5.513   5.041
  100MYC    C3519204   0.745   5.464   5.196
  100MYC    H6419205   0.687   5.557   5.195
  100MYC    H6519206   0.676   5.382   5.218
  100MYC    C3619207   0.853   5.473   5.305
  100MYC    H6619208   0.922   5.388   5.295
  100MYC    H6719209   0.912   5.564   5.289
  100MYC    C3719210   0.798   5.474   5.449
  100MYC    H6819211   0.719   5.550   5.458
  100MYC    H6919212   0.752   5.377   5.470
  100MYC    C3819213   0.909   5.502   5.553
  100MYC    H7019214   0.994   5.436   5.533
  100MYC    H7119215   0.944   5.605   5.538
  100MYC    C3919216   0.864   5.484   5.699
  100MYC    H7219217   0.776   5.547   5.719
  100MYC    H7319218   0.834   5.380   5.715
  100MYC    C4019219   0.976   5.521   5.799
  100MYC    H7419220   1.066   5.462   5.776
  100MYC    H7519221   1.003   5.627   5.785
  100MYC    C4119222   0.938   5.498   5.946
  100MYC    H7619223   0.847   5.556   5.969
  100MYC    H7719224   0.913   5.393   5.961
  100MYC    C4219225   1.050   5.539   6.044
  100MYC    H7819226   1.140   5.481   6.021
  100MYC    H7919227   1.075   5.645   6.028
  100MYC    C4319228   1.013   5.518   6.192
  100MYC    H8019229   1.096   5.549   6.257
  100MYC    H8119230   0.991   5.413   6.212
  100MYC    H8219231   0.925   5.578   6.218
  101MYC   HH1519232   0.465   6.161   6.236
  101MYC    C8019233   0.507   6.102   6.154
  101MYC   H10019234   0.616   6.113   6.156
  101MYC   H10119235   0.483   5.996   6.171
  101MYC    C7919236   0.451   6.150   6.019
  101MYC   H10219237   0.471   6.257   6.008
  101MYC   H10319238   0.342   6.138   6.019
  101MYC    C7819239   0.510   6.074   5.898
  101MYC   HH1419240   0.494   5.967   5.910
  101MYC   H10419241   0.619   6.090   5.896
  101MYC    C7719242   0.450   6.120   5.764
  101MYC   H10619243   0.461   6.229   5.755
  101MYC   H10719244   0.343   6.098   5.763
  101MYC    C7619245   0.517   6.054   5.641
  101MYC   H10819246   0.511   5.945   5.651
  101MYC   H10919247   0.623   6.080   5.640
  101MYC    C7519248   0.452   6.097   5.508
  101MYC   H11019249   0.449   6.207   5.504
  101MYC   H11119250   0.348   6.062   5.505
  101MYC    C7419251   0.528   6.045   5.384
  101MYC   H11219252   0.535   5.935   5.389
  101MYC   H11319253   0.630   6.084   5.385
  101MYC    C7319254   0.459   6.085   5.252
  101MYC   HH1319255   0.440   6.193   5.253
  101MYC   H11419256   0.361   6.036   5.246
  101MYC    C7219257   0.541   6.049   5.126
  101MYC   H11519258   0.562   5.942   5.125
  101MYC   H11619259   0.638   6.101   5.131
  101MYC    C7119260   0.469   6.088   4.995
  101MYC   H11719261   0.441   6.194   5.000
  101MYC   H11819262   0.375   6.031   4.988
  101MYC    C7019263   0.553   6.064   4.869
  101MYC   H11919264   0.581   5.958   4.863
  101MYC   H12019265   0.646   6.122   4.876
  101MYC    C6919266   0.478   6.104   4.740
  101MYC   H12119267   0.451   6.210   4.745
  101MYC   H12219268   0.385   6.047   4.734
  101MYC    C6819269   0.560   6.080   4.612
  101MYC   HH1219270   0.586   5.973   4.605
  101MYC   H12319271   0.655   6.135   4.617
  101MYC    C6719272   0.484   6.122   4.484
  101MYC   H12419273   0.466   6.230   4.487
  101MYC   H12519274   0.386   6.073   4.483
  101MYC    C6619275   0.559   6.086   4.355
  101MYC   H12619276   0.575   5.977   4.352
  101MYC   H12719277   0.658   6.133   4.355
  101MYC    C6519278   0.483   6.129   4.228
  101MYC   H12819279   0.479   6.238   4.222
  101MYC   H12919280   0.379   6.093   4.233
  101MYC    C6419281   0.548   6.074   4.099
  101MYC   H13019282   0.552   5.964   4.106
  101MYC   H13119283   0.651   6.109   4.092
  101MYC    C6319284   0.472   6.113   3.971
  101MYC   HH1119285   0.476   6.222   3.958
  101MYC   H13219286   0.366   6.085   3.981
  101MYC    C6219287   0.531   6.044   3.846
  101MYC   H13319288   0.528   5.935   3.860
  101MYC   H13419289   0.637   6.072   3.837
  101MYC    C6119290   0.458   6.080   3.716
  101MYC   H13519291   0.458   6.189   3.703
  101MYC   H13619292   0.353   6.049   3.723
  101MYC    C6019293   0.522   6.013   3.595
  101MYC   H13719294   0.519   5.904   3.601
  101MYC    C5819295   0.510   6.074   3.458
  101MYC   H13819296   0.459   6.170   3.452
  101MYC    C5919297   0.643   6.073   3.529
  101MYC   H13919298   0.720   6.006   3.491
  101MYC   H14019299   0.681   6.168   3.567
  101MYC    C5719300   0.485   5.988   3.335
  101MYC   HH1019301   0.377   5.969   3.327
  101MYC   H14119302   0.533   5.889   3.346
  101MYC    C5619303   0.536   6.055   3.207
  101MYC   H14219304   0.646   6.053   3.205
  101MYC   H14319305   0.507   6.161   3.210
  101MYC    C5519306   0.480   5.993   3.077
  101MYC   H14419307   0.371   5.986   3.086
  101MYC   H14519308   0.518   5.891   3.064
  101MYC    C5419309   0.515   6.079   2.953
  101MYC   H14619310   0.621   6.066   2.928
  101MYC   H14719311   0.503   6.185   2.979
  101MYC    C5319312   0.427   6.052   2.829
  101MYC   H14819313   0.416   6.147   2.776
  101MYC   H14919314   0.326   6.022   2.860
  101MYC    C5219315   0.484   5.947   2.731
  101MYC    H9919316   0.488   5.848   2.778
  101MYC   H15019317   0.587   5.976   2.706
  101MYC    C5119318   0.400   5.942   2.601
  101MYC    H9719319   0.371   6.044   2.574
  101MYC    H9819320   0.307   5.887   2.620
  101MYC    C5019321   0.474   5.879   2.481
  101MYC    H9519322   0.479   5.770   2.493
  101MYC    H9619323   0.577   5.917   2.478
  101MYC    C4919324   0.405   5.915   2.347
  101MYC    H9319325   0.393   6.024   2.342
  101MYC    H9419326   0.304   5.872   2.345
  101MYC    C4819327   0.483   5.869   2.223
  101MYC    H9119328   0.489   5.759   2.222
  101MYC    H9219329   0.586   5.907   2.228
  101MYC    C4719330   0.417   5.918   2.092
  101MYC    H8919331   0.414   6.028   2.093
  101MYC    H9019332   0.314   5.883   2.090
  101MYC    C4619333   0.491   5.871   1.965
  101MYC    H8719334   0.508   5.763   1.973
  101MYC    H8819335   0.589   5.919   1.959
  101MYC    C4519336   0.410   5.901   1.837
  101MYC    H8519337   0.404   6.009   1.822
  101MYC    H8619338   0.307   5.867   1.850
  101MYC    C4419339   0.468   5.832   1.711
  101MYC    H8319340   0.386   5.815   1.640
  101MYC    H8419341   0.505   5.732   1.737
  101MYC    C1819342   0.575   5.914   1.641
  101MYC    H3119343   0.579   6.017   1.673
  101MYC    C1719344   0.704   5.852   1.592
  101MYC    H3019345   0.718   5.745   1.607
  101MYC    C1919346   0.597   5.891   1.494
  101MYC    H3219347   0.543   5.810   1.447
  101MYC    H3319348   0.613   5.978   1.432
  101MYC    C1619349   0.835   5.931   1.596
  101MYC    H2819350   0.818   6.028   1.643
  101MYC    H2919351   0.867   5.952   1.493
  101MYC    C1519352   0.950   5.858   1.668
  101MYC    H2619353   1.039   5.921   1.659
  101MYC    H2719354   0.973   5.765   1.616
  101MYC    C1419355   0.924   5.829   1.818
  101MYC    H2419356   0.845   5.754   1.827
  101MYC    H2519357   0.888   5.920   1.867
  101MYC    C1319358   1.051   5.780   1.889
  101MYC    H2219359   1.128   5.858   1.880
  101MYC    H2319360   1.089   5.690   1.840
  101MYC    C1219361   1.030   5.751   2.039
  101MYC    H2019362   0.958   5.670   2.051
  101MYC    H2119363   0.987   5.840   2.085
  101MYC    C1119364   1.163   5.714   2.110
  101MYC    H1819365   1.237   5.793   2.093
  101MYC    H1919366   1.203   5.622   2.065
  101MYC    C1019367   1.149   5.691   2.262
  101MYC    H1619368   1.246   5.658   2.300
  101MYC    H1719369   1.078   5.609   2.281
  101MYC     C919370   1.104   5.817   2.340
  101MYC    H1419371   1.002   5.843   2.312
  101MYC    H1519372   1.168   5.902   2.312
  101MYC     C819373   1.110   5.798   2.492
  101MYC    H1219374   1.212   5.771   2.521
  101MYC    H1319375   1.046   5.713   2.521
  101MYC     C719376   1.066   5.923   2.571
  101MYC    H1019377   0.961   5.946   2.548
  101MYC    H1119378   1.126   6.009   2.538
  101MYC     C619379   1.082   5.904   2.722
  101MYC     H819380   1.187   5.878   2.743
  101MYC     H919381   1.021   5.818   2.753
  101MYC     C519382   1.044   6.029   2.806
  101MYC     H619383   0.936   6.044   2.804
  101MYC     H719384   1.089   6.117   2.759
  101MYC     C419385   1.095   6.022   2.952
  101MYC     H419386   1.103   6.125   2.990
  101MYC     H519387   1.197   5.983   2.952
  101MYC     C219388   1.008   5.943   3.054
  101MYC     H219389   0.917   6.001   3.070
  101MYC     O319390   0.971   5.815   3.001
  101MYC     H319391   1.048   5.756   3.010
  101MYC     C119392   1.080   5.925   3.191
  101MYC     H119393   1.106   6.026   3.226
  101MYC    C8119394   1.211   5.844   3.179
  101MYC    O8219395   1.219   5.733   3.130
  101MYC    O8319396   1.318   5.899   3.241
  101MYC   H10519397   1.388   5.832   3.235
  101MYC    C2019398   0.989   5.863   3.300
  101MYC    H3419399   0.884   5.889   3.281
  101MYC    H3519400   0.994   5.753   3.295
  101MYC    C2119401   1.025   5.912   3.442
  101MYC    H3619402   1.134   5.908   3.456
  101MYC    H3719403   0.997   6.017   3.450
  101MYC    C2219404   0.959   5.833   3.555
  101MYC    H3819405   0.854   5.811   3.530
  101MYC    H3919406   1.009   5.736   3.566
  101MYC    C2319407   0.964   5.909   3.689
  101MYC    H4019408   1.066   5.948   3.704
  101MYC    H4119409   0.897   5.996   3.683
  101MYC    C2419410   0.926   5.823   3.811
  101MYC    H4219411   0.828   5.776   3.794
  101MYC    H4319412   0.999   5.741   3.820
  101MYC    C2519413   0.922   5.904   3.942
  101MYC    H4419414   1.012   5.967   3.948
  101MYC    H4519415   0.836   5.971   3.941
  101MYC    C2619416   0.916   5.813   4.067
  101MYC    H4619417   0.828   5.748   4.061
  101MYC    H4719418   1.005   5.748   4.067
  101MYC    C2719419   0.912   5.893   4.198
  101MYC    H4819420   0.987   5.973   4.195
  101MYC    H4919421   0.814   5.942   4.208
  101MYC    C2819422   0.939   5.805   4.322
  101MYC    H5019423   0.866   5.722   4.324
  101MYC    H5119424   1.038   5.759   4.312
  101MYC    C2919425   0.932   5.883   4.454
  101MYC    H5219426   0.997   5.971   4.447
  101MYC    H5319427   0.829   5.919   4.469
  101MYC    C3019428   0.975   5.799   4.576
  101MYC    H5419429   0.914   5.708   4.581
  101MYC    H5519430   1.079   5.767   4.562
  101MYC    C3119431   0.961   5.877   4.707
  101MYC    H5619432   1.016   5.972   4.698
  101MYC    H5719433   0.856   5.903   4.724
  101MYC    C3219434   1.015   5.801   4.830
  101MYC    H5819435   0.964   5.704   4.838
  101MYC    H5919436   1.122   5.780   4.816
  101MYC    C3319437   0.995   5.880   4.960
  101MYC    H6019438   1.038   5.980   4.948
  101MYC    H6119439   0.888   5.894   4.978
  101MYC    C3419440   1.059   5.813   5.084
  101MYC    H6219441   1.018   5.712   5.096
  101MYC    H6319442   1.167   5.803   5.067
  101MYC    C3519443   1.035   5.895   5.212
  101MYC    H6419444   1.070   5.997   5.197
  101MYC    H6519445   0.927   5.900   5.231
  101MYC    C3619446   1.104   5.836   5.337
  101MYC    H6619447   1.069   5.734   5.354
  101MYC    H6719448   1.212   5.830   5.318
  101MYC    C3719449   1.079   5.921   5.462
  101MYC    H6819450   1.112   6.024   5.443
  101MYC    H6919451   0.971   5.926   5.482
  101MYC    C3819452   1.150   5.868   5.588
  101MYC    H7019453   1.117   5.765   5.608
  101MYC    H7119454   1.259   5.864   5.570
  101MYC    C3919455   1.123   5.955   5.712
  101MYC    H7219456   1.155   6.058   5.692
  101MYC    H7319457   1.014   5.959   5.730
  101MYC    C4019458   1.194   5.905   5.840
  101MYC    H7419459   1.167   5.800   5.857
  101MYC    H7519460   1.302   5.908   5.824
  101MYC    C4119461   1.157   5.988   5.964
  101MYC    H7619462   1.180   6.093   5.946
  101MYC    H7719463   1.048   5.981   5.981
  101MYC    C4219464   1.230   5.941   6.092
  101MYC    H7819465   1.213   5.833   6.106
  101MYC    H7919466   1.337   5.955   6.080
  101MYC    C4319467   1.183   6.015   6.218
  101MYC    H8019468   1.240   5.982   6.306
  101MYC    H8119469   1.077   5.996   6.238
  101MYC    H8219470   1.197   6.124   6.207
  102MYC   HH1519471   1.200   0.026   6.261
  102MYC    C8019472   1.272   0.037   6.179
  102MYC   H10019473   1.322   0.134   6.190
  102MYC   H10119474   1.348   6.408   6.189
  102MYC    C7919475   1.201   0.028   6.043
  102MYC   H10219476   1.123   0.104   6.039
  102MYC   H10319477   1.152   6.380   6.035
  102MYC    C7819478   1.297   0.046   5.923
  102MYC   HH1419479   1.380   6.425   5.931
  102MYC   H10419480   1.340   0.147   5.927
  102MYC    C7719481   1.227   0.026   5.787
  102MYC   H10619482   1.141   0.093   5.780
  102MYC   H10719483   1.189   6.373   5.781
  102MYC    C7619484   1.321   0.053   5.667
  102MYC   H10819485   1.410   6.440   5.676
  102MYC   H10919486   1.354   0.157   5.671
  102MYC    C7519487   1.254   0.026   5.531
  102MYC   H11019488   1.161   0.084   5.524
  102MYC   H11119489   1.226   6.370   5.525
  102MYC    C7419490   1.345   0.061   5.412
  102MYC   H11219491   1.439   0.005   5.420
  102MYC   H11319492   1.371   0.168   5.417
  102MYC    C7319493   1.280   0.033   5.275
  102MYC   HH1319494   1.186   0.089   5.267
  102MYC   H11419495   1.254   6.376   5.269
  102MYC    C7219496   1.372   0.069   5.156
  102MYC   H11519497   1.464   0.011   5.163
  102MYC   H11619498   1.399   0.175   5.163
  102MYC    C7119499   1.305   0.043   5.020
  102MYC   H11719500   1.212   0.102   5.014
  102MYC   H11819501   1.277   6.387   5.012
  102MYC    C7019502   1.396   0.081   4.901
  102MYC   H11919503   1.487   0.020   4.904
  102MYC   H12019504   1.426   0.186   4.910
  102MYC    C6919505   1.325   0.060   4.766
  102MYC   H12119506   1.231   0.118   4.766
  102MYC   H12219507   1.297   6.404   4.755
  102MYC    C6819508   1.410   0.103   4.644
  102MYC   HH1219509   1.500   0.041   4.639
  102MYC   H12319510   1.442   0.207   4.657
  102MYC    C6719511   1.330   0.091   4.513
  102MYC   H12419512   1.239   0.150   4.521
  102MYC   H12519513   1.300   6.436   4.499
  102MYC    C6619514   1.408   0.137   4.388
  102MYC   H12619515   1.493   0.069   4.370
  102MYC   H12719516   1.450   0.237   4.406
  102MYC    C6519517   1.317   0.142   4.264
  102MYC   H12819518   1.237   0.214   4.282
  102MYC   H12919519   1.270   0.044   4.250
  102MYC    C6419520   1.390   0.180   4.134
  102MYC   H13019521   1.457   0.098   4.104
  102MYC   H13119522   1.452   0.269   4.151
  102MYC    C6319523   1.290   0.209   4.021
  102MYC   HH1119524   1.233   0.299   4.047
  102MYC   H13219525   1.218   0.127   4.014
  102MYC    C6219526   1.355   0.229   3.882
  102MYC   H13319527   1.398   0.134   3.850
  102MYC   H13419528   1.438   0.301   3.889
  102MYC    C6119529   1.253   0.279   3.779
  102MYC   H13519530   1.229   0.384   3.800
  102MYC   H13619531   1.159   0.223   3.791
  102MYC    C6019532   1.299   0.262   3.635
  102MYC   H13719533   1.318   0.158   3.610
  102MYC    C5819534   1.241   0.350   3.528
  102MYC   H13819535   1.176   0.432   3.559
  102MYC    C5919536   1.387   0.364   3.565
  102MYC   H13919537   1.461   0.327   3.494
  102MYC   H14019538   1.417   0.452   3.620
  102MYC    C5719539   1.195   0.288   3.397
  102MYC   HH1019540   1.089   0.260   3.405
  102MYC   H14119541   1.251   0.195   3.379
  102MYC    C5619542   1.213   0.381   3.276
  102MYC   H14219543   1.318   0.413   3.271
  102MYC   H14319544   1.153   0.472   3.290
  102MYC    C5519545   1.174   0.312   3.144
  102MYC   H14419546   1.066   0.293   3.145
  102MYC   H14519547   1.224   0.215   3.139
  102MYC    C5419548   1.211   0.393   3.019
  102MYC   H14619549   1.319   0.411   3.017
  102MYC   H14719550   1.165   0.492   3.024
  102MYC    C5319551   1.170   0.322   2.889
  102MYC   H14819552   1.062   0.330   2.876
  102MYC   H14919553   1.193   0.215   2.899
  102MYC    C5219554   1.243   0.375   2.765
  102MYC    H9919555   1.351   0.358   2.777
  102MYC   H15019556   1.228   0.483   2.755
  102MYC    C5119557   1.195   0.304   2.637
  102MYC    H9719558   1.097   0.344   2.609
  102MYC    H9819559   1.182   0.197   2.658
  102MYC    C5019560   1.292   0.317   2.517
  102MYC    H9519561   1.389   0.274   2.544
  102MYC    H9619562   1.308   0.423   2.494
  102MYC    C4919563   1.236   0.244   2.394
  102MYC    H9319564   1.144   0.294   2.363
  102MYC    H9419565   1.208   0.142   2.422
  102MYC    C4819566   1.333   0.237   2.274
  102MYC    H9119567   1.422   0.180   2.303
  102MYC    H9219568   1.366   0.338   2.247
  102MYC    C4719569   1.265   0.170   2.153
  102MYC    H8919570   1.180   0.232   2.122
  102MYC    H9019571   1.224   0.073   2.184
  102MYC    C4619572   1.359   0.149   2.033
  102MYC    H8719573   1.442   0.084   2.064
  102MYC    H8819574   1.402   0.246   2.005
  102MYC    C4519575   1.286   0.086   1.912
  102MYC    H8519576   1.209   0.156   1.877
  102MYC    H8619577   1.234   6.445   1.945
  102MYC    C4419578   1.379   0.049   1.795
  102MYC    H8319579   1.317   0.007   1.714
  102MYC    H8419580   1.446   6.419   1.827
  102MYC    C1819581   1.459   0.167   1.740
  102MYC    H3119582   1.396   0.253   1.717
  102MYC    C1719583   1.599   0.195   1.789
  102MYC    H3019584   1.642   0.125   1.861
  102MYC    C1919585   1.576   0.143   1.649
  102MYC    H3219586   1.603   0.040   1.628
  102MYC    H3319587   1.589   0.212   1.566
  102MYC    C1619588   1.646   0.339   1.809
  102MYC    H2819589   1.561   0.404   1.832
  102MYC    H2919590   1.689   0.376   1.715
  102MYC    C1519591   1.753   0.359   1.919
  102MYC    H2619592   1.791   0.461   1.910
  102MYC    H2719593   1.838   0.292   1.901
  102MYC    C1419594   1.704   0.337   2.064
  102MYC    H2419595   1.700   0.229   2.085
  102MYC    H2519596   1.602   0.375   2.076
  102MYC    C1319597   1.797   0.406   2.166
  102MYC    H2219598   1.796   0.514   2.149
  102MYC    H2319599   1.900   0.373   2.148
  102MYC    C1219600   1.761   0.379   2.314
  102MYC    H2019601   1.767   0.270   2.332
  102MYC    H2119602   1.658   0.409   2.334
  102MYC    C1119603   1.857   0.452   2.411
  102MYC    H1819604   1.830   0.558   2.418
  102MYC    H1919605   1.958   0.450   2.369
  102MYC    C1019606   1.864   0.389   2.552
  102MYC    H1619607   1.958   0.422   2.599
  102MYC    H1719608   1.871   0.280   2.543
  102MYC     C919609   1.749   0.425   2.648
  102MYC    H1419610   1.652   0.410   2.598
  102MYC    H1519611   1.755   0.531   2.674
  102MYC     C819612   1.754   0.339   2.776
  102MYC    H1219613   1.858   0.332   2.810
  102MYC    H1319614   1.723   0.237   2.751
  102MYC     C719615   1.669   0.391   2.893
  102MYC    H1019616   1.566   0.409   2.860
  102MYC    H1119617   1.710   0.488   2.924
  102MYC     C619618   1.669   0.293   3.012
  102MYC     H819619   1.772   0.262   3.035
  102MYC     H919620   1.617   0.202   2.982
  102MYC     C519621   1.602   0.346   3.141
  102MYC     H619622   1.597   0.264   3.214
  102MYC     H719623   1.499   0.372   3.119
  102MYC     C419624   1.668   0.469   3.209
  102MYC     H419625   1.603   0.498   3.292
  102MYC     H519626   1.669   0.554   3.140
  102MYC     C219627   1.811   0.441   3.263
  102MYC     H219628   1.811   0.339   3.301
  102MYC     O319629   1.907   0.451   3.158
  102MYC     H319630   1.931   0.545   3.149
  102MYC     C119631   1.849   0.536   3.381
  102MYC     H119632   1.774   0.518   3.460
  102MYC    C8119633   1.837   0.686   3.345
  102MYC    O8219634   1.758   0.762   3.397
  102MYC    O8319635   1.921   0.728   3.248
  102MYC   H10519636   1.903   0.823   3.238
  102MYC    C2019637   1.987   0.503   3.445
  102MYC    H3419638   2.068   0.531   3.377
  102MYC    H3519639   1.998   0.568   3.533
  102MYC    C2119640   2.004   0.355   3.487
  102MYC    H3619641   1.906   0.309   3.505
  102MYC    H3719642   2.049   0.300   3.403
  102MYC    C2219643   2.090   0.334   3.614
  102MYC    H3819644   2.117   0.228   3.620
  102MYC    H3919645   2.183   0.391   3.606
  102MYC    C2319646   2.014   0.372   3.743
  102MYC    H4019647   1.987   0.478   3.741
  102MYC    H4119648   1.920   0.315   3.746
  102MYC    C2419649   2.093   0.344   3.872
  102MYC    H4219650   2.125   0.239   3.873
  102MYC    H4319651   2.183   0.406   3.874
  102MYC    C2519652   2.008   0.372   3.998
  102MYC    H4419653   1.978   0.477   3.999
  102MYC    H4519654   1.915   0.313   3.992
  102MYC    C2619655   2.080   0.338   4.129
  102MYC    H4619656   2.113   0.233   4.126
  102MYC    H4719657   2.171   0.399   4.138
  102MYC    C2719658   1.991   0.359   4.253
  102MYC    H4819659   1.966   0.466   4.262
  102MYC    H4919660   1.897   0.305   4.240
  102MYC    C2819661   2.059   0.311   4.383
  102MYC    H5019662   2.080   0.203   4.373
  102MYC    H5119663   2.155   0.362   4.395
  102MYC    C2919664   1.974   0.334   4.509
  102MYC    H5219665   1.961   0.442   4.524
  102MYC    H5319666   1.874   0.291   4.494
  102MYC    C3019667   2.038   0.271   4.634
  102MYC    H5419668   2.037   0.162   4.623
  102MYC    H5519669   2.143   0.302   4.639
  102MYC    C3119670   1.967   0.309   4.765
  102MYC    H5619671   1.971   0.418   4.776
  102MYC    H5719672   1.862   0.280   4.760
  102MYC    C3219673   2.033   0.243   4.888
  102MYC    H5819674   2.012   0.136   4.886
  102MYC    H5919675   2.142   0.255   4.881
  102MYC    C3319676   1.985   0.304   5.020
  102MYC    H6019677   2.009   0.411   5.021
  102MYC    H6119678   1.876   0.295   5.028
  102MYC    C3419679   2.050   0.238   5.144
  102MYC    H6219680   2.018   0.133   5.150
  102MYC    H6319681   2.159   0.238   5.132
  102MYC    C3519682   2.014   0.312   5.274
  102MYC    H6419683   2.048   0.416   5.266
  102MYC    H6519684   1.905   0.315   5.284
  102MYC    C3619685   2.076   0.248   5.400
  102MYC    H6619686   2.044   0.144   5.408
  102MYC    H6719687   2.185   0.249   5.392
  102MYC    C3719688   2.033   0.324   5.527
  102MYC    H6819689   2.059   0.430   5.516
  102MYC    H6919690   1.924   0.319   5.536
  102MYC    C3819691   2.097   0.271   5.657
  102MYC    H7019692   2.079   0.163   5.665
  102MYC    H7119693   2.205   0.287   5.654
  102MYC    C3919694   2.038   0.341   5.781
  102MYC    H7219695   2.047   0.450   5.769
  102MYC    H7319696   1.931   0.319   5.787
  102MYC    C4019697   2.105   0.301   5.914
  102MYC    H7419698   2.103   0.192   5.925
  102MYC    H7519699   2.210   0.332   5.912
  102MYC    C4119700   2.035   0.365   6.036
  102MYC    H7619701   2.033   0.474   6.023
  102MYC    H7719702   1.930   0.332   6.038
  102MYC    C4219703   2.101   0.331   6.171
  102MYC    H7819704   2.107   0.222   6.183
  102MYC    H7919705   2.205   0.369   6.171
  102MYC    C4319706   2.026   0.391   6.291
  102MYC    H8019707   2.022   0.501   6.284
  102MYC    H8119708   2.076   0.365   6.385
  102MYC    H8219709   1.923   0.353   6.295
  103MYC   HH1519710   1.997   1.128   6.176
  103MYC    C8019711   1.925   1.113   6.094
  103MYC   H10019712   1.885   1.011   6.101
  103MYC   H10119713   1.843   1.184   6.108
  103MYC    C7919714   1.993   1.136   5.958
  103MYC   H10219715   2.079   1.067   5.949
  103MYC   H10319716   2.034   1.238   5.955
  103MYC    C7819717   1.898   1.115   5.838
  103MYC   HH1419718   1.812   1.182   5.848
  103MYC   H10419719   1.859   1.012   5.840
  103MYC    C7719720   1.968   1.140   5.703
  103MYC   H10619721   2.056   1.075   5.695
  103MYC   H10719722   2.004   1.244   5.700
  103MYC    C7619723   1.876   1.115   5.581
  103MYC   H10819724   1.789   1.181   5.586
  103MYC   H10919725   1.840   1.012   5.583
  103MYC    C7519726   1.951   1.140   5.448
  103MYC   H11019727   2.041   1.078   5.445
  103MYC   H11119728   1.984   1.245   5.445
  103MYC    C7419729   1.867   1.111   5.322
  103MYC   H11219730   1.778   1.175   5.321
  103MYC   H11319731   1.832   1.007   5.325
  103MYC    C7319732   1.949   1.134   5.193
  103MYC   HH1319733   2.039   1.072   5.197
  103MYC   H11419734   1.982   1.238   5.191
  103MYC    C7219735   1.873   1.102   5.063
  103MYC   H11519736   1.783   1.165   5.057
  103MYC   H11619737   1.840   0.998   5.063
  103MYC    C7119738   1.962   1.128   4.939
  103MYC   H11719739   2.051   1.065   4.946
  103MYC   H11819740   1.996   1.232   4.942
  103MYC    C7019741   1.892   1.103   4.804
  103MYC   H11919742   1.802   1.165   4.798
  103MYC   H12019743   1.860   0.998   4.798
  103MYC    C6919744   1.986   1.136   4.686
  103MYC   H12119745   2.072   1.068   4.688
  103MYC   H12219746   2.025   1.237   4.701
  103MYC    C6819747   1.919   1.129   4.548
  103MYC   HH1219748   1.830   1.193   4.548
  103MYC   H12319749   1.886   1.027   4.527
  103MYC    C6719750   2.016   1.177   4.438
  103MYC   H12419751   2.099   1.106   4.429
  103MYC   H12519752   2.059   1.272   4.469
  103MYC    C6619753   1.951   1.195   4.299
  103MYC   H12619754   1.860   1.256   4.309
  103MYC   H12719755   1.920   1.098   4.259
  103MYC    C6519756   2.049   1.265   4.202
  103MYC   H12819757   2.138   1.202   4.192
  103MYC   H12919758   2.082   1.359   4.248
  103MYC    C6419759   1.992   1.297   4.063
  103MYC   H13019760   2.054   1.377   4.020
  103MYC   H13119761   1.891   1.338   4.072
  103MYC    C6319762   1.993   1.177   3.965
  103MYC   HH1119763   1.926   1.099   4.002
  103MYC   H13219764   2.094   1.135   3.962
  103MYC    C6219765   1.951   1.221   3.824
  103MYC   H13319766   2.004   1.313   3.798
  103MYC   H13419767   1.844   1.245   3.823
  103MYC    C6119768   1.981   1.116   3.715
  103MYC   H13519769   1.922   1.025   3.732
  103MYC   H13619770   2.087   1.088   3.721
  103MYC    C6019771   1.954   1.173   3.576
  103MYC   H13719772   1.997   1.272   3.564
  103MYC    C5819773   1.954   1.085   3.454
  103MYC   H13819774   1.965   0.978   3.468
  103MYC    C5919775   1.825   1.146   3.503
  103MYC   H13919776   1.782   1.228   3.445
  103MYC   H14019777   1.752   1.080   3.549
  103MYC    C5719778   2.025   1.136   3.330
  103MYC   HH1019779   2.126   1.094   3.325
  103MYC   H14119780   2.038   1.245   3.336
  103MYC    C5619781   1.952   1.104   3.198
  103MYC   H14219782   1.850   1.145   3.203
  103MYC   H14319783   1.943   0.996   3.186
  103MYC    C5519784   2.025   1.165   3.078
  103MYC   H14419785   2.122   1.114   3.065
  103MYC   H14519786   2.047   1.270   3.098
  103MYC    C5419787   1.945   1.156   2.947
  103MYC   H14619788   1.848   1.205   2.962
  103MYC   H14719789   1.925   1.051   2.923
  103MYC    C5319790   2.019   1.222   2.830
  103MYC   H14819791   2.108   1.163   2.805
  103MYC   H14919792   2.053   1.322   2.860
  103MYC    C5219793   1.930   1.236   2.705
  103MYC    H9919794   1.840   1.293   2.733
  103MYC   H15019795   1.897   1.137   2.673
  103MYC    C5119796   1.999   1.308   2.588
  103MYC    H9719797   2.083   1.246   2.552
  103MYC    H9819798   2.041   1.403   2.621
  103MYC    C5019799   1.900   1.334   2.473
  103MYC    H9519800   1.824   1.404   2.508
  103MYC    H9619801   1.848   1.240   2.450
  103MYC    C4919802   1.964   1.388   2.344
  103MYC    H9319803   2.037   1.315   2.306
  103MYC    H9419804   2.017   1.481   2.365
  103MYC    C4819805   1.856   1.413   2.237
  103MYC    H9119806   1.791   1.496   2.269
  103MYC    H9219807   1.791   1.324   2.230
  103MYC    C4719808   1.910   1.444   2.096
  103MYC    H8919809   1.973   1.360   2.062
  103MYC    H9019810   1.973   1.534   2.099
  103MYC    C4619811   1.794   1.464   1.996
  103MYC    H8719812   1.733   1.550   2.029
  103MYC    H8819813   1.729   1.376   1.999
  103MYC    C4519814   1.839   1.487   1.851
  103MYC    H8519815   1.900   1.402   1.819
  103MYC    H8619816   1.903   1.576   1.848
  103MYC    C4419817   1.720   1.507   1.753
  103MYC    H8319818   1.755   1.568   1.669
  103MYC    H8419819   1.641   1.565   1.802
  103MYC    C1819820   1.664   1.379   1.692
  103MYC    H3119821   1.735   1.330   1.626
  103MYC    C1719822   1.567   1.287   1.763
  103MYC    H3019823   1.538   1.317   1.864
  103MYC    C1919824   1.520   1.374   1.648
  103MYC    H3219825   1.457   1.459   1.671
  103MYC    H3319826   1.499   1.327   1.553
  103MYC    C1619827   1.579   1.136   1.746
  103MYC    H2819828   1.682   1.106   1.771
  103MYC    H2919829   1.565   1.110   1.641
  103MYC    C1519830   1.482   1.054   1.833
  103MYC    H2619831   1.382   1.100   1.830
  103MYC    H2719832   1.515   1.058   1.937
  103MYC    C1419833   1.469   0.908   1.785
  103MYC    H2419834   1.566   0.872   1.749
  103MYC    H2519835   1.402   0.905   1.699
  103MYC    C1319836   1.418   0.809   1.893
  103MYC    H2219837   1.379   0.720   1.841
  103MYC    H2319838   1.334   0.854   1.947
  103MYC    C1219839   1.527   0.764   1.992
  103MYC    H2019840   1.566   0.850   2.047
  103MYC    H2119841   1.612   0.723   1.935
  103MYC    C1119842   1.480   0.655   2.091
  103MYC    H1819843   1.566   0.593   2.118
  103MYC    H1919844   1.410   0.588   2.041
  103MYC    C1019845   1.418   0.708   2.223
  103MYC    H1619846   1.360   0.627   2.269
  103MYC    H1719847   1.347   0.789   2.201
  103MYC     C919848   1.525   0.755   2.324
  103MYC    H1419849   1.581   0.839   2.282
  103MYC    H1519850   1.596   0.673   2.339
  103MYC     C819851   1.467   0.795   2.460
  103MYC    H1219852   1.398   0.716   2.495
  103MYC    H1319853   1.407   0.887   2.450
  103MYC     C719854   1.577   0.816   2.566
  103MYC    H1019855   1.641   0.900   2.538
  103MYC    H1119856   1.640   0.726   2.569
  103MYC     C619857   1.520   0.839   2.708
  103MYC     H819858   1.447   0.761   2.730
  103MYC     H919859   1.466   0.935   2.708
  103MYC     C519860   1.629   0.839   2.818
  103MYC     H619861   1.688   0.931   2.812
  103MYC     H719862   1.697   0.756   2.798
  103MYC     C419863   1.573   0.821   2.961
  103MYC     H419864   1.654   0.781   3.023
  103MYC     H519865   1.496   0.743   2.959
  103MYC     C219866   1.518   0.948   3.031
  103MYC     H219867   1.604   1.015   3.048
  103MYC     O319868   1.423   1.017   2.949
  103MYC     H319869   1.336   0.975   2.964
  103MYC     C119870   1.456   0.914   3.169
  103MYC     H119871   1.532   0.855   3.222
  103MYC    C8119872   1.331   0.822   3.158
  103MYC    O8219873   1.329   0.707   3.198
  103MYC    O8319874   1.220   0.881   3.109
  103MYC   H10519875   1.148   0.816   3.120
  103MYC    C2019876   1.429   1.039   3.257
  103MYC    H3419877   1.523   1.094   3.269
  103MYC    H3519878   1.358   1.106   3.208
  103MYC    C2119879   1.376   0.999   3.396
  103MYC    H3619880   1.270   0.971   3.388
  103MYC    H3719881   1.430   0.910   3.430
  103MYC    C2219882   1.390   1.107   3.505
  103MYC    H3819883   1.494   1.144   3.507
  103MYC    H3919884   1.326   1.193   3.483
  103MYC    C2319885   1.355   1.048   3.643
  103MYC    H4019886   1.250   1.017   3.643
  103MYC    H4119887   1.414   0.957   3.656
  103MYC    C2419888   1.380   1.140   3.763
  103MYC    H4219889   1.477   1.190   3.753
  103MYC    H4319890   1.303   1.218   3.767
  103MYC    C2519891   1.379   1.057   3.893
  103MYC    H4419892   1.288   0.995   3.895
  103MYC    H4519893   1.464   0.988   3.890
  103MYC    C2619894   1.386   1.139   4.023
  103MYC    H4619895   1.474   1.204   4.022
  103MYC    H4719896   1.297   1.203   4.030
  103MYC    C2719897   1.392   1.045   4.145
  103MYC    H4819898   1.308   0.974   4.139
  103MYC    H4919899   1.484   0.986   4.139
  103MYC    C2819900   1.387   1.117   4.280
  103MYC    H5019901   1.472   1.185   4.289
  103MYC    H5119902   1.296   1.177   4.286
  103MYC    C2919903   1.389   1.016   4.396
  103MYC    H5219904   1.303   0.947   4.386
  103MYC    H5319905   1.480   0.955   4.389
  103MYC    C3019906   1.383   1.082   4.535
  103MYC    H5419907   1.467   1.153   4.544
  103MYC    H5519908   1.290   1.140   4.544
  103MYC    C3119909   1.391   0.979   4.649
  103MYC    H5619910   1.309   0.907   4.640
  103MYC    H5719911   1.485   0.922   4.640
  103MYC    C3219912   1.385   1.045   4.788
  103MYC    H5819913   1.461   1.125   4.793
  103MYC    H5919914   1.287   1.093   4.800
  103MYC    C3319915   1.410   0.946   4.903
  103MYC    H6019916   1.340   0.862   4.895
  103MYC    H6119917   1.512   0.906   4.895
  103MYC    C3419918   1.393   1.014   5.040
  103MYC    H6219919   1.449   1.108   5.041
  103MYC    H6319920   1.287   1.041   5.053
  103MYC    C3519921   1.439   0.929   5.159
  103MYC    H6419922   1.391   0.830   5.155
  103MYC    H6519923   1.547   0.914   5.153
  103MYC    C3619924   1.403   0.997   5.293
  103MYC    H6619925   1.433   1.102   5.288
  103MYC    H6719926   1.293   0.996   5.303
  103MYC    C3719927   1.467   0.933   5.417
  103MYC    H6819928   1.444   0.825   5.419
  103MYC    H6919929   1.576   0.944   5.412
  103MYC    C3819930   1.413   0.999   5.546
  103MYC    H7019931   1.428   1.107   5.539
  103MYC    H7119932   1.305   0.982   5.551
  103MYC    C3919933   1.479   0.948   5.676
  103MYC    H7219934   1.475   0.839   5.679
  103MYC    H7319935   1.585   0.977   5.677
  103MYC    C4019936   1.407   1.005   5.800
  103MYC    H7419937   1.408   1.115   5.795
  103MYC    H7519938   1.302   0.974   5.797
  103MYC    C4119939   1.469   0.961   5.934
  103MYC    H7619940   1.475   0.851   5.936
  103MYC    H7719941   1.571   1.000   5.942
  103MYC    C4219942   1.385   1.009   6.055
  103MYC    H7819943   1.377   1.119   6.052
  103MYC    H7919944   1.283   0.969   6.047
  103MYC    C4319945   1.445   0.967   6.191
  103MYC    H8019946   1.380   1.002   6.272
  103MYC    H8119947   1.544   1.010   6.204
  103MYC    H8219948   1.452   0.858   6.197
  104MYC   HH1519949   1.742   1.900   6.284
  104MYC    C8019950   1.693   1.926   6.189
  104MYC   H10019951   1.587   1.898   6.197
  104MYC   H10119952   1.699   2.035   6.176
  104MYC    C7919953   1.760   1.853   6.072
  104MYC   H10219954   1.755   1.745   6.088
  104MYC   H10319955   1.867   1.880   6.070
  104MYC    C7819956   1.697   1.888   5.935
  104MYC   HH1419957   1.699   1.997   5.923
  104MYC   H10419958   1.591   1.858   5.936
  104MYC    C7719959   1.767   1.822   5.815
  104MYC   H10619960   1.759   1.713   5.823
  104MYC   H10719961   1.874   1.847   5.818
  104MYC    C7619962   1.708   1.868   5.680
  104MYC   H10819963   1.714   1.978   5.675
  104MYC   H10919964   1.602   1.842   5.676
  104MYC    C7519965   1.780   1.809   5.557
  104MYC   H11019966   1.765   1.700   5.555
  104MYC   H11119967   1.888   1.826   5.566
  104MYC    C7419968   1.730   1.871   5.425
  104MYC   H11219969   1.745   1.980   5.430
  104MYC   H11319970   1.622   1.854   5.415
  104MYC    C7319971   1.802   1.817   5.300
  104MYC   HH1319972   1.779   1.710   5.288
  104MYC   H11419973   1.911   1.825   5.314
  104MYC    C7219974   1.762   1.893   5.172
  104MYC   H11519975   1.784   1.999   5.185
  104MYC   H11619976   1.654   1.883   5.156
  104MYC    C7119977   1.836   1.842   5.046
  104MYC   H11719978   1.811   1.736   5.030
  104MYC   H11819979   1.944   1.846   5.064
  104MYC    C7019980   1.802   1.922   4.919
  104MYC   H11919981   1.827   2.028   4.935
  104MYC   H12019982   1.695   1.916   4.900
  104MYC    C6919983   1.879   1.870   4.796
  104MYC   H12119984   1.857   1.764   4.784
  104MYC   H12219985   1.987   1.879   4.814
  104MYC    C6819986   1.843   1.943   4.665
  104MYC   HH1219987   1.870   2.049   4.672
  104MYC   H12319988   1.735   1.938   4.649
  104MYC    C6719989   1.915   1.880   4.544
  104MYC   H12419990   1.897   1.772   4.546
  104MYC   H12519991   2.024   1.893   4.554
  104MYC    C6619992   1.870   1.934   4.406
  104MYC   H12619993   1.908   2.036   4.393
  104MYC   H12719994   1.761   1.939   4.403
  104MYC    C6519995   1.920   1.843   4.292
  104MYC   H12819996   1.885   1.741   4.312
  104MYC   H12919997   2.029   1.840   4.293
  104MYC    C6419998   1.872   1.885   4.151
  104MYC   H13019999   1.929   1.972   4.117
  104MYC   H13120000   1.766   1.914   4.155
  104MYC    C6320001   1.887   1.768   4.051
  104MYC   HH1120002   1.822   1.686   4.082
  104MYC   H13220003   1.990   1.731   4.054
  104MYC    C6220004   1.853   1.806   3.905
  104MYC   H13320005   1.924   1.881   3.870
  104MYC   H13420006   1.753   1.851   3.901
  104MYC    C6120007   1.857   1.683   3.812
  104MYC   H13520008   1.777   1.613   3.840
  104MYC   H13620009   1.952   1.630   3.827
  104MYC    C6020010   1.845   1.720   3.665
  104MYC   H13720011   1.916   1.798   3.637
  104MYC    C5820012   1.817   1.614   3.560
  104MYC   H13820013   1.794   1.514   3.595
  104MYC    C5920014   1.713   1.720   3.592
  104MYC   H13920015   1.696   1.798   3.518
  104MYC   H14020016   1.625   1.689   3.647
  104MYC    C5720017   1.898   1.614   3.431
  104MYC   HH1020018   1.975   1.536   3.437
  104MYC   H14120019   1.951   1.710   3.421
  104MYC    C5620020   1.814   1.593   3.304
  104MYC   H14220021   1.733   1.667   3.303
  104MYC   H14320022   1.767   1.494   3.306
  104MYC    C5520023   1.898   1.609   3.175
  104MYC   H14420024   1.965   1.523   3.164
  104MYC   H14520025   1.961   1.698   3.184
  104MYC    C5420026   1.810   1.624   3.050
  104MYC   H14620027   1.741   1.707   3.066
  104MYC   H14720028   1.749   1.534   3.037
  104MYC    C5320029   1.890   1.650   2.920
  104MYC   H14820030   1.941   1.558   2.889
  104MYC   H14920031   1.967   1.725   2.939
  104MYC    C5220032   1.797   1.700   2.808
  104MYC    H9920033   1.748   1.792   2.842
  104MYC   H15020034   1.718   1.626   2.791
  104MYC    C5120035   1.868   1.729   2.674
  104MYC    H9720036   1.910   1.636   2.634
  104MYC    H9820037   1.952   1.798   2.690
  104MYC    C5020038   1.770   1.790   2.572
  104MYC    H9520039   1.734   1.886   2.611
  104MYC    H9620040   1.683   1.725   2.563
  104MYC    C4920041   1.829   1.813   2.431
  104MYC    H9320042   1.866   1.717   2.392
  104MYC    H9420043   1.914   1.881   2.437
  104MYC    C4820044   1.723   1.870   2.335
  104MYC    H9120045   1.690   1.968   2.373
  104MYC    H9220046   1.635   1.805   2.335
  104MYC    C4720047   1.772   1.886   2.189
  104MYC    H8920048   1.807   1.789   2.152
  104MYC    H9020049   1.857   1.955   2.187
  104MYC    C4620050   1.660   1.939   2.097
  104MYC    H8720051   1.625   2.036   2.135
  104MYC    H8820052   1.575   1.871   2.101
  104MYC    C4520053   1.705   1.957   1.950
  104MYC    H8520054   1.730   1.859   1.908
  104MYC    H8620055   1.796   2.017   1.948
  104MYC    C4420056   1.599   2.027   1.862
  104MYC    H8320057   1.648   2.060   1.769
  104MYC    H8420058   1.565   2.118   1.912
  104MYC    C1820059   1.477   1.942   1.828
  104MYC    H3120060   1.450   1.871   1.906
  104MYC    C1720061   1.361   2.003   1.752
  104MYC    H3020062   1.373   2.105   1.718
  104MYC    C1920063   1.449   1.900   1.685
  104MYC    H3220064   1.516   1.934   1.607
  104MYC    H3320065   1.408   1.801   1.669
  104MYC    C1620066   1.216   1.970   1.787
  104MYC    H2820067   1.209   1.869   1.828
  104MYC    H2920068   1.157   1.970   1.695
  104MYC    C1520069   1.151   2.068   1.887
  104MYC    H2620070   1.044   2.045   1.892
  104MYC    H2720071   1.159   2.170   1.847
  104MYC    C1420072   1.209   2.066   2.030
  104MYC    H2420073   1.166   2.150   2.086
  104MYC    H2520074   1.317   2.084   2.027
  104MYC    C1320075   1.181   1.936   2.110
  104MYC    H2220076   1.224   1.850   2.058
  104MYC    H2320077   1.073   1.918   2.114
  104MYC    C1220078   1.240   1.942   2.252
  104MYC    H2020079   1.226   2.042   2.294
  104MYC    H2120080   1.349   1.927   2.245
  104MYC    C1120081   1.181   1.840   2.352
  104MYC    H1820082   1.166   1.743   2.303
  104MYC    H1920083   1.082   1.873   2.384
  104MYC    C1020084   1.272   1.821   2.475
  104MYC    H1620085   1.285   1.919   2.524
  104MYC    H1720086   1.371   1.788   2.442
  104MYC     C920087   1.219   1.720   2.579
  104MYC    H1420088   1.207   1.622   2.532
  104MYC    H1520089   1.120   1.752   2.614
  104MYC     C820090   1.314   1.708   2.700
  104MYC    H1220091   1.331   1.808   2.742
  104MYC    H1320092   1.411   1.671   2.667
  104MYC     C720093   1.260   1.617   2.812
  104MYC    H1020094   1.249   1.514   2.773
  104MYC    H1120095   1.159   1.651   2.839
  104MYC     C620096   1.351   1.615   2.937
  104MYC     H820097   1.375   1.717   2.967
  104MYC     H920098   1.446   1.566   2.911
  104MYC     C520099   1.288   1.540   3.057
  104MYC     H620100   1.366   1.515   3.129
  104MYC     H720101   1.249   1.445   3.020
  104MYC     C420102   1.174   1.619   3.128
  104MYC     H420103   1.096   1.547   3.157
  104MYC     H520104   1.126   1.688   3.057
  104MYC     C220105   1.218   1.695   3.255
  104MYC     H220106   1.241   1.618   3.329
  104MYC     O320107   1.337   1.770   3.230
  104MYC     H320108   1.310   1.855   3.189
  104MYC     C120109   1.106   1.788   3.314
  104MYC     H120110   1.017   1.727   3.335
  104MYC    C8120111   1.059   1.899   3.217
  104MYC    O8220112   1.131   1.958   3.139
  104MYC    O8320113   0.935   1.946   3.246
  104MYC   H10520114   0.925   2.025   3.190
  104MYC    C2020115   1.144   1.848   3.452
  104MYC    H3420116   1.242   1.896   3.447
  104MYC    H3520117   1.073   1.927   3.479
  104MYC    C2120118   1.143   1.743   3.566
  104MYC    H3620119   1.042   1.704   3.578
  104MYC    H3720120   1.207   1.658   3.539
  104MYC    C2220121   1.192   1.798   3.700
  104MYC    H3820122   1.293   1.839   3.688
  104MYC    H3920123   1.127   1.882   3.731
  104MYC    C2320124   1.193   1.691   3.811
  104MYC    H4020125   1.091   1.652   3.824
  104MYC    H4120126   1.255   1.606   3.779
  104MYC    C2420127   1.245   1.745   3.945
  104MYC    H4220128   1.347   1.782   3.931
  104MYC    H4320129   1.183   1.831   3.974
  104MYC    C2520130   1.243   1.640   4.058
  104MYC    H4420131   1.144   1.595   4.065
  104MYC    H4520132   1.314   1.560   4.035
  104MYC    C2620133   1.279   1.704   4.193
  104MYC    H4620134   1.380   1.746   4.187
  104MYC    H4720135   1.211   1.789   4.210
  104MYC    C2720136   1.272   1.609   4.314
  104MYC    H4820137   1.178   1.553   4.311
  104MYC    H4920138   1.354   1.536   4.309
  104MYC    C2820139   1.280   1.689   4.445
  104MYC    H5020140   1.372   1.749   4.445
  104MYC    H5120141   1.196   1.760   4.447
  104MYC    C2920142   1.277   1.605   4.574
  104MYC    H5220143   1.191   1.537   4.572
  104MYC    H5320144   1.367   1.544   4.581
  104MYC    C3020145   1.266   1.698   4.696
  104MYC    H5420146   1.349   1.770   4.694
  104MYC    H5520147   1.174   1.757   4.687
  104MYC    C3120148   1.266   1.627   4.833
  104MYC    H5620149   1.191   1.548   4.834
  104MYC    H5720150   1.364   1.581   4.850
  104MYC    C3220151   1.235   1.729   4.945
  104MYC    H5820152   1.304   1.814   4.936
  104MYC    H5920153   1.134   1.768   4.929
  104MYC    C3320154   1.245   1.672   5.087
  104MYC    H6020155   1.191   1.577   5.094
  104MYC    H6120156   1.350   1.652   5.111
  104MYC    C3420157   1.187   1.771   5.190
  104MYC    H6220158   1.224   1.872   5.169
  104MYC    H6320159   1.078   1.775   5.177
  104MYC    C3520160   1.220   1.736   5.336
  104MYC    H6420161   1.195   1.631   5.355
  104MYC    H6520162   1.328   1.746   5.351
  104MYC    C3620163   1.145   1.825   5.437
  104MYC    H6620164   1.158   1.931   5.408
  104MYC    H6720165   1.038   1.803   5.431
  104MYC    C3720166   1.194   1.806   5.581
  104MYC    H6820167   1.190   1.700   5.607
  104MYC    H6920168   1.300   1.837   5.587
  104MYC    C3820169   1.113   1.886   5.685
  104MYC    H7020170   1.109   1.992   5.655
  104MYC    H7120171   1.009   1.849   5.685
  104MYC    C3920172   1.172   1.874   5.826
  104MYC    H7220173   1.179   1.768   5.853
  104MYC    H7320174   1.274   1.914   5.825
  104MYC    C4020175   1.090   1.948   5.934
  104MYC    H7420176   1.079   2.054   5.906
  104MYC    H7520177   0.990   1.905   5.939
  104MYC    C4120178   1.157   1.939   6.073
  104MYC    H7620179   1.171   1.834   6.099
  104MYC    H7720180   1.256   1.985   6.068
  104MYC    C4220181   1.075   2.008   6.185
  104MYC    H7820182   1.058   2.113   6.158
  104MYC    H7920183   0.977   1.960   6.192
  104MYC    C4320184   1.145   2.001   6.322
  104MYC    H8020185   1.083   2.047   6.399
  104MYC    H8120186   1.241   2.054   6.319
  104MYC    H8220187   1.164   1.897   6.350
  105MYC   HH1520188   1.656   2.708   6.161
  105MYC    C8020189   1.613   2.663   6.071
  105MYC   H10020190   1.648   2.559   6.066
  105MYC   H10120191   1.504   2.663   6.080
  105MYC    C7920192   1.658   2.740   5.946
  105MYC   H10220193   1.767   2.734   5.937
  105MYC   H10320194   1.632   2.846   5.958
  105MYC    C7820195   1.593   2.687   5.816
  105MYC   HH1420196   1.484   2.695   5.824
  105MYC   H10420197   1.617   2.580   5.806
  105MYC    C7720198   1.641   2.761   5.689
  105MYC   H10620199   1.750   2.749   5.679
  105MYC   H10720200   1.621   2.869   5.701
  105MYC    C7620201   1.571   2.710   5.562
  105MYC   H10820202   1.463   2.727   5.570
  105MYC   H10920203   1.586   2.602   5.553
  105MYC    C7520204   1.623   2.778   5.433
  105MYC   H11020205   1.731   2.757   5.422
  105MYC   H11120206   1.612   2.886   5.441
  105MYC    C7420207   1.549   2.728   5.307
  105MYC   H11220208   1.444   2.761   5.312
  105MYC   H11320209   1.548   2.618   5.307
  105MYC    C7320210   1.611   2.777   5.176
  105MYC   HH1320211   1.714   2.739   5.168
  105MYC   H11420212   1.618   2.887   5.177
  105MYC    C7220213   1.531   2.733   5.052
  105MYC   H11520214   1.433   2.783   5.054
  105MYC   H11620215   1.512   2.625   5.057
  105MYC    C7120216   1.602   2.765   4.919
  105MYC   H11720217   1.692   2.704   4.911
  105MYC   H11820218   1.634   2.870   4.920
  105MYC    C7020219   1.512   2.740   4.797
  105MYC   H11920220   1.424   2.806   4.804
  105MYC   H12020221   1.475   2.637   4.798
  105MYC    C6920222   1.585   2.767   4.664
  105MYC   H12120223   1.658   2.687   4.646
  105MYC   H12220224   1.642   2.861   4.672
  105MYC    C6820225   1.489   2.778   4.544
  105MYC   HH1220226   1.418   2.859   4.563
  105MYC   H12320227   1.431   2.685   4.534
  105MYC    C6720228   1.563   2.806   4.412
  105MYC   H12420229   1.622   2.718   4.385
  105MYC   H12520230   1.634   2.889   4.428
  105MYC    C6620231   1.468   2.843   4.297
  105MYC   H12620232   1.410   2.932   4.325
  105MYC   H12720233   1.397   2.762   4.281
  105MYC    C6520234   1.545   2.872   4.167
  105MYC   H12820235   1.599   2.781   4.137
  105MYC   H12920236   1.620   2.949   4.186
  105MYC    C6420237   1.453   2.918   4.052
  105MYC   H13020238   1.404   3.011   4.079
  105MYC   H13120239   1.375   2.843   4.035
  105MYC    C6320240   1.533   2.938   3.922
  105MYC   HH1120241   1.583   2.844   3.896
  105MYC   H13220242   1.611   3.013   3.939
  105MYC    C6220243   1.447   2.983   3.803
  105MYC   H13320244   1.408   3.084   3.822
  105MYC   H13420245   1.360   2.917   3.792
  105MYC    C6120246   1.528   2.982   3.672
  105MYC   H13520247   1.562   2.880   3.653
  105MYC   H13620248   1.619   3.043   3.685
  105MYC    C6020249   1.450   3.034   3.553
  105MYC   H13720250   1.437   3.142   3.555
  105MYC    C5820251   1.471   2.969   3.418
  105MYC   H13820252   1.532   2.880   3.416
  105MYC    C5920253   1.338   2.956   3.489
  105MYC   H13920254   1.254   3.012   3.449
  105MYC   H14020255   1.313   2.859   3.531
  105MYC    C5720256   1.489   3.054   3.294
  105MYC   HH1020257   1.596   3.076   3.282
  105MYC   H14120258   1.438   3.150   3.305
  105MYC    C5620259   1.437   2.982   3.168
  105MYC   H14220260   1.327   2.982   3.169
  105MYC   H14320261   1.469   2.877   3.171
  105MYC    C5520262   1.488   3.046   3.038
  105MYC   H14420263   1.597   3.047   3.039
  105MYC   H14520264   1.454   3.150   3.031
  105MYC    C5420265   1.439   2.968   2.914
  105MYC   H14620266   1.331   2.983   2.903
  105MYC   H14720267   1.457   2.861   2.930
  105MYC    C5320268   1.509   3.011   2.784
  105MYC   H14820269   1.618   3.008   2.798
  105MYC   H14920270   1.483   3.115   2.762
  105MYC    C5220271   1.471   2.921   2.666
  105MYC    H9920272   1.362   2.923   2.652
  105MYC   H15020273   1.499   2.818   2.688
  105MYC    C5120274   1.538   2.965   2.535
  105MYC    H9720275   1.647   2.970   2.549
  105MYC    H9820276   1.505   3.067   2.510
  105MYC    C5020277   1.506   2.871   2.417
  105MYC    H9520278   1.398   2.857   2.411
  105MYC    H9620279   1.551   2.773   2.435
  105MYC    C4920280   1.558   2.928   2.284
  105MYC    H9320281   1.666   2.943   2.289
  105MYC    H9420282   1.512   3.027   2.268
  105MYC    C4820283   1.524   2.838   2.163
  105MYC    H9120284   1.419   2.810   2.169
  105MYC    H9220285   1.584   2.746   2.168
  105MYC    C4720286   1.549   2.912   2.030
  105MYC    H8920287   1.651   2.951   2.029
  105MYC    H9020288   1.480   2.997   2.025
  105MYC    C4620289   1.529   2.824   1.906
  105MYC    H8720290   1.434   2.771   1.911
  105MYC    H8820291   1.609   2.749   1.903
  105MYC    C4520292   1.532   2.908   1.777
  105MYC    H8520293   1.620   2.974   1.777
  105MYC    H8620294   1.443   2.973   1.776
  105MYC    C4420295   1.532   2.824   1.648
  105MYC    H8320296   1.518   2.892   1.563
  105MYC    H8420297   1.445   2.757   1.648
  105MYC    C1820298   1.661   2.745   1.628
  105MYC    H3120299   1.747   2.792   1.674
  105MYC    C1720300   1.662   2.594   1.618
  105MYC    H3020301   1.565   2.544   1.624
  105MYC    C1920302   1.685   2.679   1.495
  105MYC    H3220303   1.606   2.685   1.421
  105MYC    H3320304   1.786   2.684   1.454
  105MYC    C1620305   1.776   2.510   1.672
  105MYC    H2820306   1.855   2.574   1.712
  105MYC    H2920307   1.822   2.455   1.588
  105MYC    C1520308   1.735   2.406   1.778
  105MYC    H2620309   1.823   2.343   1.798
  105MYC    H2720310   1.659   2.339   1.737
  105MYC    C1420311   1.684   2.466   1.912
  105MYC    H2420312   1.585   2.510   1.896
  105MYC    H2520313   1.750   2.549   1.941
  105MYC    C1320314   1.676   2.361   2.025
  105MYC    H2220315   1.746   2.279   2.004
  105MYC    H2320316   1.576   2.317   2.025
  105MYC    C1220317   1.708   2.415   2.167
  105MYC    H2020318   1.637   2.494   2.194
  105MYC    H2120319   1.807   2.462   2.166
  105MYC    C1120320   1.709   2.304   2.274
  105MYC    H1820321   1.774   2.334   2.357
  105MYC    H1920322   1.754   2.213   2.232
  105MYC    C1020323   1.568   2.271   2.329
  105MYC    H1620324   1.559   2.163   2.346
  105MYC    H1720325   1.492   2.295   2.254
  105MYC     C920326   1.536   2.346   2.461
  105MYC    H1420327   1.428   2.361   2.470
  105MYC    H1520328   1.582   2.446   2.458
  105MYC     C820329   1.585   2.268   2.585
  105MYC    H1220330   1.681   2.219   2.564
  105MYC    H1320331   1.513   2.187   2.605
  105MYC     C720332   1.602   2.354   2.712
  105MYC    H1020333   1.519   2.425   2.721
  105MYC    H1120334   1.694   2.414   2.701
  105MYC     C620335   1.610   2.269   2.840
  105MYC     H820336   1.673   2.181   2.822
  105MYC     H920337   1.509   2.230   2.861
  105MYC     C520338   1.665   2.345   2.962
  105MYC     H620339   1.622   2.447   2.965
  105MYC     H720340   1.773   2.358   2.948
  105MYC     C420341   1.640   2.275   3.098
  105MYC     H420342   1.725   2.298   3.163
  105MYC     H520343   1.639   2.166   3.084
  105MYC     C220344   1.510   2.321   3.170
  105MYC     H220345   1.517   2.431   3.178
  105MYC     O320346   1.395   2.288   3.092
  105MYC     H320347   1.366   2.198   3.117
  105MYC     C120348   1.496   2.265   3.314
  105MYC     H120349   1.593   2.281   3.362
  105MYC    C8120350   1.469   2.113   3.313
  105MYC    O8220351   1.366   2.063   3.272
  105MYC    O8320352   1.568   2.036   3.365
  105MYC   H10520353   1.535   1.945   3.358
  105MYC    C2020354   1.389   2.342   3.397
  105MYC    H3420355   1.387   2.446   3.363
  105MYC    H3520356   1.289   2.301   3.378
  105MYC    C2120357   1.418   2.345   3.549
  105MYC    H3620358   1.523   2.370   3.563
  105MYC    H3720359   1.361   2.427   3.593
  105MYC    C2220360   1.384   2.216   3.628
  105MYC    H3820361   1.278   2.219   3.655
  105MYC    H3920362   1.399   2.126   3.568
  105MYC    C2320363   1.471   2.207   3.755
  105MYC    H4020364   1.570   2.168   3.727
  105MYC    H4120365   1.487   2.308   3.795
  105MYC    C2420366   1.413   2.120   3.868
  105MYC    H4220367   1.311   2.155   3.891
  105MYC    H4320368   1.405   2.015   3.836
  105MYC    C2520369   1.500   2.130   3.995
  105MYC    H4420370   1.594   2.077   3.979
  105MYC    H4520371   1.525   2.235   4.012
  105MYC    C2620372   1.432   2.077   4.123
  105MYC    H4620373   1.329   2.115   4.128
  105MYC    H4720374   1.426   1.968   4.118
  105MYC    C2720375   1.506   2.121   4.250
  105MYC    H4820376   1.609   2.084   4.247
  105MYC    H4920377   1.512   2.231   4.251
  105MYC    C2820378   1.439   2.074   4.380
  105MYC    H5020379   1.332   2.099   4.377
  105MYC    H5120380   1.446   1.965   4.386
  105MYC    C2920381   1.501   2.137   4.506
  105MYC    H5220382   1.609   2.115   4.508
  105MYC    H5320383   1.491   2.246   4.501
  105MYC    C3020384   1.437   2.086   4.636
  105MYC    H5420385   1.329   2.102   4.632
  105MYC    H5520386   1.453   1.977   4.643
  105MYC    C3120387   1.494   2.154   4.762
  105MYC    H5620388   1.603   2.139   4.765
  105MYC    H5720389   1.476   2.262   4.756
  105MYC    C3220390   1.431   2.099   4.892
  105MYC    H5820391   1.323   2.114   4.889
  105MYC    H5920392   1.449   1.991   4.896
  105MYC    C3320393   1.489   2.164   5.018
  105MYC    H6020394   1.597   2.147   5.022
  105MYC    H6120395   1.474   2.273   5.013
  105MYC    C3420396   1.424   2.111   5.148
  105MYC    H6220397   1.317   2.134   5.147
  105MYC    H6320398   1.434   2.002   5.152
  105MYC    C3520399   1.488   2.173   5.274
  105MYC    H6420400   1.594   2.146   5.277
  105MYC    H6520401   1.483   2.282   5.266
  105MYC    C3620402   1.420   2.129   5.405
  105MYC    H6620403   1.314   2.159   5.403
  105MYC    H6720404   1.423   2.020   5.414
  105MYC    C3720405   1.489   2.193   5.528
  105MYC    H6820406   1.593   2.160   5.532
  105MYC    H6920407   1.490   2.302   5.515
  105MYC    C3820408   1.421   2.160   5.662
  105MYC    H7020409   1.315   2.190   5.658
  105MYC    H7120410   1.423   2.051   5.678
  105MYC    C3920411   1.490   2.231   5.780
  105MYC    H7220412   1.596   2.201   5.782
  105MYC    H7320413   1.488   2.339   5.762
  105MYC    C4020414   1.427   2.201   5.917
  105MYC    H7420415   1.321   2.227   5.915
  105MYC    H7520416   1.434   2.094   5.937
  105MYC    C4120417   1.497   2.279   6.030
  105MYC    H7620418   1.604   2.256   6.029
  105MYC    H7720419   1.487   2.387   6.010
  105MYC    C4220420   1.440   2.249   6.171
  105MYC    H7820421   1.335   2.278   6.174
  105MYC    H7920422   1.445   2.141   6.189
  105MYC    C4320423   1.517   2.322   6.283
  105MYC    H8020424   1.472   2.300   6.380
  105MYC    H8120425   1.513   2.431   6.267
  105MYC    H8220426   1.622   2.291   6.285
  106MYC   HH1520427   2.041   3.600   6.224
  106MYC    C8020428   1.943   3.574   6.182
  106MYC   H10020429   1.916   3.474   6.218
  106MYC   H10120430   1.869   3.646   6.219
  106MYC    C7920431   1.949   3.576   6.028
  106MYC   H10220432   2.024   3.503   5.995
  106MYC   H10320433   1.982   3.674   5.994
  106MYC    C7820434   1.814   3.542   5.962
  106MYC   HH1420435   1.743   3.624   5.980
  106MYC   H10420436   1.772   3.453   6.010
  106MYC    C7720437   1.825   3.515   5.811
  106MYC   H10620438   1.895   3.432   5.795
  106MYC   H10720439   1.868   3.602   5.760
  106MYC    C7620440   1.690   3.480   5.746
  106MYC   H10820441   1.629   3.571   5.739
  106MYC   H10920442   1.635   3.411   5.811
  106MYC    C7520443   1.704   3.416   5.606
  106MYC   H11020444   1.764   3.325   5.615
  106MYC   H11120445   1.759   3.484   5.541
  106MYC    C7420446   1.567   3.381   5.543
  106MYC   H11220447   1.513   3.473   5.521
  106MYC   H11320448   1.507   3.326   5.617
  106MYC    C7320449   1.577   3.295   5.415
  106MYC   HH1320450   1.475   3.273   5.381
  106MYC   H11420451   1.623   3.199   5.439
  106MYC    C7220452   1.655   3.362   5.300
  106MYC   H11520453   1.761   3.371   5.327
  106MYC   H11620454   1.617   3.464   5.285
  106MYC    C7120455   1.642   3.285   5.168
  106MYC   H11720456   1.536   3.278   5.141
  106MYC   H11820457   1.678   3.182   5.181
  106MYC    C7020458   1.719   3.350   5.052
  106MYC   H11920459   1.827   3.343   5.070
  106MYC   H12020460   1.694   3.457   5.048
  106MYC    C6920461   1.685   3.287   4.916
  106MYC   H12120462   1.577   3.298   4.898
  106MYC   H12220463   1.705   3.179   4.919
  106MYC    C6820464   1.761   3.350   4.798
  106MYC   HH1220465   1.868   3.325   4.805
  106MYC   H12320466   1.753   3.459   4.804
  106MYC    C6720467   1.706   3.304   4.662
  106MYC   H12420468   1.600   3.332   4.656
  106MYC   H12520469   1.709   3.194   4.655
  106MYC    C6620470   1.781   3.365   4.543
  106MYC   H12620471   1.882   3.322   4.536
  106MYC   H12720472   1.793   3.473   4.560
  106MYC    C6520473   1.707   3.344   4.409
  106MYC   H12820474   1.606   3.387   4.419
  106MYC   H12920475   1.694   3.237   4.390
  106MYC    C6420476   1.779   3.411   4.291
  106MYC   H13020477   1.866   3.351   4.263
  106MYC   H13120478   1.815   3.509   4.322
  106MYC    C6320479   1.687   3.429   4.169
  106MYC   HH1120480   1.598   3.487   4.199
  106MYC   H13220481   1.651   3.331   4.134
  106MYC    C6220482   1.757   3.502   4.053
  106MYC   H13320483   1.838   3.439   4.015
  106MYC   H13420484   1.803   3.595   4.091
  106MYC    C6120485   1.661   3.537   3.938
  106MYC   H13520486   1.582   3.604   3.976
  106MYC   H13620487   1.612   3.445   3.905
  106MYC    C6020488   1.733   3.602   3.821
  106MYC   H13720489   1.839   3.580   3.819
  106MYC    C5820490   1.663   3.606   3.688
  106MYC   H13820491   1.559   3.572   3.686
  106MYC    C5920492   1.689   3.734   3.761
  106MYC   H13920493   1.766   3.800   3.722
  106MYC   H14020494   1.603   3.785   3.805
  106MYC    C5720495   1.740   3.564   3.564
  106MYC   HH1020496   1.741   3.454   3.561
  106MYC   H14120497   1.845   3.595   3.571
  106MYC    C5620498   1.680   3.619   3.434
  106MYC   H14220499   1.705   3.725   3.423
  106MYC   H14320500   1.570   3.612   3.439
  106MYC    C5520501   1.729   3.539   3.312
  106MYC   H14420502   1.704   3.433   3.328
  106MYC   H14520503   1.838   3.545   3.306
  106MYC    C5420504   1.667   3.585   3.179
  106MYC   H14620505   1.707   3.683   3.153
  106MYC   H14720506   1.559   3.595   3.190
  106MYC    C5320507   1.698   3.484   3.067
  106MYC   H14820508   1.656   3.386   3.095
  106MYC   H14920509   1.806   3.471   3.059
  106MYC    C5220510   1.642   3.526   2.931
  106MYC    H9920511   1.689   3.620   2.902
  106MYC   H15020512   1.534   3.542   2.938
  106MYC    C5120513   1.671   3.421   2.823
  106MYC    H9720514   1.623   3.326   2.849
  106MYC    H9820515   1.779   3.401   2.821
  106MYC    C5020516   1.626   3.464   2.682
  106MYC    H9520517   1.671   3.561   2.659
  106MYC    H9620518   1.517   3.477   2.680
  106MYC    C4920519   1.669   3.362   2.575
  106MYC    H9320520   1.621   3.265   2.596
  106MYC    H9420521   1.777   3.346   2.584
  106MYC    C4820522   1.636   3.405   2.431
  106MYC    H9120523   1.676   3.506   2.414
  106MYC    H9220524   1.527   3.410   2.418
  106MYC    C4720525   1.698   3.309   2.329
  106MYC    H8920526   1.659   3.208   2.347
  106MYC    H9020527   1.806   3.304   2.346
  106MYC    C4620528   1.672   3.347   2.182
  106MYC    H8720529   1.701   3.452   2.165
  106MYC    H8820530   1.565   3.338   2.160
  106MYC    C4520531   1.753   3.256   2.087
  106MYC    H8520532   1.728   3.152   2.108
  106MYC    H8620533   1.859   3.268   2.112
  106MYC    C4420534   1.736   3.284   1.937
  106MYC    H8320535   1.800   3.214   1.881
  106MYC    H8420536   1.775   3.384   1.915
  106MYC    C1820537   1.593   3.271   1.887
  106MYC    H3120538   1.531   3.207   1.950
  106MYC    C1720539   1.525   3.388   1.818
  106MYC    H3020540   1.585   3.475   1.794
  106MYC    C1920541   1.562   3.264   1.739
  106MYC    H3220542   1.645   3.272   1.670
  106MYC    H3320543   1.480   3.200   1.707
  106MYC    C1620544   1.381   3.422   1.852
  106MYC    H2820545   1.342   3.352   1.928
  106MYC    H2920546   1.319   3.409   1.763
  106MYC    C1520547   1.363   3.566   1.903
  106MYC    H2620548   1.258   3.583   1.927
  106MYC    H2720549   1.387   3.634   1.821
  106MYC    C1420550   1.450   3.604   2.026
  106MYC    H2420551   1.555   3.578   2.007
  106MYC    H2520552   1.418   3.546   2.114
  106MYC    C1320553   1.442   3.755   2.057
  106MYC    H2220554   1.341   3.781   2.088
  106MYC    H2320555   1.460   3.810   1.964
  106MYC    C1220556   1.543   3.806   2.162
  106MYC    H2020557   1.546   3.915   2.153
  106MYC    H2120558   1.644   3.770   2.137
  106MYC    C1120559   1.510   3.770   2.308
  106MYC    H1820560   1.527   3.663   2.325
  106MYC    H1920561   1.404   3.787   2.327
  106MYC    C1020562   1.595   3.853   2.407
  106MYC    H1620563   1.595   3.958   2.375
  106MYC    H1720564   1.699   3.818   2.402
  106MYC     C920565   1.547   3.847   2.554
  106MYC    H1420566   1.549   3.744   2.589
  106MYC    H1520567   1.442   3.881   2.559
  106MYC     C820568   1.633   3.937   2.646
  106MYC    H1220569   1.619   4.042   2.618
  106MYC    H1320570   1.739   3.914   2.627
  106MYC     C720571   1.606   3.919   2.796
  106MYC    H1020572   1.683   3.974   2.852
  106MYC    H1120573   1.619   3.813   2.822
  106MYC     C620574   1.468   3.966   2.845
  106MYC     H820575   1.388   3.914   2.790
  106MYC     H920576   1.457   4.073   2.823
  106MYC     C520577   1.448   3.943   2.996
  106MYC     H620578   1.536   3.983   3.049
  106MYC     H720579   1.445   3.835   3.017
  106MYC     C420580   1.320   4.009   3.052
  106MYC     H420581   1.232   3.958   3.010
  106MYC     H520582   1.317   4.112   3.015
  106MYC     C220583   1.310   4.011   3.207
  106MYC     H220584   1.313   3.907   3.242
  106MYC     O320585   1.423   4.080   3.260
  106MYC     H320586   1.501   4.051   3.210
  106MYC     C120587   1.178   4.075   3.260
  106MYC     H120588   1.100   4.001   3.241
  106MYC    C8120589   1.137   4.201   3.182
  106MYC    O8220590   1.036   4.210   3.114
  106MYC    O8320591   1.219   4.307   3.199
  106MYC   H10520592   1.179   4.380   3.149
  106MYC    C2020593   1.175   4.108   3.412
  106MYC    H3420594   1.254   4.181   3.435
  106MYC    H3520595   1.080   4.158   3.433
  106MYC    C2120596   1.189   3.990   3.511
  106MYC    H3620597   1.111   3.915   3.492
  106MYC    H3720598   1.287   3.941   3.498
  106MYC    C2220599   1.176   4.043   3.656
  106MYC    H3820600   1.256   4.117   3.674
  106MYC    H3920601   1.082   4.097   3.665
  106MYC    C2320602   1.182   3.937   3.767
  106MYC    H4020603   1.106   3.860   3.749
  106MYC    H4120604   1.280   3.888   3.766
  106MYC    C2420605   1.158   4.003   3.905
  106MYC    H4220606   1.228   4.086   3.918
  106MYC    H4320607   1.057   4.046   3.906
  106MYC    C2520608   1.172   3.907   4.024
  106MYC    H4420609   1.105   3.821   4.011
  106MYC    H4520610   1.274   3.867   4.027
  106MYC    C2620611   1.140   3.976   4.158
  106MYC    H4620612   1.197   4.069   4.166
  106MYC    H4720613   1.034   4.004   4.160
  106MYC    C2720614   1.171   3.887   4.280
  106MYC    H4820615   1.120   3.791   4.269
  106MYC    H4920616   1.279   3.867   4.282
  106MYC    C2820617   1.129   3.952   4.414
  106MYC    H5020618   1.171   4.053   4.420
  106MYC    H5120619   1.020   3.961   4.417
  106MYC    C2920620   1.178   3.870   4.535
  106MYC    H5220621   1.143   3.766   4.525
  106MYC    H5320622   1.287   3.867   4.534
  106MYC    C3020623   1.129   3.927   4.669
  106MYC    H5420624   1.158   4.033   4.676
  106MYC    H5520625   1.020   3.923   4.674
  106MYC    C3120626   1.189   3.851   4.789
  106MYC    H5620627   1.158   3.746   4.785
  106MYC    H5720628   1.298   3.853   4.782
  106MYC    C3220629   1.147   3.912   4.924
  106MYC    H5820630   1.172   4.019   4.925
  106MYC    H5920631   1.038   3.905   4.936
  106MYC    C3320632   1.215   3.843   5.044
  106MYC    H6020633   1.182   3.739   5.051
  106MYC    H6120634   1.324   3.842   5.027
  106MYC    C3420635   1.187   3.915   5.177
  106MYC    H6220636   1.219   4.020   5.168
  106MYC    H6320637   1.079   3.916   5.196
  106MYC    C3520638   1.258   3.850   5.297
  106MYC    H6420639   1.220   3.749   5.312
  106MYC    H6520640   1.365   3.841   5.275
  106MYC    C3620641   1.241   3.932   5.427
  106MYC    H6620642   1.286   4.031   5.412
  106MYC    H6720643   1.135   3.948   5.446
  106MYC    C3720644   1.306   3.865   5.549
  106MYC    H6820645   1.255   3.770   5.568
  106MYC    H6920646   1.411   3.842   5.527
  106MYC    C3820647   1.299   3.953   5.676
  106MYC    H7020648   1.362   4.042   5.661
  106MYC    H7120649   1.196   3.988   5.691
  106MYC    C3920650   1.347   3.879   5.802
  106MYC    H7220651   1.282   3.792   5.818
  106MYC    H7320652   1.448   3.840   5.786
  106MYC    C4020653   1.346   3.966   5.929
  106MYC    H7420654   1.416   4.050   5.916
  106MYC    H7520655   1.246   4.010   5.943
  106MYC    C4120656   1.385   3.887   6.056
  106MYC    H7620657   1.314   3.804   6.069
  106MYC    H7720658   1.484   3.842   6.041
  106MYC    C4220659   1.387   3.973   6.184
  106MYC    H7820660   1.459   4.055   6.172
  106MYC    H7920661   1.289   4.018   6.199
  106MYC    C4320662   1.425   3.891   6.309
  106MYC    H8020663   1.425   3.955   6.398
  106MYC    H8120664   1.525   3.847   6.298
  106MYC    H8220665   1.353   3.809   6.325
  107MYC   HH1520666   1.343   4.459   6.331
  107MYC    C8020667   1.307   4.396   6.249
  107MYC   H10020668   1.357   4.298   6.256
  107MYC   H10120669   1.199   4.381   6.262
  107MYC    C7920670   1.336   4.462   6.113
  107MYC   H10220671   1.444   4.480   6.105
  107MYC   H10320672   1.287   4.560   6.109
  107MYC    C7820673   1.289   4.376   5.993
  107MYC   HH1420674   1.182   4.356   6.003
  107MYC   H10420675   1.341   4.279   5.996
  107MYC    C7720676   1.317   4.444   5.857
  107MYC   H10620677   1.423   4.468   5.850
  107MYC   H10720678   1.262   4.538   5.852
  107MYC    C7620679   1.277   4.355   5.737
  107MYC   H10820680   1.171   4.328   5.745
  107MYC   H10920681   1.335   4.262   5.742
  107MYC    C7520682   1.303   4.423   5.601
  107MYC   H11020683   1.408   4.456   5.597
  107MYC   H11120684   1.241   4.513   5.593
  107MYC    C7420685   1.275   4.331   5.480
  107MYC   H11220686   1.171   4.297   5.484
  107MYC   H11320687   1.340   4.243   5.488
  107MYC    C7320688   1.302   4.401   5.346
  107MYC   HH1320689   1.405   4.439   5.344
  107MYC   H11420690   1.236   4.489   5.337
  107MYC    C7220691   1.280   4.311   5.223
  107MYC   H11520692   1.176   4.276   5.221
  107MYC   H11620693   1.344   4.222   5.231
  107MYC    C7120694   1.312   4.384   5.091
  107MYC   H11720695   1.417   4.416   5.093
  107MYC   H11820696   1.251   4.475   5.086
  107MYC    C7020697   1.287   4.301   4.963
  107MYC   H11920698   1.182   4.272   4.959
  107MYC   H12020699   1.347   4.208   4.967
  107MYC    C6920700   1.325   4.380   4.836
  107MYC   H12120701   1.433   4.399   4.837
  107MYC   H12220702   1.275   4.478   4.840
  107MYC    C6820703   1.287   4.311   4.704
  107MYC   HH1220704   1.179   4.293   4.703
  107MYC   H12320705   1.336   4.214   4.697
  107MYC    C6720706   1.325   4.399   4.582
  107MYC   H12420707   1.435   4.406   4.577
  107MYC   H12520708   1.288   4.500   4.599
  107MYC    C6620709   1.271   4.349   4.447
  107MYC   H12620710   1.162   4.336   4.454
  107MYC   H12720711   1.314   4.250   4.425
  107MYC    C6520712   1.304   4.447   4.333
  107MYC   H12820713   1.413   4.454   4.322
  107MYC   H12920714   1.269   4.547   4.362
  107MYC    C6420715   1.241   4.410   4.197
  107MYC   H13020716   1.133   4.398   4.209
  107MYC   H13120717   1.282   4.314   4.163
  107MYC    C6320718   1.269   4.519   4.091
  107MYC   HH1120719   1.377   4.533   4.081
  107MYC   H13220720   1.227   4.614   4.126
  107MYC    C6220721   1.211   4.487   3.951
  107MYC   H13320722   1.103   4.467   3.960
  107MYC   H13420723   1.257   4.395   3.914
  107MYC    C6120724   1.234   4.602   3.851
  107MYC   H13520725   1.340   4.631   3.855
  107MYC   H13620726   1.176   4.689   3.883
  107MYC    C6020727   1.197   4.565   3.708
  107MYC   H13720728   1.092   4.538   3.698
  107MYC    C5820729   1.261   4.635   3.591
  107MYC   H13820730   1.339   4.708   3.613
  107MYC    C5920731   1.294   4.490   3.620
  107MYC   H13920732   1.254   4.414   3.554
  107MYC   H14020733   1.393   4.468   3.660
  107MYC    C5720734   1.181   4.671   3.467
  107MYC   HH1020735   1.137   4.771   3.478
  107MYC   H14120736   1.097   4.602   3.457
  107MYC    C5620737   1.266   4.668   3.338
  107MYC   H14220738   1.341   4.588   3.347
  107MYC   H14320739   1.322   4.762   3.328
  107MYC    C5520740   1.182   4.642   3.211
  107MYC   H14420741   1.112   4.725   3.196
  107MYC   H14520742   1.121   4.553   3.228
  107MYC    C5420743   1.267   4.620   3.084
  107MYC   H14620744   1.345   4.546   3.105
  107MYC   H14720745   1.318   4.714   3.058
  107MYC    C5320746   1.182   4.571   2.966
  107MYC   H14820747   1.109   4.649   2.939
  107MYC   H14920748   1.124   4.484   2.997
  107MYC    C5220749   1.265   4.534   2.841
  107MYC    H9920750   1.333   4.453   2.867
  107MYC   H15020751   1.326   4.620   2.811
  107MYC    C5120752   1.175   4.490   2.723
  107MYC    H9720753   1.111   4.575   2.695
  107MYC    H9820754   1.109   4.410   2.757
  107MYC    C5020755   1.254   4.442   2.600
  107MYC    H9520756   1.309   4.351   2.626
  107MYC    H9620757   1.329   4.518   2.572
  107MYC    C4920758   1.162   4.415   2.479
  107MYC    H9320759   1.114   4.509   2.450
  107MYC    H9420760   1.082   4.346   2.510
  107MYC    C4820761   1.236   4.355   2.358
  107MYC    H9120762   1.273   4.255   2.384
  107MYC    H9220763   1.323   4.416   2.333
  107MYC    C4720764   1.144   4.345   2.234
  107MYC    H8920765   1.116   4.446   2.203
  107MYC    H9020766   1.052   4.294   2.263
  107MYC    C4620767   1.206   4.271   2.113
  107MYC    H8720768   1.232   4.169   2.144
  107MYC    H8820769   1.299   4.320   2.082
  107MYC    C4520770   1.108   4.265   1.994
  107MYC    H8520771   1.092   4.366   1.954
  107MYC    H8620772   1.010   4.232   2.032
  107MYC    C4420773   1.147   4.168   1.880
  107MYC    H8320774   1.058   4.149   1.820
  107MYC    H8420775   1.177   4.072   1.923
  107MYC    C1820776   1.256   4.222   1.787
  107MYC    H3120777   1.244   4.327   1.765
  107MYC    C1720778   1.396   4.165   1.785
  107MYC    H3020779   1.419   4.083   1.852
  107MYC    C1920780   1.300   4.135   1.673
  107MYC    H3220781   1.261   4.034   1.667
  107MYC    H3320782   1.316   4.183   1.577
  107MYC    C1620783   1.516   4.255   1.755
  107MYC    H2820784   1.488   4.361   1.766
  107MYC    H2920785   1.545   4.242   1.650
  107MYC    C1520786   1.641   4.228   1.841
  107MYC    H2620787   1.722   4.289   1.799
  107MYC    H2720788   1.672   4.123   1.832
  107MYC    C1420789   1.629   4.266   1.989
  107MYC    H2420790   1.566   4.194   2.042
  107MYC    H2520791   1.581   4.364   1.997
  107MYC    C1320792   1.769   4.272   2.056
  107MYC    H2220793   1.835   4.335   1.995
  107MYC    H2320794   1.813   4.172   2.058
  107MYC    C1220795   1.765   4.328   2.199
  107MYC    H2020796   1.708   4.258   2.261
  107MYC    H2120797   1.710   4.423   2.199
  107MYC    C1120798   1.906   4.353   2.258
  107MYC    H1820799   1.920   4.461   2.269
  107MYC    H1920800   1.984   4.320   2.187
  107MYC    C1020801   1.931   4.286   2.394
  107MYC    H1620802   2.033   4.310   2.427
  107MYC    H1720803   1.927   4.177   2.383
  107MYC     C920804   1.831   4.330   2.502
  107MYC    H1420805   1.732   4.289   2.481
  107MYC    H1520806   1.821   4.440   2.499
  107MYC     C820807   1.871   4.290   2.645
  107MYC    H1220808   1.965   4.339   2.671
  107MYC    H1320809   1.888   4.181   2.650
  107MYC     C720810   1.761   4.330   2.746
  107MYC    H1020811   1.675   4.263   2.734
  107MYC    H1120812   1.726   4.431   2.721
  107MYC     C620813   1.808   4.328   2.892
  107MYC     H820814   1.898   4.390   2.901
  107MYC     H920815   1.835   4.226   2.920
  107MYC     C520816   1.699   4.383   2.987
  107MYC     H620817   1.609   4.322   2.980
  107MYC     H720818   1.671   4.484   2.953
  107MYC     C420819   1.745   4.393   3.134
  107MYC     H420820   1.694   4.479   3.179
  107MYC     H520821   1.853   4.415   3.138
  107MYC     C220822   1.712   4.269   3.220
  107MYC     H220823   1.602   4.264   3.224
  107MYC     O320824   1.762   4.149   3.161
  107MYC     H320825   1.859   4.150   3.170
  107MYC     C120826   1.763   4.284   3.367
  107MYC     H120827   1.721   4.377   3.407
  107MYC    C8120828   1.917   4.294   3.378
  107MYC    O8220829   1.995   4.224   3.316
  107MYC    O8320830   1.960   4.370   3.481
  107MYC   H10520831   2.057   4.359   3.482
  107MYC    C2020832   1.709   4.171   3.458
  107MYC    H3420833   1.615   4.132   3.418
  107MYC    H3520834   1.779   4.086   3.459
  107MYC    C2120835   1.680   4.218   3.602
  107MYC    H3620836   1.773   4.258   3.646
  107MYC    H3720837   1.608   4.300   3.599
  107MYC    C2220838   1.626   4.106   3.692
  107MYC    H3820839   1.537   4.060   3.646
  107MYC    H3920840   1.702   4.028   3.701
  107MYC    C2320841   1.589   4.158   3.832
  107MYC    H4020842   1.671   4.222   3.868
  107MYC    H4120843   1.500   4.221   3.826
  107MYC    C2420844   1.567   4.046   3.935
  107MYC    H4220845   1.485   3.980   3.903
  107MYC    H4320846   1.658   3.984   3.939
  107MYC    C2520847   1.537   4.101   4.075
  107MYC    H4420848   1.595   4.193   4.090
  107MYC    H4520849   1.431   4.130   4.081
  107MYC    C2620850   1.572   4.004   4.189
  107MYC    H4620851   1.511   3.913   4.181
  107MYC    H4720852   1.677   3.974   4.178
  107MYC    C2720853   1.552   4.069   4.327
  107MYC    H4820854   1.582   4.174   4.321
  107MYC    H4920855   1.445   4.068   4.352
  107MYC    C2820856   1.632   4.002   4.441
  107MYC    H5020857   1.594   3.901   4.459
  107MYC    H5120858   1.737   3.993   4.411
  107MYC    C2920859   1.624   4.086   4.570
  107MYC    H5220860   1.654   4.189   4.546
  107MYC    H5320861   1.519   4.091   4.603
  107MYC    C3020862   1.711   4.035   4.686
  107MYC    H5420863   1.678   3.935   4.716
  107MYC    H5520864   1.815   4.026   4.652
  107MYC    C3120865   1.704   4.132   4.806
  107MYC    H5620866   1.741   4.230   4.775
  107MYC    H5720867   1.599   4.145   4.834
  107MYC    C3220868   1.783   4.085   4.930
  107MYC    H5820869   1.743   3.989   4.964
  107MYC    H5920870   1.888   4.071   4.904
  107MYC    C3320871   1.771   4.189   5.044
  107MYC    H6020872   1.821   4.282   5.014
  107MYC    H6120873   1.665   4.213   5.059
  107MYC    C3420874   1.830   4.141   5.178
  107MYC    H6220875   1.780   4.048   5.209
  107MYC    H6320876   1.937   4.118   5.166
  107MYC    C3520877   1.813   4.247   5.289
  107MYC    H6420878   1.873   4.336   5.265
  107MYC    H6520879   1.708   4.280   5.291
  107MYC    C3620880   1.850   4.196   5.430
  107MYC    H6620881   1.792   4.106   5.451
  107MYC    H6720882   1.956   4.168   5.432
  107MYC    C3720883   1.823   4.301   5.540
  107MYC    H6820884   1.889   4.387   5.525
  107MYC    H6920885   1.720   4.338   5.529
  107MYC    C3820886   1.840   4.246   5.682
  107MYC    H7020887   1.774   4.158   5.694
  107MYC    H7120888   1.943   4.210   5.696
  107MYC    C3920889   1.806   4.349   5.792
  107MYC    H7220890   1.879   4.431   5.788
  107MYC    H7320891   1.708   4.392   5.772
  107MYC    C4020892   1.805   4.288   5.933
  107MYC    H7420893   1.731   4.207   5.936
  107MYC    H7520894   1.903   4.242   5.954
  107MYC    C4120895   1.772   4.390   6.044
  107MYC    H7620896   1.852   4.466   6.048
  107MYC    H7720897   1.679   4.442   6.018
  107MYC    C4220898   1.757   4.325   6.183
  107MYC    H7820899   1.676   4.252   6.180
  107MYC    H7920900   1.849   4.270   6.208
  107MYC    C4320901   1.728   4.427   6.295
  107MYC    H8020902   1.636   4.482   6.274
  107MYC    H8120903   1.811   4.498   6.305
  107MYC    H8220904   1.716   4.375   6.391
  108MYC   HH1520905   1.520   5.380   6.264
  108MYC    C8020906   1.557   5.354   6.164
  108MYC   H10020907   1.660   5.391   6.154
  108MYC   H10120908   1.559   5.244   6.155
  108MYC    C7920909   1.466   5.416   6.056
  108MYC   H10220910   1.466   5.525   6.068
  108MYC   H10320911   1.363   5.381   6.072
  108MYC    C7820912   1.510   5.380   5.912
  108MYC   HH1420913   1.509   5.271   5.900
  108MYC   H10420914   1.614   5.412   5.897
  108MYC    C7720915   1.421   5.444   5.804
  108MYC   H10620916   1.420   5.553   5.816
  108MYC   H10720917   1.317   5.409   5.817
  108MYC    C7620918   1.467   5.410   5.660
  108MYC   H10820919   1.472   5.301   5.650
  108MYC   H10920920   1.569   5.449   5.645
  108MYC    C7520921   1.374   5.467   5.550
  108MYC   H11020922   1.366   5.575   5.562
  108MYC   H11120923   1.274   5.424   5.563
  108MYC    C7420924   1.426   5.434   5.409
  108MYC   H11220925   1.444   5.326   5.401
  108MYC   H11320926   1.524   5.483   5.394
  108MYC    C7320927   1.331   5.477   5.295
  108MYC   HH1320928   1.311   5.585   5.302
  108MYC   H11420929   1.235   5.426   5.308
  108MYC    C7220930   1.389   5.445   5.156
  108MYC   H11520931   1.416   5.339   5.153
  108MYC   H11620932   1.481   5.502   5.142
  108MYC    C7120933   1.293   5.475   5.039
  108MYC   H11720934   1.267   5.582   5.038
  108MYC   H11820935   1.199   5.420   5.053
  108MYC    C7020936   1.355   5.437   4.903
  108MYC   H11920937   1.383   5.330   4.906
  108MYC   H12020938   1.448   5.493   4.889
  108MYC    C6920939   1.263   5.461   4.781
  108MYC   H12120940   1.243   5.569   4.771
  108MYC   H12220941   1.167   5.411   4.797
  108MYC    C6820942   1.327   5.408   4.651
  108MYC   HH1220943   1.342   5.300   4.661
  108MYC   H12320944   1.426   5.453   4.638
  108MYC    C6720945   1.243   5.435   4.524
  108MYC   H12420946   1.237   5.543   4.507
  108MYC   H12520947   1.141   5.398   4.539
  108MYC    C6620948   1.304   5.366   4.400
  108MYC   H12620949   1.302   5.258   4.415
  108MYC   H12720950   1.410   5.395   4.392
  108MYC    C6520951   1.233   5.400   4.267
  108MYC   H12820952   1.243   5.507   4.247
  108MYC   H12920953   1.126   5.379   4.277
  108MYC    C6420954   1.291   5.319   4.149
  108MYC   H13020955   1.273   5.212   4.168
  108MYC   H13120956   1.400   5.332   4.146
  108MYC    C6320957   1.231   5.357   4.013
  108MYC   HH1120958   1.258   5.460   3.988
  108MYC   H13220959   1.121   5.352   4.018
  108MYC    C6220960   1.279   5.263   3.900
  108MYC   H13320961   1.248   5.160   3.924
  108MYC   H13420962   1.389   5.262   3.897
  108MYC    C6120963   1.226   5.300   3.761
  108MYC   H13520964   1.273   5.394   3.728
  108MYC   H13620965   1.118   5.319   3.767
  108MYC    C6020966   1.250   5.190   3.659
  108MYC   H13720967   1.199   5.098   3.686
  108MYC    C5820968   1.259   5.221   3.511
  108MYC   H13820969   1.258   5.326   3.483
  108MYC    C5920970   1.382   5.174   3.586
  108MYC   H13920971   1.418   5.074   3.567
  108MYC   H14020972   1.460   5.247   3.606
  108MYC    C5720973   1.187   5.132   3.412
  108MYC   HH1020974   1.083   5.166   3.402
  108MYC   H14120975   1.183   5.029   3.449
  108MYC    C5620976   1.253   5.131   3.272
  108MYC   H14220977   1.355   5.090   3.280
  108MYC   H14320978   1.262   5.234   3.235
  108MYC    C5520979   1.171   5.048   3.172
  108MYC   H14420980   1.071   5.092   3.163
  108MYC   H14520981   1.158   4.947   3.211
  108MYC    C5420982   1.235   5.040   3.032
  108MYC   H14620983   1.327   4.981   3.038
  108MYC   H14720984   1.263   5.141   2.999
  108MYC    C5320985   1.140   4.978   2.927
  108MYC   H14820986   1.052   5.042   2.917
  108MYC   H14920987   1.104   4.880   2.962
  108MYC    C5220988   1.207   4.961   2.789
  108MYC    H9920989   1.280   4.879   2.794
  108MYC   H15020990   1.263   5.053   2.766
  108MYC    C5120991   1.107   4.935   2.674
  108MYC    H9720992   1.035   5.018   2.672
  108MYC    H9820993   1.049   4.844   2.695
  108MYC    C5020994   1.177   4.922   2.537
  108MYC    H9520995   1.201   4.817   2.518
  108MYC    H9620996   1.273   4.975   2.541
  108MYC    C4920997   1.096   4.981   2.420
  108MYC    H9320998   1.068   5.084   2.445
  108MYC    H9420999   1.002   4.925   2.407
  108MYC    C4821000   1.176   4.981   2.287
  108MYC    H9121001   1.189   4.879   2.252
  108MYC    H9221002   1.276   5.021   2.307
  108MYC    C4721003   1.110   5.067   2.177
  108MYC    H8921004   1.086   5.165   2.219
  108MYC    H9021005   1.015   5.021   2.147
  108MYC    C4621006   1.201   5.087   2.054
  108MYC    H8721007   1.227   4.990   2.012
  108MYC    H8821008   1.294   5.134   2.086
  108MYC    C4521009   1.134   5.173   1.944
  108MYC    H8521010   1.081   5.257   1.990
  108MYC    H8621011   1.057   5.111   1.895
  108MYC    C4421012   1.232   5.227   1.838
  108MYC    H8321013   1.173   5.266   1.754
  108MYC    H8421014   1.291   5.144   1.797
  108MYC    C1821015   1.323   5.338   1.889
  108MYC    H3121016   1.274   5.405   1.960
  108MYC    C1721017   1.473   5.318   1.904
  108MYC    H3021018   1.511   5.220   1.877
  108MYC    C1921019   1.418   5.404   1.792
  108MYC    H3221020   1.420   5.365   1.691
  108MYC    H3321021   1.429   5.512   1.800
  108MYC    C1621022   1.552   5.383   2.017
  108MYC    H2821023   1.508   5.356   2.114
  108MYC    H2921024   1.542   5.492   2.011
  108MYC    C1521025   1.703   5.348   2.018
  108MYC    H2621026   1.757   5.431   2.063
  108MYC    H2721027   1.740   5.340   1.915
  108MYC    C1421028   1.735   5.220   2.097
  108MYC    H2421029   1.689   5.133   2.048
  108MYC    H2521030   1.688   5.228   2.196
  108MYC    C1321031   1.887   5.194   2.115
  108MYC    H2221032   1.934   5.283   2.159
  108MYC    H2321033   1.933   5.180   2.016
  108MYC    C1221034   1.922   5.071   2.203
  108MYC    H2021035   2.029   5.052   2.196
  108MYC    H2121036   1.871   4.983   2.163
  108MYC    C1121037   1.884   5.089   2.352
  108MYC    H1821038   1.778   5.115   2.360
  108MYC    H1921039   1.941   5.173   2.394
  108MYC    C1021040   1.908   4.963   2.439
  108MYC    H1621041   2.015   4.942   2.445
  108MYC    H1721042   1.860   4.877   2.392
  108MYC     C921043   1.850   4.981   2.581
  108MYC    H1421044   1.743   5.003   2.573
  108MYC    H1521045   1.896   5.069   2.628
  108MYC     C821046   1.868   4.859   2.674
  108MYC    H1221047   1.975   4.842   2.690
  108MYC    H1321048   1.828   4.769   2.624
  108MYC     C721049   1.797   4.878   2.809
  108MYC    H1021050   1.689   4.886   2.792
  108MYC    H1121051   1.829   4.974   2.853
  108MYC     C621052   1.825   4.765   2.910
  108MYC     H821053   1.932   4.763   2.933
  108MYC     H921054   1.801   4.669   2.863
  108MYC     C521055   1.745   4.777   3.042
  108MYC     H621056   1.775   4.693   3.106
  108MYC     H721057   1.639   4.763   3.022
  108MYC     C421058   1.765   4.911   3.118
  108MYC     H421059   1.698   4.985   3.072
  108MYC     H521060   1.867   4.948   3.100
  108MYC     C221061   1.739   4.911   3.271
  108MYC     H221062   1.716   5.015   3.298
  108MYC     O321063   1.625   4.829   3.302
  108MYC     H321064   1.612   4.832   3.398
  108MYC     C121065   1.863   4.869   3.357
  108MYC     H121066   1.942   4.940   3.329
  108MYC    C8121067   1.917   4.729   3.321
  108MYC    O8221068   1.861   4.625   3.350
  108MYC    O8321069   2.029   4.729   3.245
  108MYC   H10521070   2.047   4.636   3.226
  108MYC    C2021071   1.844   4.881   3.510
  108MYC    H3421072   1.770   4.808   3.545
  108MYC    H3521073   1.939   4.854   3.558
  108MYC    C2121074   1.803   5.022   3.558
  108MYC    H3621075   1.861   5.096   3.501
  108MYC    H3721076   1.697   5.039   3.535
  108MYC    C2221077   1.827   5.046   3.709
  108MYC    H3821078   1.765   4.979   3.769
  108MYC    H3921079   1.932   5.023   3.732
  108MYC    C2321080   1.798   5.193   3.748
  108MYC    H4021081   1.843   5.258   3.672
  108MYC    H4121082   1.690   5.211   3.746
  108MYC    C2421083   1.857   5.238   3.884
  108MYC    H4221084   1.958   5.196   3.895
  108MYC    H4321085   1.869   5.346   3.882
  108MYC    C2521086   1.773   5.202   4.008
  108MYC    H4421087   1.673   5.246   3.999
  108MYC    H4521088   1.760   5.093   4.014
  108MYC    C2621089   1.841   5.253   4.137
  108MYC    H4621090   1.941   5.208   4.144
  108MYC    H4721091   1.856   5.361   4.129
  108MYC    C2721092   1.764   5.223   4.267
  108MYC    H4821093   1.667   5.275   4.266
  108MYC    H4921094   1.743   5.115   4.273
  108MYC    C2821095   1.845   5.266   4.391
  108MYC    H5021096   1.944   5.220   4.386
  108MYC    H5121097   1.860   5.374   4.389
  108MYC    C2921098   1.780   5.226   4.525
  108MYC    H5221099   1.683   5.278   4.536
  108MYC    H5321100   1.759   5.118   4.525
  108MYC    C3021101   1.870   5.261   4.646
  108MYC    H5421102   1.966   5.210   4.634
  108MYC    H5521103   1.890   5.368   4.646
  108MYC    C3121104   1.808   5.221   4.781
  108MYC    H5621105   1.712   5.274   4.794
  108MYC    H5721106   1.786   5.114   4.781
  108MYC    C3221107   1.900   5.254   4.900
  108MYC    H5821108   1.991   5.193   4.893
  108MYC    H5921109   1.931   5.359   4.894
  108MYC    C3321110   1.833   5.230   5.037
  108MYC    H6021111   1.744   5.295   5.044
  108MYC    H6121112   1.798   5.127   5.043
  108MYC    C3421113   1.926   5.259   5.156
  108MYC    H6221114   2.008   5.186   5.156
  108MYC    H6321115   1.972   5.358   5.143
  108MYC    C3521116   1.854   5.257   5.291
  108MYC    H6421117   1.782   5.340   5.295
  108MYC    H6521118   1.796   5.164   5.300
  108MYC    C3621119   1.951   5.266   5.411
  108MYC    H6621120   2.014   5.177   5.412
  108MYC    H6721121   2.017   5.353   5.397
  108MYC    C3721122   1.878   5.280   5.546
  108MYC    H6821123   1.836   5.381   5.554
  108MYC    H6921124   1.794   5.210   5.550
  108MYC    C3821125   1.971   5.253   5.666
  108MYC    H7021126   2.004   5.149   5.661
  108MYC    H7121127   2.060   5.315   5.658
  108MYC    C3921128   1.902   5.279   5.801
  108MYC    H7221129   1.883   5.387   5.812
  108MYC    H7321130   1.805   5.229   5.803
  108MYC    C4021131   1.986   5.229   5.921
  108MYC    H7421132   2.001   5.121   5.910
  108MYC    H7521133   2.085   5.276   5.918
  108MYC    C4121134   1.919   5.258   6.057
  108MYC    H7621135   1.906   5.366   6.068
  108MYC    H7721136   1.819   5.213   6.057
  108MYC    C4221137   2.000   5.203   6.176
  108MYC    H7821138   2.010   5.094   6.166
  108MYC    H7921139   2.101   5.245   6.174
  108MYC    C4321140   1.934   5.235   6.312
  108MYC    H8021141   1.996   5.196   6.394
  108MYC    H8121142   1.835   5.190   6.319
  108MYC    H8221143   1.924   5.344   6.325
  109MYC   HH1521144   1.644   6.201   6.218
  109MYC    C8021145   1.634   6.124   6.140
  109MYC   H10021146   1.730   6.074   6.127
  109MYC   H10121147   1.561   6.050   6.175
  109MYC    C7921148   1.587   6.187   6.008
  109MYC   H10221149   1.654   6.270   5.982
  109MYC   H10321150   1.487   6.230   6.022
  109MYC    C7821151   1.585   6.087   5.891
  109MYC   HH1421152   1.526   5.999   5.920
  109MYC   H10421153   1.687   6.053   5.871
  109MYC    C7721154   1.525   6.147   5.762
  109MYC   H10621155   1.577   6.240   5.738
  109MYC   H10721156   1.419   6.172   5.780
  109MYC    C7621157   1.534   6.051   5.641
  109MYC   H10821158   1.489   5.954   5.667
  109MYC   H10921159   1.639   6.033   5.618
  109MYC    C7521160   1.463   6.108   5.516
  109MYC   H11021161   1.503   6.208   5.495
  109MYC   H11121162   1.356   6.119   5.537
  109MYC    C7421163   1.481   6.020   5.391
  109MYC   H11221164   1.443   5.919   5.410
  109MYC   H11321165   1.588   6.010   5.368
  109MYC    C7321166   1.409   6.080   5.268
  109MYC   HH1321167   1.446   6.182   5.252
  109MYC   H11421168   1.302   6.088   5.290
  109MYC    C7221169   1.428   5.999   5.139
  109MYC   H11521170   1.385   5.898   5.151
  109MYC   H11621171   1.535   5.986   5.119
  109MYC    C7121172   1.362   6.069   5.019
  109MYC   H11721173   1.406   6.169   5.008
  109MYC   H11821174   1.255   6.084   5.039
  109MYC    C7021175   1.378   5.994   4.885
  109MYC   H11921176   1.323   5.899   4.889
  109MYC   H12021177   1.484   5.970   4.870
  109MYC    C6921178   1.328   6.079   4.767
  109MYC   H12121179   1.385   6.173   4.766
  109MYC   H12221180   1.223   6.106   4.782
  109MYC    C6821181   1.343   6.011   4.630
  109MYC   HH1221182   1.271   5.929   4.620
  109MYC   H12321183   1.443   5.966   4.622
  109MYC    C6721184   1.325   6.111   4.514
  109MYC   H12421185   1.400   6.191   4.526
  109MYC   H12521186   1.227   6.159   4.523
  109MYC    C6621187   1.338   6.049   4.374
  109MYC   H12621188   1.246   5.994   4.351
  109MYC   H12721189   1.420   5.977   4.373
  109MYC    C6521190   1.365   6.156   4.266
  109MYC   H12821191   1.463   6.201   4.284
  109MYC   H12921192   1.291   6.237   4.276
  109MYC    C6421193   1.360   6.100   4.123
  109MYC   H13021194   1.262   6.054   4.106
  109MYC   H13121195   1.435   6.020   4.113
  109MYC    C6321196   1.386   6.207   4.015
  109MYC   HH1121197   1.484   6.252   4.031
  109MYC   H13221198   1.311   6.287   4.026
  109MYC    C6221199   1.379   6.149   3.872
  109MYC   H13321200   1.284   6.095   3.860
  109MYC   H13421201   1.460   6.076   3.859
  109MYC    C6121202   1.389   6.256   3.762
  109MYC   H13521203   1.482   6.312   3.774
  109MYC   H13621204   1.307   6.328   3.774
  109MYC    C6021205   1.382   6.195   3.623
  109MYC   H13721206   1.294   6.133   3.610
  109MYC    C5821207   1.430   6.270   3.502
  109MYC   H13821208   1.477   6.367   3.518
  109MYC    C5921209   1.507   6.149   3.552
  109MYC   H13921210   1.502   6.058   3.494
  109MYC   H14021211   1.603   6.167   3.599
  109MYC    C5721212   1.352   6.264   3.371
  109MYC   HH1021213   1.282   6.348   3.368
  109MYC   H14121214   1.291   6.172   3.368
  109MYC    C5621215   1.443   6.268   3.248
  109MYC   H14221216   1.513   6.184   3.252
  109MYC   H14321217   1.503   6.360   3.250
  109MYC    C5521218   1.365   6.261   3.115
  109MYC   H14421219   1.296   6.347   3.109
  109MYC   H14521220   1.304   6.170   3.114
  109MYC    C5421221   1.457   6.262   2.992
  109MYC   H14621222   1.523   6.174   2.996
  109MYC   H14721223   1.521   6.351   2.995
  109MYC    C5321224   1.380   6.260   2.858
  109MYC   H14821225   1.314   6.347   2.853
  109MYC   H14921226   1.317   6.171   2.854
  109MYC    C5221227   1.474   6.260   2.736
  109MYC    H9921228   1.538   6.171   2.742
  109MYC   H15021229   1.540   6.347   2.741
  109MYC    C5121230   1.400   6.260   2.601
  109MYC    H9721231   1.338   6.350   2.593
  109MYC    H9821232   1.333   6.173   2.597
  109MYC    C5021233   1.499   6.254   2.483
  109MYC    H9521234   1.563   6.166   2.496
  109MYC    H9621235   1.564   6.342   2.487
  109MYC    C4921236   1.432   6.247   2.344
  109MYC    H9321237   1.376   6.339   2.324
  109MYC    H9421238   1.359   6.164   2.343
  109MYC    C4821239   1.537   6.223   2.233
  109MYC    H9121240   1.600   6.139   2.263
  109MYC    H9221241   1.603   6.311   2.227
  109MYC    C4721242   1.478   6.194   2.094
  109MYC    H8921243   1.445   6.288   2.047
  109MYC    H9021244   1.389   6.130   2.104
  109MYC    C4621245   1.581   6.122   2.004
  109MYC    H8721246   1.608   6.027   2.051
  109MYC    H8821247   1.673   6.182   2.000
  109MYC    C4521248   1.532   6.094   1.860
  109MYC    H8521249   1.546   6.184   1.799
  109MYC    H8621250   1.424   6.074   1.862
  109MYC    C4421251   1.602   5.974   1.793
  109MYC    H8321252   1.564   5.964   1.691
  109MYC    H8421253   1.571   5.883   1.846
  109MYC    C1821254   1.755   5.979   1.790
  109MYC    H3121255   1.797   6.064   1.842
  109MYC    C1721256   1.835   5.850   1.794
  109MYC    H3021257   1.780   5.756   1.791
  109MYC    C1921258   1.831   5.932   1.668
  109MYC    H3221259   1.774   5.893   1.584
  109MYC    H3321260   1.921   5.987   1.640
  109MYC    C1621261   1.964   5.842   1.875
  109MYC    H2821262   1.988   5.941   1.913
  109MYC    H2921263   2.046   5.816   1.807
  109MYC    C1521264   1.965   5.740   1.991
  109MYC    H2621265   2.065   5.739   2.036
  109MYC    H2721266   1.949   5.640   1.949
  109MYC    C1421267   1.860   5.760   2.102
  109MYC    H2421268   1.760   5.750   2.058
  109MYC    H2521269   1.867   5.861   2.143
  109MYC    C1321270   1.878   5.656   2.215
  109MYC    H2221271   1.954   5.692   2.286
  109MYC    H2321272   1.918   5.562   2.173
  109MYC    C1221273   1.748   5.622   2.291
  109MYC    H2021274   1.671   5.594   2.218
  109MYC    H2121275   1.712   5.713   2.342
  109MYC    C1121276   1.764   5.508   2.394
  109MYC    H1821277   1.818   5.545   2.481
  109MYC    H1921278   1.825   5.428   2.350
  109MYC    C1021279   1.630   5.444   2.439
  109MYC    H1621280   1.650   5.369   2.516
  109MYC    H1721281   1.587   5.389   2.354
  109MYC     C921282   1.522   5.543   2.490
  109MYC    H1421283   1.432   5.485   2.517
  109MYC    H1521284   1.491   5.608   2.407
  109MYC     C821285   1.563   5.630   2.610
  109MYC    H1221286   1.481   5.700   2.631
  109MYC    H1321287   1.650   5.691   2.585
  109MYC     C721288   1.593   5.549   2.739
  109MYC    H1021289   1.681   5.485   2.723
  109MYC    H1121290   1.508   5.483   2.759
  109MYC     C621291   1.617   5.639   2.861
  109MYC     H821292   1.534   5.711   2.869
  109MYC     H921293   1.708   5.698   2.846
  109MYC     C521294   1.627   5.560   2.993
  109MYC     H621295   1.714   5.494   2.988
  109MYC     H721296   1.538   5.495   3.002
  109MYC     C421297   1.637   5.652   3.116
  109MYC     H421298   1.565   5.734   3.104
  109MYC     H521299   1.736   5.699   3.118
  109MYC     C221300   1.609   5.588   3.254
  109MYC     H221301   1.610   5.673   3.323
  109MYC     O321302   1.478   5.530   3.256
  109MYC     H321303   1.480   5.449   3.201
  109MYC     C121304   1.716   5.486   3.307
  109MYC     H121305   1.812   5.539   3.308
  109MYC    C8121306   1.733   5.360   3.219
  109MYC    O8221307   1.642   5.285   3.189
  109MYC    O8321308   1.862   5.326   3.196
  109MYC   H10521309   1.857   5.243   3.146
  109MYC    C2021310   1.690   5.441   3.453
  109MYC    H3421311   1.608   5.368   3.455
  109MYC    H3521312   1.779   5.388   3.489
  109MYC    C2121313   1.656   5.556   3.552
  109MYC    H3621314   1.731   5.636   3.543
  109MYC    H3721315   1.558   5.598   3.527
  109MYC    C2221316   1.651   5.508   3.697
  109MYC    H3821317   1.580   5.425   3.707
  109MYC    H3921318   1.750   5.470   3.724
  109MYC    C2321319   1.614   5.618   3.797
  109MYC    H4021320   1.685   5.700   3.788
  109MYC    H4121321   1.514   5.658   3.773
  109MYC    C2421322   1.614   5.564   3.941
  109MYC    H4221323   1.528   5.497   3.956
  109MYC    H4321324   1.704   5.504   3.957
  109MYC    C2521325   1.612   5.675   4.048
  109MYC    H4421326   1.699   5.740   4.032
  109MYC    H4521327   1.522   5.737   4.036
  109MYC    C2621328   1.617   5.616   4.190
  109MYC    H4621329   1.519   5.572   4.214
  109MYC    H4721330   1.690   5.535   4.192
  109MYC    C2721331   1.656   5.719   4.297
  109MYC    H4821332   1.756   5.757   4.275
  109MYC    H4921333   1.587   5.805   4.293
  109MYC    C2821334   1.653   5.656   4.437
  109MYC    H5021335   1.549   5.637   4.465
  109MYC    H5121336   1.704   5.559   4.434
  109MYC    C2921337   1.721   5.743   4.544
  109MYC    H5221338   1.826   5.758   4.519
  109MYC    H5321339   1.673   5.842   4.547
  109MYC    C3021340   1.710   5.677   4.682
  109MYC    H5421341   1.603   5.666   4.708
  109MYC    H5521342   1.751   5.575   4.677
  109MYC    C3121343   1.781   5.753   4.794
  109MYC    H5621344   1.889   5.758   4.774
  109MYC    H5721345   1.744   5.857   4.798
  109MYC    C3221346   1.757   5.685   4.930
  109MYC    H5821347   1.649   5.675   4.945
  109MYC    H5921348   1.799   5.584   4.927
  109MYC    C3321349   1.816   5.761   5.049
  109MYC    H6021350   1.926   5.764   5.041
  109MYC    H6121351   1.781   5.865   5.048
  109MYC    C3421352   1.776   5.695   5.181
  109MYC    H6221353   1.666   5.689   5.186
  109MYC    H6321354   1.813   5.591   5.183
  109MYC    C3521355   1.827   5.769   5.306
  109MYC    H6421356   1.936   5.767   5.307
  109MYC    H6521357   1.796   5.874   5.301
  109MYC    C3621358   1.771   5.705   5.434
  109MYC    H6621359   1.662   5.715   5.435
  109MYC    H6721360   1.793   5.597   5.433
  109MYC    C3721361   1.829   5.766   5.562
  109MYC    H6821362   1.937   5.746   5.566
  109MYC    H6921363   1.817   5.875   5.559
  109MYC    C3821364   1.761   5.711   5.688
  109MYC    H7021365   1.655   5.741   5.688
  109MYC    H7121366   1.763   5.601   5.686
  109MYC    C3921367   1.828   5.760   5.817
  109MYC    H7221368   1.929   5.717   5.824
  109MYC    H7321369   1.839   5.869   5.814
  109MYC    C4021370   1.747   5.723   5.943
  109MYC    H7421371   1.649   5.771   5.937
  109MYC    H7521372   1.730   5.614   5.945
  109MYC    C4121373   1.818   5.765   6.073
  109MYC    H7621374   1.909   5.705   6.085
  109MYC    H7721375   1.849   5.870   6.064
  109MYC    C4221376   1.729   5.749   6.197
  109MYC    H7821377   1.636   5.806   6.183
  109MYC    H7921378   1.700   5.644   6.209
  109MYC    C4321379   1.798   5.798   6.325
  109MYC    H8021380   1.729   5.792   6.410
  109MYC    H8121381   1.829   5.903   6.315
  109MYC    H8221382   1.887   5.737   6.346
  110MYC   HH1521383   2.664   0.417   6.179
  110MYC    C8021384   2.595   0.435   6.096
  110MYC   H10021385   2.500   0.387   6.119
  110MYC   H10121386   2.579   0.543   6.088
  110MYC    C7921387   2.654   0.379   5.965
  110MYC   H10221388   2.674   0.272   5.977
  110MYC   H10321389   2.751   0.428   5.946
  110MYC    C7821390   2.561   0.401   5.844
  110MYC   HH1421391   2.533   0.507   5.839
  110MYC   H10421392   2.468   0.344   5.859
  110MYC    C7721393   2.624   0.359   5.710
  110MYC   H10621394   2.649   0.253   5.712
  110MYC   H10721395   2.719   0.414   5.697
  110MYC    C7621396   2.532   0.389   5.589
  110MYC   H10821397   2.501   0.494   5.593
  110MYC   H10921398   2.442   0.328   5.598
  110MYC    C7521399   2.600   0.361   5.454
  110MYC   H11021400   2.627   0.255   5.447
  110MYC   H11121401   2.693   0.419   5.447
  110MYC    C7421402   2.509   0.399   5.334
  110MYC   H11221403   2.481   0.504   5.342
  110MYC   H11321404   2.416   0.341   5.339
  110MYC    C7321405   2.577   0.373   5.199
  110MYC   HH1321406   2.600   0.267   5.189
  110MYC   H11421407   2.673   0.427   5.196
  110MYC    C7221408   2.491   0.419   5.079
  110MYC   H11521409   2.471   0.526   5.088
  110MYC   H11621410   2.395   0.367   5.081
  110MYC    C7121411   2.561   0.391   4.944
  110MYC   H11721412   2.574   0.283   4.932
  110MYC   H11821413   2.661   0.435   4.946
  110MYC    C7021414   2.484   0.447   4.823
  110MYC   H11921415   2.473   0.555   4.835
  110MYC   H12021416   2.384   0.403   4.819
  110MYC    C6921417   2.559   0.419   4.691
  110MYC   H12121418   2.565   0.310   4.675
  110MYC   H12221419   2.662   0.455   4.700
  110MYC    C6821420   2.494   0.484   4.568
  110MYC   HH1221421   2.489   0.593   4.583
  110MYC   H12321422   2.391   0.448   4.555
  110MYC    C6721423   2.576   0.456   4.440
  110MYC   H12421424   2.578   0.348   4.422
  110MYC   H12521425   2.679   0.488   4.457
  110MYC    C6621426   2.522   0.528   4.315
  110MYC   H12621427   2.515   0.635   4.334
  110MYC   H12721428   2.421   0.491   4.291
  110MYC    C6521429   2.616   0.505   4.194
  110MYC   H12821430   2.625   0.397   4.176
  110MYC   H12921431   2.716   0.541   4.220
  110MYC    C6421432   2.570   0.573   4.064
  110MYC   H13021433   2.550   0.680   4.084
  110MYC   H13121434   2.476   0.528   4.030
  110MYC    C6321435   2.677   0.560   3.955
  110MYC   HH1121436   2.701   0.454   3.940
  110MYC   H13221437   2.769   0.609   3.989
  110MYC    C6221438   2.636   0.621   3.819
  110MYC   H13321439   2.603   0.724   3.832
  110MYC   H13421440   2.551   0.564   3.779
  110MYC    C6121441   2.753   0.617   3.719
  110MYC   H13521442   2.804   0.520   3.726
  110MYC   H13621443   2.828   0.692   3.748
  110MYC    C6021444   2.710   0.640   3.575
  110MYC   H13721445   2.659   0.735   3.561
  110MYC    C5821446   2.793   0.588   3.461
  110MYC   H13821447   2.882   0.531   3.486
  110MYC    C5921448   2.660   0.523   3.492
  110MYC   H13921449   2.577   0.542   3.426
  110MYC   H14021450   2.663   0.424   3.536
  110MYC    C5721451   2.810   0.669   3.332
  110MYC   HH1021452   2.900   0.731   3.339
  110MYC   H14121453   2.725   0.736   3.320
  110MYC    C5621454   2.820   0.576   3.210
  110MYC   H14221455   2.737   0.505   3.213
  110MYC   H14321456   2.912   0.516   3.216
  110MYC    C5521457   2.817   0.651   3.075
  110MYC   H14421458   2.915   0.694   3.054
  110MYC   H14521459   2.745   0.734   3.081
  110MYC    C5421460   2.774   0.557   2.960
  110MYC   H14621461   2.673   0.521   2.980
  110MYC   H14721462   2.840   0.469   2.959
  110MYC    C5321463   2.777   0.624   2.821
  110MYC   H14821464   2.881   0.649   2.796
  110MYC   H14921465   2.721   0.718   2.824
  110MYC    C5221466   2.717   0.533   2.713
  110MYC    H9921467   2.610   0.519   2.733
  110MYC   H15021468   2.763   0.433   2.720
  110MYC    C5121469   2.736   0.587   2.570
  110MYC    H9721470   2.843   0.600   2.551
  110MYC    H9821471   2.689   0.686   2.562
  110MYC    C5021472   2.675   0.494   2.464
  110MYC    H9521473   2.567   0.486   2.480
  110MYC    H9621474   2.717   0.393   2.477
  110MYC    C4921475   2.703   0.541   2.320
  110MYC    H9321476   2.811   0.547   2.303
  110MYC    H9421477   2.662   0.642   2.306
  110MYC    C4821478   2.640   0.446   2.215
  110MYC    H9121479   2.533   0.435   2.237
  110MYC    H9221480   2.685   0.347   2.227
  110MYC    C4721481   2.660   0.494   2.070
  110MYC    H8921482   2.767   0.490   2.044
  110MYC    H9021483   2.629   0.598   2.062
  110MYC    C4621484   2.579   0.410   1.968
  110MYC    H8721485   2.473   0.414   1.995
  110MYC    H8821486   2.610   0.305   1.975
  110MYC    C4521487   2.596   0.458   1.822
  110MYC    H8521488   2.698   0.436   1.787
  110MYC    H8621489   2.585   0.567   1.819
  110MYC    C4421490   2.493   0.397   1.725
  110MYC    H8321491   2.504   0.448   1.628
  110MYC    H8421492   2.392   0.422   1.760
  110MYC    C1821493   2.504   0.246   1.702
  110MYC    H3121494   2.569   0.196   1.772
  110MYC    C1721495   2.383   0.169   1.653
  110MYC    H3021496   2.293   0.226   1.630
  110MYC    C1921497   2.500   0.191   1.561
  110MYC    H3221498   2.485   0.260   1.479
  110MYC    H3321499   2.564   0.106   1.539
  110MYC    C1621500   2.352   0.030   1.706
  110MYC    H2821501   2.443   6.435   1.748
  110MYC    H2921502   2.320   6.415   1.624
  110MYC    C1521503   2.242   0.029   1.815
  110MYC    H2621504   2.234   6.377   1.855
  110MYC    H2721505   2.146   0.052   1.768
  110MYC    C1421506   2.268   0.129   1.930
  110MYC    H2421507   2.262   0.231   1.891
  110MYC    H2521508   2.370   0.116   1.966
  110MYC    C1321509   2.168   0.113   2.046
  110MYC    H2221510   2.166   0.008   2.077
  110MYC    H2321511   2.067   0.139   2.012
  110MYC    C1221512   2.206   0.199   2.168
  110MYC    H2021513   2.199   0.305   2.142
  110MYC    H2121514   2.311   0.179   2.194
  110MYC    C1121515   2.118   0.169   2.290
  110MYC    H1821516   2.115   0.061   2.308
  110MYC    H1921517   2.015   0.199   2.268
  110MYC    C1021518   2.164   0.239   2.420
  110MYC    H1621519   2.089   0.217   2.496
  110MYC    H1721520   2.166   0.347   2.406
  110MYC     C921521   2.302   0.191   2.471
  110MYC    H1421522   2.381   0.247   2.420
  110MYC    H1521523   2.315   0.085   2.445
  110MYC     C821524   2.314   0.207   2.623
  110MYC    H1221525   2.230   0.156   2.670
  110MYC    H1321526   2.306   0.313   2.650
  110MYC     C721527   2.445   0.150   2.680
  110MYC    H1021528   2.527   0.222   2.663
  110MYC    H1121529   2.472   0.058   2.626
  110MYC     C621530   2.432   0.118   2.829
  110MYC     H821531   2.358   0.038   2.843
  110MYC     H921532   2.394   0.207   2.881
  110MYC     C521533   2.565   0.076   2.892
  110MYC     H621534   2.633   0.161   2.887
  110MYC     H721535   2.610   6.446   2.832
  110MYC     C421536   2.556   0.027   3.038
  110MYC     H421537   2.656   6.441   3.067
  110MYC     H521538   2.492   6.387   3.041
  110MYC     C221539   2.510   0.128   3.148
  110MYC     H221540   2.572   0.104   3.234
  110MYC     O321541   2.540   0.263   3.110
  110MYC     H321542   2.486   0.323   3.164
  110MYC     C121543   2.361   0.112   3.194
  110MYC     H121544   2.334   0.006   3.180
  110MYC    C8121545   2.258   0.192   3.111
  110MYC    O8221546   2.250   0.314   3.112
  110MYC    O8321547   2.166   0.117   3.046
  110MYC   H10521548   2.104   0.180   3.007
  110MYC    C2021549   2.342   0.141   3.345
  110MYC    H3421550   2.380   0.241   3.370
  110MYC    H3521551   2.234   0.141   3.367
  110MYC    C2121552   2.410   0.035   3.435
  110MYC    H3621553   2.382   6.385   3.398
  110MYC    H3721554   2.519   0.042   3.428
  110MYC    C2221555   2.371   0.044   3.583
  110MYC    H3821556   2.406   0.139   3.625
  110MYC    H3921557   2.262   0.042   3.591
  110MYC    C2321558   2.430   6.376   3.663
  110MYC    H4021559   2.410   6.283   3.608
  110MYC    H4121560   2.539   6.386   3.670
  110MYC    C2421561   2.369   6.360   3.803
  110MYC    H4221562   2.259   6.362   3.795
  110MYC    H4321563   2.395   6.261   3.841
  110MYC    C2521564   2.414   0.016   3.905
  110MYC    H4421565   2.523   0.011   3.917
  110MYC    H4521566   2.389   0.117   3.870
  110MYC    C2621567   2.346   6.439   4.040
  110MYC    H4621568   2.238   0.005   4.029
  110MYC    H4721569   2.361   6.333   4.065
  110MYC    C2721570   2.398   0.074   4.157
  110MYC    H4821571   2.507   0.065   4.165
  110MYC    H4921572   2.374   0.180   4.141
  110MYC    C2821573   2.333   0.025   4.287
  110MYC    H5021574   2.224   0.039   4.281
  110MYC    H5121575   2.350   6.366   4.295
  110MYC    C2921576   2.385   0.091   4.415
  110MYC    H5221577   2.494   0.083   4.419
  110MYC    H5321578   2.359   0.197   4.416
  110MYC    C3021579   2.324   0.021   4.538
  110MYC    H5421580   2.215   0.032   4.535
  110MYC    H5521581   2.345   6.363   4.532
  110MYC    C3121582   2.377   0.074   4.672
  110MYC    H5621583   2.486   0.064   4.674
  110MYC    H5721584   2.354   0.181   4.680
  110MYC    C3221585   2.316   6.448   4.791
  110MYC    H5821586   2.208   0.013   4.792
  110MYC    H5921587   2.334   6.341   4.778
  110MYC    C3321588   2.376   0.044   4.925
  110MYC    H6021589   2.484   0.028   4.923
  110MYC    H6121590   2.360   0.152   4.936
  110MYC    C3421591   2.316   6.421   5.046
  110MYC    H6221592   2.208   6.440   5.050
  110MYC    H6321593   2.329   6.313   5.033
  110MYC    C3521594   2.382   0.017   5.177
  110MYC    H6421595   2.490   6.447   5.171
  110MYC    H6521596   2.370   0.125   5.187
  110MYC    C3621597   2.326   6.397   5.302
  110MYC    H6621598   2.218   6.414   5.308
  110MYC    H6721599   2.342   6.289   5.294
  110MYC    C3721600   2.393   0.001   5.430
  110MYC    H6821601   2.502   6.436   5.422
  110MYC    H6921602   2.376   0.109   5.437
  110MYC    C3821603   2.342   6.384   5.559
  110MYC    H7021604   2.233   6.391   5.563
  110MYC    H7121605   2.368   6.277   5.557
  110MYC    C3921606   2.403   6.449   5.684
  110MYC    H7221607   2.513   6.446   5.677
  110MYC    H7321608   2.374   0.105   5.687
  110MYC    C4021609   2.360   6.381   5.816
  110MYC    H7421610   2.250   6.377   5.820
  110MYC    H7521611   2.395   6.277   5.816
  110MYC    C4121612   2.414   0.004   5.940
  110MYC    H7621613   2.523   0.013   5.932
  110MYC    H7721614   2.373   0.106   5.942
  110MYC    C4221615   2.378   6.383   6.072
  110MYC    H7821616   2.269   6.371   6.079
  110MYC    H7921617   2.422   6.283   6.072
  110MYC    C4321618   2.428   0.010   6.196
  110MYC    H8021619   2.404   6.404   6.287
  110MYC    H8121620   2.381   0.109   6.202
  110MYC    H8221621   2.537   0.024   6.192
  111MYC   HH1521622   2.490   1.388   6.204
  111MYC    C8021623   2.427   1.353   6.121
  111MYC   H10021624   2.354   1.281   6.159
  111MYC   H10121625   2.373   1.440   6.080
  111MYC    C7921626   2.515   1.289   6.011
  111MYC   H10221627   2.566   1.201   6.053
  111MYC   H10321628   2.592   1.360   5.981
  111MYC    C7821629   2.433   1.246   5.888
  111MYC   HH1421630   2.379   1.333   5.850
  111MYC   H10421631   2.358   1.171   5.917
  111MYC    C7721632   2.521   1.189   5.774
  111MYC   H10621633   2.565   1.094   5.806
  111MYC   H10721634   2.604   1.258   5.755
  111MYC    C7621635   2.442   1.168   5.644
  111MYC   H10821636   2.384   1.259   5.623
  111MYC   H10921637   2.369   1.087   5.657
  111MYC    C7521638   2.532   1.138   5.522
  111MYC   H11021639   2.582   1.041   5.536
  111MYC   H11121640   2.610   1.215   5.517
  111MYC    C7421641   2.452   1.137   5.390
  111MYC   H11221642   2.382   1.222   5.391
  111MYC   H11321643   2.392   1.046   5.385
  111MYC    C7321644   2.541   1.149   5.265
  111MYC   HH1321645   2.609   1.064   5.260
  111MYC   H11421646   2.602   1.240   5.272
  111MYC    C7221647   2.456   1.156   5.137
  111MYC   H11521648   2.379   1.234   5.148
  111MYC   H11621649   2.402   1.060   5.125
  111MYC    C7121650   2.537   1.185   5.010
  111MYC   H11721651   2.617   1.111   4.999
  111MYC   H11821652   2.585   1.283   5.020
  111MYC    C7021653   2.448   1.184   4.885
  111MYC   H11921654   2.368   1.258   4.897
  111MYC   H12021655   2.400   1.086   4.876
  111MYC    C6921656   2.525   1.214   4.756
  111MYC   H12121657   2.609   1.143   4.746
  111MYC   H12221658   2.568   1.314   4.761
  111MYC    C6821659   2.435   1.204   4.632
  111MYC   HH1221660   2.354   1.277   4.640
  111MYC   H12321661   2.388   1.104   4.629
  111MYC    C6721662   2.512   1.227   4.501
  111MYC   H12421663   2.593   1.153   4.493
  111MYC   H12521664   2.558   1.326   4.504
  111MYC    C6621665   2.421   1.217   4.378
  111MYC   H12621666   2.343   1.293   4.384
  111MYC   H12721667   2.372   1.119   4.377
  111MYC    C6521668   2.501   1.235   4.248
  111MYC   H12821669   2.578   1.158   4.242
  111MYC   H12921670   2.552   1.332   4.250
  111MYC    C6421671   2.412   1.227   4.123
  111MYC   H13021672   2.334   1.305   4.130
  111MYC   H13121673   2.361   1.130   4.120
  111MYC    C6321674   2.492   1.249   3.995
  111MYC   HH1121675   2.573   1.176   3.990
  111MYC   H13221676   2.537   1.348   3.997
  111MYC    C6221677   2.405   1.235   3.869
  111MYC   H13321678   2.316   1.299   3.878
  111MYC   H13421679   2.369   1.132   3.859
  111MYC    C6121680   2.483   1.275   3.743
  111MYC   H13521681   2.576   1.217   3.738
  111MYC   H13621682   2.512   1.380   3.752
  111MYC    C6021683   2.403   1.257   3.617
  111MYC   H13721684   2.303   1.299   3.624
  111MYC    C5821685   2.473   1.267   3.484
  111MYC   H13821686   2.581   1.277   3.485
  111MYC    C5921687   2.418   1.134   3.530
  111MYC   H13921688   2.328   1.097   3.483
  111MYC   H14021689   2.489   1.058   3.561
  111MYC    C5721690   2.410   1.346   3.371
  111MYC   HH1021691   2.460   1.443   3.364
  111MYC   H14121692   2.304   1.365   3.391
  111MYC    C5621693   2.422   1.273   3.236
  111MYC   H14221694   2.347   1.193   3.232
  111MYC   H14321695   2.521   1.225   3.230
  111MYC    C5521696   2.405   1.367   3.116
  111MYC   H14421697   2.487   1.441   3.117
  111MYC   H14521698   2.311   1.423   3.125
  111MYC    C5421699   2.407   1.289   2.984
  111MYC   H14621700   2.317   1.228   2.977
  111MYC   H14721701   2.493   1.220   2.984
  111MYC    C5321702   2.418   1.380   2.860
  111MYC   H14821703   2.511   1.438   2.866
  111MYC   H14921704   2.335   1.452   2.859
  111MYC    C5221705   2.417   1.297   2.731
  111MYC    H9921706   2.320   1.246   2.721
  111MYC   H15021707   2.494   1.220   2.737
  111MYC    C5121708   2.442   1.381   2.605
  111MYC    H9721709   2.538   1.433   2.615
  111MYC    H9821710   2.364   1.458   2.595
  111MYC    C5021711   2.446   1.294   2.478
  111MYC    H9521712   2.348   1.246   2.463
  111MYC    H9621713   2.519   1.214   2.493
  111MYC    C4921714   2.483   1.374   2.353
  111MYC    H9321715   2.575   1.430   2.372
  111MYC    H9421716   2.405   1.448   2.331
  111MYC    C4821717   2.505   1.284   2.230
  111MYC    H9121718   2.412   1.232   2.205
  111MYC    H9221719   2.579   1.206   2.256
  111MYC    C4721720   2.556   1.362   2.108
  111MYC    H8921721   2.642   1.424   2.138
  111MYC    H9021722   2.478   1.430   2.074
  111MYC    C4621723   2.599   1.269   1.993
  111MYC    H8721724   2.512   1.213   1.958
  111MYC    H8821725   2.668   1.193   2.031
  111MYC    C4521726   2.665   1.342   1.875
  111MYC    H8521727   2.716   1.269   1.811
  111MYC    H8621728   2.743   1.410   1.912
  111MYC    C4421729   2.566   1.423   1.789
  111MYC    H8321730   2.624   1.478   1.713
  111MYC    H8421731   2.517   1.499   1.850
  111MYC    C1821732   2.462   1.335   1.720
  111MYC    H3121733   2.508   1.256   1.661
  111MYC    C1721734   2.328   1.305   1.783
  111MYC    H3021735   2.304   1.355   1.876
  111MYC    C1921736   2.337   1.396   1.662
  111MYC    H3221737   2.318   1.501   1.679
  111MYC    H3321738   2.304   1.358   1.566
  111MYC    C1621739   2.259   1.170   1.766
  111MYC    H2821740   2.319   1.106   1.702
  111MYC    H2921741   2.166   1.186   1.712
  111MYC    C1521742   2.223   1.094   1.897
  111MYC    H2621743   2.123   1.051   1.883
  111MYC    H2721744   2.215   1.163   1.981
  111MYC    C1421745   2.320   0.979   1.931
  111MYC    H2421746   2.414   1.020   1.968
  111MYC    H2521747   2.343   0.923   1.840
  111MYC    C1321748   2.264   0.880   2.035
  111MYC    H2221749   2.169   0.840   1.998
  111MYC    H2321750   2.241   0.934   2.128
  111MYC    C1221751   2.360   0.763   2.064
  111MYC    H2021752   2.447   0.800   2.119
  111MYC    H2121753   2.398   0.723   1.969
  111MYC    C1121754   2.296   0.645   2.142
  111MYC    H1821755   2.371   0.566   2.152
  111MYC    H1921756   2.215   0.603   2.083
  111MYC    C1021757   2.243   0.679   2.283
  111MYC    H1621758   2.215   0.585   2.333
  111MYC    H1721759   2.151   0.737   2.274
  111MYC     C921760   2.342   0.757   2.372
  111MYC    H1421761   2.357   0.857   2.332
  111MYC    H1521762   2.439   0.706   2.372
  111MYC     C821763   2.293   0.769   2.517
  111MYC    H1221764   2.288   0.669   2.561
  111MYC    H1321765   2.191   0.810   2.519
  111MYC     C721766   2.384   0.859   2.603
  111MYC    H1021767   2.369   0.964   2.575
  111MYC    H1121768   2.489   0.835   2.582
  111MYC     C621769   2.357   0.840   2.753
  111MYC     H821770   2.370   0.734   2.777
  111MYC     H921771   2.252   0.864   2.773
  111MYC     C521772   2.449   0.925   2.843
  111MYC     H621773   2.408   1.026   2.853
  111MYC     H721774   2.547   0.936   2.795
  111MYC     C421775   2.471   0.864   2.983
  111MYC     H421776   2.562   0.909   3.026
  111MYC     H521777   2.495   0.757   2.971
  111MYC     C221778   2.357   0.882   3.087
  111MYC     H221779   2.363   0.987   3.121
  111MYC     O321780   2.228   0.861   3.029
  111MYC     H321781   2.211   0.765   3.030
  111MYC     C121782   2.376   0.790   3.211
  111MYC     H121783   2.477   0.810   3.249
  111MYC    C8121784   2.371   0.640   3.175
  111MYC    O8221785   2.465   0.564   3.187
  111MYC    O8321786   2.249   0.596   3.134
  111MYC   H10521787   2.259   0.500   3.120
  111MYC    C2021788   2.277   0.825   3.324
  111MYC    H3421789   2.281   0.932   3.341
  111MYC    H3521790   2.175   0.801   3.294
  111MYC    C2121791   2.309   0.753   3.457
  111MYC    H3621792   2.302   0.644   3.443
  111MYC    H3721793   2.412   0.775   3.485
  111MYC    C2221794   2.215   0.794   3.572
  111MYC    H3821795   2.213   0.904   3.579
  111MYC    H3921796   2.113   0.762   3.550
  111MYC    C2321797   2.262   0.736   3.706
  111MYC    H4021798   2.273   0.628   3.698
  111MYC    H4121799   2.362   0.777   3.728
  111MYC    C2421800   2.167   0.769   3.823
  111MYC    H4221801   2.132   0.872   3.815
  111MYC    H4321802   2.080   0.703   3.819
  111MYC    C2521803   2.239   0.752   3.958
  111MYC    H4421804   2.287   0.653   3.962
  111MYC    H4521805   2.319   0.827   3.965
  111MYC    C2621806   2.146   0.765   4.081
  111MYC    H4621807   2.081   0.853   4.069
  111MYC    H4721808   2.082   0.677   4.086
  111MYC    C2721809   2.227   0.779   4.211
  111MYC    H4821810   2.312   0.710   4.208
  111MYC    H4921811   2.269   0.881   4.216
  111MYC    C2821812   2.145   0.750   4.338
  111MYC    H5021813   2.053   0.810   4.337
  111MYC    H5121814   2.115   0.644   4.337
  111MYC    C2921815   2.225   0.780   4.466
  111MYC    H5221816   2.324   0.734   4.459
  111MYC    H5321817   2.240   0.888   4.475
  111MYC    C3021818   2.155   0.727   4.593
  111MYC    H5421819   2.053   0.767   4.598
  111MYC    H5521820   2.148   0.618   4.588
  111MYC    C3121821   2.231   0.767   4.721
  111MYC    H5621822   2.336   0.737   4.713
  111MYC    H5721823   2.231   0.877   4.730
  111MYC    C3221824   2.171   0.705   4.849
  111MYC    H5821825   2.064   0.730   4.854
  111MYC    H5921826   2.179   0.596   4.843
  111MYC    C3321827   2.241   0.755   4.976
  111MYC    H6021828   2.349   0.736   4.969
  111MYC    H6121829   2.229   0.864   4.983
  111MYC    C3421830   2.187   0.690   5.105
  111MYC    H6221831   2.078   0.704   5.109
  111MYC    H6321832   2.206   0.582   5.102
  111MYC    C3521833   2.250   0.750   5.232
  111MYC    H6421834   2.359   0.736   5.228
  111MYC    H6521835   2.232   0.858   5.233
  111MYC    C3621836   2.196   0.689   5.362
  111MYC    H6621837   2.087   0.701   5.365
  111MYC    H6721838   2.216   0.581   5.364
  111MYC    C3721839   2.257   0.754   5.487
  111MYC    H6821840   2.365   0.735   5.488
  111MYC    H6921841   2.244   0.863   5.481
  111MYC    C3821842   2.195   0.705   5.619
  111MYC    H7021843   2.089   0.732   5.622
  111MYC    H7121844   2.201   0.595   5.624
  111MYC    C3921845   2.266   0.764   5.743
  111MYC    H7221846   2.368   0.723   5.748
  111MYC    H7321847   2.276   0.873   5.730
  111MYC    C4021848   2.193   0.736   5.875
  111MYC    H7421849   2.097   0.789   5.875
  111MYC    H7521850   2.171   0.629   5.884
  111MYC    C4121851   2.276   0.780   5.998
  111MYC    H7621852   2.363   0.714   6.007
  111MYC    H7721853   2.314   0.881   5.981
  111MYC    C4221854   2.196   0.778   6.130
  111MYC    H7821855   2.112   0.848   6.122
  111MYC    H7921856   2.153   0.678   6.146
  111MYC    C4321857   2.282   0.816   6.252
  111MYC    H8021858   2.220   0.825   6.341
  111MYC    H8121859   2.333   0.912   6.235
  111MYC    H8221860   2.358   0.739   6.271
  112MYC   HH1521861   2.586   1.745   6.283
  112MYC    C8021862   2.606   1.796   6.189
  112MYC   H10021863   2.538   1.882   6.181
  112MYC   H10121864   2.709   1.834   6.191
  112MYC    C7921865   2.586   1.699   6.072
  112MYC   H10221866   2.487   1.653   6.081
  112MYC   H10321867   2.660   1.618   6.079
  112MYC    C7821868   2.596   1.768   5.935
  112MYC   HH1421869   2.692   1.822   5.928
  112MYC   H10421870   2.517   1.843   5.927
  112MYC    C7721871   2.586   1.669   5.817
  112MYC   H10621872   2.500   1.603   5.830
  112MYC   H10721873   2.676   1.606   5.815
  112MYC    C7621874   2.572   1.743   5.682
  112MYC   H10821875   2.650   1.821   5.675
  112MYC   H10921876   2.475   1.794   5.681
  112MYC    C7521877   2.583   1.651   5.559
  112MYC   H11021878   2.512   1.568   5.568
  112MYC   H11121879   2.684   1.608   5.555
  112MYC    C7421880   2.555   1.729   5.429
  112MYC   H11221881   2.616   1.821   5.428
  112MYC   H11321882   2.450   1.760   5.428
  112MYC    C7321883   2.585   1.649   5.301
  112MYC   HH1321884   2.527   1.556   5.301
  112MYC   H11421885   2.691   1.621   5.300
  112MYC    C7221886   2.553   1.730   5.175
  112MYC   H11521887   2.608   1.825   5.178
  112MYC   H11621888   2.446   1.755   5.175
  112MYC    C7121889   2.588   1.657   5.044
  112MYC   H11721890   2.534   1.561   5.041
  112MYC   H11821891   2.695   1.634   5.043
  112MYC    C7021892   2.553   1.741   4.921
  112MYC   H11921893   2.610   1.835   4.923
  112MYC   H12021894   2.446   1.768   4.924
  112MYC    C6921895   2.581   1.668   4.788
  112MYC   H12121896   2.525   1.574   4.786
  112MYC   H12221897   2.688   1.642   4.783
  112MYC    C6821898   2.542   1.753   4.666
  112MYC   HH1221899   2.599   1.847   4.667
  112MYC   H12321900   2.436   1.780   4.674
  112MYC    C6721901   2.565   1.681   4.533
  112MYC   H12421902   2.516   1.583   4.536
  112MYC   H12521903   2.673   1.663   4.519
  112MYC    C6621904   2.510   1.761   4.414
  112MYC   H12621905   2.559   1.859   4.408
  112MYC   H12721906   2.403   1.779   4.430
  112MYC    C6521907   2.527   1.687   4.280
  112MYC   H12821908   2.493   1.584   4.291
  112MYC   H12921909   2.634   1.684   4.256
  112MYC    C6421910   2.450   1.754   4.165
  112MYC   H13021911   2.492   1.853   4.145
  112MYC   H13121912   2.345   1.768   4.195
  112MYC    C6321913   2.454   1.669   4.037
  112MYC   HH1121914   2.410   1.570   4.057
  112MYC   H13221915   2.558   1.653   4.008
  112MYC    C6221916   2.379   1.734   3.919
  112MYC   H13321917   2.423   1.833   3.899
  112MYC   H13421918   2.274   1.750   3.946
  112MYC    C6121919   2.387   1.649   3.791
  112MYC   H13521920   2.340   1.552   3.811
  112MYC   H13621921   2.492   1.628   3.769
  112MYC    C6021922   2.322   1.714   3.670
  112MYC   H13721923   2.285   1.815   3.689
  112MYC    C5821924   2.375   1.685   3.532
  112MYC   H13821925   2.456   1.614   3.525
  112MYC    C5921926   2.241   1.631   3.573
  112MYC   H13921927   2.152   1.677   3.531
  112MYC   H14021928   2.232   1.524   3.591
  112MYC    C5721929   2.385   1.795   3.426
  112MYC   HH1021930   2.482   1.846   3.437
  112MYC   H14121931   2.308   1.870   3.441
  112MYC    C5621932   2.372   1.739   3.283
  112MYC   H14221933   2.273   1.695   3.270
  112MYC   H14321934   2.445   1.659   3.269
  112MYC    C5521935   2.395   1.846   3.173
  112MYC   H14421936   2.496   1.888   3.185
  112MYC   H14521937   2.324   1.928   3.187
  112MYC    C5421938   2.379   1.788   3.031
  112MYC   H14621939   2.274   1.762   3.015
  112MYC   H14721940   2.437   1.695   3.024
  112MYC    C5321941   2.426   1.884   2.919
  112MYC   H14821942   2.533   1.904   2.931
  112MYC   H14921943   2.374   1.980   2.927
  112MYC    C5221944   2.402   1.824   2.779
  112MYC    H9921945   2.294   1.811   2.764
  112MYC   H15021946   2.446   1.723   2.775
  112MYC    C5121947   2.459   1.907   2.661
  112MYC    H9721948   2.568   1.918   2.675
  112MYC    H9821949   2.416   2.008   2.662
  112MYC    C5021950   2.431   1.839   2.526
  112MYC    H9521951   2.323   1.830   2.512
  112MYC    H9621952   2.471   1.736   2.530
  112MYC    C4921953   2.491   1.909   2.402
  112MYC    H9321954   2.600   1.921   2.416
  112MYC    H9421955   2.448   2.009   2.390
  112MYC    C4821956   2.466   1.825   2.274
  112MYC    H9121957   2.358   1.819   2.256
  112MYC    H9221958   2.500   1.723   2.294
  112MYC    C4721959   2.535   1.876   2.145
  112MYC    H8921960   2.630   1.924   2.170
  112MYC    H9021961   2.472   1.953   2.099
  112MYC    C4621962   2.559   1.760   2.045
  112MYC    H8721963   2.465   1.707   2.028
  112MYC    H8821964   2.624   1.686   2.093
  112MYC    C4521965   2.625   1.797   1.909
  112MYC    H8521966   2.654   1.706   1.857
  112MYC    H8621967   2.718   1.852   1.928
  112MYC    C4421968   2.539   1.883   1.814
  112MYC    H8321969   2.600   1.912   1.728
  112MYC    H8421970   2.514   1.977   1.865
  112MYC    C1821971   2.411   1.816   1.766
  112MYC    H3121972   2.368   1.747   1.838
  112MYC    C1721973   2.313   1.900   1.689
  112MYC    H3021974   2.344   1.999   1.657
  112MYC    C1921975   2.383   1.786   1.621
  112MYC    H3221976   2.461   1.808   1.550
  112MYC    H3321977   2.321   1.701   1.595
  112MYC    C1621978   2.166   1.893   1.726
  112MYC    H2821979   2.143   1.799   1.778
  112MYC    H2921980   2.107   1.892   1.633
  112MYC    C1521981   2.119   2.012   1.812
  112MYC    H2621982   2.012   1.998   1.832
  112MYC    H2721983   2.130   2.104   1.754
  112MYC    C1421984   2.191   2.029   1.948
  112MYC    H2421985   2.299   2.041   1.932
  112MYC    H2521986   2.177   1.940   2.009
  112MYC    C1321987   2.138   2.153   2.022
  112MYC    H2221988   2.029   2.148   2.026
  112MYC    H2321989   2.163   2.243   1.963
  112MYC    C1221990   2.192   2.171   2.165
  112MYC    H2021991   2.302   2.179   2.162
  112MYC    H2121992   2.167   2.081   2.223
  112MYC    C1121993   2.133   2.297   2.232
  112MYC    H1821994   2.024   2.296   2.220
  112MYC    H1921995   2.169   2.385   2.177
  112MYC    C1021996   2.167   2.314   2.381
  112MYC    H1621997   2.131   2.412   2.413
  112MYC    H1721998   2.275   2.313   2.393
  112MYC     C921999   2.106   2.206   2.471
  112MYC    H1422000   2.155   2.110   2.451
  112MYC    H1522001   1.999   2.193   2.446
  112MYC     C822002   2.118   2.238   2.621
  112MYC    H1222003   2.054   2.324   2.645
  112MYC    H1322004   2.221   2.267   2.645
  112MYC     C722005   2.077   2.117   2.708
  112MYC    H1022006   2.151   2.038   2.694
  112MYC    H1122007   1.981   2.078   2.672
  112MYC     C622008   2.063   2.149   2.858
  112MYC     H822009   1.980   2.219   2.872
  112MYC     H922010   2.155   2.198   2.894
  112MYC     C522011   2.039   2.021   2.940
  112MYC     H622012   2.130   1.960   2.940
  112MYC     H722013   1.962   1.961   2.888
  112MYC     C422014   1.991   2.041   3.085
  112MYC     H422015   1.981   1.941   3.129
  112MYC     H522016   1.890   2.083   3.084
  112MYC     C222017   2.083   2.127   3.176
  112MYC     H222018   2.187   2.106   3.149
  112MYC     O322019   2.056   2.266   3.153
  112MYC     H322020   1.967   2.285   3.190
  112MYC     C122021   2.064   2.094   3.326
  112MYC     H122022   2.096   1.989   3.337
  112MYC    C8122023   1.916   2.101   3.368
  112MYC    O8222024   1.853   2.205   3.376
  112MYC    O8322025   1.858   1.981   3.387
  112MYC   H10522026   1.764   2.000   3.405
  112MYC    C2022027   2.153   2.177   3.422
  112MYC    H3422028   2.257   2.177   3.385
  112MYC    H3522029   2.120   2.281   3.423
  112MYC    C2122030   2.152   2.121   3.566
  112MYC    H3622031   2.048   2.114   3.602
  112MYC    H3722032   2.191   2.019   3.565
  112MYC    C2222033   2.231   2.204   3.669
  112MYC    H3822034   2.328   2.234   3.627
  112MYC    H3922035   2.176   2.296   3.691
  112MYC    C2322036   2.255   2.124   3.799
  112MYC    H4022037   2.164   2.069   3.824
  112MYC    H4122038   2.333   2.050   3.781
  112MYC    C2422039   2.294   2.210   3.921
  112MYC    H4222040   2.378   2.276   3.896
  112MYC    H4322041   2.209   2.276   3.945
  112MYC    C2522042   2.330   2.123   4.043
  112MYC    H4422043   2.267   2.034   4.044
  112MYC    H4522044   2.434   2.089   4.033
  112MYC    C2622045   2.312   2.196   4.178
  112MYC    H4622046   2.374   2.287   4.180
  112MYC    H4722047   2.208   2.228   4.186
  112MYC    C2722048   2.348   2.106   4.299
  112MYC    H4822049   2.305   2.007   4.283
  112MYC    H4922050   2.457   2.094   4.304
  112MYC    C2822051   2.294   2.162   4.432
  112MYC    H5022052   2.335   2.263   4.448
  112MYC    H5122053   2.185   2.172   4.425
  112MYC    C2922054   2.329   2.073   4.553
  112MYC    H5222055   2.298   1.970   4.532
  112MYC    H5322056   2.438   2.072   4.567
  112MYC    C3022057   2.260   2.119   4.682
  112MYC    H5422058   2.282   2.225   4.699
  112MYC    H5522059   2.151   2.111   4.669
  112MYC    C3122060   2.302   2.038   4.806
  112MYC    H5622061   2.281   1.932   4.789
  112MYC    H5722062   2.410   2.048   4.820
  112MYC    C3222063   2.230   2.084   4.934
  112MYC    H5822064   2.247   2.191   4.950
  112MYC    H5922065   2.122   2.070   4.921
  112MYC    C3322066   2.275   2.007   5.060
  112MYC    H6022067   2.261   1.900   5.044
  112MYC    H6122068   2.383   2.023   5.075
  112MYC    C3422069   2.199   2.050   5.187
  112MYC    H6222070   2.212   2.158   5.202
  112MYC    H6322071   2.092   2.032   5.172
  112MYC    C3522072   2.247   1.975   5.313
  112MYC    H6422073   2.233   1.867   5.298
  112MYC    H6522074   2.354   1.993   5.327
  112MYC    C3622075   2.171   2.019   5.440
  112MYC    H6622076   2.184   2.127   5.454
  112MYC    H6722077   2.064   2.000   5.428
  112MYC    C3722078   2.221   1.945   5.566
  112MYC    H6822079   2.203   1.838   5.555
  112MYC    H6922080   2.330   1.959   5.574
  112MYC    C3822081   2.155   1.996   5.696
  112MYC    H7022082   2.176   2.103   5.708
  112MYC    H7122083   2.046   1.985   5.689
  112MYC    C3922084   2.206   1.921   5.821
  112MYC    H7222085   2.174   1.816   5.816
  112MYC    H7322086   2.315   1.921   5.820
  112MYC    C4022087   2.158   1.983   5.954
  112MYC    H7422088   2.193   2.087   5.959
  112MYC    H7522089   2.048   1.986   5.955
  112MYC    C4122090   2.209   1.906   6.078
  112MYC    H7622091   2.164   1.806   6.079
  112MYC    H7722092   2.317   1.893   6.069
  112MYC    C4222093   2.178   1.978   6.211
  112MYC    H7822094   2.220   2.079   6.208
  112MYC    H7922095   2.069   1.989   6.222
  112MYC    C4322096   2.234   1.904   6.334
  112MYC    H8022097   2.218   1.965   6.424
  112MYC    H8122098   2.342   1.887   6.323
  112MYC    H8222099   2.185   1.807   6.347
  113MYC   HH1522100   2.200   2.855   6.062
  113MYC    C8022101   2.273   2.775   6.077
  113MYC   H10022102   2.332   2.799   6.167
  113MYC   H10122103   2.219   2.682   6.096
  113MYC    C7922104   2.366   2.762   5.955
  113MYC   H10222105   2.440   2.684   5.976
  113MYC   H10322106   2.421   2.856   5.941
  113MYC    C7822107   2.291   2.726   5.825
  113MYC   HH1422108   2.221   2.807   5.799
  113MYC   H10422109   2.231   2.636   5.841
  113MYC    C7722110   2.388   2.702   5.707
  113MYC   H10622111   2.461   2.625   5.737
  113MYC   H10722112   2.445   2.793   5.688
  113MYC    C7622113   2.319   2.657   5.576
  113MYC   H10822114   2.258   2.739   5.537
  113MYC   H10922115   2.251   2.574   5.598
  113MYC    C7522116   2.421   2.612   5.470
  113MYC   H11022117   2.480   2.529   5.511
  113MYC   H11122118   2.492   2.694   5.451
  113MYC    C7422119   2.358   2.568   5.336
  113MYC   H11222120   2.312   2.655   5.288
  113MYC   H11322121   2.278   2.495   5.355
  113MYC    C7322122   2.463   2.504   5.242
  113MYC   HH1322123   2.498   2.410   5.285
  113MYC   H11422124   2.550   2.570   5.235
  113MYC    C7222125   2.409   2.479   5.099
  113MYC   H11522126   2.379   2.575   5.056
  113MYC   H11622127   2.319   2.416   5.104
  113MYC    C7122128   2.513   2.411   5.007
  113MYC   H11722129   2.521   2.305   5.032
  113MYC   H11822130   2.611   2.457   5.024
  113MYC    C7022131   2.477   2.427   4.858
  113MYC   H11922132   2.471   2.535   4.837
  113MYC   H12022133   2.377   2.387   4.840
  113MYC    C6922134   2.577   2.362   4.760
  113MYC   H12122135   2.550   2.257   4.745
  113MYC   H12222136   2.678   2.364   4.802
  113MYC    C6822137   2.578   2.437   4.625
  113MYC   HH1222138   2.619   2.537   4.642
  113MYC   H12322139   2.475   2.450   4.592
  113MYC    C6722140   2.658   2.370   4.512
  113MYC   H12422141   2.613   2.273   4.489
  113MYC   H12522142   2.762   2.351   4.545
  113MYC    C6622143   2.659   2.460   4.387
  113MYC   H12622144   2.717   2.550   4.409
  113MYC   H12722145   2.555   2.492   4.368
  113MYC    C6522146   2.713   2.394   4.259
  113MYC   H12822147   2.659   2.300   4.241
  113MYC   H12922148   2.819   2.369   4.271
  113MYC    C6422149   2.695   2.488   4.138
  113MYC   H13022150   2.759   2.576   4.151
  113MYC   H13122151   2.591   2.525   4.138
  113MYC    C6322152   2.723   2.423   4.002
  113MYC   HH1122153   2.664   2.331   3.993
  113MYC   H13222154   2.829   2.394   3.996
  113MYC    C6222155   2.688   2.518   3.886
  113MYC   H13322156   2.755   2.605   3.888
  113MYC   H13422157   2.586   2.556   3.900
  113MYC    C6122158   2.696   2.450   3.748
  113MYC   H13522159   2.628   2.364   3.747
  113MYC   H13622160   2.797   2.411   3.732
  113MYC    C6022161   2.660   2.546   3.635
  113MYC   H13722162   2.735   2.624   3.622
  113MYC    C5822163   2.592   2.494   3.511
  113MYC   H13822164   2.560   2.390   3.512
  113MYC    C5922165   2.518   2.587   3.604
  113MYC   H13922166   2.501   2.689   3.571
  113MYC   H14022167   2.439   2.544   3.665
  113MYC    C5722168   2.643   2.537   3.375
  113MYC   HH1022169   2.726   2.471   3.348
  113MYC   H14122170   2.685   2.639   3.379
  113MYC    C5622171   2.535   2.532   3.264
  113MYC   H14222172   2.482   2.629   3.260
  113MYC   H14322173   2.461   2.456   3.287
  113MYC    C5522174   2.597   2.500   3.127
  113MYC   H14422175   2.636   2.398   3.130
  113MYC   H14522176   2.684   2.566   3.110
  113MYC    C5422177   2.501   2.515   3.008
  113MYC   H14622178   2.477   2.621   2.993
  113MYC   H14722179   2.407   2.462   3.028
  113MYC    C5322180   2.565   2.457   2.880
  113MYC   H14822181   2.570   2.348   2.890
  113MYC   H14922182   2.668   2.494   2.872
  113MYC    C5222183   2.491   2.493   2.749
  113MYC    H9922184   2.496   2.601   2.733
  113MYC   H15022185   2.385   2.465   2.757
  113MYC    C5122186   2.555   2.419   2.630
  113MYC    H9722187   2.531   2.312   2.638
  113MYC    H9822188   2.664   2.427   2.637
  113MYC    C5022189   2.513   2.470   2.491
  113MYC    H9522190   2.547   2.574   2.478
  113MYC    H9622191   2.403   2.472   2.484
  113MYC    C4922192   2.573   2.381   2.380
  113MYC    H9322193   2.538   2.278   2.394
  113MYC    H9422194   2.682   2.379   2.392
  113MYC    C4822195   2.540   2.425   2.236
  113MYC    H9122196   2.571   2.529   2.221
  113MYC    H9222197   2.431   2.421   2.220
  113MYC    C4722198   2.611   2.335   2.133
  113MYC    H8922199   2.582   2.230   2.153
  113MYC    H9022200   2.719   2.341   2.149
  113MYC    C4622201   2.578   2.368   1.987
  113MYC    H8722202   2.605   2.472   1.966
  113MYC    H8822203   2.470   2.358   1.972
  113MYC    C4522204   2.652   2.275   1.889
  113MYC    H8522205   2.627   2.171   1.913
  113MYC    H8622206   2.760   2.285   1.905
  113MYC    C4422207   2.623   2.300   1.739
  113MYC    H8322208   2.676   2.224   1.681
  113MYC    H8422209   2.665   2.397   1.709
  113MYC    C1822210   2.475   2.296   1.703
  113MYC    H3122211   2.418   2.224   1.762
  113MYC    C1722212   2.404   2.421   1.655
  113MYC    H3022213   2.463   2.511   1.640
  113MYC    C1922214   2.432   2.309   1.559
  113MYC    H3222215   2.510   2.324   1.484
  113MYC    H3322216   2.349   2.247   1.526
  113MYC    C1622217   2.260   2.451   1.694
  113MYC    H2822218   2.216   2.368   1.751
  113MYC    H2922219   2.201   2.459   1.602
  113MYC    C1522220   2.243   2.582   1.773
  113MYC    H2622221   2.136   2.608   1.769
  113MYC    H2722222   2.296   2.662   1.720
  113MYC    C1422223   2.289   2.580   1.920
  113MYC    H2422224   2.399   2.575   1.923
  113MYC    H2522225   2.251   2.491   1.970
  113MYC    C1322226   2.244   2.707   1.994
  113MYC    H2222227   2.142   2.733   1.961
  113MYC    H2322228   2.309   2.788   1.961
  113MYC    C1222229   2.244   2.703   2.148
  113MYC    H2022230   2.347   2.693   2.185
  113MYC    H2122231   2.187   2.616   2.182
  113MYC    C1122232   2.179   2.832   2.204
  113MYC    H1822233   2.075   2.837   2.171
  113MYC    H1922234   2.231   2.919   2.159
  113MYC    C1022235   2.183   2.851   2.357
  113MYC    H1622236   2.135   2.947   2.380
  113MYC    H1722237   2.287   2.858   2.390
  113MYC     C922238   2.112   2.739   2.437
  113MYC    H1422239   2.168   2.646   2.426
  113MYC    H1522240   2.011   2.722   2.396
  113MYC     C822241   2.101   2.775   2.587
  113MYC    H1222242   2.027   2.856   2.599
  113MYC    H1322243   2.197   2.815   2.621
  113MYC     C722244   2.062   2.656   2.676
  113MYC    H1022245   2.140   2.579   2.670
  113MYC    H1122246   1.968   2.611   2.640
  113MYC     C622247   2.044   2.699   2.823
  113MYC     H822248   1.956   2.764   2.830
  113MYC     H922249   2.132   2.757   2.853
  113MYC     C522250   2.027   2.581   2.921
  113MYC     H622251   2.122   2.525   2.928
  113MYC     H722252   1.954   2.511   2.878
  113MYC     C422253   1.978   2.619   3.063
  113MYC     H422254   1.962   2.525   3.117
  113MYC     H522255   1.878   2.664   3.055
  113MYC     C222256   2.069   2.709   3.154
  113MYC     H222257   2.058   2.666   3.254
  113MYC     O322258   2.206   2.698   3.117
  113MYC     H322259   2.214   2.722   3.023
  113MYC     C122260   2.024   2.859   3.167
  113MYC     H122261   1.915   2.856   3.184
  113MYC    C8122262   2.046   2.943   3.040
  113MYC    O8222263   2.155   2.975   2.996
  113MYC    O8322264   1.932   2.994   2.987
  113MYC   H10522265   1.960   3.051   2.913
  113MYC    C2022266   2.084   2.933   3.290
  113MYC    H3422267   2.194   2.931   3.285
  113MYC    H3522268   2.054   3.038   3.285
  113MYC    C2122269   2.037   2.875   3.426
  113MYC    H3622270   1.929   2.860   3.421
  113MYC    H3722271   2.083   2.777   3.442
  113MYC    C2222272   2.069   2.965   3.548
  113MYC    H3822273   2.177   2.974   3.560
  113MYC    H3922274   2.029   3.065   3.530
  113MYC    C2322275   2.005   2.907   3.676
  113MYC    H4022276   1.899   2.889   3.656
  113MYC    H4122277   2.050   2.809   3.697
  113MYC    C2422278   2.018   2.996   3.801
  113MYC    H4222279   2.123   2.999   3.834
  113MYC    H4322280   1.988   3.099   3.776
  113MYC    C2522281   1.928   2.944   3.915
  113MYC    H4422282   1.825   2.938   3.877
  113MYC    H4522283   1.956   2.841   3.940
  113MYC    C2622284   1.926   3.032   4.043
  113MYC    H4622285   1.967   3.131   4.022
  113MYC    H4722286   1.821   3.047   4.071
  113MYC    C2722287   2.000   2.968   4.162
  113MYC    H4822288   1.967   2.864   4.173
  113MYC    H4922289   2.108   2.966   4.142
  113MYC    C2822290   1.973   3.042   4.295
  113MYC    H5022291   2.020   3.140   4.293
  113MYC    H5122292   1.865   3.059   4.304
  113MYC    C2922293   2.021   2.964   4.419
  113MYC    H5222294   1.978   2.863   4.417
  113MYC    H5322295   2.130   2.953   4.416
  113MYC    C3022296   1.978   3.033   4.550
  113MYC    H5422297   2.027   3.130   4.556
  113MYC    H5522298   1.870   3.051   4.547
  113MYC    C3122299   2.011   2.951   4.676
  113MYC    H5622300   1.966   2.852   4.669
  113MYC    H5722301   2.120   2.938   4.683
  113MYC    C3222302   1.959   3.021   4.804
  113MYC    H5822303   1.998   3.123   4.806
  113MYC    H5922304   1.850   3.028   4.798
  113MYC    C3322305   2.000   2.950   4.934
  113MYC    H6022306   1.961   2.847   4.934
  113MYC    H6122307   2.109   2.944   4.939
  113MYC    C3422308   1.946   3.024   5.059
  113MYC    H6222309   1.972   3.130   5.051
  113MYC    H6322310   1.837   3.017   5.060
  113MYC    C3522311   2.003   2.969   5.191
  113MYC    H6422312   1.977   2.863   5.201
  113MYC    H6522313   2.113   2.975   5.188
  113MYC    C3622314   1.951   3.047   5.313
  113MYC    H6622315   1.971   3.154   5.298
  113MYC    H6722316   1.843   3.035   5.321
  113MYC    C3722317   2.017   3.003   5.445
  113MYC    H6822318   1.995   2.896   5.462
  113MYC    H6922319   2.126   3.012   5.437
  113MYC    C3822320   1.968   3.086   5.566
  113MYC    H7022321   1.992   3.191   5.548
  113MYC    H7122322   1.859   3.078   5.573
  113MYC    C3922323   2.031   3.040   5.699
  113MYC    H7222324   2.003   2.936   5.718
  113MYC    H7322325   2.141   3.044   5.691
  113MYC    C4022326   1.987   3.128   5.818
  113MYC    H7422327   2.022   3.230   5.801
  113MYC    H7522328   1.877   3.131   5.821
  113MYC    C4122329   2.040   3.077   5.953
  113MYC    H7622330   2.005   2.974   5.968
  113MYC    H7722331   2.150   3.073   5.949
  113MYC    C4222332   1.997   3.164   6.072
  113MYC    H7822333   2.036   3.266   6.059
  113MYC    H7922334   1.887   3.172   6.074
  113MYC    C4322335   2.045   3.109   6.207
  113MYC    H8022336   2.012   3.173   6.289
  113MYC    H8122337   2.155   3.103   6.209
  113MYC    H8222338   2.005   3.008   6.223
  114MYC   HH1522339   2.364   3.424   6.132
  114MYC    C8022340   2.366   3.494   6.048
  114MYC   H10022341   2.304   3.581   6.074
  114MYC   H10122342   2.469   3.527   6.033
  114MYC    C7922343   2.313   3.425   5.921
  114MYC   H10222344   2.211   3.389   5.939
  114MYC   H10322345   2.373   3.337   5.899
  114MYC    C7822346   2.313   3.519   5.798
  114MYC   HH1422347   2.417   3.542   5.772
  114MYC   H10422348   2.265   3.614   5.824
  114MYC    C7722349   2.242   3.458   5.675
  114MYC   H10622350   2.135   3.448   5.697
  114MYC   H10722351   2.281   3.357   5.657
  114MYC    C7622352   2.262   3.543   5.548
  114MYC   H10822353   2.369   3.547   5.524
  114MYC   H10922354   2.230   3.646   5.568
  114MYC    C7522355   2.184   3.488   5.427
  114MYC   H11022356   2.076   3.497   5.445
  114MYC   H11122357   2.206   3.381   5.415
  114MYC    C7422358   2.221   3.562   5.296
  114MYC   H11222359   2.329   3.551   5.279
  114MYC   H11322360   2.200   3.669   5.307
  114MYC    C7322361   2.145   3.507   5.174
  114MYC   HH1322362   2.038   3.531   5.184
  114MYC   H11422363   2.154   3.398   5.171
  114MYC    C7222364   2.199   3.565   5.042
  114MYC   H11522365   2.307   3.546   5.037
  114MYC   H11622366   2.185   3.674   5.041
  114MYC    C7122367   2.131   3.504   4.918
  114MYC   H11722368   2.026   3.535   4.915
  114MYC   H11822369   2.133   3.395   4.927
  114MYC    C7022370   2.202   3.545   4.788
  114MYC   H11922371   2.308   3.518   4.795
  114MYC   H12022372   2.197   3.654   4.776
  114MYC    C6922373   2.141   3.477   4.664
  114MYC   H12122374   2.038   3.513   4.650
  114MYC   H12222375   2.135   3.369   4.682
  114MYC    C6822376   2.224   3.503   4.538
  114MYC   HH1222377   2.325   3.464   4.552
  114MYC   H12322378   2.232   3.611   4.521
  114MYC    C6722379   2.162   3.437   4.414
  114MYC   H12422380   2.064   3.484   4.393
  114MYC   H12522381   2.143   3.331   4.433
  114MYC    C6622382   2.252   3.451   4.290
  114MYC   H12622383   2.345   3.396   4.308
  114MYC   H12722384   2.279   3.556   4.276
  114MYC    C6522385   2.184   3.398   4.163
  114MYC   H12822386   2.093   3.456   4.144
  114MYC   H12922387   2.153   3.294   4.178
  114MYC    C6422388   2.276   3.406   4.041
  114MYC   H13022389   2.363   3.341   4.057
  114MYC   H13122390   2.314   3.509   4.031
  114MYC    C6322391   2.204   3.365   3.912
  114MYC   HH1122392   2.118   3.431   3.897
  114MYC   H13222393   2.166   3.263   3.922
  114MYC    C6222394   2.297   3.374   3.790
  114MYC   H13322395   2.378   3.301   3.802
  114MYC   H13422396   2.343   3.473   3.786
  114MYC    C6122397   2.222   3.348   3.660
  114MYC   H13522398   2.145   3.425   3.646
  114MYC   H13622399   2.169   3.252   3.666
  114MYC    C6022400   2.316   3.345   3.541
  114MYC   H13722401   2.380   3.258   3.542
  114MYC    C5822402   2.268   3.396   3.408
  114MYC   H13822403   2.172   3.446   3.404
  114MYC    C5922404   2.377   3.470   3.482
  114MYC   H13922405   2.478   3.463   3.444
  114MYC   H14022406   2.351   3.565   3.527
  114MYC    C5722407   2.293   3.309   3.287
  114MYC   HH1022408   2.197   3.267   3.254
  114MYC   H14122409   2.356   3.223   3.312
  114MYC    C5622410   2.358   3.384   3.170
  114MYC   H14222411   2.465   3.400   3.192
  114MYC   H14322412   2.312   3.483   3.158
  114MYC    C5522413   2.342   3.304   3.040
  114MYC   H14422414   2.237   3.308   3.010
  114MYC   H14522415   2.366   3.199   3.059
  114MYC    C5422416   2.430   3.354   2.925
  114MYC   H14622417   2.535   3.333   2.947
  114MYC   H14722418   2.419   3.463   2.916
  114MYC    C5322419   2.388   3.289   2.794
  114MYC   H14822420   2.286   3.322   2.770
  114MYC   H14922421   2.384   3.180   2.807
  114MYC    C5222422   2.480   3.321   2.676
  114MYC    H9922423   2.578   3.272   2.691
  114MYC   H15022424   2.498   3.429   2.669
  114MYC    C5122425   2.417   3.271   2.545
  114MYC    H9722426   2.325   3.328   2.527
  114MYC    H9822427   2.388   3.166   2.556
  114MYC    C5022428   2.509   3.284   2.423
  114MYC    H9522429   2.595   3.218   2.436
  114MYC    H9622430   2.547   3.387   2.416
  114MYC    C4922431   2.434   3.247   2.294
  114MYC    H9322432   2.353   3.318   2.277
  114MYC    H9422433   2.388   3.148   2.305
  114MYC    C4822434   2.527   3.246   2.173
  114MYC    H9122435   2.605   3.171   2.188
  114MYC    H9222436   2.578   3.343   2.166
  114MYC    C4722437   2.454   3.218   2.040
  114MYC    H8922438   2.384   3.299   2.018
  114MYC    H9022439   2.396   3.125   2.047
  114MYC    C4622440   2.557   3.206   1.927
  114MYC    H8722441   2.617   3.116   1.942
  114MYC    H8822442   2.625   3.290   1.938
  114MYC    C4522443   2.500   3.204   1.783
  114MYC    H8522444   2.432   3.288   1.768
  114MYC    H8622445   2.441   3.113   1.771
  114MYC    C4422446   2.612   3.206   1.676
  114MYC    H8322447   2.578   3.146   1.591
  114MYC    H8422448   2.701   3.153   1.714
  114MYC    C1822449   2.649   3.345   1.626
  114MYC    H3122450   2.594   3.371   1.537
  114MYC    C1722451   2.684   3.460   1.717
  114MYC    H3022452   2.692   3.442   1.823
  114MYC    C1922453   2.791   3.398   1.634
  114MYC    H3222454   2.866   3.337   1.684
  114MYC    H3322455   2.830   3.462   1.556
  114MYC    C1622456   2.633   3.599   1.686
  114MYC    H2822457   2.528   3.606   1.719
  114MYC    H2922458   2.633   3.616   1.578
  114MYC    C1522459   2.714   3.711   1.755
  114MYC    H2622460   2.670   3.808   1.728
  114MYC    H2722461   2.816   3.711   1.717
  114MYC    C1422462   2.715   3.697   1.907
  114MYC    H2422463   2.777   3.612   1.937
  114MYC    H2522464   2.613   3.676   1.942
  114MYC    C1322465   2.767   3.822   1.978
  114MYC    H2222466   2.713   3.911   1.942
  114MYC    H2322467   2.873   3.836   1.955
  114MYC    C1222468   2.747   3.810   2.129
  114MYC    H2022469   2.799   3.721   2.166
  114MYC    H2122470   2.640   3.795   2.149
  114MYC    C1122471   2.796   3.934   2.205
  114MYC    H1822472   2.745   4.022   2.168
  114MYC    H1922473   2.903   3.947   2.185
  114MYC    C1022474   2.776   3.925   2.357
  114MYC    H1622475   2.812   4.019   2.402
  114MYC    H1722476   2.838   3.844   2.397
  114MYC     C922477   2.628   3.902   2.398
  114MYC    H1422478   2.602   3.796   2.384
  114MYC    H1522479   2.562   3.960   2.333
  114MYC     C822480   2.599   3.943   2.543
  114MYC    H1222481   2.493   3.927   2.564
  114MYC    H1322482   2.618   4.050   2.555
  114MYC     C722483   2.681   3.869   2.650
  114MYC    H1022484   2.665   3.923   2.744
  114MYC    H1122485   2.789   3.878   2.630
  114MYC     C622486   2.644   3.720   2.665
  114MYC     H822487   2.699   3.661   2.591
  114MYC     H922488   2.537   3.705   2.644
  114MYC     C522489   2.674   3.666   2.806
  114MYC     H622490   2.778   3.692   2.831
  114MYC     H722491   2.670   3.557   2.804
  114MYC     C422492   2.575   3.719   2.914
  114MYC     H422493   2.479   3.670   2.898
  114MYC     H522494   2.555   3.825   2.900
  114MYC     C222495   2.618   3.697   3.061
  114MYC     H222496   2.525   3.694   3.120
  114MYC     O322497   2.683   3.570   3.073
  114MYC     H322498   2.720   3.563   3.163
  114MYC     C122499   2.704   3.813   3.120
  114MYC     H122500   2.639   3.901   3.121
  114MYC    C8122501   2.823   3.854   3.030
  114MYC    O8222502   2.827   3.960   2.970
  114MYC    O8322503   2.933   3.776   3.041
  114MYC   H10522504   3.000   3.817   2.984
  114MYC    C2022505   2.749   3.789   3.266
  114MYC    H3422506   2.800   3.692   3.274
  114MYC    H3522507   2.823   3.865   3.293
  114MYC    C2122508   2.634   3.796   3.369
  114MYC    H3622509   2.597   3.899   3.373
  114MYC    H3722510   2.551   3.732   3.338
  114MYC    C2222511   2.681   3.752   3.508
  114MYC    H3822512   2.696   3.643   3.508
  114MYC    H3922513   2.778   3.798   3.530
  114MYC    C2322514   2.582   3.791   3.619
  114MYC    H4022515   2.570   3.900   3.619
  114MYC    H4122516   2.484   3.747   3.600
  114MYC    C2422517   2.633   3.746   3.757
  114MYC    H4222518   2.641   3.637   3.760
  114MYC    H4322519   2.735   3.786   3.772
  114MYC    C2522520   2.544   3.794   3.873
  114MYC    H4422521   2.528   3.902   3.865
  114MYC    H4522522   2.445   3.745   3.866
  114MYC    C2622523   2.609   3.761   4.009
  114MYC    H4622524   2.628   3.654   4.015
  114MYC    H4722525   2.706   3.812   4.014
  114MYC    C2722526   2.524   3.804   4.129
  114MYC    H4822527   2.499   3.911   4.121
  114MYC    H4922528   2.430   3.748   4.130
  114MYC    C2822529   2.601   3.780   4.260
  114MYC    H5022530   2.628   3.674   4.267
  114MYC    H5122531   2.694   3.837   4.257
  114MYC    C2922532   2.523   3.820   4.387
  114MYC    H5222533   2.486   3.923   4.377
  114MYC    H5322534   2.435   3.754   4.398
  114MYC    C3022535   2.612   3.809   4.511
  114MYC    H5422536   2.650   3.706   4.520
  114MYC    H5522537   2.700   3.874   4.497
  114MYC    C3122538   2.542   3.848   4.642
  114MYC    H5622539   2.495   3.947   4.631
  114MYC    H5722540   2.463   3.776   4.664
  114MYC    C3222541   2.642   3.853   4.759
  114MYC    H5822542   2.695   3.757   4.765
  114MYC    H5922543   2.718   3.929   4.737
  114MYC    C3322544   2.577   3.884   4.894
  114MYC    H6022545   2.522   3.978   4.888
  114MYC    H6122546   2.504   3.805   4.917
  114MYC    C3422547   2.681   3.893   5.007
  114MYC    H6222548   2.746   3.804   5.004
  114MYC    H6322549   2.746   3.980   4.989
  114MYC    C3522550   2.618   3.903   5.147
  114MYC    H6422551   2.556   3.994   5.152
  114MYC    H6522552   2.552   3.818   5.163
  114MYC    C3622553   2.724   3.908   5.258
  114MYC    H6622554   2.793   3.823   5.246
  114MYC    H6722555   2.784   3.999   5.247
  114MYC    C3722556   2.663   3.903   5.399
  114MYC    H6822557   2.593   3.987   5.410
  114MYC    H6922558   2.605   3.811   5.411
  114MYC    C3822559   2.770   3.912   5.509
  114MYC    H7022560   2.843   3.831   5.495
  114MYC    H7122561   2.824   4.006   5.498
  114MYC    C3922562   2.711   3.901   5.651
  114MYC    H7222563   2.626   3.970   5.661
  114MYC    H7322564   2.672   3.800   5.667
  114MYC    C4022565   2.815   3.934   5.760
  114MYC    H7422566   2.904   3.871   5.746
  114MYC    H7522567   2.848   4.038   5.747
  114MYC    C4122568   2.762   3.915   5.903
  114MYC    H7622569   2.666   3.967   5.914
  114MYC    H7722570   2.744   3.808   5.921
  114MYC    C4222571   2.860   3.968   6.010
  114MYC    H7822572   2.958   3.921   5.997
  114MYC    H7922573   2.874   4.076   5.995
  114MYC    C4322574   2.811   3.944   6.154
  114MYC    H8022575   2.878   3.993   6.226
  114MYC    H8122576   2.808   3.837   6.176
  114MYC    H8222577   2.710   3.985   6.168
  115MYC   HH1522578   2.139   4.056   6.158
  115MYC    C8022579   2.248   4.053   6.158
  115MYC   H10022580   2.285   4.156   6.164
  115MYC   H10122581   2.281   4.000   6.248
  115MYC    C7922582   2.301   3.982   6.032
  115MYC   H10222583   2.251   3.885   6.023
  115MYC   H10322584   2.408   3.962   6.043
  115MYC    C7822585   2.279   4.064   5.903
  115MYC   HH1422586   2.346   4.152   5.904
  115MYC   H10422587   2.177   4.103   5.900
  115MYC    C7722588   2.304   3.982   5.775
  115MYC   H10622589   2.230   3.902   5.770
  115MYC   H10722590   2.403   3.934   5.780
  115MYC    C7622591   2.296   4.067   5.646
  115MYC   H10822592   2.384   4.132   5.640
  115MYC   H10922593   2.208   4.132   5.650
  115MYC    C7522594   2.287   3.980   5.518
  115MYC   H11022595   2.197   3.919   5.524
  115MYC   H11122596   2.373   3.912   5.514
  115MYC    C7422597   2.283   4.064   5.389
  115MYC   H11222598   2.378   4.117   5.377
  115MYC   H11322599   2.205   4.141   5.399
  115MYC    C7322600   2.254   3.979   5.264
  115MYC   HH1322601   2.157   3.929   5.277
  115MYC   H11422602   2.330   3.901   5.255
  115MYC    C7222603   2.251   4.062   5.135
  115MYC   H11522604   2.348   4.110   5.120
  115MYC   H11622605   2.177   4.143   5.145
  115MYC    C7122606   2.217   3.978   5.011
  115MYC   H11722607   2.119   3.930   5.025
  115MYC   H11822608   2.290   3.897   5.002
  115MYC    C7022609   2.215   4.060   4.881
  115MYC   H11922610   2.312   4.109   4.868
  115MYC   H12022611   2.140   4.139   4.889
  115MYC    C6922612   2.184   3.973   4.758
  115MYC   H12122613   2.087   3.925   4.771
  115MYC   H12222614   2.259   3.894   4.750
  115MYC    C6822615   2.184   4.054   4.627
  115MYC   HH1222616   2.282   4.102   4.613
  115MYC   H12322617   2.110   4.135   4.634
  115MYC    C6722618   2.152   3.967   4.504
  115MYC   H12422619   2.053   3.921   4.517
  115MYC   H12522620   2.225   3.885   4.498
  115MYC    C6622621   2.154   4.046   4.373
  115MYC   H12622622   2.255   4.087   4.357
  115MYC   H12722623   2.086   4.132   4.380
  115MYC    C6522624   2.114   3.960   4.251
  115MYC   H12822625   2.011   3.926   4.265
  115MYC   H12922626   2.178   3.871   4.247
  115MYC    C6422627   2.126   4.037   4.119
  115MYC   H13022628   2.230   4.066   4.103
  115MYC   H13122629   2.068   4.130   4.125
  115MYC    C6322630   2.077   3.956   3.998
  115MYC   HH1122631   1.970   3.932   4.011
  115MYC   H13222632   2.131   3.860   3.993
  115MYC    C6222633   2.097   4.032   3.866
  115MYC   H13322634   2.203   4.057   3.855
  115MYC   H13422635   2.043   4.127   3.871
  115MYC    C6122636   2.047   3.954   3.741
  115MYC   H13522637   1.974   4.017   3.689
  115MYC   H13622638   1.993   3.864   3.772
  115MYC    C6022639   2.160   3.915   3.646
  115MYC   H13722640   2.206   3.820   3.671
  115MYC    C5822641   2.148   3.951   3.500
  115MYC   H13822642   2.062   4.011   3.471
  115MYC    C5922643   2.251   4.020   3.585
  115MYC   H13922644   2.355   3.993   3.570
  115MYC   H14022645   2.234   4.124   3.611
  115MYC    C5722646   2.189   3.856   3.389
  115MYC   HH1022647   2.105   3.790   3.366
  115MYC   H14122648   2.272   3.791   3.420
  115MYC    C5622649   2.230   3.933   3.262
  115MYC   H14222650   2.330   3.977   3.276
  115MYC   H14322651   2.161   4.018   3.249
  115MYC    C5522652   2.226   3.849   3.134
  115MYC   H14422653   2.127   3.803   3.124
  115MYC   H14522654   2.299   3.767   3.140
  115MYC    C5422655   2.254   3.934   3.009
  115MYC   H14622656   2.360   3.963   3.007
  115MYC   H14722657   2.196   4.027   3.015
  115MYC    C5322658   2.216   3.864   2.877
  115MYC   H14822659   2.111   3.835   2.881
  115MYC   H14922660   2.274   3.771   2.866
  115MYC    C5222661   2.238   3.955   2.755
  115MYC    H9922662   2.345   3.980   2.748
  115MYC   H15022663   2.184   4.048   2.771
  115MYC    C5122664   2.191   3.892   2.623
  115MYC    H9722665   2.087   3.860   2.633
  115MYC    H9822666   2.251   3.802   2.603
  115MYC    C5022667   2.204   3.990   2.506
  115MYC    H9522668   2.307   4.024   2.497
  115MYC    H9622669   2.144   4.079   2.527
  115MYC    C4922670   2.158   3.931   2.372
  115MYC    H9322671   2.050   3.913   2.375
  115MYC    H9422672   2.206   3.833   2.357
  115MYC    C4822673   2.194   4.023   2.255
  115MYC    H9122674   2.303   4.025   2.242
  115MYC    H9222675   2.163   4.126   2.280
  115MYC    C4722676   2.127   3.983   2.122
  115MYC    H8922677   2.018   3.983   2.135
  115MYC    H9022678   2.157   3.882   2.094
  115MYC    C4622679   2.165   4.081   2.010
  115MYC    H8722680   2.273   4.072   1.989
  115MYC    H8822681   2.149   4.183   2.047
  115MYC    C4522682   2.086   4.061   1.880
  115MYC    H8522683   1.979   4.077   1.900
  115MYC    H8622684   2.097   3.957   1.848
  115MYC    C4422685   2.130   4.154   1.764
  115MYC    H8322686   2.075   4.125   1.673
  115MYC    H8422687   2.235   4.134   1.743
  115MYC    C1822688   2.110   4.303   1.791
  115MYC    H3122689   2.087   4.326   1.895
  115MYC    C1722690   2.197   4.401   1.717
  115MYC    H3022691   2.261   4.361   1.638
  115MYC    C1922692   2.049   4.397   1.689
  115MYC    H3222693   2.018   4.357   1.593
  115MYC    H3322694   1.987   4.478   1.727
  115MYC    C1622695   2.260   4.519   1.788
  115MYC    H2822696   2.187   4.564   1.856
  115MYC    H2922697   2.286   4.596   1.714
  115MYC    C1522698   2.387   4.483   1.868
  115MYC    H2622699   2.443   4.575   1.887
  115MYC    H2722700   2.453   4.420   1.808
  115MYC    C1422701   2.361   4.415   2.004
  115MYC    H2422702   2.343   4.308   1.988
  115MYC    H2522703   2.270   4.457   2.050
  115MYC    C1322704   2.478   4.434   2.103
  115MYC    H2222705   2.492   4.541   2.122
  115MYC    H2322706   2.570   4.397   2.058
  115MYC    C1222707   2.455   4.362   2.238
  115MYC    H2022708   2.449   4.254   2.220
  115MYC    H2122709   2.358   4.393   2.278
  115MYC    C1122710   2.566   4.391   2.341
  115MYC    H1822711   2.578   4.500   2.354
  115MYC    H1922712   2.661   4.354   2.301
  115MYC    C1022713   2.540   4.326   2.478
  115MYC    H1622714   2.634   4.323   2.535
  115MYC    H1722715   2.510   4.222   2.462
  115MYC     C922716   2.432   4.396   2.564
  115MYC    H1422717   2.340   4.409   2.506
  115MYC    H1522718   2.468   4.497   2.590
  115MYC     C822719   2.398   4.319   2.692
  115MYC    H1222720   2.491   4.294   2.745
  115MYC    H1322721   2.351   4.223   2.665
  115MYC     C722722   2.306   4.397   2.788
  115MYC    H1022723   2.217   4.431   2.733
  115MYC    H1122724   2.359   4.487   2.821
  115MYC     C622725   2.260   4.313   2.910
  115MYC     H822726   2.338   4.240   2.936
  115MYC     H922727   2.172   4.254   2.880
  115MYC     C522728   2.223   4.396   3.034
  115MYC     H622729   2.166   4.334   3.104
  115MYC     H722730   2.155   4.477   3.003
  115MYC     C422731   2.344   4.459   3.109
  115MYC     H422732   2.308   4.549   3.160
  115MYC     H522733   2.419   4.493   3.037
  115MYC     C222734   2.411   4.369   3.217
  115MYC     H222735   2.332   4.343   3.289
  115MYC     O322736   2.462   4.249   3.160
  115MYC     H322737   2.549   4.268   3.122
  115MYC     C122738   2.523   4.445   3.294
  115MYC     H122739   2.478   4.537   3.332
  115MYC    C8122740   2.640   4.489   3.202
  115MYC    O8222741   2.666   4.606   3.180
  115MYC    O8322742   2.719   4.390   3.157
  115MYC   H10522743   2.790   4.434   3.106
  115MYC    C2022744   2.575   4.370   3.419
  115MYC    H3422745   2.623   4.275   3.390
  115MYC    H3522746   2.654   4.431   3.464
  115MYC    C2122747   2.465   4.340   3.524
  115MYC    H3622748   2.383   4.412   3.514
  115MYC    H3722749   2.422   4.242   3.501
  115MYC    C2222750   2.515   4.342   3.669
  115MYC    H3822751   2.441   4.290   3.732
  115MYC    H3922752   2.608   4.284   3.677
  115MYC    C2322753   2.536   4.485   3.723
  115MYC    H4022754   2.599   4.543   3.655
  115MYC    H4122755   2.439   4.537   3.725
  115MYC    C2422756   2.598   4.493   3.864
  115MYC    H4222757   2.700   4.453   3.861
  115MYC    H4322758   2.606   4.599   3.892
  115MYC    C2522759   2.518   4.418   3.973
  115MYC    H4422760   2.411   4.443   3.963
  115MYC    H4522761   2.527   4.310   3.957
  115MYC    C2622762   2.564   4.453   4.115
  115MYC    H4622763   2.671   4.432   4.125
  115MYC    H4722764   2.552   4.561   4.129
  115MYC    C2722765   2.487   4.378   4.225
  115MYC    H4822766   2.380   4.382   4.204
  115MYC    H4922767   2.517   4.272   4.225
  115MYC    C2822768   2.513   4.440   4.363
  115MYC    H5022769   2.621   4.440   4.383
  115MYC    H5122770   2.481   4.545   4.361
  115MYC    C2922771   2.441   4.368   4.479
  115MYC    H5222772   2.334   4.357   4.455
  115MYC    H5322773   2.482   4.268   4.492
  115MYC    C3022774   2.455   4.448   4.610
  115MYC    H5422775   2.561   4.466   4.629
  115MYC    H5522776   2.408   4.547   4.596
  115MYC    C3122777   2.393   4.380   4.733
  115MYC    H5622778   2.288   4.357   4.713
  115MYC    H5722779   2.445   4.284   4.750
  115MYC    C3222780   2.404   4.469   4.858
  115MYC    H5822781   2.509   4.498   4.872
  115MYC    H5922782   2.347   4.561   4.841
  115MYC    C3322783   2.354   4.400   4.986
  115MYC    H6022784   2.249   4.370   4.972
  115MYC    H6122785   2.413   4.309   5.003
  115MYC    C3422786   2.365   4.492   5.109
  115MYC    H6222787   2.469   4.526   5.120
  115MYC    H6322788   2.304   4.582   5.094
  115MYC    C3522789   2.322   4.422   5.239
  115MYC    H6422790   2.217   4.388   5.229
  115MYC    H6522791   2.383   4.332   5.254
  115MYC    C3622792   2.334   4.513   5.363
  115MYC    H6622793   2.438   4.548   5.372
  115MYC    H6722794   2.271   4.602   5.349
  115MYC    C3722795   2.293   4.441   5.492
  115MYC    H6822796   2.190   4.403   5.482
  115MYC    H6922797   2.358   4.354   5.507
  115MYC    C3822798   2.301   4.532   5.616
  115MYC    H7022799   2.404   4.568   5.628
  115MYC    H7122800   2.237   4.620   5.600
  115MYC    C3922801   2.257   4.460   5.745
  115MYC    H7222802   2.156   4.419   5.731
  115MYC    H7322803   2.324   4.375   5.764
  115MYC    C4022804   2.256   4.553   5.868
  115MYC    H7422805   2.357   4.595   5.882
  115MYC    H7522806   2.189   4.637   5.849
  115MYC    C4122807   2.212   4.480   5.997
  115MYC    H7622808   2.115   4.433   5.980
  115MYC    H7722809   2.284   4.400   6.019
  115MYC    C4222810   2.202   4.576   6.118
  115MYC    H7822811   2.296   4.630   6.131
  115MYC    H7922812   2.124   4.650   6.098
  115MYC    C4322813   2.168   4.503   6.249
  115MYC    H8022814   2.150   4.575   6.330
  115MYC    H8122815   2.250   4.437   6.279
  115MYC    H8222816   2.077   4.442   6.237
  116MYC   HH1522817   2.325   4.977   6.204
  116MYC    C8022818   2.385   4.970   6.113
  116MYC   H10022819   2.450   5.059   6.108
  116MYC   H10122820   2.448   4.881   6.119
  116MYC    C7922821   2.294   4.964   5.989
  116MYC   H10222822   2.231   5.053   5.987
  116MYC   H10322823   2.227   4.877   5.998
  116MYC    C7822824   2.373   4.954   5.857
  116MYC   HH1422825   2.436   4.864   5.859
  116MYC   H10422826   2.440   5.041   5.849
  116MYC    C7722827   2.282   4.949   5.732
  116MYC   H10622828   2.217   5.037   5.732
  116MYC   H10722829   2.217   4.860   5.738
  116MYC    C7622830   2.362   4.945   5.601
  116MYC   H10822831   2.427   4.856   5.601
  116MYC   H10922832   2.428   5.033   5.597
  116MYC    C7522833   2.273   4.943   5.475
  116MYC   H11022834   2.204   5.028   5.478
  116MYC   H11122835   2.213   4.851   5.474
  116MYC    C7422836   2.357   4.949   5.346
  116MYC   H11222837   2.424   4.863   5.342
  116MYC   H11322838   2.420   5.039   5.349
  116MYC    C7322839   2.271   4.953   5.217
  116MYC   HH1322840   2.205   5.041   5.220
  116MYC   H11422841   2.208   4.864   5.213
  116MYC    C7222842   2.359   4.959   5.091
  116MYC   H11522843   2.422   4.868   5.087
  116MYC   H11622844   2.427   5.044   5.098
  116MYC    C7122845   2.279   4.969   4.960
  116MYC   H11722846   2.225   5.065   4.958
  116MYC   H11822847   2.204   4.889   4.956
  116MYC    C7022848   2.370   4.960   4.836
  116MYC   H11922849   2.421   4.862   4.838
  116MYC   H12022850   2.448   5.037   4.843
  116MYC    C6922851   2.295   4.975   4.703
  116MYC   H12122852   2.254   5.077   4.696
  116MYC   H12222853   2.210   4.906   4.701
  116MYC    C6822854   2.386   4.947   4.582
  116MYC   HH1222855   2.423   4.844   4.588
  116MYC   H12322856   2.474   5.013   4.587
  116MYC    C6722857   2.315   4.968   4.448
  116MYC   H12422858   2.285   5.073   4.438
  116MYC   H12522859   2.222   4.909   4.446
  116MYC    C6622860   2.402   4.928   4.327
  116MYC   H12622861   2.426   4.821   4.334
  116MYC   H12722862   2.498   4.983   4.332
  116MYC    C6522863   2.334   4.957   4.193
  116MYC   H12822864   2.319   5.065   4.183
  116MYC   H12922865   2.234   4.911   4.192
  116MYC    C6422866   2.414   4.904   4.072
  116MYC   H13022867   2.422   4.795   4.080
  116MYC   H13122868   2.516   4.945   4.075
  116MYC    C6322869   2.348   4.942   3.939
  116MYC   HH1122870   2.351   5.051   3.926
  116MYC   H13222871   2.242   4.913   3.941
  116MYC    C6222872   2.415   4.875   3.818
  116MYC   H13322873   2.408   4.766   3.829
  116MYC   H13422874   2.522   4.900   3.817
  116MYC    C6122875   2.351   4.917   3.685
  116MYC   H13522876   2.360   5.026   3.674
  116MYC   H13622877   2.244   4.894   3.687
  116MYC    C6022878   2.415   4.848   3.565
  116MYC   H13722879   2.401   4.740   3.567
  116MYC    C5822880   2.411   4.914   3.430
  116MYC   H13822881   2.368   5.014   3.427
  116MYC    C5922882   2.543   4.899   3.503
  116MYC   H13922883   2.613   4.824   3.466
  116MYC   H14022884   2.588   4.988   3.545
  116MYC    C5722885   2.378   4.832   3.307
  116MYC   HH1022886   2.284   4.778   3.324
  116MYC   H14122887   2.456   4.756   3.292
  116MYC    C5622888   2.366   4.916   3.179
  116MYC   H14222889   2.458   4.973   3.165
  116MYC   H14322890   2.284   4.989   3.191
  116MYC    C5522891   2.339   4.830   3.054
  116MYC   H14422892   2.246   4.773   3.068
  116MYC   H14522893   2.421   4.757   3.043
  116MYC    C5422894   2.329   4.914   2.926
  116MYC   H14622895   2.420   4.975   2.917
  116MYC   H14722896   2.244   4.983   2.935
  116MYC    C5322897   2.311   4.830   2.799
  116MYC   H14822898   2.213   4.780   2.801
  116MYC   H14922899   2.388   4.751   2.797
  116MYC    C5222900   2.324   4.915   2.672
  116MYC    H9922901   2.419   4.970   2.676
  116MYC   H15022902   2.244   4.991   2.670
  116MYC    C5122903   2.319   4.832   2.542
  116MYC    H9722904   2.220   4.788   2.531
  116MYC    H9822905   2.391   4.750   2.550
  116MYC    C5022906   2.353   4.917   2.418
  116MYC    H9522907   2.445   4.974   2.438
  116MYC    H9622908   2.273   4.990   2.401
  116MYC    C4922909   2.375   4.832   2.292
  116MYC    H9322910   2.283   4.778   2.268
  116MYC    H9422911   2.454   4.758   2.311
  116MYC    C4822912   2.415   4.918   2.170
  116MYC    H9122913   2.492   4.990   2.200
  116MYC    H9222914   2.328   4.976   2.138
  116MYC    C4722915   2.468   4.834   2.053
  116MYC    H8922916   2.396   4.754   2.030
  116MYC    H9022917   2.562   4.785   2.082
  116MYC    C4622918   2.491   4.919   1.927
  116MYC    H8722919   2.548   5.009   1.953
  116MYC    H8822920   2.393   4.952   1.892
  116MYC    C4522921   2.564   4.846   1.812
  116MYC    H8522922   2.511   4.754   1.787
  116MYC    H8622923   2.665   4.816   1.846
  116MYC    C4422924   2.576   4.930   1.684
  116MYC    H8322925   2.633   4.872   1.609
  116MYC    H8422926   2.635   5.019   1.704
  116MYC    C1822927   2.439   4.967   1.627
  116MYC    H3122928   2.372   4.881   1.622
  116MYC    C1722929   2.380   5.101   1.660
  116MYC    H3022930   2.444   5.171   1.713
  116MYC    C1922931   2.421   5.069   1.518
  116MYC    H3222932   2.509   5.116   1.478
  116MYC    H3322933   2.341   5.053   1.447
  116MYC    C1622934   2.233   5.113   1.697
  116MYC    H2822935   2.197   5.018   1.739
  116MYC    H2922936   2.174   5.130   1.606
  116MYC    C1522937   2.203   5.227   1.795
  116MYC    H2622938   2.094   5.237   1.805
  116MYC    H2722939   2.239   5.319   1.750
  116MYC    C1422940   2.264   5.212   1.937
  116MYC    H2422941   2.372   5.198   1.930
  116MYC    H2522942   2.222   5.123   1.986
  116MYC    C1322943   2.235   5.336   2.024
  116MYC    H2222944   2.127   5.347   2.036
  116MYC    H2322945   2.270   5.425   1.970
  116MYC    C1222946   2.302   5.336   2.163
  116MYC    H2022947   2.411   5.337   2.151
  116MYC    H2122948   2.276   5.244   2.217
  116MYC    C1122949   2.257   5.459   2.245
  116MYC    H1822950   2.152   5.446   2.274
  116MYC    H1922951   2.261   5.547   2.181
  116MYC    C1022952   2.341   5.490   2.371
  116MYC    H1622953   2.304   5.585   2.412
  116MYC    H1722954   2.446   5.508   2.342
  116MYC     C922955   2.337   5.383   2.483
  116MYC    H1422956   2.417   5.309   2.465
  116MYC    H1522957   2.242   5.329   2.479
  116MYC     C822958   2.354   5.446   2.623
  116MYC    H1222959   2.271   5.516   2.639
  116MYC    H1322960   2.446   5.505   2.627
  116MYC     C722961   2.354   5.343   2.738
  116MYC    H1022962   2.450   5.292   2.742
  116MYC    H1122963   2.278   5.267   2.717
  116MYC     C622964   2.323   5.407   2.876
  116MYC     H822965   2.229   5.463   2.868
  116MYC     H922966   2.401   5.480   2.901
  116MYC     C522967   2.310   5.302   2.990
  116MYC     H622968   2.409   5.278   3.031
  116MYC     H722969   2.271   5.210   2.946
  116MYC     C422970   2.211   5.343   3.103
  116MYC     H422971   2.184   5.251   3.157
  116MYC     H522972   2.118   5.376   3.056
  116MYC     C222973   2.258   5.446   3.210
  116MYC     H222974   2.272   5.389   3.303
  116MYC     O322975   2.383   5.507   3.176
  116MYC     H322976   2.368   5.569   3.103
  116MYC     C122977   2.150   5.556   3.238
  116MYC     H122978   2.055   5.503   3.249
  116MYC    C8122979   2.133   5.654   3.120
  116MYC    O8222980   2.217   5.735   3.085
  116MYC    O8322981   2.012   5.648   3.060
  116MYC   H10522982   2.014   5.717   2.991
  116MYC    C2022983   2.172   5.634   3.371
  116MYC    H3422984   2.275   5.669   3.377
  116MYC    H3522985   2.108   5.723   3.369
  116MYC    C2122986   2.136   5.553   3.498
  116MYC    H3622987   2.034   5.514   3.488
  116MYC    H3722988   2.203   5.466   3.506
  116MYC    C2222989   2.146   5.637   3.626
  116MYC    H3822990   2.250   5.668   3.641
  116MYC    H3922991   2.086   5.728   3.615
  116MYC    C2322992   2.098   5.562   3.752
  116MYC    H4022993   1.994   5.531   3.739
  116MYC    H4122994   2.157   5.471   3.765
  116MYC    C2422995   2.109   5.649   3.879
  116MYC    H4222996   2.214   5.679   3.892
  116MYC    H4322997   2.050   5.740   3.866
  116MYC    C2522998   2.062   5.577   4.008
  116MYC    H4422999   1.955   5.555   4.000
  116MYC    H4523000   2.115   5.481   4.016
  116MYC    C2623001   2.089   5.661   4.134
  116MYC    H4623002   2.195   5.691   4.134
  116MYC    H4723003   2.030   5.753   4.130
  116MYC    C2723004   2.059   5.586   4.265
  116MYC    H4823005   1.951   5.569   4.273
  116MYC    H4923006   2.107   5.488   4.262
  116MYC    C2823007   2.109   5.663   4.389
  116MYC    H5023008   2.214   5.689   4.375
  116MYC    H5123009   2.053   5.757   4.399
  116MYC    C2923010   2.095   5.582   4.520
  116MYC    H5223011   1.989   5.559   4.537
  116MYC    H5323012   2.147   5.486   4.508
  116MYC    C3023013   2.153   5.656   4.642
  116MYC    H5423014   2.257   5.683   4.622
  116MYC    H5523015   2.097   5.749   4.657
  116MYC    C3123016   2.147   5.571   4.771
  116MYC    H5623017   2.044   5.536   4.786
  116MYC    H5723018   2.210   5.482   4.758
  116MYC    C3223019   2.192   5.649   4.896
  116MYC    H5823020   2.291   5.693   4.879
  116MYC    H5923021   2.122   5.731   4.913
  116MYC    C3323022   2.199   5.560   5.022
  116MYC    H6023023   2.108   5.499   5.027
  116MYC    H6123024   2.283   5.491   5.013
  116MYC    C3423025   2.211   5.640   5.154
  116MYC    H6223026   2.290   5.714   5.145
  116MYC    H6323027   2.117   5.695   5.170
  116MYC    C3523028   2.240   5.550   5.277
  116MYC    H6423029   2.186   5.455   5.266
  116MYC    H6523030   2.347   5.526   5.278
  116MYC    C3623031   2.198   5.615   5.410
  116MYC    H6623032   2.235   5.719   5.414
  116MYC    H6723033   2.089   5.620   5.415
  116MYC    C3723034   2.251   5.540   5.534
  116MYC    H6823035   2.230   5.433   5.523
  116MYC    H6923036   2.361   5.550   5.537
  116MYC    C3823037   2.191   5.590   5.667
  116MYC    H7023038   2.201   5.699   5.673
  116MYC    H7123039   2.084   5.568   5.668
  116MYC    C3923040   2.258   5.526   5.790
  116MYC    H7223041   2.256   5.417   5.780
  116MYC    H7323042   2.364   5.556   5.792
  116MYC    C4023043   2.193   5.566   5.924
  116MYC    H7423044   2.191   5.675   5.934
  116MYC    H7523045   2.088   5.532   5.925
  116MYC    C4123046   2.267   5.505   6.046
  116MYC    H7623047   2.272   5.396   6.034
  116MYC    H7723048   2.370   5.542   6.047
  116MYC    C4223049   2.200   5.538   6.181
  116MYC    H7823050   2.195   5.647   6.194
  116MYC    H7923051   2.097   5.500   6.181
  116MYC    C4323052   2.276   5.477   6.301
  116MYC    H8023053   2.224   5.499   6.395
  116MYC    H8123054   2.378   5.519   6.307
  116MYC    H8223055   2.285   5.368   6.291
  117MYC   HH1523056   2.777   6.168   6.226
  117MYC    C8023057   2.729   6.116   6.143
  117MYC   H10023058   2.768   6.014   6.138
  117MYC   H10123059   2.621   6.111   6.163
  117MYC    C7923060   2.756   6.191   6.011
  117MYC   H10223061   2.864   6.201   5.997
  117MYC   H10323062   2.714   6.292   6.017
  117MYC    C7823063   2.697   6.119   5.888
  117MYC   HH1423064   2.588   6.112   5.900
  117MYC   H10423065   2.735   6.016   5.884
  117MYC    C7723066   2.729   6.189   5.755
  117MYC   H10623067   2.838   6.191   5.741
  117MYC   H10723068   2.696   6.294   5.760
  117MYC    C7623069   2.663   6.120   5.635
  117MYC   H10823070   2.554   6.125   5.647
  117MYC   H10923071   2.691   6.014   5.635
  117MYC    C7523072   2.703   6.183   5.500
  117MYC   H11023073   2.810   6.168   5.484
  117MYC   H11123074   2.684   6.291   5.503
  117MYC    C7423075   2.624   6.121   5.384
  117MYC   H11223076   2.518   6.147   5.394
  117MYC   H11323077   2.631   6.011   5.389
  117MYC    C7323078   2.676   6.167   5.246
  117MYC   HH1323079   2.778   6.129   5.233
  117MYC   H11423080   2.682   6.276   5.244
  117MYC    C7223081   2.586   6.119   5.131
  117MYC   H11523082   2.496   6.181   5.128
  117MYC   H11623083   2.553   6.016   5.148
  117MYC    C7123084   2.658   6.126   4.995
  117MYC   H11723085   2.735   6.047   4.993
  117MYC   H11823086   2.711   6.221   4.986
  117MYC    C7023087   2.565   6.110   4.875
  117MYC   H11923088   2.502   6.199   4.867
  117MYC   H12023089   2.498   6.024   4.889
  117MYC    C6923090   2.645   6.091   4.745
  117MYC   H12123091   2.692   5.992   4.747
  117MYC   H12223092   2.725   6.165   4.741
  117MYC    C6823093   2.560   6.103   4.617
  117MYC   HH1223094   2.519   6.205   4.610
  117MYC   H12323095   2.476   6.033   4.620
  117MYC    C6723096   2.646   6.074   4.493
  117MYC   H12423097   2.676   5.969   4.494
  117MYC   H12523098   2.738   6.133   4.498
  117MYC    C6623099   2.577   6.106   4.359
  117MYC   H12623100   2.549   6.212   4.357
  117MYC   H12723101   2.484   6.047   4.350
  117MYC    C6523102   2.670   6.074   4.241
  117MYC   H12823103   2.691   5.966   4.240
  117MYC   H12923104   2.766   6.124   4.257
  117MYC    C6423105   2.614   6.115   4.104
  117MYC   H13023106   2.595   6.223   4.104
  117MYC   H13123107   2.518   6.065   4.087
  117MYC    C6323108   2.712   6.080   3.991
  117MYC   HH1123109   2.729   5.972   3.991
  117MYC   H13223110   2.809   6.127   4.011
  117MYC    C6223111   2.662   6.123   3.853
  117MYC   H13323112   2.651   6.232   3.851
  117MYC   H13423113   2.563   6.080   3.835
  117MYC    C6123114   2.757   6.080   3.740
  117MYC   H13523115   2.771   5.971   3.744
  117MYC   H13623116   2.856   6.124   3.756
  117MYC    C6023117   2.705   6.120   3.603
  117MYC   H13723118   2.708   6.228   3.589
  117MYC    C5823119   2.729   6.033   3.482
  117MYC   H13823120   2.775   5.936   3.498
  117MYC    C5923121   2.589   6.049   3.539
  117MYC   H13923122   2.518   6.109   3.484
  117MYC   H14023123   2.547   5.964   3.592
  117MYC    C5723124   2.769   6.097   3.350
  117MYC   HH1023125   2.870   6.062   3.324
  117MYC   H14123126   2.777   6.206   3.361
  117MYC    C5623127   2.672   6.066   3.235
  117MYC   H14223128   2.576   6.116   3.253
  117MYC   H14323129   2.652   5.958   3.232
  117MYC    C5523130   2.729   6.110   3.099
  117MYC   H14423131   2.816   6.048   3.077
  117MYC   H14523132   2.762   6.214   3.107
  117MYC    C5423133   2.628   6.099   2.983
  117MYC   H14623134   2.544   6.166   3.002
  117MYC   H14723135   2.588   5.997   2.978
  117MYC    C5323136   2.694   6.135   2.849
  117MYC   H14823137   2.769   6.058   2.825
  117MYC   H14923138   2.749   6.230   2.859
  117MYC    C5223139   2.595   6.148   2.732
  117MYC    H9923140   2.531   6.236   2.748
  117MYC   H15023141   2.530   6.060   2.729
  117MYC    C5123142   2.668   6.161   2.597
  117MYC    H9723143   2.721   6.067   2.577
  117MYC    H9823144   2.745   6.240   2.606
  117MYC    C5023145   2.575   6.195   2.478
  117MYC    H9523146   2.543   6.299   2.486
  117MYC    H9623147   2.485   6.133   2.484
  117MYC    C4923148   2.642   6.171   2.340
  117MYC    H9323149   2.568   6.194   2.263
  117MYC    H9423150   2.665   6.064   2.330
  117MYC    C4823151   2.770   6.254   2.316
  117MYC    H9123152   2.842   6.234   2.396
  117MYC    H9223153   2.746   6.360   2.321
  117MYC    C4723154   2.841   6.223   2.182
  117MYC    H8923155   2.869   6.117   2.179
  117MYC    H9023156   2.936   6.279   2.180
  117MYC    C4623157   2.759   6.258   2.056
  117MYC    H8723158   2.714   6.357   2.068
  117MYC    H8823159   2.677   6.186   2.046
  117MYC    C4523160   2.844   6.258   1.928
  117MYC    H8523161   2.895   6.163   1.919
  117MYC    H8623162   2.922   6.334   1.938
  117MYC    C4423163   2.766   6.284   1.797
  117MYC    H8323164   2.838   6.312   1.719
  117MYC    H8423165   2.699   6.370   1.811
  117MYC    C1823166   2.687   6.162   1.748
  117MYC    H3123167   2.749   6.073   1.739
  117MYC    C1723168   2.543   6.140   1.786
  117MYC    H3023169   2.499   6.217   1.849
  117MYC    C1923170   2.579   6.178   1.644
  117MYC    H3223171   2.556   6.279   1.611
  117MYC    H3323172   2.574   6.102   1.567
  117MYC    C1623173   2.489   6.000   1.817
  117MYC    H2823174   2.556   5.949   1.887
  117MYC    H2923175   2.490   5.939   1.725
  117MYC    C1523176   2.346   6.002   1.875
  117MYC    H2623177   2.296   5.907   1.852
  117MYC    H2723178   2.288   6.080   1.823
  117MYC    C1423179   2.343   6.025   2.028
  117MYC    H2423180   2.422   6.096   2.056
  117MYC    H2523181   2.367   5.931   2.077
  117MYC    C1323182   2.208   6.077   2.081
  117MYC    H2223183   2.131   6.002   2.059
  117MYC    H2323184   2.182   6.169   2.028
  117MYC    C1223185   2.205   6.103   2.233
  117MYC    H2023186   2.288   6.169   2.260
  117MYC    H2123187   2.221   6.008   2.285
  117MYC    C1123188   2.072   6.168   2.279
  117MYC    H1823189   1.988   6.103   2.252
  117MYC    H1923190   2.058   6.262   2.224
  117MYC    C1023191   2.066   6.200   2.430
  117MYC    H1623192   1.980   6.266   2.449
  117MYC    H1723193   2.155   6.257   2.457
  117MYC     C923194   2.052   6.075   2.520
  117MYC    H1423195   2.130   6.002   2.494
  117MYC    H1523196   1.956   6.026   2.499
  117MYC     C823197   2.061   6.103   2.672
  117MYC    H1223198   2.047   6.007   2.724
  117MYC    H1323199   1.978   6.167   2.703
  117MYC     C723200   2.195   6.166   2.716
  117MYC    H1023201   2.189   6.275   2.704
  117MYC    H1123202   2.275   6.132   2.648
  117MYC     C623203   2.239   6.132   2.860
  117MYC     H823204   2.337   6.178   2.877
  117MYC     H923205   2.254   6.024   2.867
  117MYC     C523206   2.144   6.178   2.972
  117MYC     H623207   2.048   6.128   2.959
  117MYC     H723208   2.127   6.286   2.964
  117MYC     C423209   2.204   6.145   3.112
  117MYC     H423210   2.298   6.201   3.121
  117MYC     H523211   2.233   6.039   3.114
  117MYC     C223212   2.118   6.176   3.237
  117MYC     H223213   2.190   6.171   3.320
  117MYC     O323214   2.066   6.308   3.231
  117MYC     H323215   1.994   6.309   3.165
  117MYC     C123216   2.006   6.071   3.269
  117MYC     H123217   2.054   5.973   3.269
  117MYC    C8123218   1.894   6.068   3.163
  117MYC    O8223219   1.820   6.161   3.138
  117MYC    O8323220   1.881   5.949   3.100
  117MYC   H10523221   1.808   5.961   3.037
  117MYC    C2023222   1.943   6.089   3.411
  117MYC    H3423223   1.896   6.187   3.418
  117MYC    H3523224   1.863   6.015   3.423
  117MYC    C2123225   2.044   6.072   3.527
  117MYC    H3623226   2.095   5.975   3.518
  117MYC    H3723227   2.120   6.150   3.522
  117MYC    C2223228   1.978   6.080   3.666
  117MYC    H3823229   1.924   6.175   3.675
  117MYC    H3923230   1.903   6.000   3.676
  117MYC    C2323231   2.080   6.069   3.781
  117MYC    H4023232   2.133   5.973   3.774
  117MYC    H4123233   2.156   6.147   3.769
  117MYC    C2423234   2.016   6.082   3.920
  117MYC    H4223235   1.962   6.177   3.927
  117MYC    H4323236   1.941   6.002   3.933
  117MYC    C2523237   2.118   6.073   4.036
  117MYC    H4423238   2.172   5.979   4.030
  117MYC    H4523239   2.191   6.154   4.026
  117MYC    C2623240   2.049   6.084   4.174
  117MYC    H4623241   1.997   6.181   4.180
  117MYC    H4723242   1.973   6.006   4.182
  117MYC    C2723243   2.146   6.071   4.293
  117MYC    H4823244   2.197   5.974   4.288
  117MYC    H4923245   2.224   6.148   4.286
  117MYC    C2823246   2.072   6.084   4.428
  117MYC    H5023247   2.026   6.184   4.433
  117MYC    H5123248   1.990   6.011   4.431
  117MYC    C2923249   2.162   6.063   4.551
  117MYC    H5223250   2.203   5.961   4.549
  117MYC    H5323251   2.247   6.132   4.547
  117MYC    C3023252   2.084   6.084   4.682
  117MYC    H5423253   2.051   6.189   4.687
  117MYC    H5523254   1.993   6.022   4.681
  117MYC    C3123255   2.165   6.050   4.809
  117MYC    H5623256   2.192   5.944   4.807
  117MYC    H5723257   2.258   6.108   4.809
  117MYC    C3223258   2.085   6.081   4.937
  117MYC    H5823259   2.066   6.189   4.942
  117MYC    H5923260   1.987   6.031   4.932
  117MYC    C3323261   2.157   6.036   5.066
  117MYC    H6023262   2.169   5.927   5.064
  117MYC    H6123263   2.257   6.079   5.070
  117MYC    C3423264   2.079   6.077   5.193
  117MYC    H6223265   2.070   6.186   5.196
  117MYC    H6323266   1.977   6.036   5.187
  117MYC    C3523267   2.145   6.028   5.323
  117MYC    H6423268   2.148   5.918   5.323
  117MYC    H6523269   2.249   6.063   5.327
  117MYC    C3623270   2.070   6.077   5.449
  117MYC    H6623271   2.067   6.187   5.447
  117MYC    H6723272   1.966   6.042   5.445
  117MYC    C3723273   2.134   6.031   5.581
  117MYC    H6823274   2.134   5.921   5.585
  117MYC    H6923275   2.239   6.063   5.584
  117MYC    C3823276   2.061   6.088   5.704
  117MYC    H7023277   2.060   6.197   5.698
  117MYC    H7123278   1.957   6.055   5.702
  117MYC    C3923279   2.125   6.047   5.839
  117MYC    H7223280   2.125   5.937   5.847
  117MYC    H7323281   2.230   6.079   5.840
  117MYC    C4023282   2.051   6.108   5.960
  117MYC    H7423283   2.046   6.217   5.947
  117MYC    H7523284   1.948   6.071   5.961
  117MYC    C4123285   2.118   6.076   6.095
  117MYC    H7623286   2.123   5.967   6.109
  117MYC    H7723287   2.222   6.113   6.093
  117MYC    C4223288   2.044   6.140   6.214
  117MYC    H7823289   2.033   6.248   6.197
  117MYC    H7923290   1.943   6.098   6.220
  117MYC    C4323291   2.115   6.118   6.349
  117MYC    H8023292   2.126   6.011   6.370
  117MYC    H8123293   2.057   6.163   6.431
  117MYC    H8223294   2.214   6.164   6.349
  118MYC   HH1523295   2.991   0.045   6.314
  118MYC    C8023296   3.010   0.108   6.226
  118MYC   H10023297   2.963   0.205   6.242
  118MYC   H10123298   3.119   0.122   6.217
  118MYC    C7923299   2.954   0.040   6.100
  118MYC   H10223300   2.845   0.029   6.111
  118MYC   H10323301   2.996   6.389   6.092
  118MYC    C7823302   2.984   0.118   5.970
  118MYC   HH1423303   3.093   0.125   5.958
  118MYC   H10423304   2.946   0.220   5.979
  118MYC    C7723305   2.923   0.052   5.845
  118MYC   H10623306   2.813   0.055   5.853
  118MYC   H10723307   2.952   6.396   5.842
  118MYC    C7623308   2.966   0.119   5.713
  118MYC   H10823309   3.075   0.112   5.703
  118MYC   H10923310   2.942   0.226   5.717
  118MYC    C7523311   2.900   0.056   5.589
  118MYC   H11023312   2.791   0.069   5.596
  118MYC   H11123313   2.919   6.398   5.589
  118MYC    C7423314   2.951   0.116   5.456
  118MYC   H11223315   3.058   0.097   5.447
  118MYC   H11323316   2.938   0.225   5.458
  118MYC    C7323317   2.877   0.059   5.333
  118MYC   HH1323318   2.771   0.085   5.338
  118MYC   H11423319   2.884   6.399   5.335
  118MYC    C7223320   2.936   0.108   5.199
  118MYC   H11523321   3.038   0.070   5.189
  118MYC   H11623322   2.943   0.218   5.200
  118MYC    C7123323   2.853   0.064   5.077
  118MYC   H11723324   2.759   0.122   5.075
  118MYC   H11823325   2.825   6.409   5.087
  118MYC    C7023326   2.927   0.082   4.943
  118MYC   H11923327   3.009   0.010   4.939
  118MYC   H12023328   2.973   0.182   4.939
  118MYC    C6923329   2.837   0.064   4.819
  118MYC   H12123330   2.772   0.152   4.810
  118MYC   H12223331   2.771   6.427   4.834
  118MYC    C6823332   2.917   0.044   4.689
  118MYC   HH1223333   2.964   6.395   4.691
  118MYC   H12323334   2.998   0.118   4.685
  118MYC    C6723335   2.831   0.058   4.562
  118MYC   H12423336   2.797   0.162   4.554
  118MYC   H12523337   2.742   6.445   4.571
  118MYC    C6623338   2.908   0.019   4.433
  118MYC   H12623339   2.923   6.360   4.432
  118MYC   H12723340   3.007   0.065   4.434
  118MYC    C6523341   2.834   0.062   4.305
  118MYC   H12823342   2.829   0.172   4.303
  118MYC   H12923343   2.731   0.025   4.307
  118MYC    C6423344   2.903   0.013   4.175
  118MYC   H13023345   2.896   6.353   4.170
  118MYC   H13123346   3.009   0.039   4.178
  118MYC    C6323347   2.839   0.074   4.049
  118MYC   HH1123348   2.852   0.183   4.052
  118MYC   H13223349   2.731   0.055   4.050
  118MYC    C6223350   2.898   0.021   3.917
  118MYC   H13323351   2.880   6.363   3.910
  118MYC   H13423352   3.007   0.034   3.918
  118MYC    C6123353   2.839   0.092   3.793
  118MYC   H13523354   2.857   0.199   3.802
  118MYC   H13623355   2.730   0.079   3.793
  118MYC    C6023356   2.895   0.040   3.661
  118MYC   H13723357   2.865   6.388   3.640
  118MYC    C5823358   2.913   0.135   3.545
  118MYC   H13823359   2.892   0.240   3.563
  118MYC    C5923360   3.034   0.078   3.615
  118MYC   H13923361   3.092   0.002   3.564
  118MYC   H14023362   3.091   0.144   3.679
  118MYC    C5723363   2.874   0.092   3.403
  118MYC   HH1023364   2.768   0.114   3.388
  118MYC   H14123365   2.886   6.434   3.392
  118MYC    C5623366   2.957   0.163   3.294
  118MYC   H14223367   3.061   0.128   3.300
  118MYC   H14323368   2.958   0.271   3.312
  118MYC    C5523369   2.902   0.137   3.152
  118MYC   H14423370   2.805   0.186   3.143
  118MYC   H14523371   2.885   0.030   3.140
  118MYC    C5423372   2.993   0.186   3.037
  118MYC   H14623373   3.090   0.136   3.045
  118MYC   H14723374   3.011   0.294   3.048
  118MYC    C5323375   2.931   0.157   2.900
  118MYC   H14823376   2.839   0.216   2.891
  118MYC   H14923377   2.903   0.051   2.894
  118MYC    C5223378   3.019   0.192   2.778
  118MYC    H9923379   3.118   0.146   2.790
  118MYC   H15023380   3.032   0.301   2.774
  118MYC    C5123381   2.956   0.144   2.645
  118MYC    H9723382   2.855   0.186   2.637
  118MYC    H9823383   2.945   0.035   2.648
  118MYC    C5023384   3.036   0.183   2.519
  118MYC    H9523385   3.137   0.138   2.524
  118MYC    H9623386   3.049   0.292   2.517
  118MYC    C4923387   2.965   0.138   2.390
  118MYC    H9323388   2.864   0.181   2.389
  118MYC    H9423389   2.953   0.029   2.392
  118MYC    C4823390   3.038   0.177   2.259
  118MYC    H9123391   3.129   0.116   2.248
  118MYC    H9223392   3.070   0.281   2.266
  118MYC    C4723393   2.947   0.159   2.136
  118MYC    H8923394   2.862   0.227   2.146
  118MYC    H9023395   2.907   0.057   2.135
  118MYC    C4623396   3.015   0.186   1.999
  118MYC    H8723397   3.089   0.108   1.980
  118MYC    H8823398   3.068   0.282   2.003
  118MYC    C4523399   2.911   0.189   1.884
  118MYC    H8523400   2.845   0.275   1.898
  118MYC    H8623401   2.848   0.100   1.891
  118MYC    C4423402   2.972   0.195   1.742
  118MYC    H8323403   2.891   0.172   1.671
  118MYC    H8423404   3.046   0.115   1.731
  118MYC    C1823405   3.033   0.330   1.705
  118MYC    H3123406   3.019   0.407   1.781
  118MYC    C1723407   3.159   0.339   1.621
  118MYC    H3023408   3.202   0.245   1.586
  118MYC    C1923409   3.027   0.377   1.561
  118MYC    H3223410   2.985   0.309   1.486
  118MYC    H3323411   3.008   0.482   1.543
  118MYC    C1623412   3.265   0.446   1.646
  118MYC    H2823413   3.219   0.534   1.693
  118MYC    H2923414   3.305   0.480   1.550
  118MYC    C1523415   3.382   0.398   1.734
  118MYC    H2623416   3.451   0.482   1.747
  118MYC    H2723417   3.438   0.320   1.681
  118MYC    C1423418   3.339   0.346   1.873
  118MYC    H2423419   3.278   0.256   1.860
  118MYC    H2523420   3.276   0.421   1.922
  118MYC    C1323421   3.458   0.312   1.964
  118MYC    H2223422   3.522   0.400   1.973
  118MYC    H2323423   3.518   0.233   1.917
  118MYC    C1223424   3.416   0.269   2.106
  118MYC    H2023425   3.341   0.189   2.099
  118MYC    H2123426   3.366   0.354   2.154
  118MYC    C1123427   3.534   0.219   2.192
  118MYC    H1823428   3.627   0.267   2.160
  118MYC    H1923429   3.547   0.112   2.175
  118MYC    C1023430   3.516   0.244   2.344
  118MYC    H1623431   3.583   0.177   2.398
  118MYC    H1723432   3.414   0.217   2.374
  118MYC     C923433   3.547   0.390   2.384
  118MYC    H1423434   3.476   0.459   2.337
  118MYC    H1523435   3.646   0.417   2.346
  118MYC     C823436   3.549   0.414   2.537
  118MYC    H1223437   3.604   0.506   2.557
  118MYC    H1323438   3.604   0.333   2.584
  118MYC     C723439   3.410   0.424   2.604
  118MYC    H1023440   3.357   0.329   2.592
  118MYC    H1123441   3.351   0.502   2.555
  118MYC     C623442   3.426   0.456   2.754
  118MYC     H823443   3.475   0.554   2.764
  118MYC     H923444   3.493   0.382   2.798
  118MYC     C523445   3.293   0.460   2.831
  118MYC     H623446   3.243   0.363   2.822
  118MYC     H723447   3.227   0.535   2.785
  118MYC     C423448   3.308   0.495   2.981
  118MYC     H423449   3.215   0.542   3.015
  118MYC     H523450   3.387   0.570   2.993
  118MYC     C223451   3.336   0.374   3.076
  118MYC     H223452   3.247   0.309   3.070
  118MYC     O323453   3.449   0.298   3.032
  118MYC     H323454   3.529   0.346   3.059
  118MYC     C123455   3.353   0.416   3.224
  118MYC     H123456   3.261   0.469   3.252
  118MYC    C8123457   3.469   0.516   3.245
  118MYC    O8223458   3.454   0.629   3.288
  118MYC    O8323459   3.593   0.467   3.222
  118MYC   H10523460   3.654   0.539   3.242
  118MYC    C2023461   3.366   0.295   3.320
  118MYC    H3423462   3.286   0.223   3.299
  118MYC    H3523463   3.461   0.243   3.302
  118MYC    C2123464   3.357   0.337   3.468
  118MYC    H3623465   3.430   0.417   3.489
  118MYC    H3723466   3.258   0.379   3.487
  118MYC    C2223467   3.383   0.222   3.567
  118MYC    H3823468   3.317   0.138   3.544
  118MYC    H3923469   3.487   0.187   3.556
  118MYC    C2323470   3.360   0.269   3.712
  118MYC    H4023471   3.420   0.358   3.731
  118MYC    H4123472   3.255   0.299   3.723
  118MYC    C2423473   3.394   0.163   3.819
  118MYC    H4223474   3.351   0.066   3.792
  118MYC    H4323475   3.503   0.150   3.823
  118MYC    C2523476   3.341   0.206   3.957
  118MYC    H4423477   3.355   0.314   3.969
  118MYC    H4523478   3.232   0.188   3.960
  118MYC    C2623479   3.408   0.136   4.077
  118MYC    H4623480   3.403   0.027   4.065
  118MYC    H4723481   3.514   0.164   4.079
  118MYC    C2723482   3.340   0.177   4.209
  118MYC    H4823483   3.322   0.285   4.208
  118MYC    H4923484   3.242   0.129   4.215
  118MYC    C2823485   3.421   0.143   4.336
  118MYC    H5023486   3.443   0.036   4.339
  118MYC    H5123487   3.517   0.197   4.333
  118MYC    C2923488   3.343   0.185   4.462
  118MYC    H5223489   3.312   0.290   4.452
  118MYC    H5323490   3.250   0.126   4.468
  118MYC    C3023491   3.421   0.169   4.594
  118MYC    H5423492   3.455   0.066   4.606
  118MYC    H5523493   3.510   0.233   4.591
  118MYC    C3123494   3.333   0.209   4.715
  118MYC    H5623495   3.292   0.309   4.696
  118MYC    H5723496   3.247   0.141   4.721
  118MYC    C3223497   3.407   0.211   4.850
  118MYC    H5823498   3.446   0.111   4.872
  118MYC    H5923499   3.493   0.279   4.843
  118MYC    C3323500   3.314   0.258   4.964
  118MYC    H6023501   3.265   0.351   4.933
  118MYC    H6123502   3.234   0.184   4.978
  118MYC    C3423503   3.387   0.282   5.097
  118MYC    H6223504   3.429   0.188   5.134
  118MYC    H6323505   3.470   0.351   5.081
  118MYC    C3523506   3.293   0.342   5.204
  118MYC    H6423507   3.245   0.432   5.164
  118MYC    H6523508   3.213   0.270   5.226
  118MYC    C3623509   3.365   0.378   5.336
  118MYC    H6623510   3.416   0.289   5.374
  118MYC    H6723511   3.442   0.453   5.315
  118MYC    C3723512   3.269   0.432   5.443
  118MYC    H6823513   3.219   0.522   5.406
  118MYC    H6923514   3.190   0.357   5.461
  118MYC    C3823515   3.339   0.464   5.577
  118MYC    H7023516   3.399   0.377   5.607
  118MYC    H7123517   3.409   0.548   5.563
  118MYC    C3923518   3.240   0.499   5.690
  118MYC    H7223519   3.186   0.591   5.664
  118MYC    H7323520   3.165   0.419   5.697
  118MYC    C4023521   3.307   0.515   5.827
  118MYC    H7423522   3.368   0.426   5.848
  118MYC    H7523523   3.376   0.601   5.824
  118MYC    C4123524   3.206   0.534   5.942
  118MYC    H7623525   3.151   0.628   5.926
  118MYC    H7723526   3.133   0.453   5.940
  118MYC    C4223527   3.272   0.537   6.082
  118MYC    H7823528   3.325   0.442   6.099
  118MYC    H7923529   3.348   0.616   6.085
  118MYC    C4323530   3.172   0.560   6.196
  118MYC    H8023531   3.225   0.564   6.292
  118MYC    H8123532   3.099   0.478   6.201
  118MYC    H8223533   3.118   0.654   6.182
  119MYC   HH1523534   3.380   0.901   6.251
  119MYC    C8023535   3.354   0.976   6.176
  119MYC   H10023536   3.254   1.015   6.199
  119MYC   H10123537   3.426   1.059   6.183
  119MYC    C7923538   3.357   0.914   6.035
  119MYC   H10223539   3.284   0.832   6.032
  119MYC   H10323540   3.455   0.869   6.017
  119MYC    C7823541   3.323   1.013   5.923
  119MYC   HH1423542   3.388   1.102   5.931
  119MYC   H10423543   3.220   1.047   5.936
  119MYC    C7723544   3.339   0.950   5.783
  119MYC   H10623545   3.291   0.852   5.782
  119MYC   H10723546   3.446   0.934   5.763
  119MYC    C7623547   3.278   1.036   5.670
  119MYC   H10823548   3.322   1.136   5.671
  119MYC   H10923549   3.170   1.047   5.689
  119MYC    C7523550   3.298   0.971   5.532
  119MYC   H11023551   3.275   0.864   5.538
  119MYC   H11123552   3.404   0.979   5.504
  119MYC    C7423553   3.211   1.034   5.422
  119MYC   H11223554   3.237   1.141   5.410
  119MYC   H11323555   3.106   1.029   5.452
  119MYC    C7323556   3.228   0.962   5.287
  119MYC   HH1323557   3.208   0.855   5.301
  119MYC   H11423558   3.333   0.971   5.255
  119MYC    C7223559   3.136   1.015   5.176
  119MYC   H11523560   3.157   1.122   5.159
  119MYC   H11623561   3.031   1.007   5.208
  119MYC    C7123562   3.156   0.937   5.045
  119MYC   H11723563   3.129   0.832   5.061
  119MYC   H11823564   3.263   0.939   5.020
  119MYC    C7023565   3.076   0.993   4.926
  119MYC   H11923566   3.098   1.100   4.915
  119MYC   H12023567   2.969   0.983   4.944
  119MYC    C6923568   3.115   0.920   4.796
  119MYC   H12123569   3.088   0.814   4.804
  119MYC   H12223570   3.224   0.924   4.785
  119MYC    C6823571   3.050   0.978   4.669
  119MYC   HH1223572   3.064   1.087   4.667
  119MYC   H12323573   2.942   0.959   4.670
  119MYC    C6723574   3.114   0.917   4.543
  119MYC   H12423575   3.104   0.808   4.547
  119MYC   H12523576   3.221   0.940   4.544
  119MYC    C6623577   3.054   0.968   4.411
  119MYC   H12623578   3.056   1.078   4.408
  119MYC   H12723579   2.949   0.937   4.404
  119MYC    C6523580   3.132   0.912   4.290
  119MYC   H12823581   3.136   0.803   4.298
  119MYC   H12923582   3.236   0.949   4.295
  119MYC    C6423583   3.072   0.951   4.154
  119MYC   H13023584   3.071   1.060   4.144
  119MYC   H13123585   2.969   0.916   4.148
  119MYC    C6323586   3.153   0.890   4.038
  119MYC   HH1123587   3.152   0.780   4.047
  119MYC   H13223588   3.258   0.921   4.047
  119MYC    C6223589   3.101   0.930   3.899
  119MYC   H13323590   3.110   1.039   3.889
  119MYC   H13423591   2.995   0.905   3.891
  119MYC    C6123592   3.179   0.861   3.786
  119MYC   H13523593   3.149   0.755   3.781
  119MYC   H13623594   3.286   0.862   3.809
  119MYC    C6023595   3.159   0.928   3.651
  119MYC   H13723596   3.202   1.028   3.649
  119MYC    C5823597   3.167   0.847   3.525
  119MYC   H13823598   3.175   0.739   3.535
  119MYC    C5923599   3.035   0.908   3.567
  119MYC   H13923600   2.998   0.993   3.511
  119MYC   H14023601   2.959   0.840   3.605
  119MYC    C5723602   3.247   0.900   3.407
  119MYC   HH1023603   3.350   0.863   3.414
  119MYC   H14123604   3.253   1.009   3.411
  119MYC    C5623605   3.187   0.858   3.272
  119MYC   H14223606   3.089   0.907   3.260
  119MYC   H14323607   3.169   0.750   3.271
  119MYC    C5523608   3.278   0.895   3.153
  119MYC   H14423609   3.368   0.833   3.156
  119MYC   H14523610   3.311   0.999   3.162
  119MYC    C5423611   3.208   0.876   3.018
  119MYC   H14623612   3.128   0.951   3.009
  119MYC   H14723613   3.160   0.778   3.014
  119MYC    C5323614   3.305   0.889   2.899
  119MYC   H14823615   3.373   0.804   2.900
  119MYC   H14923616   3.366   0.980   2.910
  119MYC    C5223617   3.230   0.895   2.765
  119MYC    H9923618   3.181   0.993   2.756
  119MYC   H15023619   3.151   0.819   2.763
  119MYC    C5123620   3.322   0.872   2.644
  119MYC    H9723621   3.354   0.767   2.644
  119MYC    H9823622   3.413   0.933   2.654
  119MYC    C5023623   3.253   0.907   2.511
  119MYC    H9523624   3.256   1.016   2.497
  119MYC    H9623625   3.148   0.878   2.514
  119MYC    C4923626   3.320   0.837   2.391
  119MYC    H9323627   3.293   0.731   2.393
  119MYC    H9423628   3.429   0.843   2.401
  119MYC    C4823629   3.279   0.898   2.255
  119MYC    H9123630   3.319   1.000   2.248
  119MYC    H9223631   3.170   0.906   2.248
  119MYC    C4723632   3.331   0.813   2.137
  119MYC    H8923633   3.271   0.722   2.130
  119MYC    H9023634   3.434   0.780   2.158
  119MYC    C4623635   3.332   0.886   2.001
  119MYC    H8723636   3.414   0.959   2.000
  119MYC    H8823637   3.239   0.943   1.989
  119MYC    C4523638   3.347   0.788   1.884
  119MYC    H8523639   3.252   0.735   1.869
  119MYC    H8623640   3.421   0.712   1.910
  119MYC    C4423641   3.390   0.851   1.750
  119MYC    H8323642   3.390   0.771   1.675
  119MYC    H8423643   3.495   0.884   1.759
  119MYC    C1823644   3.303   0.964   1.697
  119MYC    H3123645   3.197   0.940   1.698
  119MYC    C1723646   3.341   1.110   1.711
  119MYC    H3023647   3.435   1.133   1.761
  119MYC    C1923648   3.353   1.042   1.577
  119MYC    H3223649   3.454   1.021   1.541
  119MYC    H3323650   3.282   1.068   1.500
  119MYC    C1623651   3.237   1.221   1.727
  119MYC    H2823652   3.140   1.186   1.690
  119MYC    H2923653   3.265   1.305   1.663
  119MYC    C1523654   3.222   1.274   1.871
  119MYC    H2623655   3.221   1.383   1.867
  119MYC    H2723656   3.310   1.246   1.932
  119MYC    C1423657   3.093   1.227   1.941
  119MYC    H2423658   3.093   1.118   1.950
  119MYC    H2523659   3.007   1.255   1.879
  119MYC    C1323660   3.076   1.290   2.081
  119MYC    H2223661   3.080   1.399   2.071
  119MYC    H2323662   3.159   1.260   2.146
  119MYC    C1223663   2.943   1.252   2.147
  119MYC    H2023664   2.942   1.145   2.171
  119MYC    H2123665   2.865   1.268   2.072
  119MYC    C1123666   2.906   1.334   2.271
  119MYC    H1823667   2.804   1.308   2.302
  119MYC    H1923668   2.904   1.441   2.244
  119MYC    C1023669   3.001   1.314   2.391
  119MYC    H1623670   3.100   1.354   2.367
  119MYC    H1723671   3.012   1.207   2.411
  119MYC     C923672   2.948   1.384   2.518
  119MYC    H1423673   2.846   1.348   2.539
  119MYC    H1523674   2.941   1.492   2.501
  119MYC     C823675   3.036   1.358   2.642
  119MYC    H1223676   3.132   1.409   2.629
  119MYC    H1323677   3.057   1.251   2.650
  119MYC     C723678   2.969   1.406   2.772
  119MYC    H1023679   2.873   1.354   2.784
  119MYC    H1123680   2.948   1.513   2.765
  119MYC     C623681   3.057   1.379   2.896
  119MYC     H823682   3.145   1.444   2.894
  119MYC     H923683   3.095   1.276   2.891
  119MYC     C523684   2.983   1.396   3.030
  119MYC     H623685   3.054   1.371   3.109
  119MYC     H723686   2.902   1.323   3.037
  119MYC     C423687   2.927   1.538   3.056
  119MYC     H423688   2.831   1.548   3.004
  119MYC     H523689   2.995   1.613   3.014
  119MYC     C223690   2.907   1.564   3.207
  119MYC     H223691   2.856   1.476   3.249
  119MYC     O323692   3.036   1.577   3.268
  119MYC     H323693   3.083   1.650   3.223
  119MYC     C123694   2.819   1.688   3.242
  119MYC     H123695   2.715   1.665   3.214
  119MYC    C8123696   2.861   1.814   3.163
  119MYC    O8223697   2.976   1.855   3.157
  119MYC    O8323698   2.758   1.886   3.114
  119MYC   H10523699   2.798   1.967   3.078
  119MYC    C2023700   2.816   1.722   3.394
  119MYC    H3423701   2.911   1.768   3.421
  119MYC    H3523702   2.738   1.798   3.412
  119MYC    C2123703   2.791   1.602   3.489
  119MYC    H3623704   2.692   1.559   3.470
  119MYC    H3723705   2.864   1.523   3.469
  119MYC    C2223706   2.804   1.640   3.637
  119MYC    H3823707   2.892   1.705   3.650
  119MYC    H3923708   2.717   1.699   3.668
  119MYC    C2323709   2.821   1.518   3.731
  119MYC    H4023710   2.733   1.453   3.721
  119MYC    H4123711   2.908   1.459   3.699
  119MYC    C2423712   2.839   1.560   3.877
  119MYC    H4223713   2.925   1.627   3.885
  119MYC    H4323714   2.751   1.619   3.906
  119MYC    C2523715   2.857   1.444   3.977
  119MYC    H4423716   2.785   1.364   3.955
  119MYC    H4523717   2.958   1.401   3.964
  119MYC    C2623718   2.838   1.492   4.122
  119MYC    H4623719   2.897   1.583   4.137
  119MYC    H4723720   2.733   1.520   4.134
  119MYC    C2723721   2.876   1.391   4.232
  119MYC    H4823722   2.822   1.296   4.215
  119MYC    H4923723   2.983   1.369   4.226
  119MYC    C2823724   2.841   1.447   4.371
  119MYC    H5023725   2.883   1.548   4.380
  119MYC    H5123726   2.732   1.457   4.379
  119MYC    C2923727   2.892   1.362   4.489
  119MYC    H5223728   2.850   1.261   4.483
  119MYC    H5323729   3.001   1.353   4.483
  119MYC    C3023730   2.853   1.426   4.625
  119MYC    H5423731   2.891   1.529   4.628
  119MYC    H5523732   2.744   1.432   4.631
  119MYC    C3123733   2.907   1.349   4.747
  119MYC    H5623734   2.870   1.246   4.744
  119MYC    H5723735   3.017   1.345   4.742
  119MYC    C3223736   2.865   1.414   4.880
  119MYC    H5823737   2.901   1.518   4.883
  119MYC    H5923738   2.755   1.418   4.885
  119MYC    C3323739   2.918   1.339   5.004
  119MYC    H6023740   2.885   1.235   5.000
  119MYC    H6123741   3.028   1.339   5.000
  119MYC    C3423742   2.872   1.402   5.137
  119MYC    H6223743   2.899   1.509   5.138
  119MYC    H6323744   2.763   1.397   5.144
  119MYC    C3523745   2.935   1.333   5.259
  119MYC    H6423746   2.912   1.226   5.256
  119MYC    H6523747   3.044   1.343   5.253
  119MYC    C3623748   2.887   1.391   5.394
  119MYC    H6623749   2.890   1.500   5.390
  119MYC    H6723750   2.782   1.363   5.410
  119MYC    C3723751   2.973   1.342   5.512
  119MYC    H6823752   2.978   1.232   5.510
  119MYC    H6923753   3.075   1.379   5.497
  119MYC    C3823754   2.921   1.387   5.650
  119MYC    H7023755   2.895   1.493   5.647
  119MYC    H7123756   2.830   1.331   5.674
  119MYC    C3923757   3.027   1.365   5.760
  119MYC    H7223758   3.065   1.262   5.753
  119MYC    H7323759   3.112   1.432   5.742
  119MYC    C4023760   2.974   1.388   5.903
  119MYC    H7423761   2.931   1.489   5.911
  119MYC    H7523762   2.893   1.317   5.923
  119MYC    C4123763   3.085   1.370   6.009
  119MYC    H7623764   3.131   1.272   5.996
  119MYC    H7723765   3.163   1.445   5.992
  119MYC    C4223766   3.034   1.382   6.154
  119MYC    H7823767   2.991   1.482   6.170
  119MYC    H7923768   2.953   1.310   6.170
  119MYC    C4323769   3.145   1.358   6.258
  119MYC    H8023770   3.105   1.367   6.360
  119MYC    H8123771   3.226   1.430   6.246
  119MYC    H8223772   3.187   1.257   6.247
  120MYC   HH1523773   3.454   2.204   6.279
  120MYC    C8023774   3.409   2.152   6.194
  120MYC   H10023775   3.378   2.052   6.227
  120MYC   H10123776   3.319   2.207   6.164
  120MYC    C7923777   3.509   2.143   6.078
  120MYC   H10223778   3.598   2.088   6.111
  120MYC   H10323779   3.542   2.244   6.052
  120MYC    C7823780   3.451   2.075   5.952
  120MYC   HH1423781   3.363   2.132   5.919
  120MYC   H10423782   3.416   1.974   5.978
  120MYC    C7723783   3.552   2.066   5.836
  120MYC   H10623784   3.634   2.000   5.865
  120MYC   H10723785   3.596   2.166   5.819
  120MYC    C7623786   3.489   2.017   5.704
  120MYC   H10823787   3.407   2.085   5.676
  120MYC   H10923788   3.446   1.918   5.718
  120MYC    C7523789   3.591   2.012   5.588
  120MYC   H11023790   3.665   1.934   5.608
  120MYC   H11123791   3.646   2.107   5.584
  120MYC    C7423792   3.526   1.987   5.450
  120MYC   H11223793   3.455   2.068   5.430
  120MYC   H11323794   3.468   1.893   5.453
  120MYC    C7323795   3.629   1.979   5.336
  120MYC   HH1323796   3.686   1.885   5.344
  120MYC   H11423797   3.702   2.061   5.347
  120MYC    C7223798   3.565   1.989   5.196
  120MYC   H11523799   3.513   2.086   5.189
  120MYC   H11623800   3.488   1.911   5.185
  120MYC    C7123801   3.667   1.976   5.081
  120MYC   H11723802   3.697   1.871   5.071
  120MYC   H11823803   3.757   2.034   5.105
  120MYC    C7023804   3.610   2.027   4.947
  120MYC   H11923805   3.594   2.136   4.954
  120MYC   H12023806   3.512   1.982   4.928
  120MYC    C6923807   3.702   1.998   4.827
  120MYC   H12123808   3.701   1.890   4.807
  120MYC   H12223809   3.806   2.024   4.851
  120MYC    C6823810   3.661   2.074   4.699
  120MYC   HH1223811   3.681   2.181   4.714
  120MYC   H12323812   3.553   2.063   4.683
  120MYC    C6723813   3.736   2.025   4.574
  120MYC   H12423814   3.707   1.921   4.555
  120MYC   H12523815   3.844   2.025   4.593
  120MYC    C6623816   3.708   2.109   4.448
  120MYC   H12623817   3.747   2.211   4.463
  120MYC   H12723818   3.600   2.118   4.433
  120MYC    C6523819   3.772   2.048   4.323
  120MYC   H12823820   3.732   1.946   4.309
  120MYC   H12923821   3.880   2.037   4.338
  120MYC    C6423822   3.747   2.129   4.194
  120MYC   H13023823   3.796   2.226   4.202
  120MYC   H13123824   3.639   2.147   4.184
  120MYC    C6323825   3.798   2.054   4.070
  120MYC   HH1123826   3.753   1.954   4.068
  120MYC   H13223827   3.907   2.039   4.078
  120MYC    C6223828   3.767   2.126   3.937
  120MYC   H13323829   3.827   2.217   3.930
  120MYC   H13423830   3.662   2.156   3.936
  120MYC    C6123831   3.794   2.034   3.816
  120MYC   H13523832   3.737   1.942   3.829
  120MYC   H13623833   3.900   2.005   3.816
  120MYC    C6023834   3.759   2.098   3.683
  120MYC   H13723835   3.833   2.172   3.651
  120MYC    C5823836   3.694   2.013   3.577
  120MYC   H13823837   3.663   1.913   3.606
  120MYC    C5923838   3.617   2.126   3.640
  120MYC   H13923839   3.598   2.215   3.580
  120MYC   H14023840   3.537   2.100   3.709
  120MYC    C5723841   3.746   2.018   3.434
  120MYC   HH1023842   3.828   1.946   3.426
  120MYC   H14123843   3.787   2.116   3.412
  120MYC    C5623844   3.638   1.985   3.329
  120MYC   H14223845   3.577   2.074   3.311
  120MYC   H14323846   3.571   1.906   3.366
  120MYC    C5523847   3.701   1.936   3.197
  120MYC   H14423848   3.740   1.835   3.211
  120MYC   H14523849   3.788   1.999   3.174
  120MYC    C5423850   3.607   1.938   3.076
  120MYC   H14623851   3.566   2.039   3.063
  120MYC   H14723852   3.522   1.870   3.093
  120MYC    C5323853   3.682   1.896   2.948
  120MYC   H14823854   3.715   1.792   2.957
  120MYC   H14923855   3.772   1.957   2.938
  120MYC    C5223856   3.599   1.911   2.818
  120MYC    H9923857   3.559   2.013   2.812
  120MYC   H15023858   3.513   1.842   2.821
  120MYC    C5123859   3.685   1.882   2.694
  120MYC    H9723860   3.721   1.778   2.698
  120MYC    H9823861   3.774   1.946   2.697
  120MYC    C5023862   3.612   1.906   2.560
  120MYC    H9523863   3.569   2.007   2.560
  120MYC    H9623864   3.529   1.835   2.551
  120MYC    C4923865   3.708   1.892   2.440
  120MYC    H9323866   3.751   1.791   2.440
  120MYC    H9423867   3.791   1.962   2.452
  120MYC    C4823868   3.639   1.917   2.305
  120MYC    H9123869   3.593   2.016   2.305
  120MYC    H9223870   3.559   1.843   2.292
  120MYC    C4723871   3.738   1.907   2.186
  120MYC    H8923872   3.787   1.810   2.189
  120MYC    H9023873   3.816   1.984   2.197
  120MYC    C4623874   3.667   1.924   2.051
  120MYC    H8723875   3.620   2.023   2.046
  120MYC    H8823876   3.587   1.850   2.046
  120MYC    C4523877   3.761   1.906   1.929
  120MYC    H8523878   3.812   1.809   1.937
  120MYC    H8623879   3.838   1.983   1.932
  120MYC    C4423880   3.687   1.913   1.793
  120MYC    H8323881   3.760   1.907   1.711
  120MYC    H8423882   3.639   2.011   1.783
  120MYC    C1823883   3.585   1.801   1.776
  120MYC    H3123884   3.628   1.703   1.796
  120MYC    C1723885   3.441   1.824   1.815
  120MYC    H3023886   3.414   1.925   1.845
  120MYC    C1923887   3.478   1.804   1.670
  120MYC    H3223888   3.475   1.891   1.604
  120MYC    H3323889   3.450   1.710   1.623
  120MYC    C1623890   3.369   1.716   1.895
  120MYC    H2823891   3.441   1.664   1.960
  120MYC    H2923892   3.330   1.640   1.826
  120MYC    C1523893   3.251   1.767   1.980
  120MYC    H2623894   3.188   1.682   2.006
  120MYC    H2723895   3.189   1.834   1.919
  120MYC    C1423896   3.292   1.840   2.111
  120MYC    H2423897   3.347   1.932   2.088
  120MYC    H2523898   3.358   1.776   2.171
  120MYC    C1323899   3.166   1.874   2.194
  120MYC    H2223900   3.114   1.780   2.215
  120MYC    H2323901   3.100   1.934   2.130
  120MYC    C1223902   3.184   1.949   2.327
  120MYC    H2023903   3.229   2.047   2.308
  120MYC    H2123904   3.253   1.894   2.392
  120MYC    C1123905   3.047   1.965   2.398
  120MYC    H1823906   3.016   1.867   2.437
  120MYC    H1923907   2.972   1.993   2.324
  120MYC    C1023908   3.040   2.070   2.511
  120MYC    H1623909   2.936   2.071   2.549
  120MYC    H1723910   3.057   2.169   2.468
  120MYC     C923911   3.135   2.048   2.630
  120MYC    H1423912   3.239   2.054   2.595
  120MYC    H1523913   3.120   1.947   2.671
  120MYC     C823914   3.112   2.152   2.741
  120MYC    H1223915   3.008   2.143   2.776
  120MYC    H1323916   3.122   2.253   2.699
  120MYC     C723917   3.206   2.138   2.862
  120MYC    H1023918   3.311   2.147   2.829
  120MYC    H1123919   3.195   2.038   2.906
  120MYC     C623920   3.178   2.247   2.969
  120MYC     H823921   3.071   2.244   2.995
  120MYC     H923922   3.196   2.345   2.924
  120MYC     C523923   3.261   2.236   3.098
  120MYC     H623924   3.242   2.327   3.157
  120MYC     H723925   3.368   2.240   3.072
  120MYC     C423926   3.236   2.108   3.184
  120MYC     H423927   3.329   2.051   3.186
  120MYC     H523928   3.163   2.044   3.134
  120MYC     C223929   3.189   2.129   3.331
  120MYC     H223930   3.213   2.035   3.383
  120MYC     O323931   3.264   2.234   3.393
  120MYC     H323932   3.359   2.216   3.378
  120MYC     C123933   3.035   2.149   3.350
  120MYC     H123934   2.989   2.053   3.325
  120MYC    C8123935   2.973   2.254   3.256
  120MYC    O8223936   2.997   2.373   3.260
  120MYC    O8323937   2.872   2.206   3.179
  120MYC   H10523938   2.837   2.283   3.131
  120MYC    C2023939   2.991   2.180   3.496
  120MYC    H3423940   3.030   2.278   3.526
  120MYC    H3523941   2.882   2.188   3.498
  120MYC    C2123942   3.035   2.074   3.599
  120MYC    H3623943   3.008   1.974   3.564
  120MYC    H3723944   3.144   2.077   3.610
  120MYC    C2223945   2.971   2.098   3.737
  120MYC    H3823946   2.991   2.201   3.770
  120MYC    H3923947   2.862   2.088   3.728
  120MYC    C2323948   3.022   2.001   3.845
  120MYC    H4023949   3.008   1.897   3.810
  120MYC    H4123950   3.129   2.016   3.859
  120MYC    C2423951   2.949   2.019   3.979
  120MYC    H4223952   2.959   2.124   4.011
  120MYC    H4323953   2.842   2.001   3.965
  120MYC    C2523954   3.002   1.927   4.090
  120MYC    H4423955   2.993   1.822   4.058
  120MYC    H4523956   3.109   1.947   4.104
  120MYC    C2623957   2.928   1.947   4.223
  120MYC    H4623958   2.931   2.054   4.249
  120MYC    H4723959   2.822   1.920   4.210
  120MYC    C2723960   2.989   1.866   4.338
  120MYC    H4823961   2.986   1.759   4.314
  120MYC    H4923962   3.095   1.893   4.347
  120MYC    C2823963   2.918   1.892   4.472
  120MYC    H5023964   2.899   1.999   4.483
  120MYC    H5123965   2.820   1.843   4.471
  120MYC    C2923966   3.000   1.843   4.592
  120MYC    H5223967   3.018   1.736   4.585
  120MYC    H5323968   3.098   1.893   4.590
  120MYC    C3023969   2.931   1.875   4.727
  120MYC    H5423970   2.895   1.978   4.726
  120MYC    H5523971   2.844   1.810   4.739
  120MYC    C3123972   3.026   1.857   4.846
  120MYC    H5623973   3.064   1.754   4.847
  120MYC    H5723974   3.112   1.923   4.834
  120MYC    C3223975   2.958   1.887   4.981
  120MYC    H5823976   2.914   1.988   4.978
  120MYC    H5923977   2.876   1.816   4.997
  120MYC    C3323978   3.057   1.878   5.098
  120MYC    H6023979   3.109   1.782   5.094
  120MYC    H6123980   3.134   1.956   5.087
  120MYC    C3423981   2.989   1.893   5.235
  120MYC    H6223982   2.943   1.993   5.243
  120MYC    H6323983   2.907   1.820   5.242
  120MYC    C3523984   3.086   1.871   5.352
  120MYC    H6423985   3.143   1.779   5.336
  120MYC    H6523986   3.158   1.954   5.356
  120MYC    C3623987   3.013   1.861   5.487
  120MYC    H6623988   2.959   1.954   5.507
  120MYC    H6723989   2.938   1.781   5.481
  120MYC    C3723990   3.108   1.831   5.605
  120MYC    H6823991   3.166   1.740   5.584
  120MYC    H6923992   3.179   1.914   5.616
  120MYC    C3823993   3.031   1.812   5.737
  120MYC    H7023994   2.964   1.898   5.751
  120MYC    H7123995   2.966   1.723   5.729
  120MYC    C3923996   3.122   1.799   5.860
  120MYC    H7223997   3.184   1.709   5.852
  120MYC    H7323998   3.191   1.885   5.861
  120MYC    C4023999   3.042   1.796   5.992
  120MYC    H7424000   2.944   1.844   5.977
  120MYC    H7524001   3.021   1.692   6.020
  120MYC    C4124002   3.112   1.867   6.109
  120MYC    H7624003   3.202   1.812   6.138
  120MYC    H7724004   3.145   1.967   6.076
  120MYC    C4224005   3.020   1.885   6.232
  120MYC    H7824006   2.927   1.934   6.200
  120MYC    H7924007   2.993   1.787   6.272
  120MYC    C4324008   3.084   1.970   6.343
  120MYC    H8024009   3.014   1.982   6.427
  120MYC    H8124010   3.109   2.070   6.305
  120MYC    H8224011   3.176   1.924   6.380
  121MYC   HH1524012   3.278   3.062   6.217
  121MYC    C8024013   3.255   3.079   6.111
  121MYC   H10024014   3.238   2.982   6.064
  121MYC   H10124015   3.163   3.138   6.105
  121MYC    C7924016   3.372   3.154   6.043
  121MYC   H10224017   3.462   3.093   6.048
  121MYC   H10324018   3.392   3.245   6.100
  121MYC    C7824019   3.344   3.194   5.896
  121MYC   HH1424020   3.422   3.263   5.864
  121MYC   H10424021   3.249   3.249   5.892
  121MYC    C7724022   3.339   3.075   5.797
  121MYC   H10624023   3.266   3.001   5.830
  121MYC   H10724024   3.437   3.025   5.796
  121MYC    C7624025   3.303   3.121   5.654
  121MYC   H10824026   3.369   3.205   5.627
  121MYC   H10924027   3.201   3.160   5.654
  121MYC    C7524028   3.317   3.011   5.547
  121MYC   H11024029   3.251   2.927   5.570
  121MYC   H11124030   3.420   2.973   5.548
  121MYC    C7424031   3.284   3.066   5.406
  121MYC   H11224032   3.337   3.161   5.392
  121MYC   H11324033   3.176   3.088   5.400
  121MYC    C7324034   3.322   2.971   5.291
  121MYC   HH1324035   3.261   2.881   5.295
  121MYC   H11424036   3.427   2.940   5.303
  121MYC    C7224037   3.307   3.039   5.153
  121MYC   H11524038   3.358   3.136   5.156
  121MYC   H11624039   3.200   3.061   5.135
  121MYC    C7124040   3.363   2.957   5.036
  121MYC   H11724041   3.306   2.864   5.026
  121MYC   H11824042   3.467   2.929   5.059
  121MYC    C7024043   3.360   3.035   4.903
  121MYC   H11924044   3.414   3.130   4.916
  121MYC   H12024045   3.257   3.060   4.878
  121MYC    C6924046   3.424   2.957   4.786
  121MYC   H12124047   3.370   2.863   4.772
  121MYC   H12224048   3.528   2.933   4.810
  121MYC    C6824049   3.420   3.037   4.654
  121MYC   HH1224050   3.476   3.131   4.668
  121MYC   H12324051   3.316   3.065   4.632
  121MYC    C6724052   3.478   2.960   4.534
  121MYC   H12424053   3.426   2.864   4.524
  121MYC   H12524054   3.584   2.938   4.553
  121MYC    C6624055   3.465   3.040   4.403
  121MYC   H12624056   3.520   3.134   4.412
  121MYC   H12724057   3.359   3.066   4.388
  121MYC    C6524058   3.515   2.963   4.280
  121MYC   H12824059   3.464   2.866   4.274
  121MYC   H12924060   3.622   2.942   4.290
  121MYC    C6424061   3.489   3.041   4.150
  121MYC   H13024062   3.538   3.139   4.156
  121MYC   H13124063   3.382   3.061   4.140
  121MYC    C6324064   3.538   2.969   4.023
  121MYC   HH1124065   3.491   2.870   4.017
  121MYC   H13224066   3.647   2.953   4.029
  121MYC    C6224067   3.505   3.049   3.896
  121MYC   H13324068   3.546   3.151   3.905
  121MYC   H13424069   3.396   3.060   3.888
  121MYC    C6124070   3.558   2.985   3.767
  121MYC   H13524071   3.521   2.882   3.760
  121MYC   H13624072   3.667   2.979   3.771
  121MYC    C6024073   3.515   3.063   3.644
  121MYC   H13724074   3.533   3.170   3.654
  121MYC    C5824075   3.528   3.007   3.505
  121MYC   H13824076   3.567   2.906   3.497
  121MYC    C5924077   3.391   3.022   3.567
  121MYC   H13924078   3.326   3.101   3.530
  121MYC   H14024079   3.339   2.932   3.598
  121MYC    C5724080   3.569   3.095   3.388
  121MYC   HH1024081   3.678   3.096   3.380
  121MYC   H14124082   3.538   3.198   3.407
  121MYC    C5624083   3.509   3.047   3.255
  121MYC   H14224084   3.402   3.031   3.267
  121MYC   H14324085   3.554   2.950   3.229
  121MYC    C5524086   3.531   3.147   3.139
  121MYC   H14424087   3.638   3.170   3.129
  121MYC   H14524088   3.479   3.241   3.162
  121MYC    C5424089   3.477   3.091   3.006
  121MYC   H14624090   3.371   3.068   3.018
  121MYC   H14724091   3.530   2.997   2.985
  121MYC    C5324092   3.494   3.185   2.886
  121MYC   H14824093   3.600   3.211   2.873
  121MYC   H14924094   3.438   3.278   2.903
  121MYC    C5224095   3.441   3.117   2.758
  121MYC    H9924096   3.334   3.097   2.770
  121MYC   H15024097   3.491   3.019   2.748
  121MYC    C5124098   3.465   3.195   2.628
  121MYC    H9724099   3.573   3.212   2.615
  121MYC    H9824100   3.416   3.293   2.634
  121MYC    C5024101   3.409   3.117   2.508
  121MYC    H9524102   3.300   3.109   2.518
  121MYC    H9624103   3.448   3.014   2.510
  121MYC    C4924104   3.443   3.179   2.371
  121MYC    H9324105   3.552   3.179   2.359
  121MYC    H9424106   3.408   3.283   2.367
  121MYC    C4824107   3.378   3.099   2.256
  121MYC    H9124108   3.269   3.105   2.265
  121MYC    H9224109   3.405   2.993   2.267
  121MYC    C4724110   3.421   3.147   2.116
  121MYC    H8924111   3.530   3.142   2.107
  121MYC    H9024112   3.391   3.251   2.102
  121MYC    C4624113   3.359   3.060   2.005
  121MYC    H8724114   3.249   3.068   2.008
  121MYC    H8824115   3.383   2.955   2.025
  121MYC    C4524116   3.409   3.097   1.864
  121MYC    H8524117   3.518   3.090   1.861
  121MYC    H8624118   3.383   3.201   1.842
  121MYC    C4424119   3.350   3.007   1.752
  121MYC    H8324120   3.387   3.044   1.656
  121MYC    H8424121   3.241   3.018   1.750
  121MYC    C1824122   3.386   2.860   1.765
  121MYC    H3124123   3.492   2.846   1.787
  121MYC    C1724124   3.292   2.759   1.826
  121MYC    H3024125   3.195   2.797   1.857
  121MYC    C1924126   3.320   2.757   1.678
  121MYC    H3224127   3.241   2.791   1.611
  121MYC    H3324128   3.382   2.677   1.638
  121MYC    C1624129   3.344   2.648   1.918
  121MYC    H2824130   3.378   2.692   2.012
  121MYC    H2924131   3.433   2.603   1.872
  121MYC    C1524132   3.243   2.535   1.946
  121MYC    H2624133   3.297   2.452   1.991
  121MYC    H2724134   3.201   2.499   1.851
  121MYC    C1424135   3.128   2.577   2.041
  121MYC    H2424136   3.064   2.650   1.990
  121MYC    H2524137   3.171   2.630   2.127
  121MYC    C1324138   3.040   2.459   2.091
  121MYC    H2224139   3.068   2.366   2.039
  121MYC    H2324140   2.936   2.479   2.065
  121MYC    C1224141   3.048   2.438   2.243
  121MYC    H2024142   2.968   2.370   2.274
  121MYC    H2124143   3.027   2.534   2.293
  121MYC    C1124144   3.183   2.380   2.292
  121MYC    H1824145   3.266   2.422   2.234
  121MYC    H1924146   3.183   2.273   2.273
  121MYC    C1024147   3.210   2.406   2.442
  121MYC    H1624148   3.278   2.329   2.480
  121MYC    H1724149   3.116   2.396   2.498
  121MYC     C924150   3.271   2.545   2.470
  121MYC    H1424151   3.211   2.623   2.421
  121MYC    H1524152   3.371   2.549   2.425
  121MYC     C824153   3.281   2.576   2.620
  121MYC    H1224154   3.331   2.491   2.670
  121MYC    H1324155   3.180   2.582   2.662
  121MYC     C724156   3.359   2.706   2.650
  121MYC    H1024157   3.303   2.793   2.612
  121MYC    H1124158   3.454   2.703   2.597
  121MYC     C624159   3.388   2.723   2.800
  121MYC     H824160   3.466   2.800   2.813
  121MYC     H924161   3.430   2.630   2.837
  121MYC     C524162   3.267   2.758   2.888
  121MYC     H624163   3.186   2.686   2.871
  121MYC     H724164   3.229   2.857   2.859
  121MYC     C424165   3.305   2.758   3.038
  121MYC     H424166   3.387   2.829   3.053
  121MYC     H524167   3.346   2.660   3.064
  121MYC     C224168   3.193   2.792   3.138
  121MYC     H224169   3.245   2.814   3.232
  121MYC     O324170   3.125   2.911   3.097
  121MYC     H324171   3.049   2.884   3.042
  121MYC     C124172   3.092   2.676   3.167
  121MYC     H124173   3.150   2.583   3.169
  121MYC    C8124174   2.985   2.659   3.056
  121MYC    O8224175   2.900   2.742   3.028
  121MYC    O8324176   2.988   2.539   2.993
  121MYC   H10524177   2.914   2.541   2.930
  121MYC    C2024178   3.026   2.690   3.306
  121MYC    H3424179   2.990   2.793   3.320
  121MYC    H3524180   2.938   2.625   3.311
  121MYC    C2124181   3.120   2.653   3.423
  121MYC    H3624182   3.155   2.549   3.410
  121MYC    H3724183   3.209   2.717   3.422
  121MYC    C2224184   3.053   2.666   3.561
  121MYC    H3824185   3.019   2.769   3.575
  121MYC    H3924186   2.964   2.602   3.563
  121MYC    C2324187   3.146   2.626   3.678
  121MYC    H4024188   3.173   2.520   3.668
  121MYC    H4124189   3.239   2.684   3.672
  121MYC    C2424190   3.080   2.650   3.815
  121MYC    H4224191   3.056   2.757   3.824
  121MYC    H4324192   2.984   2.596   3.818
  121MYC    C2524193   3.166   2.606   3.935
  121MYC    H4424194   3.180   2.497   3.932
  121MYC    H4524195   3.265   2.652   3.928
  121MYC    C2624196   3.101   2.646   4.069
  121MYC    H4624197   3.091   2.755   4.072
  121MYC    H4724198   2.999   2.605   4.073
  121MYC    C2724199   3.178   2.599   4.194
  121MYC    H4824200   3.178   2.489   4.197
  121MYC    H4924201   3.283   2.631   4.187
  121MYC    C2824202   3.116   2.654   4.324
  121MYC    H5024203   3.120   2.763   4.321
  121MYC    H5124204   3.010   2.626   4.327
  121MYC    C2924205   3.184   2.604   4.453
  121MYC    H5224206   3.177   2.495   4.458
  121MYC    H5324207   3.291   2.630   4.451
  121MYC    C3024208   3.119   2.665   4.578
  121MYC    H5424209   3.132   2.774   4.577
  121MYC    H5524210   3.011   2.647   4.573
  121MYC    C3124211   3.172   2.610   4.712
  121MYC    H5624212   3.166   2.500   4.711
  121MYC    H5724213   3.278   2.637   4.724
  121MYC    C3224214   3.090   2.664   4.831
  121MYC    H5824215   3.098   2.773   4.834
  121MYC    H5924216   2.984   2.640   4.814
  121MYC    C3324217   3.131   2.608   4.969
  121MYC    H6024218   3.134   2.498   4.965
  121MYC    H6124219   3.232   2.642   4.995
  121MYC    C3424220   3.031   2.652   5.079
  121MYC    H6224221   3.019   2.761   5.074
  121MYC    H6324222   2.933   2.609   5.055
  121MYC    C3524223   3.070   2.613   5.222
  121MYC    H6424224   3.089   2.505   5.228
  121MYC    H6524225   3.163   2.663   5.249
  121MYC    C3624226   2.959   2.650   5.324
  121MYC    H6624227   2.928   2.754   5.306
  121MYC    H6724228   2.871   2.587   5.305
  121MYC    C3724229   3.001   2.636   5.471
  121MYC    H6824230   3.037   2.534   5.490
  121MYC    H6924231   3.085   2.703   5.491
  121MYC    C3824232   2.885   2.668   5.569
  121MYC    H7024233   2.844   2.767   5.545
  121MYC    H7124234   2.804   2.596   5.553
  121MYC    C3924235   2.928   2.666   5.717
  121MYC    H7224236   2.976   2.570   5.739
  121MYC    H7324237   3.003   2.744   5.734
  121MYC    C4024238   2.810   2.687   5.814
  121MYC    H7424239   2.760   2.782   5.792
  121MYC    H7524240   2.735   2.608   5.798
  121MYC    C4124241   2.853   2.686   5.962
  121MYC    H7624242   2.911   2.595   5.983
  121MYC    H7724243   2.920   2.771   5.981
  121MYC    C4224244   2.734   2.693   6.061
  121MYC    H7824245   2.677   2.785   6.042
  121MYC    H7924246   2.667   2.608   6.042
  121MYC    C4324247   2.777   2.690   6.209
  121MYC    H8024248   2.690   2.692   6.274
  121MYC    H8124249   2.840   2.777   6.232
  121MYC    H8224250   2.834   2.599   6.230
  122MYC   HH1524251   3.581   3.521   6.292
  122MYC    C8024252   3.559   3.589   6.209
  122MYC   H10024253   3.451   3.604   6.204
  122MYC   H10124254   3.607   3.686   6.231
  122MYC    C7924255   3.612   3.531   6.077
  122MYC   H10224256   3.566   3.433   6.060
  122MYC   H10324257   3.721   3.515   6.086
  122MYC    C7824258   3.585   3.622   5.955
  122MYC   HH1424259   3.627   3.722   5.974
  122MYC   H10424260   3.476   3.635   5.943
  122MYC    C7724261   3.644   3.566   5.825
  122MYC   H10624262   3.604   3.466   5.807
  122MYC   H10724263   3.753   3.555   5.836
  122MYC    C7624264   3.616   3.655   5.702
  122MYC   H10824265   3.656   3.756   5.719
  122MYC   H10924266   3.507   3.665   5.688
  122MYC    C7524267   3.678   3.596   5.573
  122MYC   H11024268   3.639   3.495   5.558
  122MYC   H11124269   3.786   3.588   5.586
  122MYC    C7424270   3.648   3.680   5.447
  122MYC   H11224271   3.693   3.779   5.457
  122MYC   H11324272   3.540   3.694   5.437
  122MYC    C7324273   3.701   3.611   5.320
  122MYC   HH1324274   3.654   3.512   5.311
  122MYC   H11424275   3.809   3.594   5.330
  122MYC    C7224276   3.675   3.691   5.191
  122MYC   H11524277   3.733   3.784   5.194
  122MYC   H11624278   3.569   3.719   5.186
  122MYC    C7124279   3.713   3.610   5.066
  122MYC   H11724280   3.652   3.519   5.063
  122MYC   H11824281   3.818   3.578   5.074
  122MYC    C7024282   3.694   3.687   4.935
  122MYC   H11924283   3.766   3.770   4.930
  122MYC   H12024284   3.593   3.731   4.932
  122MYC    C6924285   3.712   3.596   4.812
  122MYC   H12124286   3.638   3.516   4.817
  122MYC   H12224287   3.811   3.548   4.817
  122MYC    C6824288   3.699   3.670   4.678
  122MYC   HH1224289   3.781   3.741   4.667
  122MYC   H12324290   3.605   3.728   4.678
  122MYC    C6724291   3.697   3.572   4.560
  122MYC   H12424292   3.613   3.503   4.571
  122MYC   H12524293   3.789   3.511   4.561
  122MYC    C6624294   3.686   3.643   4.424
  122MYC   H12624295   3.776   3.703   4.407
  122MYC   H12724296   3.601   3.712   4.427
  122MYC    C6524297   3.667   3.544   4.308
  122MYC   H12824298   3.577   3.484   4.326
  122MYC   H12924299   3.752   3.475   4.305
  122MYC    C6424300   3.654   3.615   4.174
  122MYC   H13024301   3.746   3.672   4.154
  122MYC   H13124302   3.572   3.688   4.179
  122MYC    C6324303   3.629   3.519   4.057
  122MYC   HH1124304   3.539   3.459   4.077
  122MYC   H13224305   3.713   3.449   4.048
  122MYC    C6224306   3.611   3.595   3.925
  122MYC   H13324307   3.698   3.660   3.909
  122MYC   H13424308   3.522   3.660   3.932
  122MYC    C6124309   3.596   3.502   3.804
  122MYC   H13524310   3.510   3.435   3.818
  122MYC   H13624311   3.684   3.438   3.797
  122MYC    C6024312   3.581   3.582   3.676
  122MYC   H13724313   3.644   3.670   3.674
  122MYC    C5824314   3.564   3.510   3.545
  122MYC   H13824315   3.554   3.402   3.549
  122MYC    C5924316   3.449   3.590   3.602
  122MYC   H13924317   3.424   3.684   3.553
  122MYC   H14024318   3.364   3.535   3.641
  122MYC    C5724319   3.644   3.558   3.425
  122MYC   HH1024320   3.743   3.513   3.427
  122MYC   H14124321   3.658   3.667   3.430
  122MYC    C5624322   3.574   3.524   3.293
  122MYC   H14224323   3.474   3.568   3.293
  122MYC   H14324324   3.562   3.415   3.287
  122MYC    C5524325   3.653   3.573   3.172
  122MYC   H14424326   3.751   3.525   3.169
  122MYC   H14524327   3.671   3.681   3.180
  122MYC    C5424328   3.579   3.545   3.041
  122MYC   H14624329   3.481   3.594   3.043
  122MYC   H14724330   3.561   3.437   3.032
  122MYC    C5324331   3.657   3.593   2.919
  122MYC   H14824332   3.752   3.538   2.912
  122MYC   H14924333   3.683   3.699   2.931
  122MYC    C5224334   3.579   3.575   2.789
  122MYC    H9924335   3.484   3.631   2.795
  122MYC   H15024336   3.553   3.469   2.776
  122MYC    C5124337   3.658   3.624   2.667
  122MYC    H9724338   3.749   3.564   2.657
  122MYC    H9824339   3.690   3.727   2.683
  122MYC    C5024340   3.576   3.614   2.539
  122MYC    H9524341   3.489   3.681   2.546
  122MYC    H9624342   3.538   3.512   2.527
  122MYC    C4924343   3.659   3.650   2.415
  122MYC    H9324344   3.743   3.580   2.406
  122MYC    H9424345   3.702   3.751   2.427
  122MYC    C4824346   3.574   3.646   2.288
  122MYC    H9124347   3.501   3.727   2.291
  122MYC    H9224348   3.518   3.552   2.286
  122MYC    C4724349   3.658   3.656   2.160
  122MYC    H8924350   3.729   3.573   2.156
  122MYC    H9024351   3.717   3.748   2.161
  122MYC    C4624352   3.567   3.653   2.038
  122MYC    H8724353   3.514   3.748   2.031
  122MYC    H8824354   3.493   3.574   2.052
  122MYC    C4524355   3.641   3.624   1.906
  122MYC    H8524356   3.677   3.521   1.906
  122MYC    H8624357   3.729   3.689   1.901
  122MYC    C4424358   3.554   3.649   1.782
  122MYC    H8324359   3.607   3.612   1.694
  122MYC    H8424360   3.544   3.757   1.769
  122MYC    C1824361   3.416   3.583   1.786
  122MYC    H3124362   3.423   3.475   1.777
  122MYC    C1724363   3.296   3.638   1.861
  122MYC    H3024364   3.306   3.731   1.917
  122MYC    C1924365   3.305   3.650   1.712
  122MYC    H3224366   3.322   3.748   1.669
  122MYC    H3324367   3.242   3.586   1.653
  122MYC    C1624368   3.190   3.544   1.918
  122MYC    H2824369   3.209   3.444   1.877
  122MYC    H2924370   3.092   3.574   1.881
  122MYC    C1524371   3.183   3.532   2.072
  122MYC    H2624372   3.142   3.626   2.113
  122MYC    H2724373   3.283   3.519   2.114
  122MYC    C1424374   3.095   3.413   2.113
  122MYC    H2424375   3.143   3.320   2.082
  122MYC    H2524376   3.000   3.421   2.058
  122MYC    C1324377   3.061   3.404   2.263
  122MYC    H2224378   3.006   3.495   2.292
  122MYC    H2324379   3.155   3.403   2.321
  122MYC    C1224380   2.977   3.279   2.296
  122MYC    H2024381   3.040   3.189   2.293
  122MYC    H2124382   2.900   3.266   2.219
  122MYC    C1124383   2.904   3.286   2.432
  122MYC    H1824384   2.837   3.200   2.441
  122MYC    H1924385   2.841   3.376   2.433
  122MYC    C1024386   2.998   3.288   2.555
  122MYC    H1624387   3.085   3.352   2.535
  122MYC    H1724388   3.037   3.187   2.573
  122MYC     C924389   2.928   3.340   2.682
  122MYC    H1424390   2.842   3.277   2.706
  122MYC    H1524391   2.890   3.441   2.662
  122MYC     C824392   3.023   3.345   2.803
  122MYC    H1224393   3.117   3.394   2.774
  122MYC    H1324394   3.049   3.242   2.831
  122MYC     C724395   2.963   3.420   2.924
  122MYC    H1024396   2.871   3.371   2.956
  122MYC    H1124397   2.935   3.521   2.892
  122MYC     C624398   3.061   3.434   3.043
  122MYC     H824399   3.016   3.498   3.119
  122MYC     H924400   3.151   3.487   3.009
  122MYC     C524401   3.105   3.300   3.108
  122MYC     H624402   3.177   3.322   3.187
  122MYC     H724403   3.160   3.240   3.034
  122MYC     C424404   2.991   3.213   3.168
  122MYC     H424405   3.038   3.121   3.204
  122MYC     H524406   2.920   3.182   3.090
  122MYC     C224407   2.917   3.277   3.288
  122MYC     H224408   2.994   3.329   3.346
  122MYC     O324409   2.821   3.372   3.242
  122MYC     H324410   2.752   3.323   3.194
  122MYC     C124411   2.848   3.172   3.381
  122MYC     H124412   2.926   3.101   3.410
  122MYC    C8124413   2.739   3.091   3.307
  122MYC    O8224414   2.634   3.138   3.266
  122MYC    O8324415   2.770   2.961   3.288
  122MYC   H10524416   2.695   2.923   3.238
  122MYC    C2024417   2.794   3.235   3.512
  122MYC    H3424418   2.724   3.317   3.488
  122MYC    H3524419   2.736   3.159   3.566
  122MYC    C2124420   2.906   3.286   3.605
  122MYC    H3624421   2.971   3.201   3.631
  122MYC    H3724422   2.969   3.358   3.552
  122MYC    C2224423   2.857   3.355   3.733
  122MYC    H3824424   2.810   3.451   3.708
  122MYC    H3924425   2.780   3.292   3.781
  122MYC    C2324426   2.973   3.377   3.831
  122MYC    H4024427   3.014   3.279   3.858
  122MYC    H4124428   3.054   3.432   3.781
  122MYC    C2424429   2.934   3.453   3.960
  122MYC    H4224430   2.923   3.559   3.937
  122MYC    H4324431   2.837   3.417   3.996
  122MYC    C2524432   3.040   3.433   4.070
  122MYC    H4424433   3.041   3.327   4.098
  122MYC    H4524434   3.139   3.456   4.030
  122MYC    C2624435   3.015   3.518   4.196
  122MYC    H4624436   3.030   3.624   4.171
  122MYC    H4724437   2.912   3.506   4.229
  122MYC    C2724438   3.110   3.477   4.311
  122MYC    H4824439   3.084   3.376   4.345
  122MYC    H4924440   3.213   3.472   4.273
  122MYC    C2824441   3.106   3.574   4.431
  122MYC    H5024442   3.142   3.672   4.398
  122MYC    H5124443   3.002   3.587   4.463
  122MYC    C2924444   3.191   3.524   4.549
  122MYC    H5224445   3.143   3.436   4.593
  122MYC    H5324446   3.289   3.491   4.513
  122MYC    C3024447   3.215   3.630   4.660
  122MYC    H5424448   3.272   3.581   4.739
  122MYC    H5524449   3.278   3.710   4.620
  122MYC    C3124450   3.085   3.691   4.718
  122MYC    H5624451   3.036   3.752   4.641
  122MYC    H5724452   3.015   3.611   4.744
  122MYC    C3224453   3.108   3.781   4.843
  122MYC    H5824454   3.181   3.859   4.820
  122MYC    H5924455   3.013   3.832   4.866
  122MYC    C3324456   3.153   3.701   4.967
  122MYC    H6024457   3.085   3.616   4.980
  122MYC    H6124458   3.253   3.659   4.950
  122MYC    C3424459   3.156   3.783   5.098
  122MYC    H6224460   3.234   3.859   5.092
  122MYC    H6324461   3.060   3.834   5.111
  122MYC    C3524462   3.181   3.691   5.219
  122MYC    H6424463   3.105   3.612   5.219
  122MYC    H6524464   3.278   3.641   5.207
  122MYC    C3624465   3.178   3.762   5.356
  122MYC    H6624466   3.264   3.828   5.365
  122MYC    H6724467   3.088   3.824   5.363
  122MYC    C3724468   3.177   3.659   5.471
  122MYC    H6824469   3.089   3.595   5.460
  122MYC    H6924470   3.265   3.594   5.461
  122MYC    C3824471   3.175   3.721   5.612
  122MYC    H7024472   3.267   3.779   5.627
  122MYC    H7124473   3.091   3.790   5.620
  122MYC    C3924474   3.164   3.612   5.721
  122MYC    H7224475   3.073   3.553   5.704
  122MYC    H7324476   3.249   3.543   5.711
  122MYC    C4024477   3.161   3.667   5.865
  122MYC    H7424478   3.249   3.729   5.882
  122MYC    H7524479   3.073   3.732   5.876
  122MYC    C4124480   3.155   3.555   5.970
  122MYC    H7624481   3.068   3.491   5.951
  122MYC    H7724482   3.244   3.492   5.960
  122MYC    C4224483   3.148   3.607   6.115
  122MYC    H7824484   3.233   3.673   6.135
  122MYC    H7924485   3.057   3.667   6.128
  122MYC    C4324486   3.148   3.493   6.219
  122MYC    H8024487   3.145   3.534   6.321
  122MYC    H8124488   3.238   3.432   6.210
  122MYC    H8224489   3.060   3.428   6.206
  123MYC   HH1524490   3.486   4.219   6.270
  123MYC    C8024491   3.423   4.211   6.180
  123MYC   H10024492   3.377   4.111   6.180
  123MYC   H10124493   3.344   4.286   6.187
  123MYC    C7924494   3.508   4.231   6.053
  123MYC   H10224495   3.588   4.155   6.052
  123MYC   H10324496   3.556   4.329   6.057
  123MYC    C7824497   3.425   4.219   5.923
  123MYC   HH1424498   3.355   4.303   5.916
  123MYC   H10424499   3.365   4.127   5.927
  123MYC    C7724500   3.514   4.214   5.797
  123MYC   H10624501   3.588   4.135   5.810
  123MYC   H10724502   3.569   4.308   5.788
  123MYC    C7624503   3.435   4.188   5.667
  123MYC   H10824504   3.376   4.277   5.642
  123MYC   H10924505   3.364   4.105   5.682
  123MYC    C7524506   3.529   4.152   5.551
  123MYC   H11024507   3.585   4.062   5.576
  123MYC   H11124508   3.603   4.233   5.539
  123MYC    C7424509   3.458   4.131   5.416
  123MYC   H11224510   3.409   4.224   5.386
  123MYC   H11324511   3.379   4.055   5.426
  123MYC    C7324512   3.558   4.086   5.307
  123MYC   HH1324513   3.584   3.981   5.322
  123MYC   H11424514   3.651   4.144   5.319
  123MYC    C7224515   3.507   4.106   5.163
  123MYC   H11524516   3.474   4.210   5.151
  123MYC   H11624517   3.420   4.042   5.145
  123MYC    C7124518   3.617   4.076   5.059
  123MYC   H11724519   3.639   3.969   5.059
  123MYC   H11824520   3.710   4.128   5.088
  123MYC    C7024521   3.579   4.121   4.917
  123MYC   H11924522   3.560   4.229   4.917
  123MYC   H12024523   3.486   4.072   4.887
  123MYC    C6924524   3.689   4.089   4.813
  123MYC   H12124525   3.703   3.980   4.809
  123MYC   H12224526   3.784   4.134   4.844
  123MYC    C6824527   3.652   4.141   4.673
  123MYC   HH1224528   3.657   4.250   4.672
  123MYC   H12324529   3.547   4.114   4.652
  123MYC    C6724530   3.741   4.084   4.561
  123MYC   H12424531   3.735   3.974   4.563
  123MYC   H12524532   3.845   4.111   4.578
  123MYC    C6624533   3.695   4.135   4.423
  123MYC   H12624534   3.724   4.240   4.412
  123MYC   H12724535   3.585   4.132   4.418
  123MYC    C6524536   3.750   4.054   4.304
  123MYC   H12824537   3.724   3.949   4.317
  123MYC   H12924538   3.860   4.061   4.301
  123MYC    C6424539   3.691   4.105   4.171
  123MYC   H13024540   3.725   4.208   4.154
  123MYC   H13124541   3.582   4.110   4.181
  123MYC    C6324542   3.726   4.020   4.048
  123MYC   HH1124543   3.695   3.916   4.066
  123MYC   H13224544   3.834   4.020   4.032
  123MYC    C6224545   3.654   4.073   3.923
  123MYC   H13324546   3.681   4.179   3.909
  123MYC   H13424547   3.546   4.070   3.940
  123MYC    C6124548   3.686   3.996   3.794
  123MYC   H13524549   3.665   3.890   3.808
  123MYC   H13624550   3.794   4.005   3.772
  123MYC    C6024551   3.606   4.050   3.676
  123MYC   H13724552   3.612   4.159   3.668
  123MYC    C5824553   3.597   3.975   3.546
  123MYC   H13824554   3.648   3.879   3.543
  123MYC    C5924555   3.476   3.986   3.635
  123MYC   H13924556   3.396   4.051   3.601
  123MYC   H14024557   3.444   3.897   3.688
  123MYC    C5724558   3.607   4.051   3.415
  123MYC   HH1024559   3.711   4.083   3.401
  123MYC   H14124560   3.547   4.143   3.420
  123MYC    C5624561   3.562   3.969   3.293
  123MYC   H14224562   3.456   3.944   3.301
  123MYC   H14324563   3.618   3.875   3.291
  123MYC    C5524564   3.588   4.045   3.161
  123MYC   H14424565   3.694   4.071   3.155
  123MYC   H14524566   3.532   4.139   3.164
  123MYC    C5424567   3.546   3.970   3.034
  123MYC   H14624568   3.437   3.970   3.026
  123MYC   H14724569   3.577   3.865   3.041
  123MYC    C5324570   3.609   4.032   2.907
  123MYC   H14824571   3.714   4.002   2.902
  123MYC   H14924572   3.607   4.141   2.915
  123MYC    C5224573   3.537   3.992   2.776
  123MYC    H9924574   3.437   4.037   2.776
  123MYC   H15024575   3.524   3.884   2.772
  123MYC    C5124576   3.615   4.038   2.650
  123MYC    H9724577   3.705   3.977   2.640
  123MYC    H9824578   3.647   4.142   2.663
  123MYC    C5024579   3.531   4.029   2.521
  123MYC    H9524580   3.447   4.099   2.527
  123MYC    H9624581   3.488   3.928   2.512
  123MYC    C4924582   3.614   4.059   2.394
  123MYC    H9324583   3.691   3.982   2.382
  123MYC    H9424584   3.666   4.154   2.406
  123MYC    C4824585   3.527   4.065   2.266
  123MYC    H9124586   3.463   4.154   2.271
  123MYC    H9224587   3.461   3.978   2.262
  123MYC    C4724588   3.612   4.070   2.138
  123MYC    H8924589   3.671   3.978   2.130
  123MYC    H9024590   3.683   4.152   2.144
  123MYC    C4624591   3.528   4.087   2.010
  123MYC    H8724592   3.478   4.185   2.012
  123MYC    H8824593   3.449   4.010   2.007
  123MYC    C4524594   3.613   4.076   1.882
  123MYC    H8524595   3.648   3.972   1.871
  123MYC    H8624596   3.702   4.138   1.892
  123MYC    C4424597   3.541   4.119   1.753
  123MYC    H8324598   3.612   4.110   1.670
  123MYC    H8424599   3.515   4.225   1.760
  123MYC    C1824600   3.416   4.037   1.719
  123MYC    H3124601   3.421   3.935   1.757
  123MYC    C1724602   3.279   4.098   1.705
  123MYC    H3024603   3.269   4.205   1.720
  123MYC    C1924604   3.356   4.055   1.583
  123MYC    H3224605   3.398   4.133   1.522
  123MYC    H3324606   3.322   3.967   1.530
  123MYC    C1624607   3.152   4.021   1.741
  123MYC    H2824608   3.175   3.918   1.770
  123MYC    H2924609   3.088   4.014   1.652
  123MYC    C1524610   3.069   4.087   1.852
  123MYC    H2624611   2.972   4.035   1.860
  123MYC    H2724612   3.046   4.191   1.822
  123MYC    C1424613   3.138   4.087   1.989
  123MYC    H2424614   3.241   4.122   1.979
  123MYC    H2524615   3.142   3.984   2.028
  123MYC    C1324616   3.066   4.178   2.089
  123MYC    H2224617   2.960   4.150   2.094
  123MYC    H2324618   3.069   4.281   2.051
  123MYC    C1224619   3.126   4.175   2.230
  123MYC    H2024620   3.231   4.205   2.225
  123MYC    H2124621   3.122   4.073   2.269
  123MYC    C1124622   3.050   4.270   2.324
  123MYC    H1824623   2.945   4.239   2.329
  123MYC    H1924624   3.052   4.371   2.283
  123MYC    C1024625   3.109   4.272   2.466
  123MYC    H1624626   3.213   4.307   2.462
  123MYC    H1724627   3.110   4.170   2.505
  123MYC     C924628   3.028   4.363   2.560
  123MYC    H1424629   2.925   4.326   2.566
  123MYC    H1524630   3.023   4.464   2.517
  123MYC     C824631   3.085   4.374   2.702
  123MYC    H1224632   3.018   4.437   2.761
  123MYC    H1324633   3.182   4.425   2.700
  123MYC     C724634   3.101   4.237   2.772
  123MYC    H1024635   3.191   4.186   2.734
  123MYC    H1124636   3.015   4.173   2.749
  123MYC     C624637   3.113   4.251   2.925
  123MYC     H824638   3.021   4.299   2.961
  123MYC     H924639   3.196   4.318   2.948
  123MYC     C524640   3.132   4.116   2.998
  123MYC     H624641   3.238   4.088   2.994
  123MYC     H724642   3.078   4.038   2.944
  123MYC     C424643   3.082   4.117   3.144
  123MYC     H424644   3.084   4.013   3.180
  123MYC     H524645   2.977   4.148   3.145
  123MYC     C224646   3.165   4.204   3.242
  123MYC     H224647   3.269   4.169   3.237
  123MYC     O324648   3.161   4.342   3.205
  123MYC     H324649   3.073   4.376   3.229
  123MYC     C124650   3.118   4.188   3.389
  123MYC     H124651   3.132   4.083   3.416
  123MYC    C8124652   2.967   4.218   3.408
  123MYC    O8224653   2.886   4.134   3.440
  123MYC    O8324654   2.932   4.348   3.393
  123MYC   H10524655   2.836   4.351   3.407
  123MYC    C2024656   3.207   4.272   3.485
  123MYC    H3424657   3.312   4.249   3.465
  123MYC    H3524658   3.193   4.379   3.466
  123MYC    C2124659   3.178   4.245   3.634
  123MYC    H3624660   3.074   4.268   3.657
  123MYC    H3724661   3.192   4.138   3.654
  123MYC    C2224662   3.269   4.328   3.726
  123MYC    H3824663   3.373   4.322   3.692
  123MYC    H3924664   3.240   4.434   3.718
  123MYC    C2324665   3.262   4.282   3.872
  123MYC    H4024666   3.179   4.212   3.885
  123MYC    H4124667   3.354   4.226   3.896
  123MYC    C2424668   3.244   4.397   3.973
  123MYC    H4224669   3.324   4.471   3.962
  123MYC    H4324670   3.149   4.448   3.952
  123MYC    C2524671   3.242   4.343   4.117
  123MYC    H4424672   3.175   4.257   4.121
  123MYC    H4524673   3.342   4.306   4.142
  123MYC    C2624674   3.197   4.445   4.222
  123MYC    H4624675   3.266   4.530   4.225
  123MYC    H4724676   3.098   4.483   4.196
  123MYC    C2724677   3.191   4.378   4.360
  123MYC    H4824678   3.129   4.288   4.352
  123MYC    H4924679   3.292   4.344   4.387
  123MYC    C2824680   3.135   4.465   4.473
  123MYC    H5024681   3.200   4.553   4.489
  123MYC    H5124682   3.036   4.502   4.445
  123MYC    C2924683   3.125   4.382   4.602
  123MYC    H5224684   3.067   4.292   4.581
  123MYC    H5324685   3.226   4.349   4.631
  123MYC    C3024686   3.060   4.455   4.720
  123MYC    H5424687   3.117   4.545   4.746
  123MYC    H5524688   2.959   4.487   4.692
  123MYC    C3124689   3.052   4.362   4.843
  123MYC    H5624690   3.013   4.264   4.811
  123MYC    H5724691   3.153   4.345   4.882
  123MYC    C3224692   2.962   4.415   4.955
  123MYC    H5824693   2.995   4.516   4.984
  123MYC    H5924694   2.859   4.424   4.917
  123MYC    C3324695   2.964   4.324   5.078
  123MYC    H6024696   2.958   4.218   5.047
  123MYC    H6124697   3.060   4.336   5.129
  123MYC    C3424698   2.848   4.352   5.175
  123MYC    H6224699   2.830   4.460   5.181
  123MYC    H6324700   2.756   4.307   5.136
  123MYC    C3524701   2.876   4.299   5.316
  123MYC    H6424702   2.905   4.194   5.312
  123MYC    H6524703   2.962   4.354   5.357
  123MYC    C3624704   2.755   4.316   5.411
  123MYC    H6624705   2.706   4.412   5.391
  123MYC    H6724706   2.682   4.237   5.391
  123MYC    C3724707   2.799   4.312   5.558
  123MYC    H6824708   2.857   4.222   5.578
  123MYC    H6924709   2.866   4.397   5.577
  123MYC    C3824710   2.681   4.319   5.657
  123MYC    H7024711   2.614   4.402   5.630
  123MYC    H7124712   2.622   4.227   5.648
  123MYC    C3924713   2.729   4.338   5.802
  123MYC    H7224714   2.807   4.264   5.824
  123MYC    H7324715   2.775   4.437   5.812
  123MYC    C4024716   2.616   4.324   5.905
  123MYC    H7424717   2.539   4.400   5.886
  123MYC    H7524718   2.569   4.225   5.891
  123MYC    C4124719   2.666   4.336   6.050
  123MYC    H7624720   2.744   4.261   6.067
  123MYC    H7724721   2.712   4.434   6.065
  123MYC    C4224722   2.553   4.316   6.153
  123MYC    H7824723   2.483   4.400   6.147
  123MYC    H7924724   2.497   4.225   6.127
  123MYC    C4324725   2.604   4.302   6.297
  123MYC    H8024726   2.519   4.292   6.366
  123MYC    H8124727   2.662   4.391   6.326
  123MYC    H8224728   2.667   4.214   6.307
  124MYC   HH1524729   3.113   5.506   6.278
  124MYC    C8024730   3.056   5.480   6.188
  124MYC   H10024731   3.017   5.378   6.200
  124MYC   H10124732   2.970   5.549   6.181
  124MYC    C7924733   3.144   5.491   6.063
  124MYC   H10224734   3.228   5.420   6.072
  124MYC   H10324735   3.188   5.591   6.058
  124MYC    C7824736   3.068   5.462   5.932
  124MYC   HH1424737   2.983   5.530   5.924
  124MYC   H10424738   3.027   5.360   5.936
  124MYC    C7724739   3.157   5.477   5.807
  124MYC   H10624740   3.241   5.407   5.814
  124MYC   H10724741   3.199   5.578   5.805
  124MYC    C7624742   3.081   5.451   5.675
  124MYC   H10824743   2.997   5.521   5.667
  124MYC   H10924744   3.040   5.350   5.675
  124MYC    C7524745   3.173   5.468   5.552
  124MYC   H11024746   3.255   5.397   5.559
  124MYC   H11124747   3.217   5.569   5.554
  124MYC    C7424748   3.100   5.449   5.417
  124MYC   H11224749   3.021   5.524   5.408
  124MYC   H11324750   3.053   5.350   5.415
  124MYC    C7324751   3.197   5.461   5.298
  124MYC   HH1324752   3.271   5.381   5.305
  124MYC   H11424753   3.252   5.556   5.306
  124MYC    C7224754   3.128   5.456   5.161
  124MYC   H11524755   3.062   5.543   5.151
  124MYC   H11624756   3.065   5.367   5.155
  124MYC    C7124757   3.230   5.454   5.046
  124MYC   H11724758   3.286   5.359   5.050
  124MYC   H11824759   3.302   5.535   5.059
  124MYC    C7024760   3.165   5.469   4.907
  124MYC   H11924761   3.123   5.569   4.898
  124MYC   H12024762   3.081   5.398   4.898
  124MYC    C6924763   3.265   5.444   4.793
  124MYC   H12124764   3.297   5.339   4.796
  124MYC   H12224765   3.355   5.505   4.809
  124MYC    C6824766   3.207   5.476   4.655
  124MYC   HH1224767   3.190   5.584   4.647
  124MYC   H12324768   3.110   5.427   4.643
  124MYC    C6724769   3.300   5.431   4.541
  124MYC   H12424770   3.307   5.322   4.541
  124MYC   H12524771   3.401   5.470   4.559
  124MYC    C6624772   3.252   5.479   4.403
  124MYC   H12624773   3.251   5.588   4.402
  124MYC   H12724774   3.149   5.446   4.386
  124MYC    C6524775   3.341   5.428   4.288
  124MYC   H12824776   3.337   5.318   4.286
  124MYC   H12924777   3.445   5.456   4.308
  124MYC    C6424778   3.299   5.483   4.152
  124MYC   H13024779   3.297   5.593   4.156
  124MYC   H13124780   3.196   5.450   4.129
  124MYC    C6324781   3.393   5.440   4.039
  124MYC   HH1124782   3.401   5.330   4.038
  124MYC   H13224783   3.494   5.478   4.059
  124MYC    C6224784   3.347   5.488   3.901
  124MYC   H13324785   3.328   5.596   3.904
  124MYC   H13424786   3.252   5.440   3.876
  124MYC    C6124787   3.450   5.458   3.791
  124MYC   H13524788   3.483   5.354   3.800
  124MYC   H13624789   3.538   5.521   3.806
  124MYC    C6024790   3.393   5.482   3.652
  124MYC   H13724791   3.359   5.584   3.637
  124MYC    C5824792   3.454   5.412   3.533
  124MYC   H13824793   3.533   5.340   3.554
  124MYC    C5924794   3.316   5.373   3.580
  124MYC   H13924795   3.232   5.403   3.519
  124MYC   H14024796   3.305   5.277   3.630
  124MYC    C5724797   3.476   5.485   3.403
  124MYC   HH1024798   3.575   5.531   3.403
  124MYC   H14124799   3.403   5.566   3.392
  124MYC    C5624800   3.465   5.391   3.282
  124MYC   H14224801   3.365   5.345   3.282
  124MYC   H14324802   3.537   5.310   3.293
  124MYC    C5524803   3.488   5.461   3.148
  124MYC   H14424804   3.588   5.506   3.147
  124MYC   H14524805   3.415   5.543   3.136
  124MYC    C5424806   3.474   5.364   3.029
  124MYC   H14624807   3.373   5.320   3.032
  124MYC   H14724808   3.545   5.282   3.041
  124MYC    C5324809   3.496   5.432   2.893
  124MYC   H14824810   3.598   5.471   2.887
  124MYC   H14924811   3.427   5.517   2.885
  124MYC    C5224812   3.471   5.335   2.776
  124MYC    H9924813   3.372   5.290   2.788
  124MYC   H15024814   3.545   5.254   2.778
  124MYC    C5124815   3.477   5.406   2.639
  124MYC    H9724816   3.579   5.438   2.618
  124MYC    H9824817   3.415   5.497   2.644
  124MYC    C5024818   3.423   5.318   2.524
  124MYC    H9524819   3.325   5.279   2.553
  124MYC    H9624820   3.489   5.232   2.509
  124MYC    C4924821   3.409   5.397   2.392
  124MYC    H9324822   3.507   5.411   2.346
  124MYC    H9424823   3.370   5.497   2.415
  124MYC    C4824824   3.311   5.330   2.293
  124MYC    H9124825   3.214   5.319   2.344
  124MYC    H9224826   3.345   5.229   2.268
  124MYC    C4724827   3.289   5.413   2.165
  124MYC    H8924828   3.305   5.519   2.186
  124MYC    H9024829   3.183   5.403   2.138
  124MYC    C4624830   3.376   5.371   2.045
  124MYC    H8724831   3.351   5.269   2.015
  124MYC    H8824832   3.481   5.370   2.076
  124MYC    C4524833   3.365   5.466   1.923
  124MYC    H8524834   3.430   5.428   1.843
  124MYC    H8624835   3.406   5.563   1.953
  124MYC    C4424836   3.223   5.487   1.867
  124MYC    H8324837   3.228   5.564   1.789
  124MYC    H8424838   3.159   5.529   1.946
  124MYC    C1824839   3.159   5.361   1.809
  124MYC    H3124840   3.222   5.314   1.734
  124MYC    C1724841   3.072   5.270   1.893
  124MYC    H3024842   3.049   5.302   1.995
  124MYC    C1924843   3.010   5.354   1.784
  124MYC    H3224844   2.950   5.439   1.815
  124MYC    H3324845   2.976   5.304   1.694
  124MYC    C1624846   3.086   5.119   1.881
  124MYC    H2824847   3.173   5.085   1.939
  124MYC    H2924848   3.106   5.092   1.777
  124MYC    C1524849   2.961   5.040   1.929
  124MYC    H2624850   2.966   4.939   1.888
  124MYC    H2724851   2.871   5.086   1.886
  124MYC    C1424852   2.948   5.030   2.082
  124MYC    H2424853   2.946   5.130   2.126
  124MYC    H2524854   3.037   4.979   2.122
  124MYC    C1324855   2.820   4.954   2.128
  124MYC    H2224856   2.815   4.857   2.077
  124MYC    H2324857   2.733   5.011   2.094
  124MYC    C1224858   2.809   4.934   2.280
  124MYC    H2024859   2.705   4.909   2.305
  124MYC    H2124860   2.831   5.029   2.331
  124MYC    C1124861   2.900   4.822   2.335
  124MYC    H1824862   3.004   4.839   2.303
  124MYC    H1924863   2.870   4.727   2.289
  124MYC    C1024864   2.898   4.805   2.488
  124MYC    H1624865   2.953   4.712   2.512
  124MYC    H1724866   2.795   4.790   2.523
  124MYC     C924867   2.962   4.922   2.566
  124MYC    H1424868   2.894   5.008   2.566
  124MYC    H1524869   3.054   4.954   2.514
  124MYC     C824870   2.999   4.886   2.711
  124MYC    H1224871   3.064   4.797   2.710
  124MYC    H1324872   2.908   4.857   2.766
  124MYC     C724873   3.071   4.999   2.787
  124MYC    H1024874   3.000   5.081   2.805
  124MYC    H1124875   3.151   5.040   2.725
  124MYC     C624876   3.131   4.952   2.921
  124MYC     H824877   3.202   4.871   2.902
  124MYC     H924878   3.050   4.911   2.983
  124MYC     C524879   3.203   5.065   2.999
  124MYC     H624880   3.130   5.142   3.028
  124MYC     H724881   3.273   5.114   2.930
  124MYC     C424882   3.284   5.019   3.123
  124MYC     H424883   3.339   5.107   3.159
  124MYC     H524884   3.361   4.948   3.091
  124MYC     C224885   3.206   4.961   3.246
  124MYC     H224886   3.244   5.017   3.332
  124MYC     O324887   3.066   4.985   3.237
  124MYC     H324888   3.029   4.922   3.173
  124MYC     C124889   3.235   4.810   3.276
  124MYC     H124890   3.344   4.801   3.286
  124MYC    C8124891   3.193   4.717   3.160
  124MYC    O8224892   3.077   4.694   3.129
  124MYC    O8324893   3.295   4.655   3.098
  124MYC   H10524894   3.254   4.596   3.032
  124MYC    C2024895   3.173   4.758   3.408
  124MYC    H3424896   3.064   4.766   3.403
  124MYC    H3524897   3.196   4.651   3.418
  124MYC    C2124898   3.223   4.830   3.536
  124MYC    H3624899   3.332   4.823   3.543
  124MYC    H3724900   3.197   4.937   3.530
  124MYC    C2224901   3.159   4.773   3.664
  124MYC    H3824902   3.050   4.776   3.654
  124MYC    H3924903   3.187   4.667   3.674
  124MYC    C2324904   3.200   4.849   3.792
  124MYC    H4024905   3.308   4.837   3.809
  124MYC    H4124906   3.181   4.956   3.777
  124MYC    C2424907   3.122   4.801   3.915
  124MYC    H4224908   3.014   4.811   3.895
  124MYC    H4324909   3.141   4.694   3.931
  124MYC    C2524910   3.156   4.878   4.044
  124MYC    H4424911   3.260   4.859   4.072
  124MYC    H4524912   3.146   4.986   4.026
  124MYC    C2624913   3.063   4.838   4.161
  124MYC    H4624914   2.959   4.860   4.133
  124MYC    H4724915   3.069   4.729   4.175
  124MYC    C2724916   3.096   4.908   4.293
  124MYC    H4824917   3.199   4.882   4.323
  124MYC    H4924918   3.093   5.017   4.279
  124MYC    C2824919   2.999   4.868   4.406
  124MYC    H5024920   2.898   4.906   4.382
  124MYC    H5124921   2.992   4.759   4.410
  124MYC    C2924922   3.042   4.920   4.544
  124MYC    H5224923   3.143   4.884   4.565
  124MYC    H5324924   3.046   5.030   4.543
  124MYC    C3024925   2.947   4.874   4.657
  124MYC    H5424926   2.854   4.931   4.653
  124MYC    H5524927   2.921   4.768   4.642
  124MYC    C3124928   3.012   4.888   4.796
  124MYC    H5624929   3.106   4.832   4.797
  124MYC    H5724930   3.037   4.994   4.814
  124MYC    C3224931   2.923   4.837   4.911
  124MYC    H5824932   2.836   4.902   4.922
  124MYC    H5924933   2.885   4.737   4.887
  124MYC    C3324934   3.001   4.831   5.044
  124MYC    H6024935   3.088   4.764   5.030
  124MYC    H6124936   3.041   4.930   5.066
  124MYC    C3424937   2.919   4.781   5.164
  124MYC    H6224938   2.836   4.850   5.183
  124MYC    H6324939   2.875   4.683   5.141
  124MYC    C3524940   3.007   4.769   5.290
  124MYC    H6424941   3.088   4.697   5.270
  124MYC    H6524942   3.055   4.866   5.308
  124MYC    C3624943   2.933   4.726   5.418
  124MYC    H6624944   2.847   4.793   5.435
  124MYC    H6724945   2.893   4.624   5.405
  124MYC    C3724946   3.026   4.730   5.540
  124MYC    H6824947   3.110   4.661   5.524
  124MYC    H6924948   3.070   4.831   5.547
  124MYC    C3824949   2.959   4.696   5.675
  124MYC    H7024950   2.872   4.761   5.690
  124MYC    H7124951   2.923   4.593   5.672
  124MYC    C3924952   3.057   4.714   5.793
  124MYC    H7224953   3.148   4.656   5.772
  124MYC    H7324954   3.087   4.819   5.799
  124MYC    C4024955   3.000   4.669   5.929
  124MYC    H7424956   2.907   4.723   5.949
  124MYC    H7524957   2.974   4.562   5.924
  124MYC    C4124958   3.099   4.693   6.044
  124MYC    H7624959   3.196   4.647   6.019
  124MYC    H7724960   3.117   4.800   6.055
  124MYC    C4224961   3.052   4.635   6.180
  124MYC    H7824962   2.955   4.679   6.206
  124MYC    H7924963   3.037   4.527   6.169
  124MYC    C4324964   3.152   4.661   6.294
  124MYC    H8024965   3.118   4.613   6.386
  124MYC    H8124966   3.163   4.768   6.312
  124MYC    H8224967   3.251   4.620   6.269
  125MYC   HH1524968   3.423   6.250   6.249
  125MYC    C8024969   3.348   6.249   6.168
  125MYC   H10024970   3.292   6.155   6.175
  125MYC   H10124971   3.279   6.332   6.184
  125MYC    C7924972   3.417   6.261   6.031
  125MYC   H10224973   3.490   6.179   6.021
  125MYC   H10324974   3.474   6.355   6.028
  125MYC    C7824975   3.318   6.256   5.913
  125MYC   HH1424976   3.244   6.336   5.924
  125MYC   H10424977   3.264   6.161   5.915
  125MYC    C7724978   3.389   6.271   5.777
  125MYC   H10624979   3.465   6.193   5.767
  125MYC   H10724980   3.442   6.367   5.774
  125MYC    C7624981   3.294   6.262   5.656
  125MYC   H10824982   3.216   6.340   5.664
  125MYC   H10924983   3.242   6.165   5.657
  125MYC    C7524984   3.369   6.279   5.522
  125MYC   H11024985   3.445   6.201   5.515
  125MYC   H11124986   3.421   6.375   5.522
  125MYC    C7424987   3.278   6.271   5.398
  125MYC   H11224988   3.205   6.353   5.400
  125MYC   H11324989   3.221   6.177   5.400
  125MYC    C7324990   3.360   6.277   5.267
  125MYC   HH1324991   3.425   6.190   5.262
  125MYC   H11424992   3.424   6.366   5.269
  125MYC    C7224993   3.272   6.281   5.141
  125MYC   H11524994   3.216   6.375   5.139
  125MYC   H11624995   3.199   6.199   5.144
  125MYC    C7124996   3.356   6.269   5.012
  125MYC   H11724997   3.407   6.171   5.012
  125MYC   H11824998   3.433   6.346   5.011
  125MYC    C7024999   3.270   6.281   4.885
  125MYC   H11925000   3.229   6.383   4.880
  125MYC   H12025001   3.184   6.213   4.892
  125MYC    C6925002   3.348   6.251   4.756
  125MYC   H12125003   3.387   6.149   4.761
  125MYC   H12225004   3.435   6.318   4.749
  125MYC    C6825005   3.260   6.267   4.631
  125MYC   HH1225006   3.225   6.370   4.624
  125MYC   H12325007   3.171   6.203   4.642
  125MYC    C6725008   3.333   6.229   4.501
  125MYC   H12425009   3.365   6.124   4.507
  125MYC   H12525010   3.424   6.289   4.491
  125MYC    C6625011   3.244   6.249   4.377
  125MYC   H12625012   3.216   6.354   4.369
  125MYC   H12725013   3.151   6.192   4.391
  125MYC    C6525014   3.311   6.203   4.247
  125MYC   H12825015   3.339   6.097   4.257
  125MYC   H12925016   3.404   6.260   4.232
  125MYC    C6425017   3.220   6.220   4.125
  125MYC   H13025018   3.199   6.327   4.109
  125MYC   H13125019   3.124   6.171   4.144
  125MYC    C6325020   3.282   6.161   3.997
  125MYC   HH1125021   3.306   6.056   4.015
  125MYC   H13225022   3.377   6.213   3.975
  125MYC    C6225023   3.189   6.172   3.875
  125MYC   H13325024   3.170   6.278   3.853
  125MYC   H13425025   3.093   6.126   3.898
  125MYC    C6125026   3.249   6.105   3.750
  125MYC   H13525027   3.270   5.999   3.773
  125MYC   H13625028   3.346   6.152   3.727
  125MYC    C6025029   3.158   6.114   3.628
  125MYC   H13725030   3.068   6.172   3.647
  125MYC    C5825031   3.217   6.123   3.489
  125MYC   H13825032   3.325   6.116   3.480
  125MYC    C5925033   3.145   5.998   3.532
  125MYC   H13925034   3.047   5.979   3.490
  125MYC   H14025035   3.205   5.909   3.550
  125MYC    C5725036   3.156   6.219   3.388
  125MYC   HH1025037   3.207   6.316   3.394
  125MYC   H14125038   3.051   6.238   3.415
  125MYC    C5625039   3.161   6.167   3.244
  125MYC   H14225040   3.122   6.065   3.240
  125MYC   H14325041   3.265   6.163   3.210
  125MYC    C5525042   3.078   6.256   3.149
  125MYC   H14425043   3.122   6.356   3.145
  125MYC   H14525044   2.978   6.268   3.192
  125MYC    C5425045   3.061   6.201   3.006
  125MYC   H14625046   2.977   6.254   2.960
  125MYC   H14725047   3.032   6.095   3.011
  125MYC    C5325048   3.184   6.215   2.915
  125MYC   H14825049   3.266   6.151   2.951
  125MYC   H14925050   3.220   6.318   2.919
  125MYC    C5225051   3.150   6.178   2.769
  125MYC    H9925052   3.058   6.231   2.740
  125MYC   H15025053   3.127   6.071   2.763
  125MYC    C5125054   3.260   6.213   2.667
  125MYC    H9725055   3.346   6.146   2.682
  125MYC    H9825056   3.295   6.315   2.684
  125MYC    C5025057   3.209   6.201   2.522
  125MYC    H9525058   3.121   6.266   2.510
  125MYC    H9625059   3.175   6.098   2.503
  125MYC    C4925060   3.313   6.240   2.415
  125MYC    H9325061   3.401   6.174   2.423
  125MYC    H9425062   3.348   6.342   2.434
  125MYC    C4825063   3.256   6.232   2.272
  125MYC    H9125064   3.170   6.300   2.265
  125MYC    H9225065   3.218   6.131   2.254
  125MYC    C4725066   3.358   6.268   2.162
  125MYC    H8925067   3.443   6.199   2.167
  125MYC    H9025068   3.397   6.369   2.181
  125MYC    C4625069   3.295   6.263   2.022
  125MYC    H8725070   3.209   6.331   2.019
  125MYC    H8825071   3.257   6.162   2.004
  125MYC    C4525072   3.394   6.302   1.909
  125MYC    H8525073   3.472   6.226   1.900
  125MYC    H8625074   3.444   6.395   1.937
  125MYC    C4425075   3.327   6.324   1.771
  125MYC    H8325076   3.398   6.375   1.706
  125MYC    H8425077   3.243   6.393   1.783
  125MYC    C1825078   3.281   6.196   1.701
  125MYC    H3125079   3.364   6.137   1.663
  125MYC    C1725080   3.160   6.118   1.748
  125MYC    H3025081   3.105   6.161   1.831
  125MYC    C1925082   3.154   6.195   1.618
  125MYC    H3225083   3.093   6.285   1.617
  125MYC    H3325084   3.155   6.139   1.525
  125MYC    C1625085   3.159   5.966   1.748
  125MYC    H2825086   3.228   5.927   1.825
  125MYC    H2925087   3.197   5.929   1.652
  125MYC    C1525088   3.018   5.907   1.769
  125MYC    H2625089   3.015   5.806   1.727
  125MYC    H2725090   2.947   5.966   1.711
  125MYC    C1425091   2.972   5.902   1.917
  125MYC    H2425092   2.863   5.909   1.920
  125MYC    H2525093   3.012   5.988   1.972
  125MYC    C1325094   3.015   5.774   1.991
  125MYC    H2225095   3.125   5.769   1.993
  125MYC    H2325096   2.979   5.687   1.936
  125MYC    C1225097   2.961   5.768   2.135
  125MYC    H2025098   2.852   5.779   2.134
  125MYC    H2125099   3.001   5.853   2.193
  125MYC    C1125100   2.998   5.636   2.205
  125MYC    H1825101   3.107   5.630   2.213
  125MYC    H1925102   2.966   5.552   2.142
  125MYC    C1025103   2.937   5.617   2.345
  125MYC    H1625104   2.959   5.515   2.377
  125MYC    H1725105   2.828   5.625   2.339
  125MYC     C925106   2.990   5.715   2.452
  125MYC    H1425107   2.956   5.817   2.430
  125MYC    H1525108   3.100   5.715   2.448
  125MYC     C825109   2.944   5.674   2.593
  125MYC    H1225110   2.970   5.568   2.608
  125MYC    H1325111   2.835   5.681   2.600
  125MYC     C725112   3.009   5.757   2.707
  125MYC    H1025113   2.969   5.859   2.707
  125MYC    H1125114   3.117   5.764   2.689
  125MYC     C625115   2.984   5.690   2.844
  125MYC     H825116   3.010   5.584   2.835
  125MYC     H925117   2.877   5.694   2.867
  125MYC     C525118   3.067   5.751   2.960
  125MYC     H625119   3.025   5.848   2.989
  125MYC     H725120   3.169   5.769   2.924
  125MYC     C425121   3.075   5.656   3.082
  125MYC     H425122   3.170   5.675   3.134
  125MYC     H525123   3.083   5.553   3.046
  125MYC     C225124   2.963   5.666   3.189
  125MYC     H225125   2.988   5.752   3.252
  125MYC     O325126   2.835   5.692   3.129
  125MYC     H325127   2.790   5.607   3.117
  125MYC     C125128   2.957   5.538   3.278
  125MYC     H125129   3.061   5.510   3.298
  125MYC    C8125130   2.892   5.418   3.204
  125MYC    O8225131   2.774   5.411   3.175
  125MYC    O8325132   2.978   5.319   3.174
  125MYC   H10525133   2.925   5.250   3.132
  125MYC    C2025134   2.890   5.562   3.415
  125MYC    H3425135   2.795   5.615   3.402
  125MYC    H3525136   2.866   5.464   3.459
  125MYC    C2125137   2.981   5.639   3.514
  125MYC    H3625138   3.076   5.585   3.524
  125MYC    H3725139   3.004   5.738   3.474
  125MYC    C2225140   2.917   5.655   3.652
  125MYC    H3825141   2.828   5.719   3.644
  125MYC    H3925142   2.881   5.557   3.687
  125MYC    C2325143   3.014   5.712   3.757
  125MYC    H4025144   3.103   5.649   3.763
  125MYC    H4125145   3.047   5.812   3.727
  125MYC    C2425146   2.948   5.721   3.896
  125MYC    H4225147   2.860   5.787   3.890
  125MYC    H4325148   2.911   5.621   3.923
  125MYC    C2525149   3.041   5.772   4.007
  125MYC    H4425150   3.130   5.708   4.011
  125MYC    H4525151   3.075   5.873   3.983
  125MYC    C2625152   2.971   5.770   4.143
  125MYC    H4625153   2.881   5.833   4.138
  125MYC    H4725154   2.936   5.668   4.164
  125MYC    C2725155   3.058   5.818   4.260
  125MYC    H4825156   3.150   5.759   4.264
  125MYC    H4925157   3.087   5.922   4.244
  125MYC    C2825158   2.984   5.805   4.395
  125MYC    H5025159   2.892   5.864   4.390
  125MYC    H5125160   2.953   5.700   4.408
  125MYC    C2925161   3.066   5.848   4.517
  125MYC    H5225162   3.160   5.791   4.520
  125MYC    H5325163   3.094   5.954   4.507
  125MYC    C3025164   2.989   5.827   4.648
  125MYC    H5425165   2.896   5.886   4.644
  125MYC    H5525166   2.959   5.722   4.656
  125MYC    C3125167   3.068   5.866   4.774
  125MYC    H5625168   3.160   5.806   4.779
  125MYC    H5725169   3.099   5.972   4.766
  125MYC    C3225170   2.987   5.846   4.903
  125MYC    H5825171   2.894   5.904   4.896
  125MYC    H5925172   2.957   5.740   4.911
  125MYC    C3325173   3.063   5.887   5.030
  125MYC    H6025174   3.157   5.830   5.036
  125MYC    H6125175   3.090   5.993   5.024
  125MYC    C3425176   2.982   5.862   5.159
  125MYC    H6225177   2.884   5.911   5.151
  125MYC    H6325178   2.963   5.754   5.170
  125MYC    C3525179   3.054   5.914   5.285
  125MYC    H6425180   3.157   5.877   5.286
  125MYC    H6525181   3.060   6.024   5.281
  125MYC    C3625182   2.987   5.871   5.417
  125MYC    H6625183   2.880   5.897   5.414
  125MYC    H6725184   2.993   5.762   5.425
  125MYC    C3725185   3.052   5.936   5.541
  125MYC    H6825186   3.161   5.928   5.534
  125MYC    H6925187   3.027   6.043   5.543
  125MYC    C3825188   3.007   5.871   5.673
  125MYC    H7025189   2.897   5.870   5.679
  125MYC    H7125190   3.039   5.766   5.674
  125MYC    C3925191   3.064   5.941   5.798
  125MYC    H7225192   3.173   5.948   5.790
  125MYC    H7325193   3.026   6.044   5.802
  125MYC    C4025194   3.028   5.869   5.929
  125MYC    H7425195   2.919   5.854   5.934
  125MYC    H7525196   3.073   5.769   5.928
  125MYC    C4125197   3.074   5.944   6.055
  125MYC    H7625198   3.183   5.958   6.051
  125MYC    H7725199   3.029   6.044   6.056
  125MYC    C4225200   3.038   5.870   6.186
  125MYC    H7825201   2.931   5.846   6.187
  125MYC    H7925202   3.091   5.774   6.189
  125MYC    C4325203   3.072   5.951   6.313
  125MYC    H8025204   3.052   5.891   6.402
  125MYC    H8125205   3.012   6.042   6.318
  125MYC    H8225206   3.178   5.979   6.313
  126MYC   HH1525207   3.589   0.495   6.230
  126MYC    C8025208   3.654   0.453   6.153
  126MYC   H10025209   3.754   0.440   6.196
  126MYC   H10125210   3.615   0.355   6.124
  126MYC    C7925211   3.661   0.548   6.031
  126MYC   H10225212   3.728   0.631   6.054
  126MYC   H10325213   3.561   0.591   6.014
  126MYC    C7825214   3.706   0.477   5.902
  126MYC   HH1425215   3.638   0.394   5.880
  126MYC   H10425216   3.805   0.433   5.919
  126MYC    C7725217   3.712   0.571   5.780
  126MYC   H10625218   3.788   0.648   5.797
  126MYC   H10725219   3.616   0.621   5.768
  126MYC    C7625220   3.745   0.495   5.650
  126MYC   H10825221   3.668   0.419   5.632
  126MYC   H10925222   3.840   0.442   5.663
  126MYC    C7525223   3.755   0.587   5.527
  126MYC   H11025224   3.837   0.659   5.542
  126MYC   H11125225   3.663   0.645   5.516
  126MYC    C7425226   3.780   0.508   5.396
  126MYC   H11225227   3.694   0.443   5.376
  126MYC   H11325228   3.867   0.443   5.410
  126MYC    C7325229   3.804   0.600   5.275
  126MYC   HH1325230   3.891   0.664   5.295
  126MYC   H11425231   3.718   0.667   5.263
  126MYC    C7225232   3.828   0.523   5.144
  126MYC   H11525233   3.739   0.462   5.121
  126MYC   H11625234   3.911   0.453   5.158
  126MYC    C7125235   3.858   0.616   5.026
  126MYC   H11725236   3.949   0.674   5.047
  126MYC   H11825237   3.776   0.688   5.015
  126MYC    C7025238   3.876   0.541   4.893
  126MYC   H11925239   3.784   0.487   4.869
  126MYC   H12025240   3.956   0.466   4.903
  126MYC    C6925241   3.910   0.636   4.776
  126MYC   H12125242   4.006   0.685   4.796
  126MYC   H12225243   3.835   0.715   4.771
  126MYC    C6825244   3.916   0.564   4.640
  126MYC   HH1225245   3.818   0.519   4.620
  126MYC   H12325246   3.988   0.482   4.645
  126MYC    C6725247   3.953   0.659   4.525
  126MYC   H12425248   4.055   0.696   4.539
  126MYC   H12525249   3.887   0.747   4.528
  126MYC    C6625250   3.941   0.592   4.387
  126MYC   H12625251   3.838   0.556   4.375
  126MYC   H12725252   4.006   0.504   4.383
  126MYC    C6525253   3.976   0.687   4.271
  126MYC   H12825254   4.083   0.707   4.272
  126MYC   H12925255   3.925   0.783   4.287
  126MYC    C6425256   3.933   0.630   4.135
  126MYC   H13025257   3.826   0.609   4.138
  126MYC   H13125258   3.985   0.535   4.116
  126MYC    C6325259   3.962   0.727   4.018
  126MYC   HH1125260   4.069   0.727   3.996
  126MYC   H13225261   3.935   0.829   4.048
  126MYC    C6225262   3.882   0.690   3.892
  126MYC   H13325263   3.775   0.694   3.915
  126MYC   H13425264   3.905   0.587   3.863
  126MYC    C6125265   3.911   0.784   3.774
  126MYC   H13525266   4.014   0.770   3.741
  126MYC   H13625267   3.901   0.888   3.806
  126MYC    C6025268   3.815   0.760   3.658
  126MYC   H13725269   3.714   0.792   3.680
  126MYC    C5825270   3.862   0.774   3.516
  126MYC   H13825271   3.968   0.793   3.499
  126MYC    C5925272   3.828   0.637   3.571
  126MYC   H13925273   3.736   0.590   3.537
  126MYC   H14025274   3.911   0.569   3.590
  126MYC    C5725275   3.774   0.840   3.411
  126MYC   HH1025276   3.799   0.946   3.403
  126MYC   H14125277   3.669   0.833   3.440
  126MYC    C5625278   3.792   0.772   3.274
  126MYC   H14225279   3.767   0.666   3.284
  126MYC   H14325280   3.897   0.778   3.244
  126MYC    C5525281   3.705   0.835   3.164
  126MYC   H14425282   3.745   0.936   3.143
  126MYC   H14525283   3.603   0.848   3.200
  126MYC    C5425284   3.702   0.751   3.034
  126MYC   H14625285   3.601   0.713   3.019
  126MYC   H14725286   3.768   0.663   3.045
  126MYC    C5325287   3.747   0.830   2.910
  126MYC   H14825288   3.847   0.871   2.927
  126MYC   H14925289   3.678   0.915   2.896
  126MYC    C5225290   3.747   0.745   2.783
  126MYC    H9925291   3.645   0.711   2.762
  126MYC   H15025292   3.808   0.655   2.799
  126MYC    C5125293   3.802   0.822   2.662
  126MYC    H9725294   3.908   0.845   2.678
  126MYC    H9825295   3.748   0.917   2.651
  126MYC    C5025296   3.787   0.741   2.532
  126MYC    H9525297   3.681   0.718   2.516
  126MYC    H9625298   3.841   0.646   2.541
  126MYC    C4925299   3.839   0.818   2.409
  126MYC    H9325300   3.944   0.844   2.424
  126MYC    H9425301   3.785   0.912   2.399
  126MYC    C4825302   3.825   0.735   2.280
  126MYC    H9125303   3.719   0.711   2.264
  126MYC    H9225304   3.878   0.640   2.294
  126MYC    C4725305   3.882   0.807   2.156
  126MYC    H8925306   3.983   0.844   2.180
  126MYC    H9025307   3.820   0.894   2.132
  126MYC    C4625308   3.893   0.715   2.034
  126MYC    H8725309   3.942   0.622   2.067
  126MYC    H8825310   3.960   0.761   1.961
  126MYC    C4525311   3.759   0.681   1.964
  126MYC    H8525312   3.733   0.762   1.895
  126MYC    H8625313   3.677   0.677   2.038
  126MYC    C4425314   3.761   0.547   1.887
  126MYC    H8325315   3.672   0.542   1.823
  126MYC    H8425316   3.750   0.466   1.960
  126MYC    C1825317   3.887   0.520   1.806
  126MYC    H3125318   3.977   0.527   1.866
  126MYC    C1725319   3.887   0.410   1.705
  126MYC    H3025320   3.792   0.362   1.684
  126MYC    C1925321   3.902   0.553   1.660
  126MYC    H3225322   3.819   0.599   1.608
  126MYC    H3325323   4.000   0.585   1.624
  126MYC    C1625324   4.003   0.312   1.699
  126MYC    H2825325   4.098   0.366   1.698
  126MYC    H2925326   3.998   0.258   1.604
  126MYC    C1525327   4.003   0.209   1.816
  126MYC    H2625328   4.038   0.113   1.777
  126MYC    H2725329   3.900   0.194   1.850
  126MYC    C1425330   4.094   0.249   1.935
  126MYC    H2425331   4.072   0.351   1.968
  126MYC    H2525332   4.198   0.249   1.901
  126MYC    C1325333   4.083   0.154   2.057
  126MYC    H2225334   4.183   0.140   2.100
  126MYC    H2325335   4.049   0.055   2.024
  126MYC    C1225336   3.989   0.206   2.168
  126MYC    H2025337   3.891   0.230   2.125
  126MYC    H2125338   4.030   0.299   2.210
  126MYC    C1125339   3.970   0.103   2.283
  126MYC    H1825340   4.068   0.071   2.320
  126MYC    H1925341   3.922   0.014   2.241
  126MYC    C1025342   3.883   0.156   2.400
  126MYC    H1625343   3.812   0.077   2.428
  126MYC    H1725344   3.824   0.241   2.366
  126MYC     C925345   3.963   0.195   2.527
  126MYC    H1425346   4.040   0.269   2.501
  126MYC    H1525347   4.015   0.107   2.566
  126MYC     C825348   3.871   0.253   2.637
  126MYC    H1225349   3.786   0.184   2.652
  126MYC    H1325350   3.830   0.348   2.601
  126MYC     C725351   3.939   0.278   2.773
  126MYC    H1025352   4.020   0.350   2.759
  126MYC    H1125353   3.984   0.184   2.808
  126MYC     C625354   3.840   0.332   2.880
  126MYC     H825355   3.759   0.259   2.895
  126MYC     H925356   3.792   0.421   2.840
  126MYC     C525357   3.905   0.368   3.016
  126MYC     H625358   3.832   0.424   3.076
  126MYC     H725359   3.987   0.439   2.997
  126MYC     C425360   3.960   0.251   3.101
  126MYC     H425361   4.036   0.292   3.169
  126MYC     H525362   4.013   0.180   3.036
  126MYC     C225363   3.857   0.175   3.190
  126MYC     H225364   3.814   0.249   3.259
  126MYC     O325365   3.752   0.122   3.109
  126MYC     H325366   3.684   0.086   3.167
  126MYC     C125367   3.922   0.062   3.276
  126MYC     H125368   4.001   0.110   3.334
  126MYC    C8125369   3.991   6.403   3.190
  126MYC    O8225370   3.933   6.325   3.116
  126MYC    O8325371   4.123   6.389   3.215
  126MYC   H10525372   4.152   6.313   3.162
  126MYC    C2025373   3.823   6.446   3.377
  126MYC    H3425374   3.727   6.427   3.328
  126MYC    H3525375   3.861   6.347   3.406
  126MYC    C2125376   3.798   0.077   3.507
  126MYC    H3625377   3.771   0.180   3.482
  126MYC    H3725378   3.712   0.033   3.558
  126MYC    C2225379   3.918   0.076   3.605
  126MYC    H3825380   3.946   6.422   3.627
  126MYC    H3925381   4.005   0.124   3.559
  126MYC    C2325382   3.886   0.148   3.738
  126MYC    H4025383   3.864   0.254   3.718
  126MYC    H4125384   3.795   0.104   3.780
  126MYC    C2425385   3.999   0.138   3.842
  126MYC    H4225386   4.025   0.033   3.857
  126MYC    H4325387   4.089   0.189   3.805
  126MYC    C2525388   3.957   0.200   3.978
  126MYC    H4425389   3.944   0.308   3.966
  126MYC    H4525390   3.859   0.159   4.005
  126MYC    C2625391   4.055   0.172   4.093
  126MYC    H4625392   4.082   0.065   4.093
  126MYC    H4725393   4.148   0.229   4.079
  126MYC    C2725394   3.992   0.207   4.230
  126MYC    H4825395   3.971   0.314   4.234
  126MYC    H4925396   3.895   0.155   4.237
  126MYC    C2825397   4.077   0.166   4.351
  126MYC    H5025398   4.113   0.063   4.339
  126MYC    H5125399   4.166   0.231   4.357
  126MYC    C2925400   3.997   0.175   4.482
  126MYC    H5225401   3.956   0.277   4.493
  126MYC    H5325402   3.911   0.107   4.476
  126MYC    C3025403   4.079   0.140   4.608
  126MYC    H5425404   4.130   0.045   4.592
  126MYC    H5525405   4.156   0.217   4.623
  126MYC    C3125406   3.990   0.129   4.734
  126MYC    H5625407   3.925   0.217   4.741
  126MYC    H5725408   3.926   0.041   4.724
  126MYC    C3225409   4.073   0.118   4.863
  126MYC    H5825410   4.151   0.043   4.851
  126MYC    H5925411   4.123   0.214   4.880
  126MYC    C3325412   3.988   0.082   4.987
  126MYC    H6025413   3.890   0.132   4.982
  126MYC    H6125414   3.969   6.424   4.986
  126MYC    C3425415   4.057   0.122   5.118
  126MYC    H6225416   4.162   0.091   5.115
  126MYC    H6325417   4.057   0.232   5.123
  126MYC    C3525418   3.991   0.066   5.245
  126MYC    H6425419   3.882   0.075   5.238
  126MYC    H6525420   4.015   6.409   5.254
  126MYC    C3625421   4.040   0.141   5.370
  126MYC    H6625422   4.150   0.142   5.370
  126MYC    H6725423   4.007   0.245   5.363
  126MYC    C3725424   3.991   0.082   5.504
  126MYC    H6825425   3.882   0.071   5.502
  126MYC    H6925426   4.035   6.432   5.518
  126MYC    C3825427   4.032   0.174   5.621
  126MYC    H7025428   4.140   0.188   5.620
  126MYC    H7125429   3.987   0.272   5.605
  126MYC    C3925430   3.989   0.122   5.760
  126MYC    H7225431   3.880   0.108   5.762
  126MYC    H7325432   4.035   0.023   5.778
  126MYC    C4025433   4.032   0.219   5.872
  126MYC    H7425434   4.141   0.227   5.873
  126MYC    H7525435   3.994   0.319   5.849
  126MYC    C4125436   3.982   0.178   6.012
  126MYC    H7625437   3.873   0.169   6.011
  126MYC    H7725438   4.022   0.079   6.037
  126MYC    C4225439   4.023   0.278   6.122
  126MYC    H7825440   4.133   0.287   6.123
  126MYC    H7925441   3.983   0.377   6.097
  126MYC    C4325442   3.975   0.238   6.262
  126MYC    H8025443   4.005   0.314   6.336
  126MYC    H8125444   4.018   0.142   6.292
  126MYC    H8225445   3.866   0.230   6.265
  127MYC   HH1525446   4.323   1.121   6.313
  127MYC    C8025447   4.257   1.112   6.226
  127MYC   H10025448   4.182   1.035   6.248
  127MYC   H10125449   4.206   1.208   6.213
  127MYC    C7925450   4.338   1.075   6.100
  127MYC   H10225451   4.389   0.980   6.117
  127MYC   H10325452   4.416   1.151   6.085
  127MYC    C7825453   4.250   1.066   5.974
  127MYC   HH1425454   4.205   1.164   5.955
  127MYC   H10425455   4.168   0.996   5.992
  127MYC    C7725456   4.328   1.022   5.848
  127MYC   H10625457   4.369   0.921   5.865
  127MYC   H10725458   4.413   1.089   5.832
  127MYC    C7625459   4.239   1.021   5.722
  127MYC   H10825460   4.201   1.123   5.706
  127MYC   H10925461   4.152   0.957   5.740
  127MYC    C7525462   4.312   0.975   5.595
  127MYC   H11025463   4.346   0.871   5.609
  127MYC   H11125464   4.402   1.036   5.580
  127MYC    C7425465   4.222   0.983   5.471
  127MYC   H11225466   4.182   1.084   5.462
  127MYC   H11325467   4.137   0.915   5.483
  127MYC    C7325468   4.296   0.949   5.339
  127MYC   HH1325469   4.337   0.847   5.345
  127MYC   H11425470   4.380   1.017   5.327
  127MYC    C7225471   4.203   0.958   5.217
  127MYC   H11525472   4.152   1.056   5.218
  127MYC   H11625473   4.124   0.882   5.225
  127MYC    C7125474   4.277   0.943   5.083
  127MYC   H11725475   4.325   0.845   5.078
  127MYC   H11825476   4.357   1.017   5.078
  127MYC    C7025477   4.183   0.962   4.962
  127MYC   H11925478   4.140   1.062   4.967
  127MYC   H12025479   4.101   0.890   4.967
  127MYC    C6925480   4.257   0.944   4.829
  127MYC   H12125481   4.284   0.839   4.815
  127MYC   H12225482   4.352   1.001   4.832
  127MYC    C6825483   4.176   0.993   4.708
  127MYC   HH1225484   4.156   1.100   4.719
  127MYC   H12325485   4.078   0.942   4.706
  127MYC    C6725486   4.249   0.968   4.576
  127MYC   H12425487   4.249   0.861   4.555
  127MYC   H12525488   4.354   0.998   4.586
  127MYC    C6625489   4.188   1.044   4.457
  127MYC   H12625490   4.201   1.152   4.473
  127MYC   H12725491   4.080   1.025   4.452
  127MYC    C6525492   4.254   1.004   4.324
  127MYC   H12825493   4.229   0.899   4.304
  127MYC   H12925494   4.363   1.010   4.333
  127MYC    C6425495   4.209   1.090   4.205
  127MYC   H13025496   4.254   1.190   4.213
  127MYC   H13125497   4.100   1.104   4.207
  127MYC    C6325498   4.249   1.025   4.071
  127MYC   HH1125499   4.194   0.931   4.062
  127MYC   H13225500   4.356   1.001   4.073
  127MYC    C6225501   4.220   1.114   3.949
  127MYC   H13325502   4.290   1.198   3.947
  127MYC   H13425503   4.119   1.156   3.956
  127MYC    C6125504   4.231   1.033   3.819
  127MYC   H13525505   4.151   0.958   3.817
  127MYC   H13625506   4.325   0.976   3.819
  127MYC    C6025507   4.227   1.118   3.694
  127MYC   H13725508   4.320   1.172   3.677
  127MYC    C5825509   4.154   1.066   3.573
  127MYC   H13825510   4.094   0.976   3.586
  127MYC    C5925511   4.102   1.188   3.644
  127MYC   H13925512   4.115   1.285   3.595
  127MYC   H14025513   4.011   1.178   3.703
  127MYC    C5725514   4.223   1.069   3.438
  127MYC   HH1025515   4.278   0.975   3.425
  127MYC   H14125516   4.298   1.150   3.435
  127MYC    C5625517   4.126   1.088   3.320
  127MYC   H14225518   4.084   1.189   3.323
  127MYC   H14325519   4.043   1.017   3.328
  127MYC    C5525520   4.198   1.066   3.186
  127MYC   H14425521   4.233   0.962   3.181
  127MYC   H14525522   4.288   1.130   3.183
  127MYC    C5425523   4.112   1.096   3.062
  127MYC   H14625524   4.081   1.201   3.064
  127MYC   H14725525   4.021   1.035   3.065
  127MYC    C5325526   4.190   1.066   2.933
  127MYC   H14825527   4.218   0.960   2.932
  127MYC   H14925528   4.284   1.123   2.934
  127MYC    C5225529   4.113   1.100   2.805
  127MYC    H9925530   4.087   1.206   2.804
  127MYC   H15025531   4.019   1.043   2.802
  127MYC    C5125532   4.196   1.067   2.680
  127MYC    H9725533   4.221   0.960   2.680
  127MYC    H9825534   4.291   1.122   2.684
  127MYC    C5025535   4.126   1.101   2.548
  127MYC    H9525536   4.107   1.209   2.544
  127MYC    H9625537   4.028   1.051   2.544
  127MYC    C4925538   4.209   1.059   2.426
  127MYC    H9325539   4.223   0.950   2.427
  127MYC    H9425540   4.310   1.103   2.433
  127MYC    C4825541   4.146   1.100   2.292
  127MYC    H9125542   4.139   1.209   2.287
  127MYC    H9225543   4.044   1.061   2.286
  127MYC    C4725544   4.227   1.048   2.171
  127MYC    H8925545   4.227   0.939   2.173
  127MYC    H9025546   4.331   1.081   2.180
  127MYC    C4625547   4.169   1.097   2.037
  127MYC    H8725548   4.167   1.206   2.038
  127MYC    H8825549   4.065   1.062   2.029
  127MYC    C4525550   4.250   1.048   1.916
  127MYC    H8525551   4.248   0.938   1.912
  127MYC    H8625552   4.355   1.077   1.929
  127MYC    C4425553   4.200   1.104   1.781
  127MYC    H8325554   4.269   1.072   1.704
  127MYC    H8425555   4.205   1.214   1.785
  127MYC    C1825556   4.060   1.058   1.741
  127MYC    H3125557   4.052   0.950   1.735
  127MYC    C1725558   3.938   1.135   1.785
  127MYC    H3025559   3.957   1.225   1.842
  127MYC    C1925560   3.980   1.137   1.640
  127MYC    H3225561   4.023   1.229   1.602
  127MYC    H3325562   3.921   1.080   1.568
  127MYC    C1625563   3.814   1.059   1.831
  127MYC    H2825564   3.843   0.982   1.904
  127MYC    H2925565   3.770   1.005   1.746
  127MYC    C1525566   3.705   1.148   1.895
  127MYC    H2625567   3.614   1.087   1.908
  127MYC    H2725568   3.679   1.230   1.827
  127MYC    C1425569   3.745   1.205   2.033
  127MYC    H2425570   3.836   1.264   2.024
  127MYC    H2525571   3.769   1.122   2.100
  127MYC    C1325572   3.636   1.293   2.098
  127MYC    H2225573   3.541   1.240   2.101
  127MYC    H2325574   3.621   1.382   2.035
  127MYC    C1225575   3.675   1.338   2.240
  127MYC    H2025576   3.776   1.381   2.238
  127MYC    H2125577   3.681   1.249   2.305
  127MYC    C1125578   3.578   1.440   2.302
  127MYC    H1825579   3.477   1.397   2.308
  127MYC    H1925580   3.573   1.528   2.236
  127MYC    C1025581   3.619   1.488   2.443
  127MYC    H1625582   3.568   1.582   2.466
  127MYC    H1725583   3.726   1.511   2.441
  127MYC     C925584   3.591   1.386   2.555
  127MYC    H1425585   3.612   1.284   2.520
  127MYC    H1525586   3.484   1.389   2.580
  127MYC     C825587   3.676   1.413   2.681
  127MYC    H1225588   3.657   1.514   2.718
  127MYC    H1325589   3.782   1.407   2.653
  127MYC     C725590   3.649   1.310   2.793
  127MYC    H1025591   3.660   1.209   2.752
  127MYC    H1125592   3.545   1.321   2.825
  127MYC     C625593   3.745   1.327   2.913
  127MYC     H825594   3.728   1.424   2.960
  127MYC     H925595   3.848   1.328   2.876
  127MYC     C525596   3.733   1.213   3.017
  127MYC     H625597   3.815   1.222   3.089
  127MYC     H725598   3.750   1.118   2.965
  127MYC     C425599   3.598   1.205   3.093
  127MYC     H425600   3.579   1.100   3.118
  127MYC     H525601   3.515   1.234   3.028
  127MYC     C225602   3.594   1.287   3.224
  127MYC     H225603   3.675   1.248   3.287
  127MYC     O325604   3.618   1.425   3.198
  127MYC     H325605   3.539   1.461   3.154
  127MYC     C125606   3.460   1.269   3.302
  127MYC     H125607   3.447   1.162   3.321
  127MYC    C8125608   3.337   1.316   3.223
  127MYC    O8225609   3.328   1.424   3.167
  127MYC    O8325610   3.227   1.240   3.244
  127MYC   H10525611   3.154   1.289   3.204
  127MYC    C2025612   3.461   1.336   3.442
  127MYC    H3425613   3.484   1.442   3.432
  127MYC    H3525614   3.360   1.329   3.485
  127MYC    C2125615   3.560   1.271   3.542
  127MYC    H3625616   3.537   1.164   3.551
  127MYC    H3725617   3.662   1.279   3.503
  127MYC    C2225618   3.555   1.336   3.680
  127MYC    H3825619   3.575   1.444   3.670
  127MYC    H3925620   3.453   1.327   3.721
  127MYC    C2325621   3.655   1.275   3.780
  127MYC    H4025622   3.634   1.169   3.792
  127MYC    H4125623   3.757   1.284   3.738
  127MYC    C2425624   3.650   1.345   3.916
  127MYC    H4225625   3.670   1.452   3.903
  127MYC    H4325626   3.548   1.337   3.956
  127MYC    C2525627   3.750   1.288   4.019
  127MYC    H4425628   3.730   1.181   4.031
  127MYC    H4525629   3.852   1.299   3.981
  127MYC    C2625630   3.737   1.358   4.155
  127MYC    H4625631   3.761   1.465   4.144
  127MYC    H4725632   3.632   1.353   4.187
  127MYC    C2725633   3.825   1.297   4.265
  127MYC    H4825634   3.808   1.189   4.270
  127MYC    H4925635   3.931   1.312   4.240
  127MYC    C2825636   3.795   1.359   4.403
  127MYC    H5025637   3.820   1.465   4.403
  127MYC    H5125638   3.687   1.352   4.421
  127MYC    C2925639   3.868   1.289   4.520
  127MYC    H5225640   3.854   1.180   4.510
  127MYC    H5325641   3.976   1.309   4.513
  127MYC    C3025642   3.815   1.334   4.657
  127MYC    H5425643   3.836   1.441   4.671
  127MYC    H5525644   3.706   1.323   4.658
  127MYC    C3125645   3.874   1.254   4.774
  127MYC    H5625646   3.865   1.147   4.753
  127MYC    H5725647   3.981   1.276   4.783
  127MYC    C3225648   3.804   1.284   4.908
  127MYC    H5825649   3.818   1.390   4.934
  127MYC    H5925650   3.696   1.268   4.897
  127MYC    C3325651   3.856   1.196   5.024
  127MYC    H6025652   3.847   1.090   4.995
  127MYC    H6125653   3.963   1.216   5.039
  127MYC    C3425654   3.781   1.218   5.156
  127MYC    H6225655   3.790   1.323   5.186
  127MYC    H6325656   3.674   1.198   5.142
  127MYC    C3525657   3.835   1.128   5.270
  127MYC    H6425658   3.829   1.023   5.238
  127MYC    H6525659   3.942   1.151   5.285
  127MYC    C3625660   3.761   1.146   5.403
  127MYC    H6625661   3.760   1.252   5.431
  127MYC    H6725662   3.656   1.115   5.391
  127MYC    C3725663   3.826   1.065   5.517
  127MYC    H6825664   3.834   0.959   5.487
  127MYC    H6925665   3.928   1.102   5.533
  127MYC    C3825666   3.748   1.072   5.650
  127MYC    H7025667   3.727   1.178   5.674
  127MYC    H7125668   3.651   1.023   5.638
  127MYC    C3925669   3.824   1.009   5.768
  127MYC    H7225670   3.856   0.907   5.741
  127MYC    H7325671   3.915   1.067   5.787
  127MYC    C4025672   3.740   1.002   5.898
  127MYC    H7425673   3.698   1.101   5.918
  127MYC    H7525674   3.656   0.933   5.881
  127MYC    C4125675   3.821   0.955   6.021
  127MYC    H7625676   3.866   0.857   6.000
  127MYC    H7725677   3.903   1.025   6.038
  127MYC    C4225678   3.734   0.945   6.148
  127MYC    H7825679   3.687   1.042   6.167
  127MYC    H7925680   3.653   0.873   6.131
  127MYC    C4325681   3.812   0.902   6.273
  127MYC    H8025682   3.746   0.901   6.360
  127MYC    H8125683   3.895   0.971   6.293
  127MYC    H8225684   3.853   0.801   6.260
  128MYC   HH1525685   3.541   1.553   6.215
  128MYC    C8025686   3.595   1.629   6.158
  128MYC   H10025687   3.523   1.705   6.124
  128MYC   H10125688   3.668   1.677   6.224
  128MYC    C7925689   3.666   1.565   6.037
  128MYC   H10225690   3.591   1.515   5.975
  128MYC   H10325691   3.735   1.487   6.073
  128MYC    C7825692   3.744   1.667   5.951
  128MYC   HH1425693   3.823   1.713   6.011
  128MYC   H10425694   3.675   1.747   5.920
  128MYC    C7725695   3.806   1.603   5.824
  128MYC   H10625696   3.726   1.552   5.769
  128MYC   H10725697   3.879   1.527   5.854
  128MYC    C7625698   3.873   1.706   5.731
  128MYC   H10825699   3.963   1.746   5.778
  128MYC   H10925700   3.805   1.790   5.716
  128MYC    C7525701   3.909   1.645   5.594
  128MYC   H11025702   3.821   1.593   5.555
  128MYC   H11125703   3.988   1.570   5.606
  128MYC    C7425704   3.954   1.749   5.488
  128MYC   H11225705   4.052   1.790   5.516
  128MYC   H11325706   3.883   1.832   5.486
  128MYC    C7325707   3.961   1.686   5.348
  128MYC   HH1325708   3.864   1.640   5.325
  128MYC   H11425709   4.035   1.605   5.349
  128MYC    C7225710   3.997   1.784   5.234
  128MYC   H11525711   4.099   1.821   5.248
  128MYC   H11625712   3.930   1.871   5.238
  128MYC    C7125713   3.983   1.715   5.097
  128MYC   H11725714   3.879   1.683   5.084
  128MYC   H11825715   4.045   1.625   5.096
  128MYC    C7025716   4.023   1.803   4.976
  128MYC   H11925717   4.130   1.826   4.982
  128MYC   H12025718   3.969   1.898   4.980
  128MYC    C6925719   3.992   1.730   4.844
  128MYC   H12125720   3.883   1.716   4.836
  128MYC   H12225721   4.036   1.630   4.847
  128MYC    C6825722   4.043   1.803   4.718
  128MYC   HH1225723   4.152   1.809   4.722
  128MYC   H12325724   4.004   1.905   4.716
  128MYC    C6725725   4.000   1.728   4.590
  128MYC   H12425726   3.891   1.730   4.583
  128MYC   H12525727   4.030   1.623   4.598
  128MYC    C6625728   4.061   1.786   4.460
  128MYC   H12625729   4.170   1.782   4.467
  128MYC   H12725730   4.032   1.891   4.450
  128MYC    C6525731   4.014   1.706   4.337
  128MYC   H12825732   3.905   1.716   4.328
  128MYC   H12925733   4.036   1.600   4.352
  128MYC    C6425734   4.079   1.752   4.205
  128MYC   H13025735   4.188   1.739   4.212
  128MYC   H13125736   4.059   1.858   4.189
  128MYC    C6325737   4.025   1.671   4.085
  128MYC   HH1125738   3.917   1.690   4.076
  128MYC   H13225739   4.037   1.564   4.105
  128MYC    C6225740   4.094   1.704   3.952
  128MYC   H13325741   4.199   1.672   3.956
  128MYC   H13425742   4.094   1.813   3.936
  128MYC    C6125743   4.023   1.636   3.833
  128MYC   H13525744   3.922   1.678   3.825
  128MYC   H13625745   4.011   1.529   3.855
  128MYC    C6025746   4.097   1.651   3.701
  128MYC   H13725747   4.183   1.584   3.695
  128MYC    C5825748   4.019   1.677   3.575
  128MYC   H13825749   3.913   1.698   3.586
  128MYC    C5925750   4.112   1.783   3.630
  128MYC   H13925751   4.205   1.801   3.577
  128MYC   H14025752   4.067   1.871   3.675
  128MYC    C5725753   4.049   1.599   3.448
  128MYC   HH1025754   3.985   1.510   3.445
  128MYC   H14125755   4.153   1.563   3.449
  128MYC    C5625756   4.026   1.683   3.321
  128MYC   H14225757   4.104   1.761   3.316
  128MYC   H14325758   3.930   1.735   3.329
  128MYC    C5525759   4.027   1.600   3.192
  128MYC   H14425760   3.937   1.537   3.189
  128MYC   H14525761   4.114   1.533   3.192
  128MYC    C5425762   4.032   1.689   3.067
  128MYC   H14625763   4.126   1.744   3.069
  128MYC   H14725764   3.951   1.763   3.071
  128MYC    C5325765   4.022   1.611   2.934
  128MYC   H14825766   3.921   1.568   2.927
  128MYC   H14925767   4.092   1.527   2.936
  128MYC    C5225768   4.050   1.698   2.810
  128MYC    H9925769   4.155   1.729   2.812
  128MYC   H15025770   3.988   1.788   2.813
  128MYC    C5125771   4.024   1.621   2.679
  128MYC    H9725772   3.918   1.595   2.676
  128MYC    H9825773   4.080   1.527   2.681
  128MYC    C5025774   4.060   1.699   2.551
  128MYC    H9525775   4.167   1.724   2.552
  128MYC    H9625776   4.004   1.793   2.547
  128MYC    C4925777   4.028   1.613   2.427
  128MYC    H9325778   3.920   1.596   2.425
  128MYC    H9425779   4.075   1.515   2.439
  128MYC    C4825780   4.069   1.672   2.290
  128MYC    H9125781   4.177   1.692   2.290
  128MYC    H9225782   4.018   1.768   2.274
  128MYC    C4725783   4.033   1.573   2.177
  128MYC    H8925784   3.924   1.560   2.175
  128MYC    H9025785   4.076   1.475   2.202
  128MYC    C4625786   4.082   1.614   2.037
  128MYC    H8725787   4.189   1.638   2.041
  128MYC    H8825788   4.028   1.704   2.006
  128MYC    C4525789   4.058   1.502   1.934
  128MYC    H8525790   3.950   1.485   1.923
  128MYC    H8625791   4.100   1.409   1.973
  128MYC    C4425792   4.120   1.527   1.795
  128MYC    H8325793   4.106   1.436   1.736
  128MYC    H8425794   4.228   1.541   1.805
  128MYC    C1825795   4.058   1.644   1.719
  128MYC    H3125796   3.954   1.662   1.745
  128MYC    C1725797   4.142   1.763   1.674
  128MYC    H3025798   4.248   1.761   1.694
  128MYC    C1925799   4.092   1.662   1.573
  128MYC    H3225800   4.164   1.595   1.528
  128MYC    H3325801   4.011   1.692   1.507
  128MYC    C1625802   4.083   1.903   1.672
  128MYC    H2825803   3.980   1.900   1.708
  128MYC    H2925804   4.078   1.940   1.569
  128MYC    C1525805   4.159   2.007   1.757
  128MYC    H2625806   4.101   2.100   1.754
  128MYC    H2725807   4.255   2.030   1.711
  128MYC    C1425808   4.181   1.965   1.904
  128MYC    H2425809   4.276   1.911   1.912
  128MYC    H2525810   4.102   1.897   1.935
  128MYC    C1325811   4.181   2.086   1.999
  128MYC    H2225812   4.078   2.121   2.009
  128MYC    H2325813   4.239   2.168   1.955
  128MYC    C1225814   4.238   2.054   2.139
  128MYC    H2025815   4.346   2.039   2.129
  128MYC    H2125816   4.195   1.961   2.178
  128MYC    C1125817   4.210   2.170   2.236
  128MYC    H1825818   4.104   2.169   2.264
  128MYC    H1925819   4.226   2.263   2.181
  128MYC    C1025820   4.298   2.172   2.362
  128MYC    H1625821   4.292   2.272   2.406
  128MYC    H1725822   4.403   2.156   2.335
  128MYC     C925823   4.256   2.070   2.470
  128MYC    H1425824   4.282   1.969   2.439
  128MYC    H1525825   4.147   2.073   2.482
  128MYC     C825826   4.322   2.101   2.606
  128MYC    H1225827   4.320   2.209   2.624
  128MYC    H1325828   4.427   2.071   2.603
  128MYC     C725829   4.252   2.032   2.724
  128MYC    H1025830   4.255   1.924   2.710
  128MYC    H1125831   4.146   2.062   2.726
  128MYC     C625832   4.317   2.068   2.860
  128MYC     H825833   4.317   2.177   2.873
  128MYC     H925834   4.421   2.037   2.857
  128MYC     C525835   4.247   2.000   2.979
  128MYC     H625836   4.319   1.992   3.062
  128MYC     H725837   4.224   1.898   2.950
  128MYC     C425838   4.118   2.069   3.030
  128MYC     H425839   4.052   1.991   3.073
  128MYC     H525840   4.063   2.113   2.947
  128MYC     C225841   4.145   2.175   3.140
  128MYC     H225842   4.210   2.126   3.214
  128MYC     O325843   4.214   2.285   3.083
  128MYC     H325844   4.148   2.347   3.045
  128MYC     C125845   4.018   2.225   3.215
  128MYC     H125846   3.962   2.135   3.243
  128MYC    C8125847   3.928   2.308   3.122
  128MYC    O8225848   3.948   2.425   3.094
  128MYC    O8325849   3.835   2.236   3.055
  128MYC   H10525850   3.793   2.298   2.994
  128MYC    C2025851   4.051   2.304   3.344
  128MYC    H3425852   4.122   2.385   3.322
  128MYC    H3525853   3.959   2.353   3.380
  128MYC    C2125854   4.105   2.216   3.458
  128MYC    H3625855   4.028   2.142   3.485
  128MYC    H3725856   4.193   2.159   3.425
  128MYC    C2225857   4.145   2.295   3.584
  128MYC    H3825858   4.233   2.356   3.562
  128MYC    H3925859   4.064   2.363   3.612
  128MYC    C2325860   4.174   2.201   3.702
  128MYC    H4025861   4.083   2.143   3.723
  128MYC    H4125862   4.252   2.129   3.675
  128MYC    C2425863   4.216   2.274   3.831
  128MYC    H4225864   4.319   2.311   3.821
  128MYC    H4325865   4.151   2.361   3.846
  128MYC    C2525866   4.204   2.183   3.954
  128MYC    H4425867   4.101   2.147   3.960
  128MYC    H4525868   4.267   2.094   3.941
  128MYC    C2625869   4.242   2.252   4.087
  128MYC    H4625870   4.345   2.226   4.113
  128MYC    H4725871   4.239   2.361   4.075
  128MYC    C2725872   4.147   2.212   4.202
  128MYC    H4825873   4.046   2.250   4.178
  128MYC    H4925874   4.139   2.103   4.207
  128MYC    C2825875   4.190   2.266   4.339
  128MYC    H5025876   4.286   2.220   4.367
  128MYC    H5125877   4.207   2.374   4.332
  128MYC    C2925878   4.085   2.238   4.448
  128MYC    H5225879   3.991   2.288   4.422
  128MYC    H5325880   4.065   2.130   4.452
  128MYC    C3025881   4.131   2.284   4.587
  128MYC    H5425882   4.225   2.234   4.613
  128MYC    H5525883   4.151   2.392   4.585
  128MYC    C3125884   4.027   2.255   4.697
  128MYC    H5625885   3.931   2.303   4.671
  128MYC    H5725886   4.009   2.147   4.702
  128MYC    C3225887   4.073   2.305   4.835
  128MYC    H5825888   4.171   2.262   4.858
  128MYC    H5925889   4.086   2.414   4.831
  128MYC    C3325890   3.975   2.269   4.948
  128MYC    H6025891   3.874   2.305   4.922
  128MYC    H6125892   3.969   2.160   4.957
  128MYC    C3425893   4.018   2.330   5.082
  128MYC    H6225894   4.120   2.297   5.105
  128MYC    H6325895   4.021   2.439   5.072
  128MYC    C3525896   3.925   2.292   5.199
  128MYC    H6425897   3.822   2.319   5.174
  128MYC    H6525898   3.928   2.183   5.213
  128MYC    C3625899   3.968   2.361   5.329
  128MYC    H6625900   4.072   2.335   5.352
  128MYC    H6725901   3.965   2.470   5.315
  128MYC    C3725902   3.879   2.323   5.449
  128MYC    H6825903   3.775   2.350   5.428
  128MYC    H6925904   3.882   2.214   5.462
  128MYC    C3825905   3.925   2.392   5.579
  128MYC    H7025906   4.033   2.375   5.592
  128MYC    H7125907   3.911   2.500   5.570
  128MYC    C3925908   3.851   2.340   5.703
  128MYC    H7225909   3.744   2.362   5.694
  128MYC    H7325910   3.861   2.231   5.707
  128MYC    C4025911   3.905   2.400   5.835
  128MYC    H7425912   4.015   2.396   5.834
  128MYC    H7525913   3.878   2.506   5.840
  128MYC    C4125914   3.853   2.326   5.959
  128MYC    H7625915   3.744   2.334   5.963
  128MYC    H7725916   3.878   2.220   5.950
  128MYC    C4225917   3.913   2.379   6.091
  128MYC    H7825918   4.022   2.384   6.082
  128MYC    H7925919   3.878   2.482   6.108
  128MYC    C4325920   3.877   2.292   6.212
  128MYC    H8025921   3.920   2.334   6.304
  128MYC    H8125922   3.917   2.190   6.200
  128MYC    H8225923   3.768   2.285   6.225
  129MYC   HH1525924   3.667   2.741   6.170
  129MYC    C8025925   3.696   2.787   6.074
  129MYC   H10025926   3.667   2.892   6.076
  129MYC   H10125927   3.806   2.782   6.066
  129MYC    C7925928   3.629   2.713   5.957
  129MYC   H10225929   3.520   2.723   5.966
  129MYC   H10325930   3.653   2.606   5.964
  129MYC    C7825931   3.675   2.766   5.819
  129MYC   HH1425932   3.783   2.751   5.810
  129MYC   H10425933   3.657   2.874   5.814
  129MYC    C7725934   3.603   2.697   5.701
  129MYC   H10625935   3.498   2.729   5.699
  129MYC   H10725936   3.604   2.589   5.716
  129MYC    C7625937   3.670   2.730   5.566
  129MYC   H10825938   3.772   2.692   5.568
  129MYC   H10925939   3.676   2.839   5.553
  129MYC    C7525940   3.595   2.670   5.445
  129MYC   H11025941   3.502   2.725   5.429
  129MYC   H11125942   3.567   2.566   5.467
  129MYC    C7425943   3.681   2.673   5.317
  129MYC   H11225944   3.764   2.602   5.328
  129MYC   H11325945   3.725   2.772   5.304
  129MYC    C7325946   3.601   2.637   5.190
  129MYC   HH1325947   3.527   2.716   5.172
  129MYC   H11425948   3.545   2.544   5.206
  129MYC    C7225949   3.691   2.622   5.066
  129MYC   H11525950   3.751   2.530   5.077
  129MYC   H11625951   3.762   2.706   5.061
  129MYC    C7125952   3.611   2.616   4.935
  129MYC   H11725953   3.562   2.713   4.920
  129MYC   H11825954   3.532   2.540   4.943
  129MYC    C7025955   3.699   2.584   4.813
  129MYC   H11925956   3.735   2.480   4.821
  129MYC   H12025957   3.788   2.649   4.813
  129MYC    C6925958   3.624   2.602   4.680
  129MYC   H12125959   3.601   2.709   4.668
  129MYC   H12225960   3.529   2.549   4.684
  129MYC    C6825961   3.705   2.553   4.559
  129MYC   HH1225962   3.716   2.444   4.565
  129MYC   H12325963   3.806   2.597   4.561
  129MYC    C6725964   3.638   2.592   4.426
  129MYC   H12425965   3.636   2.701   4.418
  129MYC   H12525966   3.534   2.557   4.426
  129MYC    C6625967   3.710   2.534   4.303
  129MYC   H12625968   3.704   2.424   4.306
  129MYC   H12725969   3.817   2.561   4.307
  129MYC    C6525970   3.649   2.586   4.173
  129MYC   H12825971   3.657   2.695   4.170
  129MYC   H12925972   3.541   2.562   4.171
  129MYC    C6425973   3.714   2.527   4.047
  129MYC   H13025974   3.702   2.418   4.046
  129MYC   H13125975   3.822   2.548   4.048
  129MYC    C6325976   3.651   2.586   3.919
  129MYC   HH1125977   3.663   2.695   3.921
  129MYC   H13225978   3.544   2.565   3.920
  129MYC    C6225979   3.712   2.531   3.789
  129MYC   H13325980   3.706   2.422   3.789
  129MYC   H13425981   3.819   2.558   3.784
  129MYC    C6125982   3.639   2.587   3.666
  129MYC   H13525983   3.642   2.697   3.669
  129MYC   H13625984   3.533   2.559   3.672
  129MYC    C6025985   3.696   2.538   3.535
  129MYC   H13725986   3.715   2.431   3.534
  129MYC    C5825987   3.646   2.598   3.406
  129MYC   H13825988   3.578   2.683   3.415
  129MYC    C5925989   3.788   2.623   3.451
  129MYC   H13925990   3.867   2.573   3.396
  129MYC   H14025991   3.813   2.722   3.487
  129MYC    C5725992   3.612   2.509   3.288
  129MYC   HH1025993   3.506   2.481   3.293
  129MYC   H14125994   3.670   2.416   3.294
  129MYC    C5625995   3.642   2.577   3.154
  129MYC   H14225996   3.748   2.603   3.150
  129MYC   H14325997   3.586   2.672   3.147
  129MYC    C5525998   3.606   2.488   3.033
  129MYC   H14425999   3.498   2.490   3.017
  129MYC   H14526000   3.631   2.384   3.056
  129MYC    C5426001   3.679   2.531   2.904
  129MYC   H14626002   3.787   2.531   2.922
  129MYC   H14726003   3.653   2.635   2.881
  129MYC    C5326004   3.649   2.440   2.784
  129MYC   H14826005   3.540   2.429   2.772
  129MYC   H14926006   3.689   2.340   2.803
  129MYC    C5226007   3.708   2.496   2.653
  129MYC    H9926008   3.816   2.510   2.666
  129MYC   H15026009   3.666   2.595   2.634
  129MYC    C5126010   3.684   2.405   2.531
  129MYC    H9726011   3.577   2.383   2.522
  129MYC    H9826012   3.736   2.310   2.547
  129MYC    C5026013   3.734   2.469   2.399
  129MYC    H9526014   3.835   2.509   2.415
  129MYC    H9626015   3.670   2.554   2.374
  129MYC    C4926016   3.737   2.370   2.281
  129MYC    H9326017   3.635   2.337   2.259
  129MYC    H9426018   3.794   2.280   2.311
  129MYC    C4826019   3.802   2.428   2.153
  129MYC    H9126020   3.906   2.455   2.175
  129MYC    H9226021   3.750   2.521   2.126
  129MYC    C4726022   3.798   2.330   2.034
  129MYC    H8926023   3.694   2.312   2.006
  129MYC    H9026024   3.840   2.234   2.065
  129MYC    C4626025   3.874   2.380   1.909
  129MYC    H8726026   3.980   2.391   1.935
  129MYC    H8826027   3.837   2.479   1.881
  129MYC    C4526028   3.861   2.283   1.789
  129MYC    H8526029   3.756   2.277   1.758
  129MYC    H8626030   3.889   2.183   1.822
  129MYC    C4426031   3.949   2.319   1.666
  129MYC    H8326032   3.956   2.230   1.603
  129MYC    H8426033   4.051   2.340   1.701
  129MYC    C1826034   3.897   2.436   1.582
  129MYC    H3126035   3.818   2.491   1.630
  129MYC    C1726036   3.992   2.517   1.496
  129MYC    H3026037   4.096   2.485   1.492
  129MYC    C1926038   3.891   2.426   1.431
  129MYC    H3226039   3.928   2.336   1.384
  129MYC    H3326040   3.807   2.473   1.381
  129MYC    C1626041   3.978   2.669   1.485
  129MYC    H2826042   3.872   2.697   1.488
  129MYC    H2926043   4.015   2.701   1.387
  129MYC    C1526044   4.053   2.749   1.594
  129MYC    H2626045   4.032   2.856   1.580
  129MYC    H2726046   4.161   2.737   1.580
  129MYC    C1426047   4.014   2.710   1.738
  129MYC    H2426048   4.031   2.603   1.754
  129MYC    H2526049   3.907   2.727   1.751
  129MYC    C1326050   4.089   2.786   1.849
  129MYC    H2226051   4.075   2.894   1.836
  129MYC    H2326052   4.196   2.765   1.839
  129MYC    C1226053   4.041   2.744   1.990
  129MYC    H2026054   4.040   2.635   1.997
  129MYC    H2126055   3.938   2.778   2.006
  129MYC    C1126056   4.132   2.800   2.100
  129MYC    H1826057   4.132   2.910   2.097
  129MYC    H1926058   4.234   2.767   2.077
  129MYC    C1026059   4.103   2.751   2.242
  129MYC    H1626060   4.192   2.771   2.303
  129MYC    H1726061   4.090   2.642   2.241
  129MYC     C926062   3.979   2.813   2.310
  129MYC    H1426063   3.890   2.757   2.281
  129MYC    H1526064   3.966   2.916   2.275
  129MYC     C826065   3.995   2.813   2.463
  129MYC    H1226066   4.085   2.871   2.488
  129MYC    H1326067   4.012   2.711   2.498
  129MYC     C726068   3.875   2.874   2.539
  129MYC    H1026069   3.793   2.801   2.543
  129MYC    H1126070   3.838   2.961   2.484
  129MYC     C626071   3.912   2.920   2.682
  129MYC     H826072   3.826   2.972   2.726
  129MYC     H926073   3.992   2.995   2.674
  129MYC     C526074   3.958   2.808   2.778
  129MYC     H626075   4.032   2.743   2.728
  129MYC     H726076   3.872   2.744   2.803
  129MYC     C426077   4.021   2.865   2.906
  129MYC     H426078   3.951   2.937   2.950
  129MYC     H526079   4.111   2.920   2.879
  129MYC     C226080   4.056   2.759   3.014
  129MYC     H226081   3.963   2.705   3.038
  129MYC     O326082   4.151   2.666   2.962
  129MYC     H326083   4.240   2.704   2.974
  129MYC     C126084   4.107   2.826   3.145
  129MYC     H126085   4.027   2.892   3.178
  129MYC    C8126086   4.231   2.916   3.123
  129MYC    O8226087   4.231   3.036   3.146
  129MYC    O8326088   4.342   2.854   3.077
  129MYC   H10526089   4.410   2.923   3.071
  129MYC    C2026090   4.130   2.725   3.260
  129MYC    H3426091   4.048   2.652   3.261
  129MYC    H3526092   4.223   2.668   3.243
  129MYC    C2126093   4.138   2.795   3.397
  129MYC    H3626094   4.220   2.868   3.397
  129MYC    H3726095   4.045   2.853   3.411
  129MYC    C2226096   4.156   2.700   3.516
  129MYC    H3826097   4.090   2.613   3.506
  129MYC    H3926098   4.259   2.663   3.517
  129MYC    C2326099   4.125   2.772   3.648
  129MYC    H4026100   4.183   2.865   3.654
  129MYC    H4126101   4.019   2.801   3.648
  129MYC    C2426102   4.154   2.688   3.773
  129MYC    H4226103   4.104   2.590   3.765
  129MYC    H4326104   4.262   2.669   3.780
  129MYC    C2526105   4.105   2.759   3.901
  129MYC    H4426106   4.140   2.863   3.901
  129MYC    H4526107   3.995   2.762   3.901
  129MYC    C2626108   4.153   2.690   4.030
  129MYC    H4626109   4.125   2.585   4.029
  129MYC    H4726110   4.263   2.694   4.033
  129MYC    C2726111   4.096   2.757   4.156
  129MYC    H4826112   4.110   2.865   4.151
  129MYC    H4926113   3.988   2.739   4.160
  129MYC    C2826114   4.162   2.705   4.285
  129MYC    H5026115   4.163   2.595   4.283
  129MYC    H5126116   4.267   2.738   4.287
  129MYC    C2926117   4.090   2.751   4.412
  129MYC    H5226118   4.076   2.860   4.409
  129MYC    H5326119   3.990   2.706   4.415
  129MYC    C3026120   4.166   2.714   4.540
  129MYC    H5426121   4.201   2.610   4.535
  129MYC    H5526122   4.256   2.777   4.548
  129MYC    C3126123   4.080   2.732   4.667
  129MYC    H5626124   4.033   2.831   4.665
  129MYC    H5726125   4.000   2.657   4.666
  129MYC    C3226126   4.161   2.717   4.797
  129MYC    H5826127   4.211   2.619   4.799
  129MYC    H5926128   4.240   2.793   4.799
  129MYC    C3326129   4.073   2.732   4.922
  129MYC    H6026130   4.017   2.827   4.916
  129MYC    H6126131   3.999   2.651   4.925
  129MYC    C3426132   4.155   2.730   5.052
  129MYC    H6226133   4.206   2.633   5.059
  129MYC    H6326134   4.233   2.807   5.046
  129MYC    C3526135   4.070   2.753   5.178
  129MYC    H6426136   4.022   2.851   5.173
  129MYC    H6526137   3.991   2.678   5.183
  129MYC    C3626138   4.157   2.744   5.305
  129MYC    H6626139   4.205   2.645   5.308
  129MYC    H6726140   4.238   2.818   5.299
  129MYC    C3726141   4.080   2.766   5.437
  129MYC    H6826142   4.045   2.870   5.442
  129MYC    H6926143   3.991   2.701   5.438
  129MYC    C3826144   4.169   2.733   5.558
  129MYC    H7026145   4.199   2.627   5.551
  129MYC    H7126146   4.261   2.792   5.553
  129MYC    C3926147   4.102   2.757   5.695
  129MYC    H7226148   4.085   2.864   5.709
  129MYC    H7326149   4.004   2.708   5.697
  129MYC    C4026150   4.189   2.702   5.810
  129MYC    H7426151   4.201   2.594   5.796
  129MYC    H7526152   4.289   2.747   5.804
  129MYC    C4126153   4.130   2.728   5.950
  129MYC    H7626154   4.128   2.836   5.969
  129MYC    H7726155   4.027   2.692   5.953
  129MYC    C4226156   4.212   2.658   6.061
  129MYC    H7826157   4.213   2.550   6.042
  129MYC    H7926158   4.316   2.692   6.057
  129MYC    C4326159   4.156   2.683   6.202
  129MYC    H8026160   4.214   2.626   6.276
  129MYC    H8126161   4.051   2.651   6.209
  129MYC    H8226162   4.163   2.789   6.228
  130MYC   HH1526163   4.248   3.404   6.227
  130MYC    C8026164   4.284   3.400   6.123
  130MYC   H10026165   4.348   3.487   6.105
  130MYC   H10126166   4.344   3.310   6.111
  130MYC    C7926167   4.164   3.399   6.026
  130MYC   H10226168   4.103   3.489   6.043
  130MYC   H10326169   4.101   3.312   6.049
  130MYC    C7826170   4.207   3.394   5.878
  130MYC   HH1426171   4.278   3.312   5.864
  130MYC   H10426172   4.259   3.487   5.852
  130MYC    C7726173   4.088   3.373   5.781
  130MYC   H10626174   4.015   3.455   5.794
  130MYC   H10726175   4.037   3.280   5.808
  130MYC    C7626176   4.132   3.367   5.634
  130MYC   H10826177   4.219   3.301   5.625
  130MYC   H10926178   4.163   3.467   5.601
  130MYC    C7526179   4.021   3.313   5.540
  130MYC   H11026180   3.931   3.375   5.550
  130MYC   H11126181   3.995   3.211   5.571
  130MYC    C7426182   4.066   3.312   5.392
  130MYC   H11226183   4.162   3.260   5.384
  130MYC   H11326184   4.082   3.415   5.359
  130MYC    C7326185   3.965   3.244   5.298
  130MYC   HH1326186   3.866   3.291   5.309
  130MYC   H11426187   3.954   3.138   5.326
  130MYC    C7226188   4.010   3.253   5.151
  130MYC   H11526189   4.109   3.207   5.141
  130MYC   H11626190   4.023   3.359   5.126
  130MYC    C7126191   3.914   3.189   5.049
  130MYC   H11726192   3.814   3.230   5.061
  130MYC   H11826193   3.908   3.081   5.067
  130MYC    C7026194   3.963   3.214   4.905
  130MYC   H11926195   4.064   3.171   4.894
  130MYC   H12026196   3.974   3.323   4.892
  130MYC    C6926197   3.873   3.160   4.793
  130MYC   H12126198   3.771   3.198   4.805
  130MYC   H12226199   3.869   3.050   4.799
  130MYC    C6826200   3.929   3.203   4.656
  130MYC   HH1226201   4.033   3.168   4.649
  130MYC   H12326202   3.932   3.312   4.653
  130MYC    C6726203   3.852   3.151   4.533
  130MYC   H12426204   3.747   3.185   4.538
  130MYC   H12526205   3.852   3.042   4.533
  130MYC    C6626206   3.917   3.204   4.404
  130MYC   H12626207   4.023   3.176   4.404
  130MYC   H12726208   3.915   3.314   4.406
  130MYC    C6526209   3.853   3.155   4.274
  130MYC   H12826210   3.747   3.183   4.272
  130MYC   H12926211   3.859   3.045   4.270
  130MYC    C6426212   3.924   3.215   4.151
  130MYC   H13026213   4.031   3.191   4.156
  130MYC   H13126214   3.916   3.324   4.155
  130MYC    C6326215   3.869   3.165   4.017
  130MYC   HH1126216   3.762   3.190   4.010
  130MYC   H13226217   3.878   3.056   4.013
  130MYC    C6226218   3.943   3.227   3.897
  130MYC   H13326219   4.050   3.201   3.904
  130MYC   H13426220   3.936   3.336   3.903
  130MYC    C6126221   3.888   3.179   3.762
  130MYC   H13526222   3.783   3.210   3.753
  130MYC   H13626223   3.889   3.070   3.759
  130MYC    C6026224   3.969   3.233   3.645
  130MYC   H13726225   4.068   3.189   3.640
  130MYC    C5826226   3.900   3.262   3.514
  130MYC   H13826227   3.792   3.255   3.512
  130MYC    C5926228   3.957   3.376   3.597
  130MYC   H13926229   4.047   3.424   3.561
  130MYC   H14026230   3.887   3.441   3.647
  130MYC    C5726231   3.964   3.218   3.384
  130MYC   HH1026232   3.939   3.112   3.366
  130MYC   H14126233   4.074   3.223   3.391
  130MYC    C5626234   3.918   3.301   3.263
  130MYC   H14226235   3.944   3.407   3.280
  130MYC   H14326236   3.809   3.296   3.255
  130MYC    C5526237   3.982   3.254   3.132
  130MYC   H14426238   3.959   3.148   3.116
  130MYC   H14526239   4.091   3.262   3.140
  130MYC    C5426240   3.936   3.334   3.009
  130MYC   H14626241   3.960   3.440   3.025
  130MYC   H14726242   3.827   3.326   2.999
  130MYC    C5326243   4.002   3.285   2.879
  130MYC   H14826244   3.971   3.182   2.859
  130MYC   H14926245   4.111   3.285   2.892
  130MYC    C5226246   3.967   3.373   2.757
  130MYC    H9926247   4.003   3.475   2.775
  130MYC   H15026248   3.858   3.378   2.747
  130MYC    C5126249   4.027   3.320   2.626
  130MYC    H9726250   3.978   3.225   2.601
  130MYC    H9826251   4.134   3.299   2.640
  130MYC    C5026252   4.010   3.419   2.509
  130MYC    H9526253   4.071   3.508   2.528
  130MYC    H9626254   3.906   3.451   2.504
  130MYC    C4926255   4.050   3.357   2.373
  130MYC    H9326256   3.982   3.274   2.350
  130MYC    H9426257   4.151   3.314   2.381
  130MYC    C4826258   4.047   3.459   2.258
  130MYC    H9126259   4.126   3.534   2.275
  130MYC    H9226260   3.952   3.512   2.257
  130MYC    C4726261   4.070   3.393   2.120
  130MYC    H8926262   3.987   3.324   2.099
  130MYC    H9026263   4.161   3.333   2.124
  130MYC    C4626264   4.080   3.495   2.005
  130MYC    H8726265   4.163   3.564   2.026
  130MYC    H8826266   3.988   3.554   2.003
  130MYC    C4526267   4.105   3.428   1.868
  130MYC    H8526268   4.026   3.353   1.848
  130MYC    H8626269   4.200   3.373   1.872
  130MYC    C4426270   4.110   3.528   1.751
  130MYC    H8326271   4.156   3.479   1.665
  130MYC    H8426272   4.177   3.611   1.778
  130MYC    C1826273   3.974   3.583   1.712
  130MYC    H3126274   3.906   3.591   1.796
  130MYC    C1726275   3.961   3.690   1.606
  130MYC    H3026276   4.053   3.719   1.554
  130MYC    C1926277   3.911   3.550   1.579
  130MYC    H3226278   3.968   3.487   1.511
  130MYC    H3326279   3.803   3.534   1.576
  130MYC    C1626280   3.865   3.807   1.626
  130MYC    H2826281   3.775   3.772   1.676
  130MYC    H2926282   3.833   3.842   1.527
  130MYC    C1526283   3.923   3.926   1.706
  130MYC    H2626284   3.845   4.002   1.715
  130MYC    H2726285   4.004   3.971   1.647
  130MYC    C1426286   3.977   3.889   1.847
  130MYC    H2426287   4.067   3.828   1.834
  130MYC    H2526288   3.904   3.829   1.901
  130MYC    C1326289   4.013   4.012   1.933
  130MYC    H2226290   3.923   4.070   1.955
  130MYC    H2326291   4.078   4.078   1.874
  130MYC    C1226292   4.088   3.978   2.064
  130MYC    H2026293   4.168   4.052   2.078
  130MYC    H2126294   4.138   3.881   2.053
  130MYC    C1126295   4.001   3.976   2.191
  130MYC    H1826296   3.921   3.902   2.179
  130MYC    H1926297   3.952   4.074   2.203
  130MYC    C1026298   4.085   3.945   2.316
  130MYC    H1626299   4.156   4.027   2.334
  130MYC    H1726300   4.145   3.855   2.296
  130MYC     C926301   4.002   3.921   2.443
  130MYC    H1426302   3.930   3.840   2.424
  130MYC    H1526303   3.944   4.011   2.467
  130MYC     C826304   4.090   3.883   2.564
  130MYC    H1226305   4.152   3.969   2.592
  130MYC    H1326306   4.159   3.803   2.534
  130MYC     C726307   4.009   3.834   2.685
  130MYC    H1026308   3.955   3.743   2.657
  130MYC    H1126309   3.933   3.909   2.711
  130MYC     C626310   4.097   3.805   2.809
  130MYC     H826311   4.145   3.898   2.840
  130MYC     H926312   4.177   3.736   2.780
  130MYC     C526313   4.018   3.742   2.926
  130MYC     H626314   4.068   3.650   2.958
  130MYC     H726315   3.919   3.711   2.890
  130MYC     C426316   3.998   3.833   3.049
  130MYC     H426317   3.908   3.798   3.102
  130MYC     H526318   3.975   3.936   3.017
  130MYC     C226319   4.116   3.832   3.150
  130MYC     H226320   4.134   3.727   3.177
  130MYC     O326321   4.235   3.885   3.090
  130MYC     H326322   4.230   3.982   3.096
  130MYC     C126323   4.083   3.908   3.281
  130MYC     H126324   3.986   3.870   3.315
  130MYC    C8126325   4.067   4.060   3.257
  130MYC    O8226326   4.158   4.136   3.228
  130MYC    O8326327   3.941   4.106   3.273
  130MYC   H10526328   3.945   4.201   3.256
  130MYC    C2026329   4.184   3.880   3.395
  130MYC    H3426330   4.198   3.771   3.404
  130MYC    H3526331   4.282   3.922   3.370
  130MYC    C2126332   4.137   3.935   3.531
  130MYC    H3626333   4.132   4.045   3.526
  130MYC    H3726334   4.035   3.900   3.550
  130MYC    C2226335   4.226   3.893   3.649
  130MYC    H3826336   4.232   3.784   3.653
  130MYC    H3926337   4.329   3.930   3.633
  130MYC    C2326338   4.172   3.946   3.783
  130MYC    H4026339   4.171   4.056   3.781
  130MYC    H4126340   4.067   3.914   3.794
  130MYC    C2426341   4.252   3.898   3.905
  130MYC    H4226342   4.262   3.788   3.900
  130MYC    H4326343   4.353   3.939   3.901
  130MYC    C2526344   4.184   3.936   4.037
  130MYC    H4426345   4.172   4.045   4.042
  130MYC    H4526346   4.083   3.894   4.039
  130MYC    C2626347   4.261   3.887   4.161
  130MYC    H4626348   4.283   3.780   4.150
  130MYC    H4726349   4.357   3.939   4.167
  130MYC    C2726350   4.182   3.909   4.291
  130MYC    H4826351   4.157   4.015   4.301
  130MYC    H4926352   4.088   3.853   4.285
  130MYC    C2826353   4.260   3.863   4.416
  130MYC    H5026354   4.295   3.760   4.402
  130MYC    H5126355   4.349   3.926   4.427
  130MYC    C2926356   4.175   3.871   4.543
  130MYC    H5226357   4.135   3.973   4.554
  130MYC    H5326358   4.089   3.804   4.533
  130MYC    C3026359   4.254   3.834   4.670
  130MYC    H5426360   4.298   3.734   4.658
  130MYC    H5526361   4.336   3.905   4.683
  130MYC    C3126362   4.165   3.836   4.795
  130MYC    H5626363   4.111   3.932   4.799
  130MYC    H5726364   4.088   3.758   4.786
  130MYC    C3226365   4.243   3.817   4.926
  130MYC    H5826366   4.294   3.720   4.925
  130MYC    H5926367   4.321   3.894   4.933
  130MYC    C3326368   4.150   3.826   5.048
  130MYC    H6026369   4.092   3.920   5.041
  130MYC    H6126370   4.078   3.744   5.045
  130MYC    C3426371   4.225   3.824   5.183
  130MYC    H6226372   4.272   3.726   5.196
  130MYC    H6326373   4.304   3.899   5.182
  130MYC    C3526374   4.129   3.853   5.299
  130MYC    H6426375   4.085   3.952   5.285
  130MYC    H6526376   4.046   3.781   5.296
  130MYC    C3626377   4.196   3.846   5.437
  130MYC    H6626378   4.230   3.744   5.456
  130MYC    H6726379   4.284   3.911   5.439
  130MYC    C3726380   4.099   3.890   5.549
  130MYC    H6826381   4.073   3.996   5.535
  130MYC    H6926382   4.005   3.833   5.539
  130MYC    C3826383   4.155   3.869   5.690
  130MYC    H7026384   4.174   3.762   5.706
  130MYC    H7126385   4.252   3.920   5.699
  130MYC    C3926386   4.060   3.921   5.799
  130MYC    H7226387   4.049   4.030   5.788
  130MYC    H7326388   3.960   3.877   5.784
  130MYC    C4026389   4.108   3.888   5.941
  130MYC    H7426390   4.112   3.779   5.953
  130MYC    H7526391   4.211   3.925   5.954
  130MYC    C4126392   4.019   3.949   6.050
  130MYC    H7626393   4.023   4.058   6.043
  130MYC    H7726394   3.914   3.920   6.032
  130MYC    C4226395   4.060   3.904   6.192
  130MYC    H7826396   4.040   3.797   6.202
  130MYC    H7926397   4.167   3.919   6.206
  130MYC    C4326398   3.985   3.980   6.303
  130MYC    H8026399   4.002   3.931   6.399
  130MYC    H8126400   3.877   3.982   6.283
  130MYC    H8226401   4.021   4.082   6.310
  131MYC   HH1526402   4.207   4.176   6.132
  131MYC    C8026403   4.299   4.236   6.139
  131MYC   H10026404   4.272   4.341   6.147
  131MYC   H10126405   4.352   4.206   6.231
  131MYC    C7926406   4.389   4.212   6.016
  131MYC   H10226407   4.418   4.106   6.014
  131MYC   H10326408   4.481   4.271   6.028
  131MYC    C7826409   4.321   4.248   5.883
  131MYC   HH1426410   4.289   4.353   5.886
  131MYC   H10426411   4.230   4.188   5.871
  131MYC    C7726412   4.413   4.226   5.761
  131MYC   H10626413   4.448   4.122   5.762
  131MYC   H10726414   4.501   4.290   5.771
  131MYC    C7626415   4.344   4.255   5.626
  131MYC   H10826416   4.310   4.359   5.624
  131MYC   H10926417   4.255   4.191   5.617
  131MYC    C7526418   4.437   4.229   5.506
  131MYC   H11026419   4.475   4.126   5.511
  131MYC   H11126420   4.525   4.295   5.513
  131MYC    C7426421   4.368   4.252   5.370
  131MYC   H11226422   4.334   4.355   5.364
  131MYC   H11326423   4.280   4.187   5.364
  131MYC    C7326424   4.461   4.221   5.251
  131MYC   HH1326425   4.495   4.117   5.257
  131MYC   H11426426   4.551   4.284   5.258
  131MYC    C7226427   4.393   4.245   5.115
  131MYC   H11526428   4.365   4.350   5.107
  131MYC   H11626429   4.301   4.186   5.110
  131MYC    C7126430   4.483   4.208   4.995
  131MYC   H11726431   4.509   4.101   5.001
  131MYC   H11826432   4.578   4.264   5.002
  131MYC    C7026433   4.416   4.238   4.860
  131MYC   H11926434   4.395   4.345   4.854
  131MYC   H12026435   4.320   4.185   4.855
  131MYC    C6926436   4.502   4.196   4.739
  131MYC   H12126437   4.521   4.088   4.744
  131MYC   H12226438   4.600   4.246   4.745
  131MYC    C6826439   4.435   4.230   4.605
  131MYC   HH1226440   4.418   4.339   4.600
  131MYC   H12326441   4.337   4.181   4.599
  131MYC    C6726442   4.520   4.188   4.484
  131MYC   H12426443   4.536   4.079   4.487
  131MYC   H12526444   4.619   4.235   4.490
  131MYC    C6626445   4.455   4.226   4.350
  131MYC   H12626446   4.441   4.335   4.346
  131MYC   H12726447   4.355   4.180   4.344
  131MYC    C6526448   4.539   4.180   4.229
  131MYC   H12826449   4.550   4.071   4.233
  131MYC   H12926450   4.639   4.223   4.237
  131MYC    C6426451   4.477   4.222   4.095
  131MYC   H13026452   4.476   4.331   4.087
  131MYC   H13126453   4.373   4.188   4.090
  131MYC    C6326454   4.555   4.163   3.976
  131MYC   HH1126455   4.548   4.054   3.979
  131MYC   H13226456   4.661   4.189   3.985
  131MYC    C6226457   4.503   4.214   3.840
  131MYC   H13326458   4.522   4.321   3.833
  131MYC   H13426459   4.395   4.199   3.833
  131MYC    C6126460   4.571   4.142   3.721
  131MYC   H13526461   4.533   4.039   3.716
  131MYC   H13626462   4.679   4.134   3.740
  131MYC    C6026463   4.549   4.214   3.590
  131MYC   H13726464   4.610   4.303   3.581
  131MYC    C5826465   4.524   4.136   3.463
  131MYC   H13826466   4.511   4.029   3.472
  131MYC    C5926467   4.413   4.221   3.523
  131MYC   H13926468   4.387   4.313   3.471
  131MYC   H14026469   4.331   4.171   3.571
  131MYC    C5726470   4.596   4.176   3.336
  131MYC   HH1026471   4.691   4.122   3.330
  131MYC   H14126472   4.620   4.283   3.338
  131MYC    C5626473   4.514   4.146   3.209
  131MYC   H14226474   4.420   4.202   3.214
  131MYC   H14326475   4.488   4.039   3.206
  131MYC    C5526476   4.589   4.184   3.081
  131MYC   H14426477   4.681   4.124   3.074
  131MYC   H14526478   4.620   4.289   3.088
  131MYC    C5426479   4.505   4.165   2.954
  131MYC   H14626480   4.415   4.226   2.961
  131MYC   H14726481   4.473   4.061   2.946
  131MYC    C5326482   4.584   4.203   2.827
  131MYC   H14826483   4.661   4.127   2.809
  131MYC   H14926484   4.636   4.299   2.843
  131MYC    C5226485   4.494   4.217   2.703
  131MYC    H9926486   4.429   4.305   2.715
  131MYC   H15026487   4.428   4.129   2.696
  131MYC    C5126488   4.574   4.229   2.572
  131MYC    H9726489   4.627   4.134   2.556
  131MYC    H9826490   4.651   4.307   2.582
  131MYC    C5026491   4.485   4.261   2.451
  131MYC    H9526492   4.476   4.370   2.441
  131MYC    H9626493   4.384   4.222   2.468
  131MYC    C4926494   4.538   4.201   2.319
  131MYC    H9326495   4.534   4.092   2.327
  131MYC    H9426496   4.643   4.229   2.304
  131MYC    C4826497   4.455   4.246   2.198
  131MYC    H9126498   4.481   4.350   2.174
  131MYC    H9226499   4.348   4.245   2.224
  131MYC    C4726500   4.475   4.159   2.073
  131MYC    H8926501   4.442   4.056   2.095
  131MYC    H9026502   4.582   4.153   2.049
  131MYC    C4626503   4.398   4.213   1.951
  131MYC    H8726504   4.439   4.311   1.924
  131MYC    H8826505   4.293   4.229   1.979
  131MYC    C4526506   4.404   4.119   1.829
  131MYC    H8526507   4.339   4.032   1.846
  131MYC    H8626508   4.506   4.080   1.818
  131MYC    C4426509   4.365   4.187   1.696
  131MYC    H8326510   4.385   4.117   1.615
  131MYC    H8426511   4.432   4.273   1.679
  131MYC    C1826512   4.219   4.231   1.684
  131MYC    H3126513   4.152   4.147   1.675
  131MYC    C1726514   4.163   4.357   1.748
  131MYC    H3026515   4.232   4.421   1.803
  131MYC    C1926516   4.187   4.350   1.598
  131MYC    H3226517   4.269   4.408   1.558
  131MYC    H3326518   4.101   4.341   1.533
  131MYC    C1626519   4.019   4.366   1.798
  131MYC    H2826520   3.966   4.272   1.777
  131MYC    H2926521   3.967   4.444   1.742
  131MYC    C1526522   4.006   4.399   1.949
  131MYC    H2626523   4.054   4.496   1.967
  131MYC    H2726524   4.059   4.324   2.009
  131MYC    C1426525   3.859   4.408   1.995
  131MYC    H2426526   3.814   4.309   1.996
  131MYC    H2526527   3.803   4.467   1.921
  131MYC    C1326528   3.839   4.475   2.133
  131MYC    H2226529   3.733   4.501   2.143
  131MYC    H2326530   3.895   4.569   2.136
  131MYC    C1226531   3.878   4.389   2.255
  131MYC    H2026532   3.982   4.355   2.245
  131MYC    H2126533   3.816   4.300   2.258
  131MYC    C1126534   3.859   4.467   2.388
  131MYC    H1826535   3.802   4.406   2.458
  131MYC    H1926536   3.797   4.555   2.370
  131MYC    C1026537   3.992   4.514   2.453
  131MYC    H1626538   3.969   4.595   2.524
  131MYC    H1726539   4.056   4.559   2.376
  131MYC     C926540   4.070   4.404   2.528
  131MYC    H1426541   4.165   4.447   2.563
  131MYC    H1526542   4.096   4.323   2.459
  131MYC     C826543   3.993   4.347   2.650
  131MYC    H1226544   3.908   4.287   2.614
  131MYC    H1326545   3.953   4.431   2.707
  131MYC     C726546   4.078   4.259   2.744
  131MYC    H1026547   4.162   4.317   2.784
  131MYC    H1126548   4.123   4.178   2.685
  131MYC     C626549   3.996   4.196   2.860
  131MYC     H826550   4.065   4.140   2.925
  131MYC     H926551   3.927   4.123   2.818
  131MYC     C526552   3.915   4.296   2.947
  131MYC     H626553   3.859   4.238   3.022
  131MYC     H726554   3.840   4.347   2.886
  131MYC     C426555   4.004   4.401   3.020
  131MYC     H426556   4.071   4.447   2.947
  131MYC     H526557   4.068   4.349   3.093
  131MYC     C226558   3.930   4.517   3.092
  131MYC     H226559   4.008   4.569   3.148
  131MYC     O326560   3.880   4.607   2.992
  131MYC     H326561   3.783   4.613   3.003
  131MYC     C126562   3.818   4.473   3.193
  131MYC     H126563   3.831   4.365   3.210
  131MYC    C8126564   3.673   4.490   3.144
  131MYC    O8226565   3.625   4.595   3.105
  131MYC    O8326566   3.592   4.388   3.182
  131MYC   H10526567   3.501   4.417   3.160
  131MYC    C2026568   3.835   4.538   3.333
  131MYC    H3426569   3.884   4.636   3.324
  131MYC    H3526570   3.736   4.559   3.376
  131MYC    C2126571   3.912   4.449   3.433
  131MYC    H3626572   3.858   4.354   3.444
  131MYC    H3726573   4.012   4.425   3.393
  131MYC    C2226574   3.927   4.513   3.572
  131MYC    H3826575   3.996   4.597   3.566
  131MYC    H3926576   3.830   4.554   3.603
  131MYC    C2326577   3.975   4.414   3.680
  131MYC    H4026578   3.905   4.329   3.685
  131MYC    H4126579   4.073   4.373   3.653
  131MYC    C2426580   3.983   4.480   3.819
  131MYC    H4226581   4.057   4.561   3.816
  131MYC    H4326582   3.886   4.527   3.842
  131MYC    C2526583   4.019   4.384   3.934
  131MYC    H4426584   3.948   4.300   3.936
  131MYC    H4526585   4.119   4.342   3.918
  131MYC    C2626586   4.014   4.457   4.069
  131MYC    H4626587   4.081   4.544   4.065
  131MYC    H4726588   3.913   4.496   4.084
  131MYC    C2726589   4.052   4.371   4.192
  131MYC    H4826590   3.987   4.284   4.198
  131MYC    H4926591   4.155   4.335   4.181
  131MYC    C2826592   4.040   4.455   4.321
  131MYC    H5026593   4.104   4.543   4.313
  131MYC    H5126594   3.936   4.491   4.329
  131MYC    C2926595   4.075   4.379   4.450
  131MYC    H5226596   4.012   4.290   4.458
  131MYC    H5326597   4.179   4.345   4.446
  131MYC    C3026598   4.055   4.469   4.574
  131MYC    H5426599   4.123   4.555   4.568
  131MYC    H5526600   3.952   4.508   4.573
  131MYC    C3126601   4.078   4.395   4.707
  131MYC    H5626602   4.014   4.306   4.710
  131MYC    H5726603   4.182   4.360   4.712
  131MYC    C3226604   4.047   4.483   4.830
  131MYC    H5826605   4.117   4.568   4.833
  131MYC    H5926606   3.946   4.525   4.821
  131MYC    C3326607   4.057   4.404   4.961
  131MYC    H6026608   3.989   4.318   4.955
  131MYC    H6126609   4.158   4.364   4.972
  131MYC    C3426610   4.022   4.486   5.087
  131MYC    H6226611   4.095   4.567   5.099
  131MYC    H6326612   3.923   4.533   5.073
  131MYC    C3526613   4.019   4.398   5.213
  131MYC    H6426614   3.944   4.319   5.199
  131MYC    H6526615   4.116   4.348   5.224
  131MYC    C3626616   3.987   4.475   5.342
  131MYC    H6626617   4.065   4.551   5.359
  131MYC    H6726618   3.892   4.529   5.331
  131MYC    C3726619   3.978   4.381   5.464
  131MYC    H6826620   3.898   4.308   5.448
  131MYC    H6926621   4.072   4.325   5.473
  131MYC    C3826622   3.953   4.457   5.596
  131MYC    H7026623   4.033   4.529   5.612
  131MYC    H7126624   3.859   4.513   5.588
  131MYC    C3926625   3.945   4.363   5.718
  131MYC    H7226626   3.864   4.290   5.703
  131MYC    H7326627   4.038   4.306   5.726
  131MYC    C4026628   3.921   4.440   5.850
  131MYC    H7426629   4.000   4.515   5.862
  131MYC    H7526630   3.826   4.494   5.843
  131MYC    C4126631   3.918   4.349   5.974
  131MYC    H7626632   3.840   4.272   5.962
  131MYC    H7726633   4.014   4.296   5.982
  131MYC    C4226634   3.892   4.428   6.104
  131MYC    H7826635   3.969   4.505   6.116
  131MYC    H7926636   3.795   4.478   6.097
  131MYC    C4326637   3.894   4.339   6.230
  131MYC    H8026638   3.872   4.398   6.319
  131MYC    H8126639   3.993   4.293   6.242
  131MYC    H8226640   3.819   4.259   6.222
  132MYC   HH1526641   4.005   4.844   6.202
  132MYC    C8026642   4.061   4.888   6.118
  132MYC   H10026643   4.047   4.997   6.121
  132MYC   H10126644   4.167   4.866   6.133
  132MYC    C7926645   4.011   4.830   5.985
  132MYC   H10226646   3.904   4.855   5.973
  132MYC   H10326647   4.018   4.721   5.988
  132MYC    C7826648   4.089   4.882   5.862
  132MYC   HH1426649   4.191   4.842   5.865
  132MYC   H10426650   4.097   4.991   5.867
  132MYC    C7726651   4.022   4.843   5.729
  132MYC   H10626652   3.924   4.892   5.724
  132MYC   H10726653   4.003   4.735   5.728
  132MYC    C7626654   4.103   4.881   5.603
  132MYC   H10826655   4.194   4.820   5.598
  132MYC   H10926656   4.135   4.986   5.611
  132MYC    C7526657   4.020   4.863   5.475
  132MYC   H11026658   3.933   4.930   5.480
  132MYC   H11126659   3.981   4.761   5.471
  132MYC    C7426660   4.097   4.893   5.344
  132MYC   H11226661   4.178   4.820   5.332
  132MYC   H11326662   4.144   4.992   5.351
  132MYC    C7326663   4.004   4.889   5.222
  132MYC   HH1326664   3.922   4.960   5.239
  132MYC   H11426665   3.958   4.789   5.215
  132MYC    C7226666   4.072   4.924   5.088
  132MYC   H11526667   4.148   4.848   5.064
  132MYC   H11626668   4.123   5.020   5.098
  132MYC    C7126669   3.968   4.932   4.974
  132MYC   H11726670   3.889   5.002   5.003
  132MYC   H11826671   3.921   4.834   4.961
  132MYC    C7026672   4.027   4.978   4.839
  132MYC   H11926673   4.102   4.905   4.805
  132MYC   H12026674   4.079   5.073   4.853
  132MYC    C6926675   3.918   4.995   4.732
  132MYC   H12126676   3.843   5.067   4.767
  132MYC   H12226677   3.866   4.899   4.719
  132MYC    C6826678   3.973   5.041   4.596
  132MYC   HH1226679   4.048   4.969   4.561
  132MYC   H12326680   4.023   5.138   4.607
  132MYC    C6726681   3.862   5.053   4.489
  132MYC   H12426682   3.792   5.132   4.517
  132MYC   H12526683   3.805   4.959   4.485
  132MYC    C6626684   3.919   5.083   4.348
  132MYC   H12626685   3.993   5.006   4.324
  132MYC   H12726686   3.971   5.179   4.350
  132MYC    C6526687   3.810   5.085   4.239
  132MYC   H12826688   3.743   5.171   4.255
  132MYC   H12926689   3.749   4.995   4.246
  132MYC    C6426690   3.872   5.093   4.098
  132MYC   H13026691   3.939   5.008   4.084
  132MYC   H13126692   3.933   5.184   4.090
  132MYC    C6326693   3.767   5.093   3.984
  132MYC   HH1126694   3.702   5.181   3.994
  132MYC   H13226695   3.703   5.004   3.994
  132MYC    C6226696   3.833   5.092   3.845
  132MYC   H13326697   3.900   5.005   3.839
  132MYC   H13426698   3.896   5.181   3.835
  132MYC    C6126699   3.733   5.086   3.729
  132MYC   H13526700   3.665   5.171   3.735
  132MYC   H13626701   3.672   4.995   3.739
  132MYC    C6026702   3.804   5.084   3.594
  132MYC   H13726703   3.885   5.012   3.591
  132MYC    C5826704   3.727   5.102   3.465
  132MYC   H13826705   3.621   5.123   3.474
  132MYC    C5926706   3.823   5.209   3.512
  132MYC   H13926707   3.917   5.221   3.458
  132MYC   H14026708   3.780   5.302   3.550
  132MYC    C5726709   3.760   5.012   3.347
  132MYC   HH1026710   3.708   4.916   3.359
  132MYC   H14126711   3.867   4.989   3.346
  132MYC    C5626712   3.722   5.073   3.211
  132MYC   H14226713   3.770   5.171   3.200
  132MYC   H14326714   3.613   5.089   3.207
  132MYC    C5526715   3.764   4.983   3.094
  132MYC   H14426716   3.712   4.886   3.102
  132MYC   H14526717   3.872   4.961   3.102
  132MYC    C5426718   3.737   5.044   2.955
  132MYC   H14626719   3.788   5.140   2.947
  132MYC   H14726720   3.629   5.063   2.944
  132MYC    C5326721   3.784   4.950   2.841
  132MYC   H14826722   3.728   4.856   2.847
  132MYC   H14926723   3.890   4.926   2.857
  132MYC    C5226724   3.767   5.011   2.701
  132MYC    H9926725   3.827   5.103   2.694
  132MYC   H15026726   3.662   5.040   2.686
  132MYC    C5126727   3.809   4.914   2.589
  132MYC    H9726728   3.744   4.826   2.592
  132MYC    H9826729   3.911   4.878   2.608
  132MYC    C5026730   3.804   4.977   2.448
  132MYC    H9526731   3.873   5.062   2.445
  132MYC    H9626732   3.703   5.017   2.431
  132MYC    C4926733   3.839   4.878   2.335
  132MYC    H9326734   3.764   4.798   2.333
  132MYC    H9426735   3.936   4.831   2.356
  132MYC    C4826736   3.845   4.947   2.197
  132MYC    H9126737   3.920   5.027   2.199
  132MYC    H9226738   3.748   4.994   2.179
  132MYC    C4726739   3.872   4.852   2.080
  132MYC    H8926740   3.792   4.777   2.076
  132MYC    H9026741   3.966   4.799   2.098
  132MYC    C4626742   3.880   4.925   1.943
  132MYC    H8726743   3.967   4.992   1.944
  132MYC    H8826744   3.791   4.988   1.930
  132MYC    C4526745   3.891   4.826   1.825
  132MYC    H8526746   3.799   4.767   1.819
  132MYC    H8626747   3.972   4.756   1.847
  132MYC    C4426748   3.919   4.892   1.688
  132MYC    H8326749   3.936   4.810   1.616
  132MYC    H8426750   4.014   4.947   1.693
  132MYC    C1826751   3.809   4.981   1.633
  132MYC    H3126752   3.711   4.959   1.674
  132MYC    C1726753   3.835   5.124   1.590
  132MYC    H3026754   3.937   5.160   1.596
  132MYC    C1926755   3.810   5.017   1.486
  132MYC    H3226756   3.894   4.985   1.427
  132MYC    H3326757   3.715   5.018   1.434
  132MYC    C1626758   3.732   5.235   1.611
  132MYC    H2826759   3.644   5.195   1.663
  132MYC    H2926760   3.697   5.270   1.513
  132MYC    C1526761   3.785   5.356   1.690
  132MYC    H2626762   3.711   5.437   1.686
  132MYC    H2726763   3.875   5.393   1.640
  132MYC    C1426764   3.818   5.324   1.837
  132MYC    H2426765   3.878   5.233   1.843
  132MYC    H2526766   3.725   5.305   1.892
  132MYC    C1326767   3.896   5.439   1.904
  132MYC    H2226768   3.833   5.529   1.908
  132MYC    H2326769   3.983   5.463   1.842
  132MYC    C1226770   3.944   5.405   2.047
  132MYC    H2026771   3.998   5.310   2.045
  132MYC    H2126772   3.857   5.393   2.112
  132MYC    C1126773   4.036   5.516   2.102
  132MYC    H1826774   3.979   5.609   2.108
  132MYC    H1926775   4.117   5.533   2.029
  132MYC    C1026776   4.101   5.485   2.238
  132MYC    H1626777   4.164   5.571   2.264
  132MYC    H1726778   4.168   5.399   2.229
  132MYC     C926779   4.001   5.460   2.353
  132MYC    H1426780   3.960   5.358   2.343
  132MYC    H1526781   3.917   5.530   2.344
  132MYC     C826782   4.065   5.477   2.492
  132MYC    H1226783   4.094   5.583   2.503
  132MYC    H1326784   4.158   5.419   2.497
  132MYC     C726785   3.973   5.436   2.608
  132MYC    H1026786   3.982   5.327   2.623
  132MYC    H1126787   3.868   5.455   2.583
  132MYC     C626788   4.006   5.511   2.740
  132MYC     H826789   3.960   5.610   2.734
  132MYC     H926790   4.114   5.526   2.747
  132MYC     C526791   3.957   5.437   2.866
  132MYC     H626792   4.026   5.354   2.887
  132MYC     H726793   3.860   5.390   2.844
  132MYC     C426794   3.939   5.527   2.992
  132MYC     H426795   3.836   5.510   3.027
  132MYC     H526796   3.943   5.632   2.963
  132MYC     C226797   4.032   5.506   3.115
  132MYC     H226798   3.977   5.548   3.200
  132MYC     O326799   4.051   5.366   3.141
  132MYC     H326800   4.108   5.331   3.070
  132MYC     C126801   4.168   5.582   3.112
  132MYC     H126802   4.143   5.689   3.109
  132MYC    C8126803   4.251   5.553   2.986
  132MYC    O8226804   4.296   5.444   2.957
  132MYC    O8326805   4.280   5.662   2.911
  132MYC   H10526806   4.335   5.630   2.839
  132MYC    C2026807   4.256   5.563   3.239
  132MYC    H3426808   4.294   5.460   3.242
  132MYC    H3526809   4.344   5.628   3.230
  132MYC    C2126810   4.185   5.595   3.373
  132MYC    H3626811   4.139   5.694   3.368
  132MYC    H3726812   4.105   5.522   3.389
  132MYC    C2226813   4.280   5.589   3.494
  132MYC    H3826814   4.335   5.495   3.491
  132MYC    H3926815   4.354   5.670   3.487
  132MYC    C2326816   4.207   5.599   3.630
  132MYC    H4026817   4.152   5.694   3.635
  132MYC    H4126818   4.132   5.519   3.635
  132MYC    C2426819   4.301   5.587   3.752
  132MYC    H4226820   4.367   5.500   3.739
  132MYC    H4326821   4.366   5.676   3.756
  132MYC    C2526822   4.225   5.572   3.885
  132MYC    H4426823   4.158   5.659   3.898
  132MYC    H4526824   4.160   5.484   3.879
  132MYC    C2626825   4.316   5.560   4.008
  132MYC    H4626826   4.390   5.480   3.991
  132MYC    H4726827   4.372   5.653   4.022
  132MYC    C2726828   4.237   5.528   4.137
  132MYC    H4826829   4.159   5.604   4.150
  132MYC    H4926830   4.187   5.431   4.125
  132MYC    C2826831   4.325   5.524   4.265
  132MYC    H5026832   4.406   5.451   4.251
  132MYC    H5126833   4.372   5.622   4.279
  132MYC    C2926834   4.243   5.488   4.390
  132MYC    H5226835   4.157   5.556   4.398
  132MYC    H5326836   4.202   5.387   4.379
  132MYC    C3026837   4.324   5.495   4.521
  132MYC    H5426838   4.410   5.427   4.516
  132MYC    H5526839   4.364   5.597   4.533
  132MYC    C3126840   4.239   5.460   4.645
  132MYC    H5626841   4.150   5.524   4.647
  132MYC    H5726842   4.204   5.357   4.637
  132MYC    C3226843   4.314   5.478   4.779
  132MYC    H5826844   4.404   5.414   4.779
  132MYC    H5926845   4.349   5.582   4.787
  132MYC    C3326846   4.227   5.444   4.901
  132MYC    H6026847   4.135   5.503   4.897
  132MYC    H6126848   4.196   5.338   4.896
  132MYC    C3426849   4.296   5.469   5.037
  132MYC    H6226850   4.389   5.410   5.042
  132MYC    H6326851   4.326   5.575   5.042
  132MYC    C3526852   4.206   5.436   5.157
  132MYC    H6426853   4.112   5.491   5.148
  132MYC    H6526854   4.181   5.329   5.155
  132MYC    C3626855   4.270   5.470   5.294
  132MYC    H6626856   4.364   5.415   5.305
  132MYC    H6726857   4.296   5.577   5.295
  132MYC    C3726858   4.177   5.439   5.413
  132MYC    H6826859   4.081   5.489   5.397
  132MYC    H6926860   4.157   5.331   5.415
  132MYC    C3826861   4.236   5.482   5.549
  132MYC    H7026862   4.332   5.432   5.565
  132MYC    H7126863   4.255   5.590   5.546
  132MYC    C3926864   4.141   5.451   5.667
  132MYC    H7226865   4.044   5.498   5.649
  132MYC    H7326866   4.124   5.343   5.671
  132MYC    C4026867   4.196   5.500   5.803
  132MYC    H7426868   4.296   5.457   5.819
  132MYC    H7526869   4.208   5.609   5.800
  132MYC    C4126870   4.105   5.461   5.922
  132MYC    H7626871   4.005   5.503   5.906
  132MYC    H7726872   4.093   5.352   5.924
  132MYC    C4226873   4.160   5.509   6.058
  132MYC    H7826874   4.264   5.477   6.069
  132MYC    H7926875   4.159   5.619   6.060
  132MYC    C4326876   4.079   5.457   6.178
  132MYC    H8026877   4.119   5.496   6.271
  132MYC    H8126878   4.083   5.347   6.182
  132MYC    H8226879   3.973   5.487   6.170
  133MYC   HH1526880   3.869   6.040   6.182
  133MYC    C8026881   3.815   6.098   6.106
  133MYC   H10026882   3.707   6.082   6.121
  133MYC   H10126883   3.836   6.205   6.122
  133MYC    C7926884   3.857   6.055   5.965
  133MYC   H10226885   3.837   5.948   5.952
  133MYC   H10326886   3.966   6.069   5.955
  133MYC    C7826887   3.786   6.135   5.853
  133MYC   HH1426888   3.804   6.242   5.868
  133MYC   H10426889   3.678   6.118   5.861
  133MYC    C7726890   3.834   6.094   5.712
  133MYC   H10626891   3.815   5.987   5.697
  133MYC   H10726892   3.942   6.109   5.706
  133MYC    C7626893   3.765   6.174   5.599
  133MYC   H10826894   3.780   6.281   5.615
  133MYC   H10926895   3.657   6.155   5.603
  133MYC    C7526896   3.819   6.134   5.461
  133MYC   H11026897   3.805   6.026   5.447
  133MYC   H11126898   3.927   6.153   5.458
  133MYC    C7426899   3.752   6.208   5.343
  133MYC   H11226900   3.766   6.316   5.354
  133MYC   H11326901   3.644   6.189   5.344
  133MYC    C7326902   3.811   6.161   5.209
  133MYC   HH1326903   3.800   6.052   5.202
  133MYC   H11426904   3.919   6.181   5.210
  133MYC    C7226905   3.750   6.225   5.083
  133MYC   H11526906   3.761   6.334   5.087
  133MYC   H11626907   3.642   6.203   5.079
  133MYC    C7126908   3.819   6.169   4.958
  133MYC   H11726909   3.807   6.060   4.957
  133MYC   H11826910   3.927   6.188   4.967
  133MYC    C7026911   3.771   6.225   4.823
  133MYC   H11926912   3.780   6.335   4.822
  133MYC   H12026913   3.666   6.201   4.807
  133MYC    C6926914   3.857   6.165   4.710
  133MYC   H12126915   3.848   6.056   4.714
  133MYC   H12226916   3.962   6.189   4.730
  133MYC    C6826917   3.823   6.211   4.567
  133MYC   HH1226918   3.842   6.319   4.558
  133MYC   H12326919   3.717   6.194   4.546
  133MYC    C6726920   3.910   6.134   4.466
  133MYC   H12426921   3.882   6.028   4.470
  133MYC   H12526922   4.015   6.140   4.497
  133MYC    C6626923   3.899   6.184   4.321
  133MYC   H12626924   3.936   6.287   4.315
  133MYC   H12726925   3.794   6.185   4.289
  133MYC    C6526926   3.980   6.094   4.226
  133MYC   H12826927   3.934   5.994   4.222
  133MYC   H12926928   4.082   6.080   4.265
  133MYC    C6426929   3.990   6.150   4.083
  133MYC   H13026930   4.048   6.243   4.085
  133MYC   H13126931   3.890   6.174   4.046
  133MYC    C6326932   4.057   6.051   3.986
  133MYC   HH1126933   3.995   5.960   3.979
  133MYC   H13226934   4.154   6.020   4.025
  133MYC    C6226935   4.075   6.110   3.845
  133MYC   H13326936   4.147   6.194   3.851
  133MYC   H13426937   3.980   6.152   3.811
  133MYC    C6126938   4.125   6.008   3.742
  133MYC   H13526939   4.052   5.925   3.736
  133MYC   H13626940   4.219   5.964   3.776
  133MYC    C6026941   4.143   6.071   3.606
  133MYC   H13726942   4.224   6.144   3.604
  133MYC    C5826943   4.120   5.992   3.480
  133MYC   H13826944   4.083   5.890   3.491
  133MYC    C5926945   4.024   6.102   3.518
  133MYC   H13926946   4.027   6.194   3.461
  133MYC   H14026947   3.926   6.073   3.553
  133MYC    C5726948   4.210   6.008   3.358
  133MYC   HH1026949   4.292   5.935   3.363
  133MYC   H14126950   4.256   6.108   3.357
  133MYC    C5626951   4.130   5.988   3.229
  133MYC   H14226952   4.047   6.059   3.227
  133MYC   H14326953   4.086   5.888   3.232
  133MYC    C5526954   4.212   6.002   3.100
  133MYC   H14426955   4.295   5.930   3.101
  133MYC   H14526956   4.255   6.103   3.094
  133MYC    C5426957   4.123   5.976   2.977
  133MYC   H14626958   4.040   6.048   2.977
  133MYC   H14726959   4.079   5.877   2.987
  133MYC    C5326960   4.195   5.984   2.842
  133MYC   H14826961   4.285   5.921   2.844
  133MYC   H14926962   4.229   6.087   2.824
  133MYC    C5226963   4.103   5.940   2.727
  133MYC    H9926964   4.018   6.009   2.720
  133MYC   H15026965   4.061   5.841   2.750
  133MYC    C5126966   4.174   5.932   2.591
  133MYC    H9726967   4.252   5.855   2.594
  133MYC    H9826968   4.224   6.028   2.571
  133MYC    C5026969   4.076   5.902   2.476
  133MYC    H9526970   4.001   5.982   2.472
  133MYC    H9626971   4.022   5.809   2.497
  133MYC    C4926972   4.146   5.891   2.339
  133MYC    H9326973   4.205   5.798   2.336
  133MYC    H9426974   4.217   5.974   2.329
  133MYC    C4826975   4.047   5.895   2.221
  133MYC    H9126976   3.989   5.987   2.227
  133MYC    H9226977   3.977   5.812   2.229
  133MYC    C4726978   4.119   5.890   2.085
  133MYC    H8926979   4.169   5.793   2.074
  133MYC    H9026980   4.198   5.967   2.084
  133MYC    C4626981   4.025   5.915   1.965
  133MYC    H8726982   3.971   6.009   1.981
  133MYC    H8826983   3.949   5.835   1.961
  133MYC    C4526984   4.100   5.922   1.831
  133MYC    H8526985   4.145   5.825   1.808
  133MYC    H8626986   4.184   5.993   1.841
  133MYC    C4426987   4.013   5.967   1.712
  133MYC    H8326988   4.078   5.979   1.624
  133MYC    H8426989   3.971   6.066   1.733
  133MYC    C1826990   3.902   5.868   1.677
  133MYC    H3126991   3.933   5.765   1.686
  133MYC    C1726992   3.757   5.898   1.709
  133MYC    H3026993   3.737   5.993   1.757
  133MYC    C1926994   3.806   5.900   1.566
  133MYC    H3226995   3.815   5.995   1.516
  133MYC    H3326996   3.778   5.818   1.500
  133MYC    C1626997   3.662   5.786   1.753
  133MYC    H2826998   3.719   5.708   1.805
  133MYC    H2926999   3.621   5.737   1.664
  133MYC    C1527000   3.544   5.832   1.841
  133MYC    H2627001   3.468   5.754   1.837
  133MYC    H2727002   3.498   5.922   1.799
  133MYC    C1427003   3.582   5.857   1.989
  133MYC    H2427004   3.640   5.950   1.997
  133MYC    H2527005   3.647   5.776   2.023
  133MYC    C1327006   3.459   5.863   2.081
  133MYC    H2227007   3.400   5.772   2.067
  133MYC    H2327008   3.394   5.947   2.051
  133MYC    C1227009   3.493   5.877   2.232
  133MYC    H2027010   3.512   5.982   2.256
  133MYC    H2127011   3.585   5.821   2.253
  133MYC    C1127012   3.380   5.821   2.322
  133MYC    H1827013   3.373   5.713   2.305
  133MYC    H1927014   3.284   5.864   2.289
  133MYC    C1027015   3.394   5.846   2.474
  133MYC    H1627016   3.320   5.784   2.525
  133MYC    H1727017   3.367   5.950   2.495
  133MYC     C927018   3.534   5.819   2.534
  133MYC    H1427019   3.601   5.901   2.506
  133MYC    H1527020   3.576   5.727   2.493
  133MYC     C827021   3.529   5.808   2.688
  133MYC    H1227022   3.493   5.708   2.715
  133MYC    H1327023   3.454   5.879   2.728
  133MYC     C727024   3.663   5.836   2.759
  133MYC    H1027025   3.684   5.943   2.752
  133MYC    H1127026   3.744   5.784   2.706
  133MYC     C627027   3.663   5.791   2.907
  133MYC     H827028   3.692   5.685   2.910
  133MYC     H927029   3.561   5.796   2.947
  133MYC     C527030   3.758   5.874   2.996
  133MYC     H627031   3.716   5.975   3.008
  133MYC     H727032   3.852   5.887   2.941
  133MYC     C427033   3.790   5.810   3.134
  133MYC     H427034   3.899   5.806   3.142
  133MYC     H527035   3.758   5.705   3.134
  133MYC     C227036   3.736   5.877   3.263
  133MYC     H227037   3.793   5.830   3.344
  133MYC     O327038   3.766   6.017   3.264
  133MYC     H327039   3.707   6.060   3.199
  133MYC     C127040   3.586   5.850   3.292
  133MYC     H127041   3.571   5.741   3.289
  133MYC    C8127042   3.490   5.911   3.188
  133MYC    O8227043   3.490   6.028   3.155
  133MYC    O8327044   3.389   5.829   3.152
  133MYC   H10527045   3.332   5.882   3.094
  133MYC    C2027046   3.540   5.894   3.434
  133MYC    H3427047   3.536   6.003   3.438
  133MYC    H3527048   3.437   5.859   3.449
  133MYC    C2127049   3.627   5.843   3.551
  133MYC    H3627050   3.649   5.736   3.538
  133MYC    H3727051   3.723   5.896   3.552
  133MYC    C2227052   3.558   5.863   3.687
  133MYC    H3827053   3.519   5.966   3.692
  133MYC    H3927054   3.471   5.796   3.693
  133MYC    C2327055   3.648   5.839   3.810
  133MYC    H4027056   3.699   5.742   3.801
  133MYC    H4127057   3.726   5.916   3.813
  133MYC    C2427058   3.566   5.843   3.940
  133MYC    H4227059   3.504   5.933   3.940
  133MYC    H4327060   3.498   5.757   3.940
  133MYC    C2527061   3.650   5.840   4.069
  133MYC    H4427062   3.719   5.756   4.068
  133MYC    H4527063   3.709   5.932   4.076
  133MYC    C2627064   3.558   5.829   4.193
  133MYC    H4627065   3.479   5.905   4.186
  133MYC    H4727066   3.508   5.731   4.191
  133MYC    C2727067   3.630   5.846   4.327
  133MYC    H4827068   3.711   5.772   4.336
  133MYC    H4927069   3.676   5.945   4.331
  133MYC    C2827070   3.533   5.830   4.446
  133MYC    H5027071   3.448   5.898   4.434
  133MYC    H5127072   3.492   5.728   4.445
  133MYC    C2927073   3.599   5.856   4.582
  133MYC    H5227074   3.685   5.789   4.594
  133MYC    H5327075   3.638   5.959   4.584
  133MYC    C3027076   3.503   5.837   4.701
  133MYC    H5427077   3.416   5.903   4.688
  133MYC    H5527078   3.465   5.734   4.700
  133MYC    C3127079   3.570   5.866   4.836
  133MYC    H5627080   3.660   5.804   4.845
  133MYC    H5727081   3.603   5.970   4.838
  133MYC    C3227082   3.478   5.840   4.956
  133MYC    H5827083   3.388   5.903   4.948
  133MYC    H5927084   3.445   5.735   4.954
  133MYC    C3327085   3.549   5.869   5.090
  133MYC    H6027086   3.644   5.815   5.093
  133MYC    H6127087   3.571   5.976   5.097
  133MYC    C3427088   3.465   5.827   5.212
  133MYC    H6227089   3.368   5.878   5.208
  133MYC    H6327090   3.445   5.720   5.207
  133MYC    C3527091   3.533   5.861   5.346
  133MYC    H6427092   3.637   5.826   5.344
  133MYC    H6527093   3.536   5.970   5.358
  133MYC    C3627094   3.462   5.798   5.467
  133MYC    H6627095   3.356   5.825   5.465
  133MYC    H6727096   3.468   5.689   5.460
  133MYC    C3727097   3.524   5.843   5.601
  133MYC    H6827098   3.632   5.822   5.601
  133MYC    H6927099   3.513   5.952   5.610
  133MYC    C3827100   3.459   5.776   5.724
  133MYC    H7027101   3.351   5.794   5.722
  133MYC    H7127102   3.474   5.668   5.718
  133MYC    C3927103   3.518   5.829   5.856
  133MYC    H7227104   3.626   5.808   5.859
  133MYC    H7327105   3.507   5.938   5.858
  133MYC    C4027106   3.451   5.770   5.981
  133MYC    H7427107   3.342   5.786   5.974
  133MYC    H7527108   3.467   5.662   5.985
  133MYC    C4127109   3.503   5.835   6.111
  133MYC    H7627110   3.610   5.811   6.123
  133MYC    H7727111   3.495   5.944   6.101
  133MYC    C4227112   3.426   5.791   6.237
  133MYC    H7827113   3.319   5.803   6.219
  133MYC    H7927114   3.444   5.684   6.256
  133MYC    C4327115   3.465   5.872   6.362
  133MYC    H8027116   3.398   5.848   6.445
  133MYC    H8127117   3.456   5.980   6.342
  133MYC    H8227118   3.568   5.851   6.392
  134MYC   HH1527119   5.208   0.189   6.365
  134MYC    C8027120   5.152   0.139   6.285
  134MYC   H10027121   5.174   0.032   6.289
  134MYC   H10127122   5.045   0.153   6.305
  134MYC    C7927123   5.190   0.197   6.148
  134MYC   H10227124   5.299   0.188   6.136
  134MYC   H10327125   5.166   0.304   6.145
  134MYC    C7827126   5.120   0.125   6.031
  134MYC   HH1427127   5.012   0.141   6.039
  134MYC   H10427128   5.137   0.017   6.040
  134MYC    C7727129   5.170   0.172   5.894
  134MYC   H10627130   5.279   0.159   5.888
  134MYC   H10727131   5.149   0.279   5.882
  134MYC    C7627132   5.105   0.095   5.777
  134MYC   H10827133   4.996   0.111   5.780
  134MYC   H10927134   5.121   6.437   5.791
  134MYC    C7527135   5.160   0.138   5.640
  134MYC   H11027136   5.268   0.121   5.637
  134MYC   H11127137   5.144   0.246   5.628
  134MYC    C7427138   5.093   0.064   5.523
  134MYC   H11227139   4.984   0.077   5.529
  134MYC   H11327140   5.113   6.406   5.531
  134MYC    C7327141   5.142   0.115   5.386
  134MYC   HH1327142   5.248   0.091   5.374
  134MYC   H11427143   5.134   0.224   5.385
  134MYC    C7227144   5.062   0.059   5.267
  134MYC   H11527145   4.955   0.074   5.286
  134MYC   H11627146   5.078   6.400   5.259
  134MYC    C7127147   5.100   0.127   5.134
  134MYC   H11727148   5.200   0.094   5.103
  134MYC   H11827149   5.106   0.235   5.151
  134MYC    C7027150   4.999   0.101   5.021
  134MYC   H11927151   4.898   0.124   5.057
  134MYC   H12027152   5.001   6.445   4.993
  134MYC    C6927153   5.029   0.189   4.897
  134MYC   H12127154   5.126   0.160   4.856
  134MYC   H12227155   5.036   0.293   4.929
  134MYC    C6827156   4.921   0.178   4.787
  134MYC   HH1227157   4.823   0.202   4.830
  134MYC   H12327158   4.917   0.075   4.751
  134MYC    C6727159   4.950   0.273   4.670
  134MYC   H12427160   5.051   0.253   4.632
  134MYC   H12527161   4.950   0.377   4.706
  134MYC    C6627162   4.849   0.260   4.554
  134MYC   H12627163   4.749   0.288   4.589
  134MYC   H12727164   4.845   0.155   4.523
  134MYC    C6527165   4.888   0.347   4.433
  134MYC   H12827166   4.992   0.325   4.406
  134MYC   H12927167   4.885   0.453   4.462
  134MYC    C6427168   4.798   0.325   4.311
  134MYC   H13027169   4.697   0.362   4.331
  134MYC   H13127170   4.790   0.217   4.292
  134MYC    C6327171   4.854   0.393   4.184
  134MYC   HH1127172   4.957   0.359   4.169
  134MYC   H13227173   4.858   0.502   4.200
  134MYC    C6227174   4.772   0.362   4.058
  134MYC   H13327175   4.673   0.410   4.066
  134MYC   H13427176   4.755   0.254   4.052
  134MYC    C6127177   4.842   0.410   3.930
  134MYC   H13527178   4.943   0.367   3.927
  134MYC   H13627179   4.854   0.519   3.932
  134MYC    C6027180   4.767   0.369   3.804
  134MYC   H13727181   4.676   0.426   3.789
  134MYC    C5827182   4.844   0.329   3.680
  134MYC   H13827183   4.952   0.323   3.690
  134MYC    C5927184   4.765   0.225   3.757
  134MYC   H13927185   4.673   0.188   3.712
  134MYC   H14027186   4.820   0.152   3.814
  134MYC    C5727187   4.801   0.375   3.542
  134MYC   HH1027188   4.840   0.477   3.526
  134MYC   H14127189   4.692   0.381   3.535
  134MYC    C5627190   4.854   0.282   3.432
  134MYC   H14227191   4.803   0.185   3.436
  134MYC   H14327192   4.961   0.263   3.451
  134MYC    C5527193   4.840   0.343   3.291
  134MYC   H14427194   4.883   0.444   3.292
  134MYC   H14527195   4.734   0.352   3.266
  134MYC    C5427196   4.911   0.260   3.182
  134MYC   H14627197   4.854   0.168   3.164
  134MYC   H14727198   5.010   0.229   3.217
  134MYC    C5327199   4.925   0.338   3.050
  134MYC   H14827200   4.968   0.438   3.071
  134MYC   H14927201   4.826   0.354   3.007
  134MYC    C5227202   5.015   0.267   2.947
  134MYC    H9927203   4.976   0.166   2.930
  134MYC   H15027204   5.116   0.257   2.988
  134MYC    C5127205   5.022   0.343   2.812
  134MYC    H9727206   5.072   0.439   2.827
  134MYC    H9827207   4.920   0.364   2.779
  134MYC    C5027208   5.095   0.262   2.703
  134MYC    H9527209   5.051   0.162   2.699
  134MYC    H9627210   5.201   0.250   2.730
  134MYC    C4927211   5.085   0.327   2.563
  134MYC    H9327212   5.150   0.416   2.559
  134MYC    H9427213   4.983   0.362   2.547
  134MYC    C4827214   5.123   0.229   2.450
  134MYC    H9127215   5.058   0.141   2.458
  134MYC    H9227216   5.226   0.195   2.465
  134MYC    C4727217   5.108   0.290   2.309
  134MYC    H8927218   5.183   0.369   2.295
  134MYC    H9027219   5.009   0.336   2.300
  134MYC    C4627220   5.124   0.182   2.199
  134MYC    H8727221   5.042   0.110   2.208
  134MYC    H8827222   5.217   0.127   2.216
  134MYC    C4527223   5.127   0.238   2.054
  134MYC    H8527224   5.148   0.154   1.986
  134MYC    H8627225   5.210   0.308   2.046
  134MYC    C4427226   4.997   0.308   2.007
  134MYC    H8327227   5.017   0.349   1.907
  134MYC    H8427228   4.978   0.395   2.071
  134MYC    C1827229   4.874   0.218   2.000
  134MYC    H3127230   4.895   0.113   2.017
  134MYC    C1727231   4.738   0.269   2.045
  134MYC    H3027232   4.736   0.372   2.079
  134MYC    C1927233   4.766   0.248   1.898
  134MYC    H3227234   4.776   0.336   1.836
  134MYC    H3327235   4.720   0.163   1.849
  134MYC    C1627236   4.639   0.180   2.120
  134MYC    H2827237   4.678   0.160   2.220
  134MYC    H2927238   4.633   0.082   2.070
  134MYC    C1527239   4.496   0.237   2.131
  134MYC    H2627240   4.432   0.161   2.177
  134MYC    H2727241   4.455   0.257   2.031
  134MYC    C1427242   4.487   0.366   2.216
  134MYC    H2427243   4.534   0.449   2.162
  134MYC    H2527244   4.546   0.352   2.308
  134MYC    C1327245   4.344   0.408   2.256
  134MYC    H2227246   4.295   0.324   2.307
  134MYC    H2327247   4.285   0.430   2.165
  134MYC    C1227248   4.344   0.532   2.349
  134MYC    H2027249   4.385   0.618   2.295
  134MYC    H2127250   4.413   0.513   2.431
  134MYC    C1127251   4.204   0.569   2.404
  134MYC    H1827252   4.152   0.478   2.438
  134MYC    H1927253   4.144   0.608   2.321
  134MYC    C1027254   4.206   0.674   2.518
  134MYC    H1627255   4.120   0.739   2.506
  134MYC    H1727256   4.295   0.738   2.508
  134MYC     C927257   4.200   0.615   2.662
  134MYC    H1427258   4.114   0.548   2.668
  134MYC    H1527259   4.180   0.697   2.732
  134MYC     C827260   4.328   0.542   2.708
  134MYC    H1227261   4.410   0.614   2.716
  134MYC    H1327262   4.357   0.467   2.634
  134MYC     C727263   4.310   0.468   2.842
  134MYC    H1027264   4.236   0.389   2.828
  134MYC    H1127265   4.270   0.538   2.916
  134MYC     C627266   4.441   0.405   2.895
  134MYC     H827267   4.507   0.485   2.931
  134MYC     H927268   4.494   0.358   2.812
  134MYC     C527269   4.420   0.298   3.005
  134MYC     H627270   4.518   0.261   3.040
  134MYC     H727271   4.370   0.212   2.959
  134MYC     C427272   4.335   0.342   3.127
  134MYC     H427273   4.302   0.251   3.179
  134MYC     H527274   4.243   0.388   3.091
  134MYC     C227275   4.402   0.433   3.235
  134MYC     H227276   4.427   0.366   3.319
  134MYC     O327277   4.523   0.492   3.189
  134MYC     H327278   4.500   0.560   3.123
  134MYC     C127279   4.306   0.543   3.289
  134MYC     H127280   4.211   0.493   3.315
  134MYC    C8127281   4.272   0.649   3.181
  134MYC    O8227282   4.354   0.721   3.128
  134MYC    O8327283   4.140   0.660   3.154
  134MYC   H10527284   4.133   0.731   3.088
  134MYC    C2027285   4.356   0.612   3.418
  134MYC    H3427286   4.459   0.646   3.405
  134MYC    H3527287   4.295   0.702   3.435
  134MYC    C2127288   4.347   0.523   3.544
  134MYC    H3627289   4.246   0.480   3.551
  134MYC    H3727290   4.417   0.439   3.535
  134MYC    C2227291   4.377   0.599   3.674
  134MYC    H3827292   4.481   0.634   3.672
  134MYC    H3927293   4.313   0.688   3.679
  134MYC    C2327294   4.355   0.513   3.799
  134MYC    H4027295   4.251   0.476   3.799
  134MYC    H4127296   4.421   0.426   3.795
  134MYC    C2427297   4.380   0.590   3.930
  134MYC    H4227298   4.485   0.623   3.933
  134MYC    H4327299   4.318   0.681   3.931
  134MYC    C2527300   4.349   0.505   4.054
  134MYC    H4427301   4.245   0.473   4.050
  134MYC    H4527302   4.411   0.415   4.052
  134MYC    C2627303   4.374   0.580   4.186
  134MYC    H4627304   4.479   0.611   4.192
  134MYC    H4727305   4.314   0.672   4.187
  134MYC    C2727306   4.339   0.494   4.308
  134MYC    H4827307   4.236   0.458   4.298
  134MYC    H4927308   4.404   0.405   4.310
  134MYC    C2827309   4.353   0.570   4.441
  134MYC    H5027310   4.456   0.607   4.451
  134MYC    H5127311   4.287   0.658   4.438
  134MYC    C2927312   4.317   0.483   4.563
  134MYC    H5227313   4.219   0.438   4.547
  134MYC    H5327314   4.390   0.401   4.571
  134MYC    C3027315   4.316   0.563   4.694
  134MYC    H5427316   4.411   0.617   4.705
  134MYC    H5527317   4.237   0.639   4.688
  134MYC    C3127318   4.293   0.476   4.819
  134MYC    H5627319   4.205   0.413   4.803
  134MYC    H5727320   4.379   0.409   4.831
  134MYC    C3227321   4.274   0.560   4.946
  134MYC    H5827322   4.351   0.637   4.950
  134MYC    H5927323   4.178   0.612   4.939
  134MYC    C3327324   4.279   0.479   5.076
  134MYC    H6027325   4.216   0.389   5.066
  134MYC    H6127326   4.381   0.444   5.094
  134MYC    C3427327   4.230   0.561   5.197
  134MYC    H6227328   4.279   0.659   5.195
  134MYC    H6327329   4.123   0.580   5.186
  134MYC    C3527330   4.258   0.498   5.334
  134MYC    H6427331   4.228   0.392   5.334
  134MYC    H6527332   4.366   0.500   5.353
  134MYC    C3627333   4.184   0.572   5.447
  134MYC    H6627334   4.188   0.680   5.429
  134MYC    H6727335   4.078   0.543   5.444
  134MYC    C3727336   4.241   0.544   5.587
  134MYC    H6827337   4.247   0.436   5.603
  134MYC    H6927338   4.343   0.584   5.592
  134MYC    C3827339   4.156   0.607   5.699
  134MYC    H7027340   4.141   0.714   5.678
  134MYC    H7127341   4.056   0.561   5.699
  134MYC    C3927342   4.219   0.591   5.838
  134MYC    H7227343   4.241   0.485   5.856
  134MYC    H7327344   4.315   0.645   5.840
  134MYC    C4027345   4.129   0.644   5.952
  134MYC    H7427346   4.107   0.750   5.934
  134MYC    H7527347   4.034   0.590   5.950
  134MYC    C4127348   4.195   0.628   6.090
  134MYC    H7627349   4.225   0.523   6.104
  134MYC    H7727350   4.287   0.688   6.094
  134MYC    C4227351   4.103   0.670   6.206
  134MYC    H7827352   4.078   0.776   6.195
  134MYC    H7927353   4.009   0.613   6.200
  134MYC    C4327354   4.167   0.648   6.344
  134MYC    H8027355   4.094   0.670   6.423
  134MYC    H8127356   4.254   0.712   6.358
  134MYC    H8227357   4.198   0.543   6.356
  135MYC   HH1527358   4.628   0.684   6.218
  135MYC    C8027359   4.671   0.743   6.137
  135MYC   H10027360   4.650   0.849   6.155
  135MYC   H10127361   4.780   0.728   6.138
  135MYC    C7927362   4.612   0.698   6.002
  135MYC   H10227363   4.504   0.715   6.003
  135MYC   H10327364   4.628   0.590   5.991
  135MYC    C7827365   4.674   0.771   5.880
  135MYC   HH1427366   4.783   0.753   5.879
  135MYC   H10427367   4.660   0.879   5.891
  135MYC    C7727368   4.613   0.725   5.746
  135MYC   H10627369   4.508   0.756   5.742
  135MYC   H10727370   4.614   0.615   5.743
  135MYC    C7627371   4.687   0.778   5.622
  135MYC   H10827372   4.792   0.744   5.626
  135MYC   H10927373   4.689   0.888   5.625
  135MYC    C7527374   4.622   0.731   5.491
  135MYC   H11027375   4.524   0.779   5.480
  135MYC   H11127376   4.605   0.623   5.496
  135MYC    C7427377   4.707   0.760   5.365
  135MYC   H11227378   4.803   0.708   5.374
  135MYC   H11327379   4.728   0.868   5.358
  135MYC    C7327380   4.635   0.714   5.236
  135MYC   HH1327381   4.546   0.776   5.221
  135MYC   H11427382   4.600   0.611   5.250
  135MYC    C7227383   4.723   0.720   5.110
  135MYC   H11527384   4.813   0.660   5.126
  135MYC   H11627385   4.756   0.823   5.091
  135MYC    C7127386   4.648   0.666   4.986
  135MYC   H11727387   4.560   0.730   4.968
  135MYC   H11827388   4.609   0.567   5.010
  135MYC    C7027389   4.732   0.655   4.857
  135MYC   H11927390   4.716   0.555   4.815
  135MYC   H12027391   4.839   0.662   4.881
  135MYC    C6927392   4.696   0.760   4.750
  135MYC   H12127393   4.729   0.860   4.782
  135MYC   H12227394   4.587   0.765   4.739
  135MYC    C6827395   4.758   0.727   4.612
  135MYC   HH1227396   4.737   0.622   4.589
  135MYC   H12327397   4.867   0.737   4.618
  135MYC    C6727398   4.703   0.814   4.498
  135MYC   H12427399   4.734   0.918   4.512
  135MYC   H12527400   4.593   0.812   4.500
  135MYC    C6627401   4.751   0.765   4.360
  135MYC   H12627402   4.724   0.660   4.348
  135MYC   H12727403   4.861   0.771   4.356
  135MYC    C6527404   4.692   0.845   4.242
  135MYC   H12827405   4.722   0.950   4.250
  135MYC   H12927406   4.582   0.843   4.248
  135MYC    C6427407   4.736   0.788   4.106
  135MYC   H13027408   4.708   0.682   4.101
  135MYC   H13127409   4.846   0.792   4.100
  135MYC    C6327410   4.676   0.862   3.985
  135MYC   HH1127411   4.705   0.967   3.989
  135MYC   H13227412   4.567   0.857   3.991
  135MYC    C6227413   4.724   0.800   3.852
  135MYC   H13327414   4.698   0.694   3.850
  135MYC   H13427415   4.834   0.806   3.848
  135MYC    C6127416   4.665   0.869   3.728
  135MYC   H13527417   4.688   0.976   3.732
  135MYC   H13627418   4.556   0.860   3.730
  135MYC    C6027419   4.720   0.808   3.600
  135MYC   H13727420   4.695   0.702   3.590
  135MYC    C5827421   4.727   0.888   3.472
  135MYC   H13827422   4.695   0.992   3.479
  135MYC    C5927423   4.854   0.851   3.545
  135MYC   H13927424   4.917   0.774   3.501
  135MYC   H14027425   4.907   0.930   3.597
  135MYC    C5727426   4.692   0.825   3.338
  135MYC   HH1027427   4.584   0.822   3.327
  135MYC   H14127428   4.728   0.721   3.335
  135MYC    C5627429   4.752   0.903   3.220
  135MYC   H14227430   4.860   0.917   3.235
  135MYC   H14327431   4.707   1.003   3.217
  135MYC    C5527432   4.729   0.832   3.085
  135MYC   H14427433   4.624   0.801   3.079
  135MYC   H14527434   4.790   0.741   3.082
  135MYC    C5427435   4.762   0.921   2.964
  135MYC   H14627436   4.868   0.952   2.968
  135MYC   H14727437   4.702   1.013   2.970
  135MYC    C5327438   4.733   0.850   2.831
  135MYC   H14827439   4.632   0.809   2.834
  135MYC   H14927440   4.802   0.765   2.820
  135MYC    C5227441   4.746   0.942   2.708
  135MYC    H9927442   4.849   0.976   2.698
  135MYC   H15027443   4.683   1.031   2.722
  135MYC    C5127444   4.702   0.870   2.579
  135MYC    H9727445   4.599   0.835   2.591
  135MYC    H9827446   4.764   0.780   2.566
  135MYC    C5027447   4.711   0.956   2.452
  135MYC    H9527448   4.816   0.986   2.435
  135MYC    H9627449   4.653   1.048   2.465
  135MYC    C4927450   4.659   0.879   2.329
  135MYC    H9327451   4.551   0.860   2.342
  135MYC    H9427452   4.708   0.781   2.326
  135MYC    C4827453   4.682   0.949   2.194
  135MYC    H9127454   4.790   0.967   2.181
  135MYC    H9227455   4.633   1.047   2.194
  135MYC    C4727456   4.628   0.864   2.078
  135MYC    H8927457   4.519   0.866   2.080
  135MYC    H9027458   4.658   0.759   2.095
  135MYC    C4627459   4.678   0.906   1.939
  135MYC    H8727460   4.788   0.909   1.940
  135MYC    H8827461   4.643   1.007   1.915
  135MYC    C4527462   4.632   0.808   1.829
  135MYC    H8527463   4.527   0.829   1.803
  135MYC    H8627464   4.634   0.705   1.868
  135MYC    C4427465   4.719   0.809   1.701
  135MYC    H8327466   4.681   0.731   1.635
  135MYC    H8427467   4.821   0.780   1.728
  135MYC    C1827468   4.720   0.941   1.626
  135MYC    H3127469   4.624   0.992   1.628
  135MYC    C1727470   4.844   1.027   1.613
  135MYC    H3027471   4.936   0.991   1.659
  135MYC    C1927472   4.794   0.948   1.495
  135MYC    H3227473   4.851   0.860   1.465
  135MYC    H3327474   4.746   1.001   1.414
  135MYC    C1627475   4.836   1.180   1.605
  135MYC    H2827476   4.731   1.211   1.609
  135MYC    H2927477   4.872   1.212   1.507
  135MYC    C1527478   4.915   1.257   1.713
  135MYC    H2627479   4.901   1.364   1.694
  135MYC    H2727480   5.022   1.238   1.700
  135MYC    C1427481   4.875   1.226   1.859
  135MYC    H2427482   4.913   1.127   1.887
  135MYC    H2527483   4.766   1.223   1.868
  135MYC    C1327484   4.931   1.333   1.956
  135MYC    H2227485   4.877   1.427   1.939
  135MYC    H2327486   5.036   1.352   1.931
  135MYC    C1227487   4.923   1.296   2.106
  135MYC    H2027488   4.983   1.206   2.123
  135MYC    H2127489   4.820   1.272   2.134
  135MYC    C1127490   4.976   1.411   2.195
  135MYC    H1827491   4.899   1.489   2.204
  135MYC    H1927492   5.060   1.459   2.143
  135MYC    C1027493   5.027   1.369   2.334
  135MYC    H1627494   5.100   1.443   2.366
  135MYC    H1727495   5.081   1.274   2.326
  135MYC     C927496   4.920   1.358   2.446
  135MYC    H1427497   4.838   1.293   2.414
  135MYC    H1527498   4.878   1.458   2.464
  135MYC     C827499   4.983   1.303   2.576
  135MYC    H1227500   5.085   1.342   2.585
  135MYC    H1327501   4.992   1.194   2.566
  135MYC     C727502   4.909   1.337   2.706
  135MYC    H1027503   4.805   1.303   2.701
  135MYC    H1127504   4.907   1.446   2.719
  135MYC     C627505   4.979   1.272   2.828
  135MYC     H827506   5.088   1.287   2.819
  135MYC     H927507   4.963   1.164   2.823
  135MYC     C527508   4.935   1.322   2.967
  135MYC     H627509   4.982   1.256   3.041
  135MYC     H727510   4.827   1.310   2.978
  135MYC     C427511   4.974   1.470   2.998
  135MYC     H427512   4.892   1.535   2.966
  135MYC     H527513   5.062   1.499   2.940
  135MYC     C227514   5.004   1.491   3.149
  135MYC     H227515   4.929   1.432   3.204
  135MYC     O327516   5.134   1.440   3.177
  135MYC     H327517   5.199   1.503   3.141
  135MYC     C127518   4.991   1.638   3.200
  135MYC     H127519   4.886   1.666   3.193
  135MYC    C8127520   5.070   1.738   3.113
  135MYC    O8227521   5.190   1.730   3.091
  135MYC    O8327522   4.998   1.845   3.072
  135MYC   H10527523   5.061   1.903   3.027
  135MYC    C2027524   5.030   1.656   3.350
  135MYC    H3427525   5.139   1.648   3.361
  135MYC    H3527526   5.003   1.757   3.382
  135MYC    C2127527   4.963   1.554   3.445
  135MYC    H3627528   4.854   1.558   3.432
  135MYC    H3727529   4.995   1.452   3.418
  135MYC    C2227530   4.997   1.574   3.593
  135MYC    H3827531   5.106   1.578   3.605
  135MYC    H3927532   4.958   1.671   3.627
  135MYC    C2327533   4.940   1.461   3.682
  135MYC    H4027534   4.831   1.459   3.673
  135MYC    H4127535   4.977   1.364   3.645
  135MYC    C2427536   4.980   1.476   3.830
  135MYC    H4227537   5.089   1.471   3.839
  135MYC    H4327538   4.949   1.575   3.865
  135MYC    C2527539   4.916   1.368   3.920
  135MYC    H4427540   4.807   1.374   3.912
  135MYC    H4527541   4.945   1.268   3.884
  135MYC    C2627542   4.959   1.384   4.067
  135MYC    H4627543   5.067   1.366   4.075
  135MYC    H4727544   4.941   1.487   4.098
  135MYC    C2727545   4.884   1.290   4.164
  135MYC    H4827546   4.776   1.308   4.156
  135MYC    H4927547   4.901   1.185   4.135
  135MYC    C2827548   4.930   1.311   4.309
  135MYC    H5027549   5.035   1.281   4.319
  135MYC    H5127550   4.926   1.418   4.333
  135MYC    C2927551   4.845   1.235   4.413
  135MYC    H5227552   4.741   1.269   4.407
  135MYC    H5327553   4.846   1.128   4.390
  135MYC    C3027554   4.898   1.257   4.557
  135MYC    H5427555   4.996   1.210   4.566
  135MYC    H5527556   4.912   1.364   4.574
  135MYC    C3127557   4.804   1.202   4.666
  135MYC    H5627558   4.708   1.255   4.661
  135MYC    H5727559   4.783   1.096   4.647
  135MYC    C3227560   4.863   1.218   4.807
  135MYC    H5827561   4.953   1.155   4.815
  135MYC    H5927562   4.896   1.321   4.821
  135MYC    C3327563   4.765   1.181   4.919
  135MYC    H6027564   4.678   1.248   4.915
  135MYC    H6127565   4.727   1.079   4.904
  135MYC    C3427566   4.830   1.190   5.058
  135MYC    H6227567   4.909   1.114   5.066
  135MYC    H6327568   4.880   1.288   5.067
  135MYC    C3527569   4.732   1.174   5.175
  135MYC    H6427570   4.655   1.252   5.169
  135MYC    H6527571   4.680   1.077   5.167
  135MYC    C3627572   4.804   1.183   5.311
  135MYC    H6627573   4.873   1.099   5.320
  135MYC    H6727574   4.864   1.275   5.313
  135MYC    C3727575   4.709   1.185   5.433
  135MYC    H6827576   4.642   1.271   5.426
  135MYC    H6927577   4.647   1.095   5.433
  135MYC    C3827578   4.789   1.193   5.565
  135MYC    H7027579   4.853   1.104   5.573
  135MYC    H7127580   4.855   1.280   5.561
  135MYC    C3927581   4.701   1.203   5.691
  135MYC    H7227582   4.640   1.294   5.686
  135MYC    H7327583   4.632   1.118   5.695
  135MYC    C4027584   4.787   1.205   5.819
  135MYC    H7427585   4.848   1.114   5.823
  135MYC    H7527586   4.857   1.290   5.814
  135MYC    C4127587   4.705   1.216   5.949
  135MYC    H7627588   4.646   1.308   5.948
  135MYC    H7727589   4.634   1.132   5.954
  135MYC    C4227590   4.794   1.213   6.075
  135MYC    H7827591   4.852   1.120   6.077
  135MYC    H7927592   4.866   1.296   6.071
  135MYC    C4327593   4.714   1.224   6.207
  135MYC    H8027594   4.782   1.221   6.293
  135MYC    H8127595   4.643   1.141   6.216
  135MYC    H8227596   4.658   1.319   6.210
  136MYC   HH1527597   4.836   2.108   6.164
  136MYC    C8027598   4.839   2.052   6.070
  136MYC   H10027599   4.921   1.979   6.076
  136MYC   H10127600   4.745   1.997   6.060
  136MYC    C7927601   4.859   2.146   5.951
  136MYC   H10227602   4.953   2.202   5.965
  136MYC   H10327603   4.778   2.220   5.949
  136MYC    C7827604   4.863   2.073   5.815
  136MYC   HH1427605   4.768   2.021   5.799
  136MYC   H10427606   4.941   1.996   5.818
  136MYC    C7727607   4.891   2.168   5.696
  136MYC   H10627608   4.988   2.216   5.711
  136MYC   H10727609   4.815   2.247   5.695
  136MYC    C7627610   4.890   2.095   5.560
  136MYC   H10827611   4.790   2.054   5.542
  136MYC   H10927612   4.959   2.010   5.564
  136MYC    C7527613   4.930   2.187   5.443
  136MYC   H11027614   5.030   2.227   5.461
  136MYC   H11127615   4.861   2.273   5.439
  136MYC    C7427616   4.927   2.115   5.307
  136MYC   H11227617   4.824   2.080   5.287
  136MYC   H11327618   4.990   2.025   5.313
  136MYC    C7327619   4.974   2.203   5.190
  136MYC   HH1327620   5.079   2.233   5.207
  136MYC   H11427621   4.914   2.295   5.187
  136MYC    C7227622   4.962   2.131   5.054
  136MYC   H11527623   4.858   2.099   5.041
  136MYC   H11627624   5.023   2.039   5.056
  136MYC    C7127625   5.004   2.218   4.934
  136MYC   H11727626   5.113   2.233   4.935
  136MYC   H11827627   4.958   2.317   4.944
  136MYC    C7027628   4.960   2.155   4.800
  136MYC   H11927629   4.852   2.139   4.804
  136MYC   H12027630   5.007   2.057   4.789
  136MYC    C6927631   4.994   2.242   4.678
  136MYC   H12127632   5.102   2.239   4.658
  136MYC   H12227633   4.967   2.347   4.698
  136MYC    C6827634   4.916   2.196   4.553
  136MYC   HH1227635   4.809   2.209   4.572
  136MYC   H12327636   4.933   2.089   4.537
  136MYC    C6727637   4.953   2.273   4.424
  136MYC   H12427638   5.057   2.249   4.397
  136MYC   H12527639   4.948   2.381   4.443
  136MYC    C6627640   4.858   2.238   4.308
  136MYC   H12627641   4.760   2.284   4.328
  136MYC   H12727642   4.843   2.130   4.306
  136MYC    C6527643   4.910   2.284   4.170
  136MYC   H12827644   5.005   2.235   4.150
  136MYC   H12927645   4.928   2.392   4.171
  136MYC    C6427646   4.809   2.250   4.059
  136MYC   H13027647   4.723   2.317   4.066
  136MYC   H13127648   4.771   2.148   4.076
  136MYC    C6327649   4.868   2.255   3.917
  136MYC   HH1127650   4.956   2.190   3.912
  136MYC   H13227651   4.901   2.357   3.894
  136MYC    C6227652   4.764   2.209   3.812
  136MYC   H13327653   4.683   2.283   3.805
  136MYC   H13427654   4.719   2.116   3.848
  136MYC    C6127655   4.822   2.183   3.672
  136MYC   H13527656   4.910   2.118   3.681
  136MYC   H13627657   4.858   2.278   3.629
  136MYC    C6027658   4.719   2.119   3.581
  136MYC   H13727659   4.638   2.188   3.555
  136MYC    C5827660   4.756   2.015   3.478
  136MYC   H13827661   4.860   1.984   3.474
  136MYC    C5927662   4.679   1.975   3.601
  136MYC   H13927663   4.574   1.950   3.589
  136MYC   H14027664   4.731   1.917   3.676
  136MYC    C5727665   4.689   2.015   3.341
  136MYC   HH1027666   4.587   2.053   3.350
  136MYC   H14127667   4.681   1.911   3.305
  136MYC    C5627668   4.767   2.099   3.239
  136MYC   H14227669   4.865   2.053   3.221
  136MYC   H14327670   4.784   2.199   3.280
  136MYC    C5527671   4.692   2.112   3.105
  136MYC   H14427672   4.597   2.165   3.122
  136MYC   H14527673   4.666   2.013   3.067
  136MYC    C5427674   4.773   2.187   2.998
  136MYC   H14627675   4.858   2.125   2.968
  136MYC   H14727676   4.814   2.279   3.041
  136MYC    C5327677   4.689   2.222   2.874
  136MYC   H14827678   4.606   2.287   2.902
  136MYC   H14927679   4.645   2.128   2.836
  136MYC    C5227680   4.771   2.288   2.762
  136MYC    H9927681   4.860   2.226   2.744
  136MYC   H15027682   4.807   2.386   2.794
  136MYC    C5127683   4.690   2.301   2.631
  136MYC    H9727684   4.634   2.395   2.631
  136MYC    H9827685   4.614   2.221   2.629
  136MYC    C5027686   4.775   2.290   2.503
  136MYC    H9527687   4.852   2.213   2.516
  136MYC    H9627688   4.827   2.385   2.484
  136MYC    C4927689   4.688   2.251   2.381
  136MYC    H9327690   4.615   2.331   2.363
  136MYC    H9427691   4.632   2.161   2.406
  136MYC    C4827692   4.768   2.224   2.253
  136MYC    H9127693   4.845   2.148   2.272
  136MYC    H9227694   4.820   2.316   2.223
  136MYC    C4727695   4.676   2.176   2.138
  136MYC    H8927696   4.593   2.247   2.128
  136MYC    H9027697   4.632   2.079   2.167
  136MYC    C4627698   4.748   2.162   2.002
  136MYC    H8727699   4.822   2.081   2.006
  136MYC    H8827700   4.803   2.255   1.983
  136MYC    C4527701   4.650   2.140   1.884
  136MYC    H8527702   4.703   2.162   1.791
  136MYC    H8627703   4.570   2.214   1.891
  136MYC    C4427704   4.588   1.998   1.875
  136MYC    H8327705   4.488   2.008   1.830
  136MYC    H8427706   4.571   1.957   1.976
  136MYC    C1827707   4.672   1.901   1.793
  136MYC    H3127708   4.770   1.884   1.836
  136MYC    C1727709   4.609   1.786   1.716
  136MYC    H3027710   4.501   1.778   1.718
  136MYC    C1927711   4.664   1.906   1.642
  136MYC    H3227712   4.593   1.973   1.597
  136MYC    H3327713   4.757   1.893   1.587
  136MYC    C1627714   4.679   1.651   1.704
  136MYC    H2827715   4.783   1.659   1.739
  136MYC    H2927716   4.685   1.623   1.598
  136MYC    C1527717   4.610   1.536   1.781
  136MYC    H2627718   4.668   1.444   1.767
  136MYC    H2727719   4.511   1.518   1.737
  136MYC    C1427720   4.592   1.563   1.931
  136MYC    H2427721   4.529   1.652   1.945
  136MYC    H2527722   4.690   1.586   1.976
  136MYC    C1327723   4.528   1.445   2.008
  136MYC    H2227724   4.597   1.359   2.007
  136MYC    H2327725   4.436   1.414   1.957
  136MYC    C1227726   4.495   1.484   2.153
  136MYC    H2027727   4.425   1.568   2.150
  136MYC    H2127728   4.587   1.519   2.201
  136MYC    C1127729   4.433   1.370   2.237
  136MYC    H1827730   4.506   1.290   2.252
  136MYC    H1927731   4.349   1.327   2.181
  136MYC    C1027732   4.379   1.420   2.373
  136MYC    H1627733   4.319   1.341   2.420
  136MYC    H1727734   4.311   1.503   2.354
  136MYC     C927735   4.488   1.465   2.473
  136MYC    H1427736   4.568   1.519   2.421
  136MYC    H1527737   4.535   1.377   2.519
  136MYC     C827738   4.432   1.558   2.583
  136MYC    H1227739   4.353   1.506   2.638
  136MYC    H1327740   4.387   1.645   2.535
  136MYC     C727741   4.540   1.606   2.682
  136MYC    H1027742   4.627   1.643   2.626
  136MYC    H1127743   4.574   1.521   2.741
  136MYC     C627744   4.489   1.720   2.773
  136MYC     H827745   4.398   1.687   2.825
  136MYC     H927746   4.460   1.804   2.710
  136MYC     C527747   4.594   1.772   2.876
  136MYC     H627748   4.557   1.865   2.921
  136MYC     H727749   4.685   1.798   2.821
  136MYC     C427750   4.630   1.672   2.988
  136MYC     H427751   4.728   1.701   3.026
  136MYC     H527752   4.646   1.572   2.945
  136MYC     C227753   4.534   1.663   3.111
  136MYC     H227754   4.577   1.729   3.187
  136MYC     O327755   4.403   1.711   3.081
  136MYC     H327756   4.358   1.643   3.028
  136MYC     C127757   4.527   1.519   3.170
  136MYC     H127758   4.630   1.486   3.188
  136MYC    C8127759   4.462   1.417   3.073
  136MYC    O8227760   4.351   1.429   3.024
  136MYC    O8327761   4.533   1.303   3.057
  136MYC   H10527762   4.478   1.245   3.003
  136MYC    C2027763   4.456   1.511   3.307
  136MYC    H3427764   4.351   1.541   3.297
  136MYC    H3527765   4.455   1.406   3.339
  136MYC    C2127766   4.523   1.596   3.418
  136MYC    H3627767   4.631   1.593   3.405
  136MYC    H3727768   4.492   1.701   3.407
  136MYC    C2227769   4.489   1.546   3.559
  136MYC    H3827770   4.380   1.547   3.573
  136MYC    H3927771   4.522   1.442   3.569
  136MYC    C2327772   4.555   1.630   3.670
  136MYC    H4027773   4.663   1.638   3.651
  136MYC    H4127774   4.515   1.732   3.668
  136MYC    C2427775   4.533   1.569   3.810
  136MYC    H4227776   4.425   1.566   3.831
  136MYC    H4327777   4.569   1.466   3.810
  136MYC    C2527778   4.605   1.647   3.922
  136MYC    H4427779   4.712   1.650   3.901
  136MYC    H4527780   4.569   1.751   3.923
  136MYC    C2627781   4.580   1.583   4.060
  136MYC    H4627782   4.473   1.584   4.081
  136MYC    H4727783   4.611   1.477   4.056
  136MYC    C2727784   4.656   1.652   4.174
  136MYC    H4827785   4.764   1.649   4.154
  136MYC    H4927786   4.627   1.758   4.178
  136MYC    C2827787   4.627   1.587   4.310
  136MYC    H5027788   4.519   1.596   4.332
  136MYC    H5127789   4.649   1.479   4.304
  136MYC    C2927790   4.707   1.647   4.427
  136MYC    H5227791   4.814   1.631   4.409
  136MYC    H5327792   4.691   1.756   4.429
  136MYC    C3027793   4.667   1.587   4.562
  136MYC    H5427794   4.562   1.610   4.581
  136MYC    H5527795   4.675   1.477   4.557
  136MYC    C3127796   4.752   1.637   4.680
  136MYC    H5627797   4.856   1.604   4.667
  136MYC    H5727798   4.753   1.747   4.679
  136MYC    C3227799   4.699   1.588   4.816
  136MYC    H5827800   4.597   1.626   4.829
  136MYC    H5927801   4.693   1.479   4.815
  136MYC    C3327802   4.785   1.634   4.935
  136MYC    H6027803   4.884   1.587   4.929
  136MYC    H6127804   4.800   1.742   4.930
  136MYC    C3427805   4.719   1.598   5.070
  136MYC    H6227806   4.621   1.647   5.075
  136MYC    H6327807   4.701   1.490   5.074
  136MYC    C3527808   4.803   1.640   5.192
  136MYC    H6427809   4.895   1.582   5.195
  136MYC    H6527810   4.831   1.746   5.183
  136MYC    C3627811   4.725   1.620   5.324
  136MYC    H6627812   4.635   1.683   5.321
  136MYC    H6727813   4.691   1.516   5.330
  136MYC    C3727814   4.806   1.654   5.451
  136MYC    H6827815   4.889   1.582   5.461
  136MYC    H6927816   4.851   1.754   5.441
  136MYC    C3827817   4.718   1.650   5.577
  136MYC    H7027818   4.642   1.729   5.570
  136MYC    H7127819   4.665   1.554   5.581
  136MYC    C3927820   4.796   1.668   5.709
  136MYC    H7227821   4.866   1.584   5.720
  136MYC    H7327822   4.856   1.760   5.705
  136MYC    C4027823   4.702   1.673   5.831
  136MYC    H7427824   4.640   1.764   5.824
  136MYC    H7527825   4.634   1.588   5.827
  136MYC    C4127826   4.775   1.673   5.966
  136MYC    H7627827   4.835   1.581   5.974
  136MYC    H7727828   4.845   1.757   5.971
  136MYC    C4227829   4.678   1.680   6.086
  136MYC    H7827830   4.620   1.773   6.080
  136MYC    H7927831   4.606   1.597   6.079
  136MYC    C4327832   4.748   1.674   6.223
  136MYC    H8027833   4.675   1.680   6.304
  136MYC    H8127834   4.819   1.757   6.234
  136MYC    H8227835   4.804   1.580   6.233
  137MYC   HH1527836   5.143   2.799   6.297
  137MYC    C8027837   5.110   2.827   6.196
  137MYC   H10027838   5.001   2.816   6.192
  137MYC   H10127839   5.135   2.932   6.179
  137MYC    C7927840   5.176   2.736   6.091
  137MYC   H10227841   5.147   2.632   6.109
  137MYC   H10327842   5.285   2.741   6.102
  137MYC    C7827843   5.139   2.775   5.946
  137MYC   HH1427844   5.179   2.875   5.925
  137MYC   H10427845   5.030   2.781   5.937
  137MYC    C7727846   5.192   2.675   5.841
  137MYC   H10627847   5.148   2.577   5.859
  137MYC   H10727848   5.301   2.665   5.853
  137MYC    C7627849   5.161   2.720   5.697
  137MYC   H10827850   5.216   2.813   5.677
  137MYC   H10927851   5.054   2.744   5.689
  137MYC    C7527852   5.197   2.615   5.590
  137MYC   H11027853   5.134   2.526   5.603
  137MYC   H11127854   5.301   2.583   5.603
  137MYC    C7427855   5.178   2.672   5.449
  137MYC   H11227856   5.244   2.759   5.437
  137MYC   H11327857   5.075   2.709   5.439
  137MYC    C7327858   5.206   2.573   5.334
  137MYC   HH1327859   5.134   2.490   5.338
  137MYC   H11427860   5.306   2.529   5.346
  137MYC    C7227861   5.196   2.645   5.199
  137MYC   H11527862   5.273   2.724   5.195
  137MYC   H11627863   5.099   2.696   5.193
  137MYC    C7127864   5.211   2.555   5.076
  137MYC   H11727865   5.130   2.481   5.074
  137MYC   H11827866   5.306   2.500   5.081
  137MYC    C7027867   5.208   2.640   4.948
  137MYC   H11927868   5.297   2.704   4.945
  137MYC   H12027869   5.120   2.706   4.951
  137MYC    C6927870   5.202   2.558   4.819
  137MYC   H12127871   5.111   2.496   4.820
  137MYC   H12227872   5.288   2.491   4.813
  137MYC    C6827873   5.199   2.650   4.695
  137MYC   HH1227874   5.295   2.703   4.688
  137MYC   H12327875   5.121   2.726   4.708
  137MYC    C6727876   5.173   2.573   4.566
  137MYC   H12427877   5.074   2.526   4.571
  137MYC   H12527878   5.247   2.493   4.555
  137MYC    C6627879   5.179   2.665   4.443
  137MYC   H12627880   5.279   2.709   4.436
  137MYC   H12727881   5.107   2.747   4.454
  137MYC    C6527882   5.149   2.588   4.313
  137MYC   H12827883   5.045   2.553   4.316
  137MYC   H12927884   5.214   2.500   4.308
  137MYC    C6427885   5.170   2.674   4.188
  137MYC   H13027886   5.272   2.714   4.188
  137MYC   H13127887   5.102   2.760   4.191
  137MYC    C6327888   5.147   2.593   4.061
  137MYC   HH1127889   5.042   2.561   4.057
  137MYC   H13227890   5.209   2.503   4.063
  137MYC    C6227891   5.179   2.673   3.934
  137MYC   H13327892   5.282   2.711   3.939
  137MYC   H13427893   5.112   2.760   3.928
  137MYC    C6127894   5.163   2.586   3.809
  137MYC   H13527895   5.062   2.543   3.808
  137MYC   H13627896   5.234   2.503   3.813
  137MYC    C6027897   5.186   2.665   3.682
  137MYC   H13727898   5.287   2.705   3.676
  137MYC    C5827899   5.123   2.617   3.555
  137MYC   H13827900   5.055   2.533   3.562
  137MYC    C5927901   5.077   2.747   3.617
  137MYC   H13927902   5.105   2.840   3.568
  137MYC   H14027903   4.979   2.748   3.665
  137MYC    C5727904   5.206   2.615   3.429
  137MYC   HH1027905   5.268   2.524   3.427
  137MYC   H14127906   5.276   2.700   3.428
  137MYC    C5627907   5.119   2.620   3.303
  137MYC   H14227908   5.055   2.708   3.306
  137MYC   H14327909   5.054   2.532   3.300
  137MYC    C5527910   5.206   2.624   3.177
  137MYC   H14427911   5.269   2.534   3.173
  137MYC   H14527912   5.273   2.711   3.181
  137MYC    C5427913   5.121   2.632   3.049
  137MYC   H14627914   5.056   2.720   3.055
  137MYC   H14727915   5.058   2.543   3.043
  137MYC    C5327916   5.209   2.642   2.924
  137MYC   H14827917   5.277   2.556   2.921
  137MYC   H14927918   5.271   2.732   2.930
  137MYC    C5227919   5.126   2.646   2.795
  137MYC    H9927920   5.063   2.736   2.794
  137MYC   H15027921   5.060   2.559   2.790
  137MYC    C5127922   5.218   2.647   2.672
  137MYC    H9727923   5.281   2.557   2.674
  137MYC    H9827924   5.285   2.733   2.678
  137MYC    C5027925   5.141   2.651   2.539
  137MYC    H9527926   5.086   2.746   2.531
  137MYC    H9627927   5.067   2.570   2.536
  137MYC    C4927928   5.238   2.637   2.421
  137MYC    H9327929   5.287   2.539   2.426
  137MYC    H9427930   5.317   2.713   2.431
  137MYC    C4827931   5.171   2.653   2.284
  137MYC    H9127932   5.126   2.753   2.278
  137MYC    H9227933   5.089   2.580   2.275
  137MYC    C4727934   5.272   2.634   2.170
  137MYC    H8927935   5.309   2.531   2.170
  137MYC    H9027936   5.358   2.699   2.185
  137MYC    C4627937   5.209   2.665   2.033
  137MYC    H8727938   5.171   2.768   2.034
  137MYC    H8827939   5.123   2.599   2.019
  137MYC    C4527940   5.307   2.648   1.916
  137MYC    H8527941   5.334   2.542   1.906
  137MYC    H8627942   5.399   2.702   1.938
  137MYC    C4427943   5.250   2.699   1.782
  137MYC    H8327944   5.330   2.692   1.707
  137MYC    H8427945   5.226   2.806   1.792
  137MYC    C1827946   5.129   2.622   1.732
  137MYC    H3127947   5.154   2.519   1.705
  137MYC    C1727948   4.989   2.643   1.788
  137MYC    H3027949   4.978   2.722   1.862
  137MYC    C1927950   5.023   2.689   1.648
  137MYC    H3227951   5.031   2.796   1.632
  137MYC    H3327952   4.982   2.633   1.564
  137MYC    C1627953   4.900   2.522   1.811
  137MYC    H2827954   4.960   2.442   1.853
  137MYC    H2927955   4.865   2.484   1.715
  137MYC    C1527956   4.777   2.545   1.902
  137MYC    H2627957   4.715   2.454   1.899
  137MYC    H2727958   4.715   2.624   1.860
  137MYC    C1427959   4.806   2.579   2.050
  137MYC    H2427960   4.859   2.675   2.056
  137MYC    H2527961   4.871   2.504   2.095
  137MYC    C1327962   4.675   2.588   2.130
  137MYC    H2227963   4.630   2.488   2.139
  137MYC    H2327964   4.604   2.648   2.072
  137MYC    C1227965   4.688   2.651   2.270
  137MYC    H2027966   4.738   2.749   2.260
  137MYC    H2127967   4.753   2.589   2.333
  137MYC    C1127968   4.551   2.670   2.337
  137MYC    H1827969   4.520   2.574   2.381
  137MYC    H1927970   4.476   2.697   2.261
  137MYC    C1027971   4.546   2.779   2.445
  137MYC    H1627972   4.443   2.785   2.483
  137MYC    H1727973   4.568   2.877   2.400
  137MYC     C927974   4.641   2.754   2.563
  137MYC    H1427975   4.745   2.758   2.527
  137MYC    H1527976   4.624   2.652   2.600
  137MYC     C827977   4.624   2.856   2.677
  137MYC    H1227978   4.519   2.857   2.711
  137MYC    H1327979   4.644   2.957   2.638
  137MYC     C727980   4.716   2.829   2.798
  137MYC    H1027981   4.717   2.918   2.862
  137MYC    H1127982   4.818   2.814   2.762
  137MYC     C627983   4.672   2.708   2.883
  137MYC     H827984   4.649   2.622   2.819
  137MYC     H927985   4.579   2.733   2.935
  137MYC     C527986   4.780   2.664   2.984
  137MYC     H627987   4.819   2.751   3.038
  137MYC     H727988   4.863   2.623   2.926
  137MYC     C427989   4.732   2.557   3.084
  137MYC     H427990   4.818   2.494   3.110
  137MYC     H527991   4.660   2.491   3.033
  137MYC     C227992   4.674   2.610   3.218
  137MYC     H227993   4.760   2.639   3.280
  137MYC     O327994   4.594   2.726   3.196
  137MYC     H327995   4.515   2.698   3.147
  137MYC     C127996   4.593   2.502   3.296
  137MYC     H127997   4.658   2.417   3.318
  137MYC    C8127998   4.474   2.445   3.215
  137MYC    O8227999   4.402   2.513   3.145
  137MYC    O8328000   4.439   2.321   3.253
  137MYC   H10528001   4.358   2.301   3.201
  137MYC    C2028002   4.540   2.550   3.433
  137MYC    H3428003   4.489   2.647   3.422
  137MYC    H3528004   4.465   2.480   3.470
  137MYC    C2128005   4.650   2.562   3.541
  137MYC    H3628006   4.701   2.466   3.552
  137MYC    H3728007   4.725   2.636   3.510
  137MYC    C2228008   4.590   2.603   3.677
  137MYC    H3828009   4.537   2.698   3.665
  137MYC    H3928010   4.516   2.527   3.707
  137MYC    C2328011   4.696   2.617   3.787
  137MYC    H4028012   4.752   2.523   3.797
  137MYC    H4128013   4.768   2.695   3.759
  137MYC    C2428014   4.632   2.653   3.922
  137MYC    H4228015   4.576   2.747   3.911
  137MYC    H4328016   4.559   2.575   3.948
  137MYC    C2528017   4.734   2.667   4.035
  137MYC    H4428018   4.788   2.572   4.048
  137MYC    H4528019   4.808   2.743   4.010
  137MYC    C2628020   4.665   2.704   4.168
  137MYC    H4628021   4.617   2.802   4.156
  137MYC    H4728022   4.586   2.631   4.188
  137MYC    C2728023   4.761   2.708   4.287
  137MYC    H4828024   4.809   2.610   4.298
  137MYC    H4928025   4.841   2.782   4.269
  137MYC    C2828026   4.687   2.744   4.417
  137MYC    H5028027   4.644   2.844   4.408
  137MYC    H5128028   4.604   2.674   4.431
  137MYC    C2928029   4.777   2.738   4.542
  137MYC    H5228030   4.824   2.639   4.549
  137MYC    H5328031   4.858   2.812   4.532
  137MYC    C3028032   4.697   2.766   4.670
  137MYC    H5428033   4.653   2.867   4.664
  137MYC    H5528034   4.613   2.696   4.676
  137MYC    C3128035   4.780   2.756   4.799
  137MYC    H5628036   4.826   2.656   4.804
  137MYC    H5728037   4.861   2.829   4.796
  137MYC    C3228038   4.693   2.778   4.924
  137MYC    H5828039   4.646   2.877   4.917
  137MYC    H5928040   4.612   2.704   4.925
  137MYC    C3328041   4.772   2.768   5.055
  137MYC    H6028042   4.819   2.669   5.063
  137MYC    H6128043   4.853   2.843   5.055
  137MYC    C3428044   4.682   2.791   5.178
  137MYC    H6228045   4.634   2.890   5.169
  137MYC    H6328046   4.602   2.716   5.178
  137MYC    C3528047   4.758   2.784   5.311
  137MYC    H6428048   4.799   2.683   5.324
  137MYC    H6528049   4.843   2.854   5.309
  137MYC    C3628050   4.668   2.819   5.431
  137MYC    H6628051   4.630   2.921   5.420
  137MYC    H6728052   4.580   2.753   5.431
  137MYC    C3728053   4.741   2.807   5.566
  137MYC    H6828054   4.770   2.702   5.581
  137MYC    H6928055   4.833   2.866   5.564
  137MYC    C3828056   4.653   2.853   5.685
  137MYC    H7028057   4.633   2.960   5.675
  137MYC    H7128058   4.557   2.801   5.681
  137MYC    C3928059   4.720   2.826   5.821
  137MYC    H7228060   4.738   2.718   5.830
  137MYC    H7328061   4.818   2.876   5.825
  137MYC    C4028062   4.634   2.873   5.940
  137MYC    H7428063   4.624   2.982   5.937
  137MYC    H7528064   4.533   2.830   5.932
  137MYC    C4128065   4.695   2.831   6.076
  137MYC    H7628066   4.706   2.722   6.077
  137MYC    H7728067   4.796   2.874   6.084
  137MYC    C4228068   4.611   2.875   6.197
  137MYC    H7828069   4.607   2.985   6.201
  137MYC    H7928070   4.508   2.840   6.185
  137MYC    C4328071   4.667   2.822   6.330
  137MYC    H8028072   4.606   2.857   6.414
  137MYC    H8128073   4.770   2.856   6.345
  137MYC    H8228074   4.667   2.712   6.331
  138MYC   HH1528075   4.916   3.175   6.240
  138MYC    C8028076   4.941   3.240   6.155
  138MYC   H10028077   4.875   3.328   6.159
  138MYC   H10128078   5.044   3.274   6.166
  138MYC    C7928079   4.922   3.164   6.022
  138MYC   H10228080   4.820   3.125   6.017
  138MYC   H10328081   4.990   3.078   6.020
  138MYC    C7828082   4.948   3.254   5.899
  138MYC   HH1428083   5.047   3.300   5.907
  138MYC   H10428084   4.874   3.335   5.899
  138MYC    C7728085   4.940   3.178   5.765
  138MYC   H10628086   4.848   3.117   5.763
  138MYC   H10728087   5.024   3.108   5.757
  138MYC    C7628088   4.939   3.273   5.644
  138MYC   H10828089   5.022   3.343   5.652
  138MYC   H10928090   4.846   3.332   5.647
  138MYC    C7528091   4.947   3.200   5.508
  138MYC   H11028092   4.877   3.116   5.507
  138MYC   H11128093   5.048   3.159   5.496
  138MYC    C7428094   4.915   3.294   5.390
  138MYC   H11228095   4.974   3.385   5.397
  138MYC   H11328096   4.809   3.324   5.397
  138MYC    C7328097   4.940   3.228   5.253
  138MYC   HH1328098   4.895   3.128   5.252
  138MYC   H11428099   5.048   3.216   5.239
  138MYC    C7228100   4.882   3.310   5.136
  138MYC   H11528101   4.920   3.413   5.140
  138MYC   H11628102   4.773   3.315   5.146
  138MYC    C7128103   4.917   3.248   4.999
  138MYC   H11728104   4.892   3.141   5.000
  138MYC   H11828105   5.025   3.256   4.983
  138MYC    C7028106   4.844   3.315   4.881
  138MYC   H11928107   4.872   3.421   4.876
  138MYC   H12028108   4.736   3.311   4.899
  138MYC    C6928109   4.876   3.245   4.748
  138MYC   H12128110   4.846   3.140   4.754
  138MYC   H12228111   4.984   3.247   4.731
  138MYC    C6828112   4.806   3.311   4.627
  138MYC   HH1228113   4.845   3.412   4.614
  138MYC   H12328114   4.698   3.321   4.649
  138MYC    C6728115   4.823   3.230   4.498
  138MYC   H12428116   4.769   3.135   4.508
  138MYC   H12528117   4.929   3.205   4.484
  138MYC    C6628118   4.773   3.305   4.373
  138MYC   H12628119   4.838   3.392   4.357
  138MYC   H12728120   4.673   3.345   4.392
  138MYC    C6528121   4.769   3.217   4.246
  138MYC   H12828122   4.664   3.193   4.224
  138MYC   H12928123   4.819   3.121   4.264
  138MYC    C6428124   4.834   3.284   4.124
  138MYC   H13028125   4.943   3.283   4.137
  138MYC   H13128126   4.803   3.389   4.118
  138MYC    C6328127   4.798   3.214   3.992
  138MYC   HH1128128   4.691   3.227   3.973
  138MYC   H13228129   4.815   3.106   4.002
  138MYC    C6228130   4.879   3.267   3.872
  138MYC   H13328131   4.985   3.240   3.886
  138MYC   H13428132   4.873   3.376   3.869
  138MYC    C6128133   4.829   3.209   3.739
  138MYC   H13528134   4.728   3.247   3.720
  138MYC   H13628135   4.821   3.100   3.747
  138MYC    C6028136   4.920   3.244   3.622
  138MYC   H13728137   5.023   3.211   3.638
  138MYC    C5828138   4.867   3.233   3.482
  138MYC   H13828139   4.761   3.210   3.472
  138MYC    C5928140   4.901   3.369   3.539
  138MYC   H13928141   4.990   3.419   3.501
  138MYC   H14028142   4.819   3.435   3.566
  138MYC    C5728143   4.951   3.168   3.374
  138MYC   HH1028144   4.954   3.059   3.391
  138MYC   H14128145   5.054   3.204   3.379
  138MYC    C5628146   4.893   3.195   3.234
  138MYC   H14228147   4.879   3.303   3.222
  138MYC   H14328148   4.794   3.149   3.227
  138MYC    C5528149   4.983   3.143   3.120
  138MYC   H14428150   5.000   3.035   3.134
  138MYC   H14528151   5.080   3.193   3.125
  138MYC    C5428152   4.919   3.168   2.983
  138MYC   H14628153   4.904   3.276   2.969
  138MYC   H14728154   4.819   3.122   2.981
  138MYC    C5328155   5.001   3.113   2.865
  138MYC   H14828156   5.017   3.005   2.878
  138MYC   H14928157   5.099   3.161   2.863
  138MYC    C5228158   4.929   3.139   2.731
  138MYC    H9928159   4.917   3.248   2.718
  138MYC   H15028160   4.828   3.097   2.737
  138MYC    C5128161   5.000   3.082   2.607
  138MYC    H9728162   5.017   2.974   2.620
  138MYC    H9828163   5.098   3.130   2.597
  138MYC    C5028164   4.916   3.107   2.481
  138MYC    H9528165   4.889   3.214   2.479
  138MYC    H9628166   4.821   3.052   2.489
  138MYC    C4928167   4.984   3.071   2.348
  138MYC    H9328168   4.999   2.963   2.340
  138MYC    H9428169   5.083   3.119   2.344
  138MYC    C4828170   4.898   3.122   2.231
  138MYC    H9128171   4.876   3.228   2.249
  138MYC    H9228172   4.801   3.072   2.234
  138MYC    C4728173   4.957   3.108   2.089
  138MYC    H8928174   4.945   3.006   2.052
  138MYC    H9028175   5.065   3.127   2.090
  138MYC    C4628176   4.890   3.210   1.994
  138MYC    H8728177   4.917   3.311   2.028
  138MYC    H8828178   4.780   3.203   2.004
  138MYC    C4528179   4.925   3.196   1.845
  138MYC    H8528180   4.861   3.120   1.799
  138MYC    H8628181   5.029   3.161   1.835
  138MYC    C4428182   4.911   3.329   1.766
  138MYC    H8328183   4.929   3.309   1.660
  138MYC    H8428184   4.992   3.395   1.798
  138MYC    C1828185   4.779   3.403   1.785
  138MYC    H3128186   4.757   3.426   1.888
  138MYC    C1728187   4.733   3.502   1.681
  138MYC    H3028188   4.795   3.511   1.592
  138MYC    C1928189   4.659   3.371   1.699
  138MYC    H3228190   4.674   3.293   1.626
  138MYC    H3328191   4.561   3.374   1.745
  138MYC    C1628192   4.667   3.635   1.718
  138MYC    H2828193   4.582   3.619   1.784
  138MYC    H2928194   4.626   3.679   1.626
  138MYC    C1528195   4.763   3.739   1.782
  138MYC    H2628196   4.725   3.839   1.759
  138MYC    H2728197   4.862   3.732   1.735
  138MYC    C1428198   4.776   3.726   1.935
  138MYC    H2428199   4.818   3.628   1.962
  138MYC    H2528200   4.675   3.731   1.978
  138MYC    C1328201   4.864   3.836   1.999
  138MYC    H2228202   4.824   3.934   1.970
  138MYC    H2328203   4.965   3.829   1.958
  138MYC    C1228204   4.873   3.833   2.154
  138MYC    H2028205   4.934   3.918   2.186
  138MYC    H2128206   4.926   3.742   2.185
  138MYC    C1128207   4.735   3.840   2.224
  138MYC    H1828208   4.682   3.745   2.210
  138MYC    H1928209   4.674   3.917   2.176
  138MYC    C1028210   4.740   3.869   2.376
  138MYC    H1628211   4.638   3.866   2.414
  138MYC    H1728212   4.776   3.972   2.392
  138MYC     C928213   4.827   3.772   2.458
  138MYC    H1428214   4.933   3.786   2.433
  138MYC    H1528215   4.801   3.669   2.432
  138MYC     C828216   4.808   3.790   2.610
  138MYC    H1228217   4.702   3.775   2.634
  138MYC    H1328218   4.833   3.893   2.638
  138MYC     C728219   4.893   3.693   2.695
  138MYC    H1028220   4.999   3.720   2.687
  138MYC    H1128221   4.883   3.591   2.654
  138MYC     C628222   4.849   3.691   2.843
  138MYC     H828223   4.746   3.656   2.849
  138MYC     H928224   4.851   3.794   2.881
  138MYC     C528225   4.939   3.602   2.931
  138MYC     H628226   5.036   3.652   2.945
  138MYC     H728227   4.960   3.509   2.877
  138MYC     C428228   4.880   3.563   3.070
  138MYC     H428229   4.951   3.492   3.113
  138MYC     H528230   4.788   3.506   3.053
  138MYC     C228231   4.855   3.673   3.177
  138MYC     H228232   4.902   3.635   3.268
  138MYC     O328233   4.920   3.796   3.143
  138MYC     H328234   4.869   3.837   3.071
  138MYC     C128235   4.705   3.697   3.213
  138MYC     H128236   4.662   3.599   3.237
  138MYC    C8128237   4.621   3.753   3.095
  138MYC    O8228238   4.646   3.858   3.038
  138MYC    O8328239   4.501   3.692   3.080
  138MYC   H10528240   4.451   3.748   3.018
  138MYC    C2028241   4.683   3.786   3.338
  138MYC    H3428242   4.733   3.883   3.325
  138MYC    H3528243   4.576   3.808   3.348
  138MYC    C2128244   4.731   3.721   3.470
  138MYC    H3628245   4.687   3.621   3.478
  138MYC    H3728246   4.840   3.709   3.468
  138MYC    C2228247   4.692   3.801   3.596
  138MYC    H3828248   4.739   3.901   3.592
  138MYC    H3928249   4.584   3.816   3.597
  138MYC    C2328250   4.735   3.730   3.726
  138MYC    H4028251   4.692   3.630   3.727
  138MYC    H4128252   4.844   3.718   3.727
  138MYC    C2428253   4.691   3.805   3.854
  138MYC    H4228254   4.740   3.903   3.857
  138MYC    H4328255   4.583   3.823   3.850
  138MYC    C2528256   4.724   3.727   3.982
  138MYC    H4428257   4.676   3.628   3.978
  138MYC    H4528258   4.832   3.709   3.987
  138MYC    C2628259   4.679   3.799   4.111
  138MYC    H4628260   4.729   3.896   4.117
  138MYC    H4728261   4.571   3.819   4.105
  138MYC    C2728262   4.709   3.717   4.238
  138MYC    H4828263   4.658   3.619   4.230
  138MYC    H4928264   4.816   3.697   4.243
  138MYC    C2828265   4.664   3.786   4.368
  138MYC    H5028266   4.710   3.885   4.374
  138MYC    H5128267   4.555   3.801   4.365
  138MYC    C2928268   4.702   3.704   4.493
  138MYC    H5228269   4.658   3.604   4.485
  138MYC    H5328270   4.811   3.692   4.496
  138MYC    C3028271   4.655   3.768   4.626
  138MYC    H5428272   4.690   3.871   4.631
  138MYC    H5528273   4.545   3.772   4.627
  138MYC    C3128274   4.705   3.689   4.748
  138MYC    H5628275   4.671   3.585   4.740
  138MYC    H5728276   4.815   3.687   4.746
  138MYC    C3228277   4.659   3.747   4.883
  138MYC    H5828278   4.689   3.852   4.890
  138MYC    H5928279   4.550   3.744   4.889
  138MYC    C3328280   4.719   3.669   5.002
  138MYC    H6028281   4.685   3.565   4.998
  138MYC    H6128282   4.829   3.667   4.992
  138MYC    C3428283   4.684   3.729   5.140
  138MYC    H6228284   4.715   3.834   5.143
  138MYC    H6328285   4.575   3.728   5.153
  138MYC    C3528286   4.750   3.652   5.256
  138MYC    H6428287   4.714   3.549   5.257
  138MYC    H6528288   4.858   3.648   5.238
  138MYC    C3628289   4.725   3.717   5.394
  138MYC    H6628290   4.756   3.822   5.391
  138MYC    H6728291   4.617   3.716   5.415
  138MYC    C3728292   4.800   3.645   5.507
  138MYC    H6828293   4.765   3.541   5.514
  138MYC    H6928294   4.907   3.642   5.483
  138MYC    C3828295   4.780   3.712   5.645
  138MYC    H7028296   4.804   3.819   5.636
  138MYC    H7128297   4.675   3.705   5.673
  138MYC    C3928298   4.868   3.650   5.755
  138MYC    H7228299   4.850   3.542   5.759
  138MYC    H7328300   4.973   3.663   5.729
  138MYC    C4028301   4.841   3.709   5.895
  138MYC    H7428302   4.849   3.819   5.890
  138MYC    H7528303   4.738   3.686   5.924
  138MYC    C4128304   4.939   3.656   6.002
  138MYC    H7628305   4.946   3.547   5.995
  138MYC    H7728306   5.039   3.696   5.981
  138MYC    C4228307   4.898   3.694   6.146
  138MYC    H7828308   4.888   3.803   6.154
  138MYC    H7928309   4.799   3.652   6.167
  138MYC    C4328310   4.998   3.644   6.252
  138MYC    H8028311   5.095   3.693   6.239
  138MYC    H8128312   5.012   3.536   6.245
  138MYC    H8228313   4.961   3.668   6.353
  139MYC   HH1528314   5.429   4.067   6.074
  139MYC    C8028315   5.369   3.982   6.110
  139MYC   H10028316   5.432   3.922   6.177
  139MYC   H10128317   5.285   4.021   6.168
  139MYC    C7928318   5.320   3.897   5.991
  139MYC   H10228319   5.267   3.809   6.030
  139MYC   H10328320   5.408   3.860   5.937
  139MYC    C7828321   5.229   3.974   5.894
  139MYC   HH1428322   5.276   4.070   5.870
  139MYC   H10428323   5.133   3.996   5.944
  139MYC    C7728324   5.202   3.898   5.763
  139MYC   H10628325   5.154   3.802   5.786
  139MYC   H10728326   5.298   3.875   5.716
  139MYC    C7628327   5.115   3.977   5.664
  139MYC   H10828328   5.155   4.078   5.654
  139MYC   H10928329   5.013   3.987   5.704
  139MYC    C7528330   5.108   3.912   5.524
  139MYC   H11028331   5.056   3.816   5.531
  139MYC   H11128332   5.210   3.891   5.490
  139MYC    C7428333   5.038   4.001   5.419
  139MYC   H11228334   5.087   4.100   5.419
  139MYC   H11328335   4.934   4.017   5.449
  139MYC    C7328336   5.043   3.942   5.277
  139MYC   HH1328337   4.981   3.852   5.273
  139MYC   H11428338   5.146   3.912   5.254
  139MYC    C7228339   4.995   4.041   5.169
  139MYC   H11528340   5.061   4.129   5.171
  139MYC   H11628341   4.894   4.076   5.194
  139MYC    C7128342   4.995   3.980   5.028
  139MYC   H11728343   4.917   3.903   5.022
  139MYC   H11828344   5.091   3.931   5.009
  139MYC    C7028345   4.971   4.085   4.917
  139MYC   H11928346   5.058   4.152   4.912
  139MYC   H12028347   4.884   4.147   4.942
  139MYC    C6928348   4.949   4.020   4.779
  139MYC   H12128349   4.850   3.973   4.777
  139MYC   H12228350   5.023   3.940   4.764
  139MYC    C6828351   4.960   4.119   4.662
  139MYC   HH1228352   5.062   4.158   4.658
  139MYC   H12328353   4.894   4.205   4.679
  139MYC    C6728354   4.923   4.055   4.526
  139MYC   H12428355   4.814   4.046   4.519
  139MYC   H12528356   4.964   3.953   4.523
  139MYC    C6628357   4.977   4.134   4.405
  139MYC   H12628358   5.085   4.143   4.415
  139MYC   H12728359   4.935   4.235   4.406
  139MYC    C6528360   4.944   4.066   4.271
  139MYC   H12828361   4.837   4.074   4.251
  139MYC   H12928362   4.969   3.959   4.276
  139MYC    C6428363   5.023   4.129   4.154
  139MYC   H13028364   5.130   4.121   4.175
  139MYC   H13128365   4.999   4.236   4.148
  139MYC    C6328366   4.994   4.062   4.018
  139MYC   HH1128367   4.888   4.075   3.993
  139MYC   H13228368   5.013   3.955   4.025
  139MYC    C6228369   5.081   4.122   3.905
  139MYC   H13328370   5.187   4.110   3.932
  139MYC   H13428371   5.061   4.230   3.898
  139MYC    C6128372   5.056   4.056   3.768
  139MYC   H13528373   4.949   4.063   3.744
  139MYC   H13628374   5.080   3.949   3.775
  139MYC    C6028375   5.139   4.120   3.658
  139MYC   H13728376   5.245   4.122   3.681
  139MYC    C5828377   5.102   4.098   3.514
  139MYC   H13828378   5.011   4.041   3.496
  139MYC    C5928379   5.085   4.235   3.576
  139MYC   H13928380   5.155   4.314   3.548
  139MYC   H14028381   4.984   4.270   3.596
  139MYC    C5728382   5.211   4.071   3.410
  139MYC   HH1028383   5.254   3.972   3.430
  139MYC   H14128384   5.292   4.144   3.419
  139MYC    C5628385   5.155   4.074   3.267
  139MYC   H14228386   5.114   4.173   3.246
  139MYC   H14328387   5.072   4.003   3.259
  139MYC    C5528388   5.260   4.039   3.159
  139MYC   H14428389   5.303   3.940   3.180
  139MYC   H14528390   5.343   4.111   3.163
  139MYC    C5428391   5.199   4.039   3.018
  139MYC   H14628392   5.153   4.137   3.000
  139MYC   H14728393   5.118   3.965   3.014
  139MYC    C5328394   5.300   4.008   2.905
  139MYC   H14828395   5.343   3.909   2.920
  139MYC   H14928396   5.382   4.081   2.909
  139MYC    C5228397   5.232   4.016   2.767
  139MYC    H9928398   5.183   4.114   2.758
  139MYC   H15028399   5.151   3.941   2.763
  139MYC    C5128400   5.326   3.996   2.647
  139MYC    H9728401   5.369   3.895   2.650
  139MYC    H9828402   5.409   4.067   2.653
  139MYC    C5028403   5.251   4.016   2.515
  139MYC    H9528404   5.204   4.115   2.516
  139MYC    H9628405   5.169   3.943   2.508
  139MYC    C4928406   5.337   4.006   2.387
  139MYC    H9328407   5.381   3.906   2.381
  139MYC    H9428408   5.420   4.078   2.393
  139MYC    C4828409   5.252   4.035   2.262
  139MYC    H9128410   5.209   4.135   2.273
  139MYC    H9228411   5.168   3.964   2.260
  139MYC    C4728412   5.325   4.029   2.127
  139MYC    H8928413   5.367   3.929   2.111
  139MYC    H9028414   5.409   4.100   2.128
  139MYC    C4628415   5.229   4.065   2.012
  139MYC    H8728416   5.191   4.167   2.029
  139MYC    H8828417   5.142   3.998   2.018
  139MYC    C4528418   5.291   4.057   1.871
  139MYC    H8528419   5.304   3.952   1.843
  139MYC    H8628420   5.390   4.103   1.873
  139MYC    C4428421   5.206   4.130   1.764
  139MYC    H8328422   5.260   4.126   1.669
  139MYC    H8428423   5.202   4.237   1.791
  139MYC    C1828424   5.064   4.077   1.746
  139MYC    H3128425   5.033   4.007   1.823
  139MYC    C1728426   4.957   4.169   1.691
  139MYC    H3028427   4.987   4.268   1.659
  139MYC    C1928428   5.006   4.053   1.609
  139MYC    H3228429   5.067   4.073   1.522
  139MYC    H3328430   4.938   3.968   1.597
  139MYC    C1628431   4.815   4.166   1.746
  139MYC    H2828432   4.809   4.101   1.834
  139MYC    H2928433   4.750   4.119   1.672
  139MYC    C1528434   4.755   4.303   1.782
  139MYC    H2628435   4.646   4.291   1.787
  139MYC    H2728436   4.775   4.375   1.702
  139MYC    C1428437   4.805   4.358   1.918
  139MYC    H2428438   4.911   4.383   1.910
  139MYC    H2528439   4.795   4.280   1.994
  139MYC    C1328440   4.724   4.481   1.962
  139MYC    H2228441   4.617   4.459   1.957
  139MYC    H2328442   4.743   4.564   1.892
  139MYC    C1228443   4.757   4.527   2.106
  139MYC    H2028444   4.863   4.557   2.110
  139MYC    H2128445   4.744   4.443   2.175
  139MYC    C1128446   4.668   4.645   2.150
  139MYC    H1828447   4.565   4.610   2.162
  139MYC    H1928448   4.668   4.720   2.070
  139MYC    C1028449   4.713   4.716   2.278
  139MYC    H1628450   4.648   4.804   2.292
  139MYC    H1728451   4.815   4.755   2.263
  139MYC     C928452   4.708   4.633   2.408
  139MYC    H1428453   4.777   4.548   2.401
  139MYC    H1528454   4.607   4.593   2.422
  139MYC     C828455   4.747   4.721   2.529
  139MYC    H1228456   4.683   4.811   2.527
  139MYC    H1328457   4.850   4.756   2.516
  139MYC     C728458   4.734   4.654   2.667
  139MYC    H1028459   4.805   4.571   2.675
  139MYC    H1128460   4.633   4.613   2.678
  139MYC     C628461   4.760   4.758   2.778
  139MYC     H828462   4.690   4.841   2.767
  139MYC     H928463   4.860   4.800   2.762
  139MYC     C528464   4.752   4.708   2.924
  139MYC     H628465   4.774   4.793   2.989
  139MYC     H728466   4.831   4.634   2.942
  139MYC     C428467   4.615   4.646   2.963
  139MYC     H428468   4.618   4.539   2.941
  139MYC     H528469   4.537   4.690   2.899
  139MYC     C228470   4.576   4.668   3.112
  139MYC     H228471   4.662   4.639   3.174
  139MYC     O328472   4.550   4.807   3.131
  139MYC     H328473   4.588   4.855   3.056
  139MYC     C128474   4.453   4.584   3.159
  139MYC     H128475   4.489   4.481   3.164
  139MYC    C8128476   4.339   4.587   3.055
  139MYC    O8228477   4.267   4.683   3.035
  139MYC    O8328478   4.330   4.475   2.980
  139MYC   H10528479   4.258   4.492   2.917
  139MYC    C2028480   4.398   4.622   3.299
  139MYC    H3428481   4.359   4.725   3.297
  139MYC    H3528482   4.311   4.558   3.319
  139MYC    C2128483   4.497   4.608   3.417
  139MYC    H3628484   4.536   4.506   3.419
  139MYC    H3728485   4.582   4.675   3.402
  139MYC    C2228486   4.429   4.641   3.552
  139MYC    H3828487   4.393   4.744   3.549
  139MYC    H3928488   4.341   4.577   3.564
  139MYC    C2328489   4.521   4.622   3.674
  139MYC    H4028490   4.558   4.519   3.677
  139MYC    H4128491   4.608   4.688   3.665
  139MYC    C2428492   4.447   4.653   3.807
  139MYC    H4228493   4.408   4.755   3.803
  139MYC    H4328494   4.361   4.586   3.816
  139MYC    C2528495   4.536   4.638   3.932
  139MYC    H4428496   4.576   4.536   3.936
  139MYC    H4528497   4.621   4.706   3.924
  139MYC    C2628498   4.459   4.667   4.062
  139MYC    H4628499   4.416   4.767   4.057
  139MYC    H4728500   4.376   4.596   4.072
  139MYC    C2728501   4.549   4.657   4.188
  139MYC    H4828502   4.595   4.558   4.192
  139MYC    H4928503   4.629   4.731   4.180
  139MYC    C2828504   4.470   4.682   4.319
  139MYC    H5028505   4.419   4.779   4.313
  139MYC    H5128506   4.393   4.605   4.328
  139MYC    C2928507   4.561   4.679   4.443
  139MYC    H5228508   4.619   4.586   4.444
  139MYC    H5328509   4.633   4.762   4.438
  139MYC    C3028510   4.481   4.690   4.575
  139MYC    H5428511   4.419   4.781   4.572
  139MYC    H5528512   4.412   4.605   4.581
  139MYC    C3128513   4.570   4.693   4.700
  139MYC    H5628514   4.639   4.607   4.698
  139MYC    H5728515   4.632   4.783   4.698
  139MYC    C3228516   4.488   4.688   4.830
  139MYC    H5828517   4.416   4.771   4.830
  139MYC    H5928518   4.431   4.595   4.832
  139MYC    C3328519   4.575   4.698   4.957
  139MYC    H6028520   4.655   4.623   4.953
  139MYC    H6128521   4.622   4.796   4.962
  139MYC    C3428522   4.491   4.674   5.084
  139MYC    H6228523   4.403   4.740   5.083
  139MYC    H6328524   4.453   4.571   5.082
  139MYC    C3528525   4.568   4.697   5.216
  139MYC    H6428526   4.665   4.645   5.212
  139MYC    H6528527   4.590   4.804   5.226
  139MYC    C3628528   4.489   4.647   5.338
  139MYC    H6628529   4.384   4.676   5.327
  139MYC    H6728530   4.492   4.538   5.339
  139MYC    C3728531   4.541   4.701   5.472
  139MYC    H6828532   4.649   4.681   5.481
  139MYC    H6928533   4.529   4.810   5.473
  139MYC    C3828534   4.468   4.640   5.593
  139MYC    H7028535   4.360   4.644   5.576
  139MYC    H7128536   4.495   4.534   5.600
  139MYC    C3928537   4.501   4.711   5.726
  139MYC    H7228538   4.610   4.712   5.739
  139MYC    H7328539   4.467   4.815   5.720
  139MYC    C4028540   4.435   4.643   5.848
  139MYC    H7428541   4.326   4.642   5.835
  139MYC    H7528542   4.467   4.538   5.852
  139MYC    C4128543   4.472   4.712   5.981
  139MYC    H7628544   4.581   4.712   5.991
  139MYC    H7728545   4.440   4.816   5.977
  139MYC    C4228546   4.410   4.643   6.104
  139MYC    H7828547   4.300   4.651   6.098
  139MYC    H7928548   4.434   4.536   6.102
  139MYC    C4328549   4.459   4.703   6.237
  139MYC    H8028550   4.435   4.810   6.242
  139MYC    H8128551   4.567   4.690   6.247
  139MYC    H8228552   4.410   4.653   6.322
  140MYC   HH1528553   4.322   5.150   6.213
  140MYC    C8028554   4.395   5.178   6.136
  140MYC   H10028555   4.409   5.286   6.140
  140MYC   H10128556   4.491   5.129   6.160
  140MYC    C7928557   4.345   5.134   5.998
  140MYC   H10228558   4.250   5.185   5.977
  140MYC   H10328559   4.322   5.027   6.001
  140MYC    C7828560   4.445   5.161   5.883
  140MYC   HH1428561   4.537   5.104   5.901
  140MYC   H10428562   4.472   5.268   5.882
  140MYC    C7728563   4.386   5.123   5.746
  140MYC   H10628564   4.297   5.184   5.728
  140MYC   H10728565   4.352   5.019   5.750
  140MYC    C7628566   4.483   5.139   5.627
  140MYC   H10828567   4.571   5.075   5.642
  140MYC   H10928568   4.519   5.243   5.623
  140MYC    C7528569   4.414   5.103   5.494
  140MYC   H11028570   4.326   5.167   5.482
  140MYC   H11128571   4.378   5.000   5.499
  140MYC    C7428572   4.503   5.119   5.369
  140MYC   H11228573   4.590   5.053   5.376
  140MYC   H11328574   4.541   5.222   5.363
  140MYC    C7328575   4.424   5.086   5.240
  140MYC   HH1328576   4.334   5.149   5.237
  140MYC   H11428577   4.389   4.982   5.246
  140MYC    C7228578   4.502   5.105   5.110
  140MYC   H11528579   4.588   5.037   5.108
  140MYC   H11628580   4.542   5.208   5.106
  140MYC    C7128581   4.413   5.080   4.986
  140MYC   H11728582   4.328   5.149   4.990
  140MYC   H11828583   4.373   4.979   4.991
  140MYC    C7028584   4.487   5.099   4.852
  140MYC   H11928585   4.568   5.027   4.845
  140MYC   H12028586   4.532   5.199   4.850
  140MYC    C6928587   4.393   5.084   4.731
  140MYC   H12128588   4.312   5.157   4.739
  140MYC   H12228589   4.347   4.984   4.733
  140MYC    C6828590   4.466   5.103   4.597
  140MYC   HH1228591   4.544   5.027   4.588
  140MYC   H12328592   4.517   5.201   4.599
  140MYC    C6728593   4.373   5.097   4.475
  140MYC   H12428594   4.294   5.171   4.485
  140MYC   H12528595   4.325   4.998   4.470
  140MYC    C6628596   4.451   5.123   4.344
  140MYC   H12628597   4.529   5.046   4.333
  140MYC   H12728598   4.503   5.219   4.353
  140MYC    C6528599   4.364   5.125   4.218
  140MYC   H12828600   4.285   5.200   4.228
  140MYC   H12928601   4.314   5.027   4.206
  140MYC    C6428602   4.448   5.155   4.093
  140MYC   H13028603   4.528   5.080   4.086
  140MYC   H13128604   4.497   5.253   4.106
  140MYC    C6328605   4.369   5.156   3.961
  140MYC   HH1128606   4.293   5.235   3.963
  140MYC   H13228607   4.318   5.060   3.950
  140MYC    C6228608   4.463   5.178   3.841
  140MYC   H13328609   4.544   5.103   3.846
  140MYC   H13428610   4.511   5.276   3.848
  140MYC    C6128611   4.394   5.165   3.704
  140MYC   H13528612   4.328   5.251   3.687
  140MYC   H13628613   4.330   5.076   3.703
  140MYC    C6028614   4.496   5.152   3.591
  140MYC   H13728615   4.566   5.071   3.609
  140MYC    C5828616   4.457   5.175   3.448
  140MYC   H13828617   4.356   5.210   3.429
  140MYC    C5928618   4.551   5.272   3.517
  140MYC   H13928619   4.656   5.270   3.489
  140MYC   H14028620   4.513   5.369   3.545
  140MYC    C5728621   4.507   5.076   3.344
  140MYC   HH1028622   4.453   4.981   3.354
  140MYC   H14128623   4.613   5.052   3.365
  140MYC    C5628624   4.498   5.124   3.198
  140MYC   H14228625   4.570   5.065   3.140
  140MYC   H14328626   4.531   5.229   3.191
  140MYC    C5528627   4.359   5.107   3.132
  140MYC   H14428628   4.291   5.183   3.173
  140MYC   H14528629   4.318   5.009   3.158
  140MYC    C5428630   4.367   5.120   2.979
  140MYC   H14628631   4.431   5.040   2.939
  140MYC   H14728632   4.417   5.214   2.954
  140MYC    C5328633   4.229   5.114   2.908
  140MYC   H14828634   4.161   5.183   2.959
  140MYC   H14928635   4.186   5.014   2.920
  140MYC    C5228636   4.236   5.153   2.759
  140MYC    H9928637   4.332   5.203   2.738
  140MYC   H15028638   4.159   5.227   2.738
  140MYC    C5128639   4.219   5.036   2.660
  140MYC    H9728640   4.115   5.000   2.664
  140MYC    H9828641   4.284   4.953   2.689
  140MYC    C5028642   4.253   5.078   2.515
  140MYC    H9528643   4.359   5.109   2.514
  140MYC    H9628644   4.194   5.166   2.488
  140MYC    C4928645   4.232   4.969   2.408
  140MYC    H9328646   4.125   4.964   2.382
  140MYC    H9428647   4.259   4.870   2.448
  140MYC    C4828648   4.316   4.997   2.282
  140MYC    H9128649   4.421   4.991   2.310
  140MYC    H9228650   4.297   5.099   2.248
  140MYC    C4728651   4.292   4.901   2.163
  140MYC    H8928652   4.193   4.919   2.120
  140MYC    H9028653   4.293   4.797   2.198
  140MYC    C4628654   4.401   4.920   2.056
  140MYC    H8728655   4.497   4.890   2.099
  140MYC    H8828656   4.408   5.026   2.032
  140MYC    C4528657   4.379   4.841   1.924
  140MYC    H8528658   4.294   4.885   1.871
  140MYC    H8628659   4.352   4.738   1.947
  140MYC    C4428660   4.503   4.841   1.831
  140MYC    H8328661   4.472   4.798   1.734
  140MYC    H8428662   4.579   4.773   1.871
  140MYC    C1828663   4.566   4.978   1.808
  140MYC    H3128664   4.608   5.021   1.899
  140MYC    C1728665   4.637   5.014   1.680
  140MYC    H3028666   4.640   4.938   1.603
  140MYC    C1928667   4.501   5.073   1.711
  140MYC    H3228668   4.417   5.038   1.653
  140MYC    H3328669   4.495   5.178   1.740
  140MYC    C1628670   4.758   5.107   1.674
  140MYC    H2828671   4.745   5.192   1.743
  140MYC    H2928672   4.760   5.153   1.574
  140MYC    C1528673   4.896   5.039   1.697
  140MYC    H2628674   4.972   5.098   1.644
  140MYC    H2728675   4.895   4.941   1.649
  140MYC    C1428676   4.941   5.024   1.844
  140MYC    H2428677   5.035   4.969   1.845
  140MYC    H2528678   4.868   4.963   1.899
  140MYC    C1328679   4.962   5.159   1.917
  140MYC    H2228680   4.864   5.208   1.931
  140MYC    H2328681   5.022   5.226   1.854
  140MYC    C1228682   5.031   5.147   2.055
  140MYC    H2028683   5.135   5.119   2.040
  140MYC    H2128684   4.984   5.067   2.113
  140MYC    C1128685   5.025   5.280   2.134
  140MYC    H1828686   4.920   5.313   2.142
  140MYC    H1928687   5.076   5.358   2.076
  140MYC    C1028688   5.087   5.276   2.276
  140MYC    H1628689   5.090   5.379   2.314
  140MYC    H1728690   5.191   5.241   2.270
  140MYC     C928691   5.007   5.189   2.375
  140MYC    H1428692   5.025   5.083   2.354
  140MYC    H1528693   4.900   5.207   2.359
  140MYC     C828694   5.040   5.218   2.523
  140MYC    H1228695   5.025   5.325   2.542
  140MYC    H1328696   5.145   5.195   2.544
  140MYC     C728697   4.950   5.137   2.619
  140MYC    H1028698   4.974   5.031   2.612
  140MYC    H1128699   4.846   5.148   2.586
  140MYC     C628700   4.959   5.183   2.767
  140MYC     H828701   4.946   5.291   2.771
  140MYC     H928702   5.059   5.160   2.806
  140MYC     C528703   4.851   5.116   2.854
  140MYC     H628704   4.867   5.008   2.858
  140MYC     H728705   4.754   5.129   2.804
  140MYC     C428706   4.835   5.174   2.997
  140MYC     H428707   4.733   5.151   3.028
  140MYC     H528708   4.838   5.283   2.991
  140MYC     C228709   4.929   5.123   3.111
  140MYC     H228710   4.862   5.090   3.191
  140MYC     O328711   5.008   5.010   3.070
  140MYC     H328712   5.089   5.044   3.029
  140MYC     C128713   5.021   5.234   3.171
  140MYC     H128714   4.957   5.322   3.183
  140MYC    C8128715   5.132   5.275   3.072
  140MYC    O8228716   5.232   5.209   3.050
  140MYC    O8328717   5.101   5.382   2.996
  140MYC   H10528718   5.175   5.392   2.934
  140MYC    C2028719   5.078   5.199   3.311
  140MYC    H3428720   5.121   5.098   3.309
  140MYC    H3528721   5.160   5.268   3.333
  140MYC    C2128722   4.973   5.210   3.424
  140MYC    H3628723   4.930   5.312   3.422
  140MYC    H3728724   4.890   5.141   3.405
  140MYC    C2228725   5.029   5.183   3.565
  140MYC    H3828726   5.056   5.076   3.573
  140MYC    H3928727   5.122   5.240   3.578
  140MYC    C2328728   4.930   5.221   3.677
  140MYC    H4028729   4.906   5.327   3.668
  140MYC    H4128730   4.836   5.165   3.664
  140MYC    C2428731   4.986   5.194   3.818
  140MYC    H4228732   4.999   5.085   3.831
  140MYC    H4328733   5.085   5.239   3.826
  140MYC    C2528734   4.897   5.249   3.932
  140MYC    H4428735   4.887   5.357   3.920
  140MYC    H4528736   4.796   5.206   3.924
  140MYC    C2628737   4.956   5.218   4.071
  140MYC    H4628738   4.961   5.109   4.084
  140MYC    H4728739   5.059   5.255   4.075
  140MYC    C2728740   4.876   5.279   4.188
  140MYC    H4828741   4.874   5.388   4.178
  140MYC    H4928742   4.772   5.243   4.185
  140MYC    C2828743   4.939   5.241   4.324
  140MYC    H5028744   4.937   5.132   4.336
  140MYC    H5128745   5.044   5.271   4.324
  140MYC    C2928746   4.870   5.306   4.446
  140MYC    H5228747   4.873   5.415   4.436
  140MYC    H5328748   4.764   5.276   4.448
  140MYC    C3028749   4.938   5.264   4.578
  140MYC    H5428750   4.931   5.155   4.588
  140MYC    H5528751   5.044   5.289   4.573
  140MYC    C3128752   4.877   5.330   4.704
  140MYC    H5628753   4.885   5.439   4.695
  140MYC    H5728754   4.770   5.306   4.709
  140MYC    C3228755   4.947   5.283   4.833
  140MYC    H5828756   4.939   5.174   4.840
  140MYC    H5928757   5.053   5.307   4.827
  140MYC    C3328758   4.888   5.346   4.961
  140MYC    H6028759   4.900   5.455   4.957
  140MYC    H6128760   4.780   5.326   4.965
  140MYC    C3428761   4.954   5.293   5.090
  140MYC    H6228762   4.946   5.183   5.091
  140MYC    H6328763   5.061   5.318   5.088
  140MYC    C3528764   4.891   5.349   5.218
  140MYC    H6428765   4.903   5.458   5.220
  140MYC    H6528766   4.783   5.329   5.217
  140MYC    C3628767   4.952   5.289   5.347
  140MYC    H6628768   4.945   5.179   5.342
  140MYC    H6728769   5.058   5.314   5.351
  140MYC    C3728770   4.883   5.338   5.476
  140MYC    H6828771   4.897   5.446   5.485
  140MYC    H6928772   4.775   5.319   5.468
  140MYC    C3828773   4.936   5.269   5.602
  140MYC    H7028774   4.921   5.160   5.594
  140MYC    H7128775   5.044   5.285   5.610
  140MYC    C3928776   4.869   5.319   5.732
  140MYC    H7228777   4.895   5.425   5.746
  140MYC    H7328778   4.760   5.313   5.721
  140MYC    C4028779   4.912   5.240   5.857
  140MYC    H7428780   4.877   5.136   5.847
  140MYC    H7528781   5.022   5.237   5.863
  140MYC    C4128782   4.857   5.300   5.988
  140MYC    H7628783   4.899   5.401   6.001
  140MYC    H7728784   4.748   5.312   5.980
  140MYC    C4228785   4.889   5.215   6.112
  140MYC    H7828786   4.838   5.118   6.104
  140MYC    H7928787   4.997   5.194   6.115
  140MYC    C4328788   4.848   5.283   6.244
  140MYC    H8028789   4.868   5.216   6.329
  140MYC    H8128790   4.741   5.307   6.244
  140MYC    H8228791   4.905   5.375   6.259
  141MYC   HH1528792   5.447   6.256   6.168
  141MYC    C8028793   5.412   6.202   6.079
  141MYC   H10028794   5.445   6.098   6.087
  141MYC   H10128795   5.302   6.204   6.079
  141MYC    C7928796   5.467   6.267   5.951
  141MYC   H10228797   5.577   6.265   5.954
  141MYC   H10328798   5.437   6.372   5.948
  141MYC    C7828799   5.419   6.197   5.822
  141MYC   HH1428800   5.309   6.198   5.820
  141MYC   H10428801   5.450   6.091   5.824
  141MYC    C7728802   5.473   6.263   5.694
  141MYC   H10628803   5.582   6.255   5.692
  141MYC   H10728804   5.448   6.370   5.695
  141MYC    C7628805   5.415   6.200   5.565
  141MYC   H10828806   5.305   6.209   5.568
  141MYC   H10928807   5.438   6.093   5.564
  141MYC    C7528808   5.468   6.265   5.437
  141MYC   H11028809   5.576   6.248   5.430
  141MYC   H11128810   5.454   6.374   5.442
  141MYC    C7428811   5.400   6.212   5.310
  141MYC   H11228812   5.293   6.235   5.314
  141MYC   H11328813   5.409   6.103   5.307
  141MYC    C7328814   5.459   6.271   5.180
  141MYC   HH1328815   5.565   6.241   5.173
  141MYC   H11428816   5.456   6.380   5.185
  141MYC    C7228817   5.384   6.224   5.054
  141MYC   H11528818   5.282   6.263   5.056
  141MYC   H11628819   5.377   6.115   5.054
  141MYC    C7128820   5.453   6.270   4.924
  141MYC   H11728821   5.554   6.226   4.920
  141MYC   H11828822   5.465   6.379   4.925
  141MYC    C7028823   5.375   6.229   4.798
  141MYC   H11928824   5.278   6.279   4.798
  141MYC   H12028825   5.356   6.121   4.800
  141MYC    C6928826   5.451   6.263   4.668
  141MYC   H12128827   5.546   6.209   4.667
  141MYC   H12228828   5.474   6.371   4.667
  141MYC    C6828829   5.371   6.228   4.541
  141MYC   HH1228830   5.276   6.284   4.541
  141MYC   H12328831   5.345   6.122   4.542
  141MYC    C6728832   5.449   6.261   4.412
  141MYC   H12428833   5.543   6.204   4.412
  141MYC   H12528834   5.476   6.367   4.412
  141MYC    C6628835   5.370   6.228   4.284
  141MYC   H12628836   5.276   6.283   4.285
  141MYC   H12728837   5.345   6.121   4.283
  141MYC    C6528838   5.449   6.263   4.157
  141MYC   H12828839   5.544   6.209   4.157
  141MYC   H12928840   5.473   6.370   4.158
  141MYC    C6428841   5.372   6.230   4.028
  141MYC   H13028842   5.277   6.285   4.028
  141MYC   H13128843   5.347   6.124   4.026
  141MYC    C6328844   5.451   6.267   3.901
  141MYC   HH1128845   5.545   6.211   3.900
  141MYC   H13228846   5.477   6.374   3.905
  141MYC    C6228847   5.373   6.238   3.772
  141MYC   H13328848   5.277   6.291   3.776
  141MYC   H13428849   5.350   6.131   3.767
  141MYC    C6128850   5.448   6.280   3.646
  141MYC   H13528851   5.541   6.222   3.638
  141MYC   H13628852   5.478   6.386   3.654
  141MYC    C6028853   5.364   6.263   3.521
  141MYC   H13728854   5.269   6.315   3.528
  141MYC    C5828855   5.428   6.259   3.385
  141MYC   H13828856   5.537   6.260   3.381
  141MYC    C5928857   5.364   6.134   3.442
  141MYC   H13928858   5.270   6.101   3.399
  141MYC   H14028859   5.429   6.054   3.475
  141MYC    C5728860   5.364   6.334   3.270
  141MYC   HH1028861   5.399   6.438   3.269
  141MYC   H14128862   5.255   6.338   3.283
  141MYC    C5628863   5.395   6.268   3.134
  141MYC   H14228864   5.370   6.162   3.140
  141MYC   H14328865   5.502   6.275   3.114
  141MYC    C5528866   5.316   6.331   3.018
  141MYC   H14428867   5.348   6.435   3.004
  141MYC   H14528868   5.209   6.333   3.044
  141MYC    C5428869   5.333   6.253   2.887
  141MYC   H14628870   5.306   6.148   2.904
  141MYC   H14728871   5.439   6.254   2.857
  141MYC    C5328872   5.246   6.308   2.773
  141MYC   H14828873   5.280   6.410   2.747
  141MYC   H14928874   5.142   6.317   2.807
  141MYC    C5228875   5.251   6.219   2.647
  141MYC    H9928876   5.217   6.118   2.673
  141MYC   H15028877   5.354   6.211   2.612
  141MYC    C5128878   5.163   6.274   2.534
  141MYC    H9728879   5.194   6.376   2.510
  141MYC    H9828880   5.058   6.279   2.567
  141MYC    C5028881   5.171   6.189   2.406
  141MYC    H9528882   5.138   6.086   2.428
  141MYC    H9628883   5.276   6.183   2.374
  141MYC    C4928884   5.085   6.246   2.292
  141MYC    H9328885   5.104   6.354   2.284
  141MYC    H9428886   4.979   6.233   2.315
  141MYC    C4828887   5.117   6.181   2.156
  141MYC    H9128888   5.099   6.073   2.162
  141MYC    H9228889   5.224   6.195   2.134
  141MYC    C4728890   5.034   6.240   2.040
  141MYC    H8928891   5.044   6.349   2.039
  141MYC    H9028892   4.928   6.217   2.057
  141MYC    C4628893   5.079   6.183   1.904
  141MYC    H8728894   5.074   6.074   1.910
  141MYC    H8828895   5.184   6.209   1.889
  141MYC    C4528896   4.999   6.233   1.781
  141MYC    H8528897   5.049   6.199   1.690
  141MYC    H8628898   5.004   6.343   1.780
  141MYC    C4428899   4.851   6.190   1.776
  141MYC    H8328900   4.804   6.242   1.691
  141MYC    H8428901   4.799   6.225   1.866
  141MYC    C1828902   4.828   6.040   1.759
  141MYC    H3128903   4.906   5.979   1.805
  141MYC    C1728904   4.688   5.982   1.765
  141MYC    H3028905   4.606   6.052   1.772
  141MYC    C1928906   4.764   5.982   1.635
  141MYC    H3228907   4.727   6.050   1.558
  141MYC    H3328908   4.801   5.887   1.597
  141MYC    C1628909   4.662   5.852   1.840
  141MYC    H2828910   4.756   5.797   1.853
  141MYC    H2928911   4.597   5.789   1.780
  141MYC    C1528912   4.597   5.871   1.980
  141MYC    H2628913   4.595   5.774   2.030
  141MYC    H2728914   4.493   5.902   1.966
  141MYC    C1428915   4.668   5.974   2.071
  141MYC    H2428916   4.657   6.074   2.027
  141MYC    H2528917   4.775   5.953   2.076
  141MYC    C1328918   4.610   5.975   2.214
  141MYC    H2228919   4.637   5.882   2.264
  141MYC    H2328920   4.500   5.977   2.208
  141MYC    C1228921   4.658   6.097   2.297
  141MYC    H2028922   4.626   6.188   2.245
  141MYC    H2128923   4.767   6.099   2.300
  141MYC    C1128924   4.602   6.102   2.442
  141MYC    H1828925   4.500   6.059   2.444
  141MYC    H1928926   4.591   6.207   2.470
  141MYC    C1028927   4.689   6.033   2.550
  141MYC    H1628928   4.643   6.053   2.648
  141MYC    H1728929   4.787   6.082   2.551
  141MYC     C928930   4.707   5.880   2.534
  141MYC    H1428931   4.773   5.860   2.449
  141MYC    H1528932   4.610   5.835   2.512
  141MYC     C828933   4.765   5.811   2.660
  141MYC    H1228934   4.767   5.703   2.642
  141MYC    H1328935   4.695   5.828   2.742
  141MYC     C728936   4.907   5.859   2.701
  141MYC    H1028937   4.906   5.966   2.720
  141MYC    H1128938   4.975   5.843   2.616
  141MYC     C628939   4.965   5.787   2.825
  141MYC     H828940   5.067   5.822   2.842
  141MYC     H928941   4.971   5.679   2.805
  141MYC     C528942   4.882   5.810   2.954
  141MYC     H628943   4.781   5.770   2.939
  141MYC     H728944   4.872   5.918   2.971
  141MYC     C428945   4.944   5.744   3.080
  141MYC     H428946   5.039   5.796   3.101
  141MYC     H528947   4.971   5.640   3.057
  141MYC     C228948   4.858   5.747   3.209
  141MYC     H228949   4.930   5.738   3.291
  141MYC     O328950   4.791   5.873   3.222
  141MYC     H328951   4.721   5.876   3.154
  141MYC     C128952   4.756   5.628   3.225
  141MYC     H128953   4.816   5.536   3.226
  141MYC    C8128954   4.657   5.616   3.107
  141MYC    O8228955   4.571   5.698   3.082
  141MYC    O8328956   4.670   5.503   3.035
  141MYC   H10528957   4.601   5.507   2.967
  141MYC    C2028958   4.676   5.632   3.359
  141MYC    H3428959   4.619   5.725   3.364
  141MYC    H3528960   4.602   5.551   3.358
  141MYC    C2128961   4.763   5.616   3.486
  141MYC    H3628962   4.804   5.515   3.490
  141MYC    H3728963   4.848   5.685   3.482
  141MYC    C2228964   4.684   5.645   3.615
  141MYC    H3828965   4.641   5.746   3.608
  141MYC    H3928966   4.600   5.575   3.624
  141MYC    C2328967   4.772   5.637   3.741
  141MYC    H4028968   4.811   5.535   3.751
  141MYC    H4128969   4.859   5.703   3.730
  141MYC    C2428970   4.696   5.674   3.869
  141MYC    H4228971   4.653   5.775   3.857
  141MYC    H4328972   4.612   5.605   3.882
  141MYC    C2528973   4.785   5.673   3.994
  141MYC    H4428974   4.840   5.579   4.000
  141MYC    H4528975   4.859   5.754   3.987
  141MYC    C2628976   4.702   5.690   4.123
  141MYC    H4628977   4.638   5.779   4.114
  141MYC    H4728978   4.636   5.603   4.134
  141MYC    C2728979   4.789   5.704   4.249
  141MYC    H4828980   4.866   5.626   4.250
  141MYC    H4928981   4.841   5.800   4.247
  141MYC    C2828982   4.705   5.693   4.378
  141MYC    H5028983   4.619   5.760   4.371
  141MYC    H5128984   4.665   5.591   4.385
  141MYC    C2928985   4.785   5.726   4.505
  141MYC    H5228986   4.877   5.667   4.508
  141MYC    H5328987   4.814   5.832   4.504
  141MYC    C3028988   4.703   5.697   4.633
  141MYC    H5428989   4.606   5.747   4.626
  141MYC    H5528990   4.683   5.589   4.637
  141MYC    C3128991   4.774   5.741   4.762
  141MYC    H5628992   4.876   5.700   4.764
  141MYC    H5728993   4.783   5.850   4.762
  141MYC    C3228994   4.698   5.695   4.887
  141MYC    H5828995   4.594   5.731   4.881
  141MYC    H5928996   4.693   5.586   4.888
  141MYC    C3328997   4.760   5.744   5.019
  141MYC    H6028998   4.866   5.716   5.022
  141MYC    H6128999   4.755   5.854   5.023
  141MYC    C3429000   4.688   5.684   5.141
  141MYC    H6229001   4.581   5.705   5.133
  141MYC    H6329002   4.699   5.575   5.139
  141MYC    C3529003   4.739   5.738   5.276
  141MYC    H6429004   4.847   5.724   5.283
  141MYC    H6529005   4.719   5.845   5.282
  141MYC    C3629006   4.670   5.666   5.394
  141MYC    H6629007   4.561   5.668   5.379
  141MYC    H6729008   4.700   5.560   5.393
  141MYC    C3729009   4.701   5.727   5.532
  141MYC    H6829010   4.810   5.739   5.544
  141MYC    H6929011   4.657   5.827   5.537
  141MYC    C3829012   4.647   5.639   5.646
  141MYC    H7029013   4.545   5.608   5.622
  141MYC    H7129014   4.708   5.548   5.652
  141MYC    C3929015   4.646   5.709   5.784
  141MYC    H7229016   4.741   5.760   5.801
  141MYC    H7329017   4.568   5.786   5.783
  141MYC    C4029018   4.620   5.609   5.899
  141MYC    H7429019   4.547   5.534   5.867
  141MYC    H7529020   4.714   5.555   5.919
  141MYC    C4129021   4.570   5.675   6.028
  141MYC    H7629022   4.635   5.759   6.056
  141MYC    H7729023   4.470   5.716   6.010
  141MYC    C4229024   4.563   5.576   6.146
  141MYC    H7829025   4.515   5.483   6.112
  141MYC    H7929026   4.665   5.549   6.177
  141MYC    C4329027   4.486   5.630   6.268
  141MYC    H8029028   4.487   5.556   6.349
  141MYC    H8129029   4.382   5.651   6.242
  141MYC    H8229030   4.532   5.723   6.305
  142MYC   HH1529031   5.408   0.440   6.077
  142MYC    C8029032   5.514   0.441   6.050
  142MYC   H10029033   5.569   0.497   6.127
  142MYC   H10129034   5.551   0.337   6.051
  142MYC    C7929035   5.535   0.504   5.911
  142MYC   H10229036   5.642   0.507   5.890
  142MYC   H10329037   5.500   0.608   5.914
  142MYC    C7829038   5.462   0.428   5.799
  142MYC   HH1429039   5.354   0.433   5.816
  142MYC   H10429040   5.491   0.323   5.803
  142MYC    C7729041   5.493   0.484   5.658
  142MYC   H10629042   5.602   0.485   5.644
  142MYC   H10729043   5.459   0.588   5.651
  142MYC    C7629044   5.429   0.401   5.546
  142MYC   H10829045   5.320   0.414   5.548
  142MYC   H10929046   5.449   0.294   5.564
  142MYC    C7529047   5.482   0.438   5.406
  142MYC   H11029048   5.591   0.431   5.406
  142MYC   H11129049   5.456   0.542   5.383
  142MYC    C7429050   5.426   0.346   5.295
  142MYC   H11229051   5.318   0.363   5.286
  142MYC   H11329052   5.440   0.242   5.323
  142MYC    C7329053   5.493   0.370   5.158
  142MYC   HH1329054   5.600   0.347   5.166
  142MYC   H11429055   5.485   0.476   5.132
  142MYC    C7229056   5.430   0.286   5.046
  142MYC   H11529057   5.324   0.312   5.039
  142MYC   H11629058   5.435   0.179   5.072
  142MYC    C7129059   5.497   0.308   4.909
  142MYC   H11729060   5.593   0.255   4.906
  142MYC   H11829061   5.519   0.415   4.897
  142MYC    C7029062   5.408   0.262   4.792
  142MYC   H11929063   5.311   0.313   4.801
  142MYC   H12029064   5.389   0.155   4.799
  142MYC    C6929065   5.469   0.296   4.654
  142MYC   H12129066   5.554   0.229   4.635
  142MYC   H12229067   5.507   0.398   4.656
  142MYC    C6829068   5.365   0.284   4.541
  142MYC   HH1229069   5.280   0.349   4.563
  142MYC   H12329070   5.328   0.181   4.535
  142MYC    C6729071   5.424   0.325   4.404
  142MYC   H12429072   5.504   0.255   4.377
  142MYC   H12529073   5.470   0.424   4.413
  142MYC    C6629074   5.318   0.329   4.292
  142MYC   H12629075   5.242   0.404   4.315
  142MYC   H12729076   5.267   0.232   4.287
  142MYC    C6529077   5.382   0.360   4.155
  142MYC   H12829078   5.459   0.285   4.135
  142MYC   H12929079   5.432   0.458   4.160
  142MYC    C6429080   5.281   0.361   4.039
  142MYC   H13029081   5.207   0.441   4.054
  142MYC   H13129082   5.226   0.266   4.038
  142MYC    C6329083   5.352   0.380   3.903
  142MYC   HH1129084   5.432   0.306   3.895
  142MYC   H13229085   5.399   0.479   3.901
  142MYC    C6229086   5.259   0.365   3.781
  142MYC   H13329087   5.178   0.440   3.786
  142MYC   H13429088   5.212   0.266   3.784
  142MYC    C6129089   5.336   0.382   3.649
  142MYC   H13529090   5.428   0.322   3.654
  142MYC   H13629091   5.368   0.486   3.639
  142MYC    C6029092   5.257   0.340   3.527
  142MYC   H13729093   5.164   0.396   3.516
  142MYC    C5829094   5.330   0.304   3.400
  142MYC   H13829095   5.438   0.299   3.405
  142MYC    C5929096   5.256   0.197   3.477
  142MYC   H13929097   5.165   0.158   3.434
  142MYC   H14029098   5.316   0.124   3.532
  142MYC    C5729099   5.281   0.356   3.266
  142MYC   HH1029100   5.172   0.371   3.269
  142MYC   H14129101   5.301   0.281   3.188
  142MYC    C5629102   5.347   0.489   3.227
  142MYC   H14229103   5.456   0.478   3.232
  142MYC   H14329104   5.319   0.567   3.299
  142MYC    C5529105   5.309   0.535   3.085
  142MYC   H14429106   5.200   0.545   3.077
  142MYC   H14529107   5.339   0.456   3.014
  142MYC    C5429108   5.375   0.669   3.045
  142MYC   H14629109   5.482   0.667   3.069
  142MYC   H14729110   5.331   0.749   3.106
  142MYC    C5329111   5.360   0.706   2.896
  142MYC   H14829112   5.390   0.811   2.882
  142MYC   H14929113   5.254   0.699   2.868
  142MYC    C5229114   5.445   0.617   2.802
  142MYC    H9929115   5.418   0.512   2.815
  142MYC   H15029116   5.551   0.627   2.828
  142MYC    C5129117   5.426   0.653   2.653
  142MYC    H9729118   5.460   0.756   2.635
  142MYC    H9829119   5.319   0.650   2.629
  142MYC    C5029120   5.501   0.557   2.559
  142MYC    H9529121   5.474   0.454   2.583
  142MYC    H9629122   5.609   0.566   2.575
  142MYC    C4929123   5.469   0.584   2.410
  142MYC    H9329124   5.505   0.683   2.382
  142MYC    H9429125   5.360   0.585   2.398
  142MYC    C4829126   5.527   0.478   2.315
  142MYC    H9129127   5.490   0.379   2.344
  142MYC    H9229128   5.636   0.475   2.325
  142MYC    C4729129   5.489   0.505   2.168
  142MYC    H8929130   5.542   0.595   2.133
  142MYC    H9029131   5.382   0.526   2.161
  142MYC    C4629132   5.522   0.387   2.074
  142MYC    H8729133   5.463   0.299   2.105
  142MYC    H8829134   5.627   0.361   2.086
  142MYC    C4529135   5.493   0.418   1.926
  142MYC    H8529136   5.546   0.509   1.896
  142MYC    H8629137   5.386   0.438   1.914
  142MYC    C4429138   5.532   0.303   1.830
  142MYC    H8329139   5.489   0.325   1.731
  142MYC    H8429140   5.486   0.210   1.864
  142MYC    C1829141   5.683   0.284   1.816
  142MYC    H3129142   5.732   0.261   1.910
  142MYC    C1729143   5.743   0.219   1.693
  142MYC    H3029144   5.675   0.192   1.613
  142MYC    C1929145   5.762   0.367   1.718
  142MYC    H3229146   5.707   0.436   1.654
  142MYC    H3329147   5.859   0.403   1.749
  142MYC    C1629148   5.860   0.121   1.705
  142MYC    H2829149   5.925   0.149   1.789
  142MYC    H2929150   5.922   0.129   1.616
  142MYC    C1529151   5.815   6.424   1.721
  142MYC    H2629152   5.903   6.358   1.719
  142MYC    H2729153   5.755   6.397   1.633
  142MYC    C1429154   5.732   6.393   1.847
  142MYC    H2429155   5.691   6.292   1.839
  142MYC    H2529156   5.645   0.010   1.850
  142MYC    C1329157   5.810   6.403   1.980
  142MYC    H2229158   5.868   0.046   1.983
  142MYC    H2329159   5.881   6.320   1.987
  142MYC    C1229160   5.715   6.402   2.102
  142MYC    H2029161   5.654   6.311   2.101
  142MYC    H2129162   5.647   0.037   2.091
  142MYC    C1129163   5.788   6.413   2.238
  142MYC    H1829164   5.866   0.041   2.232
  142MYC    H1929165   5.839   6.319   2.261
  142MYC    C1029166   5.689  -0.001   2.351
  142MYC    H1629167   5.620   6.366   2.366
  142MYC    H1729168   5.629   0.085   2.319
  142MYC     C929169   5.757   0.036   2.485
  142MYC    H1429170   5.828   0.117   2.468
  142MYC    H1529171   5.814   6.400   2.523
  142MYC     C829172   5.653   0.080   2.591
  142MYC    H1229173   5.594   6.443   2.622
  142MYC    H1329174   5.583   0.151   2.544
  142MYC     C729175   5.715   0.148   2.714
  142MYC    H1029176   5.780   0.230   2.680
  142MYC    H1129177   5.779   0.077   2.767
  142MYC     C629178   5.608   0.205   2.810
  142MYC     H829179   5.559   0.123   2.864
  142MYC     H929180   5.530   0.254   2.751
  142MYC     C529181   5.664   0.310   2.910
  142MYC     H629182   5.580   0.362   2.957
  142MYC     H729183   5.717   0.386   2.853
  142MYC     C429184   5.758   0.255   3.020
  142MYC     H429185   5.829   0.335   3.044
  142MYC     H529186   5.818   0.172   2.982
  142MYC     C229187   5.686   0.215   3.151
  142MYC     H229188   5.626   0.302   3.181
  142MYC     O329189   5.598   0.106   3.127
  142MYC     H329190   5.542   0.129   3.050
  142MYC     C129191   5.783   0.182   3.268
  142MYC     H129192   5.863   0.257   3.262
  142MYC    C8129193   5.850   0.043   3.255
  142MYC    O8229194   5.796   6.387   3.280
  142MYC    O8329195   5.978   0.048   3.211
  142MYC   H10529196   6.006   6.405   3.205
  142MYC    C2029197   5.714   0.202   3.405
  142MYC    H3429198   5.671   0.303   3.406
  142MYC    H3529199   5.630   0.132   3.415
  142MYC    C2129200   5.807   0.189   3.528
  142MYC    H3629201   5.825   0.083   3.549
  142MYC    H3729202   5.904   0.236   3.506
  142MYC    C2229203   5.746   0.259   3.652
  142MYC    H3829204   5.733   0.365   3.629
  142MYC    H3929205   5.646   0.218   3.671
  142MYC    C2329206   5.832   0.247   3.779
  142MYC    H4029207   5.938   0.263   3.755
  142MYC    H4129208   5.803   0.329   3.847
  142MYC    C2429209   5.815   0.114   3.855
  142MYC    H4229210   5.708   0.100   3.877
  142MYC    H4329211   5.846   0.030   3.792
  142MYC    C2529212   5.895   0.112   3.987
  142MYC    H4429213   6.001   0.096   3.965
  142MYC    H4529214   5.887   0.211   4.034
  142MYC    C2629215   5.846   0.006   4.088
  142MYC    H4629216   5.738   0.020   4.103
  142MYC    H4729217   5.860   6.355   4.048
  142MYC    C2729218   5.918   0.020   4.223
  142MYC    H4829219   6.019   6.426   4.215
  142MYC    H4929220   5.932   0.126   4.246
  142MYC    C2829221   5.843   6.405   4.342
  142MYC    H5029222   5.739   6.441   4.342
  142MYC    H5129223   5.840   6.296   4.329
  142MYC    C2929224   5.909   6.440   4.476
  142MYC    H5229225   6.009   6.395   4.481
  142MYC    H5329226   5.923   0.099   4.481
  142MYC    C3029227   5.828   6.397   4.600
  142MYC    H5429228   5.726   6.439   4.593
  142MYC    H5529229   5.818   6.288   4.601
  142MYC    C3129230   5.894   6.445   4.730
  142MYC    H5629231   5.996   6.403   4.736
  142MYC    H5729232   5.905   0.104   4.727
  142MYC    C3229233   5.817   6.406   4.858
  142MYC    H5829234   5.716   0.000   4.854
  142MYC    H5929235   5.805   6.297   4.861
  142MYC    C3329236   5.890   0.004   4.985
  142MYC    H6029237   5.992   6.413   4.985
  142MYC    H6129238   5.898   0.113   4.983
  142MYC    C3429239   5.819   6.411   5.115
  142MYC    H6229240   5.718   0.005   5.118
  142MYC    H6329241   5.808   6.302   5.116
  142MYC    C3529242   5.898   0.005   5.240
  142MYC    H6429243   6.000   6.415   5.235
  142MYC    H6529244   5.906   0.115   5.241
  142MYC    C3629245   5.833   6.408   5.372
  142MYC    H6629246   5.731   6.449   5.379
  142MYC    H6729247   5.823   6.299   5.370
  142MYC    C3729248   5.914   6.449   5.496
  142MYC    H6829249   6.016   6.409   5.488
  142MYC    H6929250   5.923   0.109   5.498
  142MYC    C3829251   5.850   6.401   5.628
  142MYC    H7029252   5.748   6.441   5.634
  142MYC    H7129253   5.843   6.292   5.627
  142MYC    C3929254   5.929   6.446   5.752
  142MYC    H7229255   6.031   6.405   5.747
  142MYC    H7329256   5.938   0.105   5.752
  142MYC    C4029257   5.863   6.401   5.884
  142MYC    H7429258   5.760   6.439   5.887
  142MYC    H7529259   5.857   6.291   5.885
  142MYC    C4129260   5.939   6.448   6.009
  142MYC    H7629261   6.042   6.411   6.005
  142MYC    H7729262   5.945   0.108   6.008
  142MYC    C4229263   5.871   6.404   6.141
  142MYC    H7829264   5.826   0.042   6.190
  142MYC    H7929265   5.788   6.335   6.120
  142MYC    C4329266   5.967   6.336   6.240
  142MYC    H8029267   5.911   6.300   6.327
  142MYC    H8129268   6.044   6.406   6.274
  142MYC    H8229269   6.017   6.250   6.193
  143MYC   HH1529270   5.610   1.381   6.220
  143MYC    C8029271   5.670   1.337   6.139
  143MYC   H10029272   5.775   1.360   6.159
  143MYC   H10129273   5.657   1.228   6.142
  143MYC    C7929274   5.627   1.394   6.003
  143MYC   H10229275   5.636   1.504   6.006
  143MYC   H10329276   5.522   1.371   5.986
  143MYC    C7829277   5.712   1.340   5.885
  143MYC   HH1429278   5.702   1.231   5.881
  143MYC   H10429279   5.818   1.362   5.904
  143MYC    C7729280   5.671   1.401   5.750
  143MYC   H10629281   5.673   1.510   5.757
  143MYC   H10729282   5.568   1.372   5.727
  143MYC    C7629283   5.763   1.357   5.634
  143MYC   H10829284   5.759   1.248   5.623
  143MYC   H10929285   5.867   1.383   5.658
  143MYC    C7529286   5.725   1.424   5.500
  143MYC   H11029287   5.732   1.533   5.511
  143MYC   H11129288   5.621   1.400   5.477
  143MYC    C7429289   5.813   1.379   5.382
  143MYC   H11229290   5.802   1.270   5.370
  143MYC   H11329291   5.919   1.397   5.405
  143MYC    C7329292   5.777   1.451   5.251
  143MYC   HH1329293   5.835   1.543   5.243
  143MYC   H11429294   5.671   1.479   5.252
  143MYC    C7229295   5.801   1.364   5.126
  143MYC   H11529296   5.740   1.273   5.134
  143MYC   H11629297   5.906   1.332   5.122
  143MYC    C7129298   5.765   1.438   4.995
  143MYC   H11729299   5.838   1.518   4.978
  143MYC   H11829300   5.667   1.485   5.006
  143MYC    C7029301   5.762   1.344   4.873
  143MYC   H11929302   5.683   1.269   4.888
  143MYC   H12029303   5.857   1.290   4.866
  143MYC    C6929304   5.736   1.419   4.741
  143MYC   H12129305   5.821   1.485   4.721
  143MYC   H12229306   5.647   1.483   4.752
  143MYC    C6829307   5.715   1.323   4.623
  143MYC   HH1229308   5.623   1.265   4.640
  143MYC   H12329309   5.798   1.252   4.618
  143MYC    C6729310   5.704   1.397   4.488
  143MYC   H12429311   5.798   1.449   4.468
  143MYC   H12529312   5.625   1.473   4.494
  143MYC    C6629313   5.673   1.301   4.372
  143MYC   H12629314   5.576   1.253   4.390
  143MYC   H12729315   5.749   1.222   4.369
  143MYC    C6529316   5.670   1.372   4.235
  143MYC   H12829317   5.768   1.416   4.215
  143MYC   H12929318   5.597   1.454   4.238
  143MYC    C6429319   5.634   1.275   4.121
  143MYC   H13029320   5.536   1.230   4.142
  143MYC   H13129321   5.707   1.193   4.118
  143MYC    C6329322   5.628   1.343   3.983
  143MYC   HH1129323   5.727   1.384   3.958
  143MYC   H13229324   5.558   1.428   3.987
  143MYC    C6229325   5.583   1.246   3.872
  143MYC   H13329326   5.485   1.205   3.899
  143MYC   H13429327   5.653   1.161   3.868
  143MYC    C6129328   5.574   1.312   3.734
  143MYC   H13529329   5.674   1.349   3.705
  143MYC   H13629330   5.508   1.399   3.739
  143MYC    C6029331   5.521   1.215   3.629
  143MYC   H13729332   5.419   1.184   3.648
  143MYC    C5829333   5.561   1.230   3.484
  143MYC   H13829334   5.634   1.308   3.462
  143MYC    C5929335   5.611   1.112   3.564
  143MYC   H13929336   5.569   1.014   3.543
  143MYC   H14029337   5.716   1.111   3.593
  143MYC    C5729338   5.459   1.212   3.373
  143MYC   HH1029339   5.399   1.304   3.365
  143MYC   H14129340   5.389   1.131   3.398
  143MYC    C5629341   5.526   1.182   3.238
  143MYC   H14229342   5.580   1.087   3.244
  143MYC   H14329343   5.600   1.261   3.217
  143MYC    C5529344   5.425   1.177   3.121
  143MYC   H14429345   5.367   1.269   3.122
  143MYC   H14529346   5.355   1.094   3.136
  143MYC    C5429347   5.495   1.161   2.985
  143MYC   H14629348   5.532   1.059   2.973
  143MYC   H14729349   5.583   1.227   2.983
  143MYC    C5329350   5.403   1.199   2.866
  143MYC   H14829351   5.354   1.294   2.890
  143MYC   H14929352   5.324   1.124   2.855
  143MYC    C5229353   5.481   1.216   2.734
  143MYC    H9929354   5.506   1.117   2.693
  143MYC   H15029355   5.576   1.266   2.754
  143MYC    C5129356   5.403   1.298   2.630
  143MYC    H9729357   5.372   1.393   2.676
  143MYC    H9829358   5.312   1.244   2.600
  143MYC    C5029359   5.487   1.330   2.504
  143MYC    H9529360   5.502   1.238   2.447
  143MYC    H9629361   5.587   1.364   2.534
  143MYC    C4929362   5.423   1.440   2.415
  143MYC    H9329363   5.483   1.531   2.425
  143MYC    H9429364   5.323   1.464   2.450
  143MYC    C4829365   5.415   1.402   2.265
  143MYC    H9129366   5.346   1.317   2.254
  143MYC    H9229367   5.513   1.368   2.231
  143MYC    C4729368   5.368   1.519   2.178
  143MYC    H8929369   5.437   1.603   2.190
  143MYC    H9029370   5.270   1.554   2.213
  143MYC    C4629371   5.358   1.484   2.028
  143MYC    H8729372   5.288   1.401   2.014
  143MYC    H8829373   5.457   1.449   1.994
  143MYC    C4529374   5.312   1.604   1.942
  143MYC    H8529375   5.379   1.689   1.961
  143MYC    H8629376   5.212   1.634   1.976
  143MYC    C4429377   5.307   1.577   1.790
  143MYC    H8329378   5.251   1.659   1.743
  143MYC    H8429379   5.249   1.486   1.771
  143MYC    C1829380   5.444   1.568   1.724
  143MYC    H3129381   5.503   1.658   1.738
  143MYC    C1729382   5.523   1.439   1.720
  143MYC    H3029383   5.474   1.353   1.763
  143MYC    C1929384   5.463   1.496   1.593
  143MYC    H3229385   5.377   1.445   1.551
  143MYC    H3329386   5.530   1.541   1.520
  143MYC    C1629387   5.674   1.443   1.745
  143MYC    H2829388   5.695   1.499   1.838
  143MYC    H2929389   5.723   1.499   1.665
  143MYC    C1529390   5.739   1.304   1.756
  143MYC    H2629391   5.848   1.315   1.741
  143MYC    H2729392   5.703   1.240   1.675
  143MYC    C1429393   5.715   1.235   1.892
  143MYC    H2429394   5.607   1.224   1.909
  143MYC    H2529395   5.753   1.299   1.972
  143MYC    C1329396   5.782   1.097   1.902
  143MYC    H2229397   5.891   1.109   1.890
  143MYC    H2329398   5.748   1.034   1.819
  143MYC    C1229399   5.753   1.026   2.036
  143MYC    H2029400   5.645   1.013   2.046
  143MYC    H2129401   5.785   1.091   2.118
  143MYC    C1129402   5.823   0.889   2.046
  143MYC    H1829403   5.930   0.904   2.035
  143MYC    H1929404   5.791   0.828   1.961
  143MYC    C1029405   5.794   0.810   2.176
  143MYC    H1629406   5.837   0.710   2.165
  143MYC    H1729407   5.686   0.797   2.186
  143MYC     C929408   5.850   0.875   2.304
  143MYC    H1429409   5.810   0.976   2.315
  143MYC    H1529410   5.959   0.884   2.296
  143MYC     C829411   5.816   0.795   2.431
  143MYC    H1229412   5.857   0.693   2.424
  143MYC    H1329413   5.707   0.786   2.439
  143MYC     C729414   5.869   0.862   2.560
  143MYC    H1029415   5.835   0.966   2.562
  143MYC    H1129416   5.978   0.864   2.557
  143MYC     C629417   5.822   0.791   2.688
  143MYC     H829418   5.855   0.687   2.687
  143MYC     H929419   5.712   0.791   2.692
  143MYC     C529420   5.875   0.861   2.814
  143MYC     H629421   5.842   0.966   2.813
  143MYC     H729422   5.985   0.862   2.811
  143MYC     C429423   5.830   0.795   2.946
  143MYC     H429424   5.862   0.690   2.946
  143MYC     H529425   5.720   0.795   2.951
  143MYC     C229426   5.888   0.867   3.070
  143MYC     H229427   5.996   0.877   3.053
  143MYC     O329428   5.830   0.997   3.080
  143MYC     H329429   5.892   1.054   3.128
  143MYC     C129430   5.872   0.788   3.203
  143MYC     H129431   5.931   0.696   3.190
  143MYC    C8129432   5.726   0.745   3.229
  143MYC    O8229433   5.635   0.822   3.256
  143MYC    O8329434   5.706   0.611   3.227
  143MYC   H10529435   5.611   0.600   3.247
  143MYC    C2029436   5.932   0.865   3.323
  143MYC    H3429437   6.035   0.894   3.299
  143MYC    H3529438   5.876   0.958   3.338
  143MYC    C2129439   5.933   0.785   3.454
  143MYC    H3629440   5.832   0.749   3.476
  143MYC    H3729441   5.997   0.697   3.444
  143MYC    C2229442   5.982   0.870   3.573
  143MYC    H3829443   6.086   0.900   3.557
  143MYC    H3929444   5.922   0.962   3.577
  143MYC    C2329445   5.969   0.796   3.707
  143MYC    H4029446   5.870   0.749   3.713
  143MYC    H4129447   6.044   0.716   3.712
  143MYC    C2429448   5.986   0.890   3.828
  143MYC    H4229449   6.085   0.936   3.826
  143MYC    H4329450   5.912   0.971   3.821
  143MYC    C2529451   5.967   0.815   3.962
  143MYC    H4429452   5.877   0.752   3.956
  143MYC    H4529453   6.052   0.749   3.978
  143MYC    C2629454   5.952   0.911   4.081
  143MYC    H4629455   6.040   0.976   4.088
  143MYC    H4729456   5.865   0.976   4.065
  143MYC    C2729457   5.934   0.835   4.214
  143MYC    H4829458   5.848   0.766   4.205
  143MYC    H4929459   6.023   0.773   4.232
  143MYC    C2829460   5.912   0.929   4.333
  143MYC    H5029461   5.994   1.001   4.338
  143MYC    H5129462   5.819   0.986   4.318
  143MYC    C2929463   5.903   0.852   4.466
  143MYC    H5229464   5.817   0.784   4.463
  143MYC    H5329465   5.993   0.790   4.478
  143MYC    C3029466   5.890   0.945   4.588
  143MYC    H5429467   5.973   1.016   4.588
  143MYC    H5529468   5.797   1.003   4.580
  143MYC    C3129469   5.889   0.866   4.720
  143MYC    H5629470   5.804   0.798   4.721
  143MYC    H5729471   5.980   0.804   4.725
  143MYC    C3229472   5.884   0.956   4.844
  143MYC    H5829473   5.970   1.025   4.844
  143MYC    H5929474   5.793   1.017   4.842
  143MYC    C3329475   5.887   0.873   4.974
  143MYC    H6029476   5.801   0.805   4.974
  143MYC    H6129477   5.977   0.811   4.974
  143MYC    C3429478   5.884   0.958   5.102
  143MYC    H6229479   5.969   1.027   5.102
  143MYC    H6329480   5.793   1.018   5.105
  143MYC    C3529481   5.891   0.869   5.227
  143MYC    H6429482   5.807   0.799   5.226
  143MYC    H6529483   5.983   0.808   5.222
  143MYC    C3629484   5.890   0.946   5.360
  143MYC    H6629485   5.972   1.020   5.360
  143MYC    H6729486   5.796   1.002   5.370
  143MYC    C3729487   5.907   0.851   5.480
  143MYC    H6829488   5.825   0.778   5.479
  143MYC    H6929489   6.000   0.794   5.466
  143MYC    C3829490   5.912   0.922   5.616
  143MYC    H7029491   5.991   0.998   5.615
  143MYC    H7129492   5.817   0.974   5.634
  143MYC    C3929493   5.938   0.821   5.730
  143MYC    H7229494   5.855   0.750   5.736
  143MYC    H7329495   6.028   0.763   5.705
  143MYC    C4029496   5.960   0.887   5.868
  143MYC    H7429497   6.041   0.960   5.860
  143MYC    H7529498   5.869   0.942   5.897
  143MYC    C4129499   5.994   0.783   5.976
  143MYC    H7629500   5.908   0.717   5.991
  143MYC    H7729501   6.077   0.720   5.940
  143MYC    C4229502   6.035   0.846   6.111
  143MYC    H7829503   6.117   0.916   6.095
  143MYC    H7929504   5.951   0.904   6.151
  143MYC    C4329505   6.079   0.740   6.214
  143MYC    H8029506   5.994   0.677   6.243
  143MYC    H8129507   6.118   0.789   6.304
  143MYC    H8229508   6.158   0.676   6.173
  144MYC   HH1529509   5.260   2.063   6.154
  144MYC    C8029510   5.287   2.013   6.061
  144MYC   H10029511   5.386   1.967   6.073
  144MYC   H10129512   5.214   1.934   6.041
  144MYC    C7929513   5.289   2.114   5.944
  144MYC   H10229514   5.365   2.191   5.964
  144MYC   H10329515   5.192   2.165   5.939
  144MYC    C7829516   5.318   2.048   5.808
  144MYC   HH1429517   5.240   1.973   5.788
  144MYC   H10429518   5.413   1.993   5.814
  144MYC    C7729519   5.324   2.148   5.691
  144MYC   H10629520   5.409   2.216   5.706
  144MYC   H10729521   5.234   2.209   5.690
  144MYC    C7629522   5.339   2.078   5.555
  144MYC   H10829523   5.250   2.016   5.537
  144MYC   H10929524   5.425   2.010   5.558
  144MYC    C7529525   5.357   2.175   5.437
  144MYC   H11029526   5.449   2.232   5.451
  144MYC   H11129527   5.274   2.247   5.435
  144MYC    C7429528   5.362   2.101   5.302
  144MYC   H11229529   5.266   2.050   5.285
  144MYC   H11329530   5.439   2.023   5.307
  144MYC    C7329531   5.392   2.194   5.183
  144MYC   HH1329532   5.489   2.242   5.198
  144MYC   H11429533   5.316   2.272   5.178
  144MYC    C7229534   5.395   2.116   5.050
  144MYC   H11529535   5.298   2.067   5.035
  144MYC   H11629536   5.471   2.037   5.056
  144MYC    C7129537   5.424   2.206   4.928
  144MYC   H11729538   5.523   2.252   4.940
  144MYC   H11829539   5.351   2.286   4.924
  144MYC    C7029540   5.421   2.126   4.797
  144MYC   H11929541   5.324   2.074   4.789
  144MYC   H12029542   5.499   2.049   4.799
  144MYC    C6929543   5.439   2.214   4.672
  144MYC   H12129544   5.536   2.265   4.677
  144MYC   H12229545   5.361   2.291   4.670
  144MYC    C6829546   5.431   2.131   4.542
  144MYC   HH1229547   5.337   2.074   4.542
  144MYC   H12329548   5.513   2.058   4.541
  144MYC    C6729549   5.438   2.217   4.415
  144MYC   H12429550   5.532   2.273   4.413
  144MYC   H12529551   5.356   2.291   4.418
  144MYC    C6629552   5.425   2.133   4.287
  144MYC   H12629553   5.335   2.070   4.295
  144MYC   H12729554   5.511   2.065   4.279
  144MYC    C6529555   5.415   2.219   4.160
  144MYC   H12829556   5.507   2.277   4.147
  144MYC   H12929557   5.333   2.291   4.173
  144MYC    C6429558   5.389   2.134   4.034
  144MYC   H13029559   5.305   2.066   4.053
  144MYC   H13129560   5.477   2.073   4.013
  144MYC    C6329561   5.355   2.221   3.912
  144MYC   HH1129562   5.441   2.285   3.887
  144MYC   H13229563   5.272   2.288   3.938
  144MYC    C6229564   5.316   2.138   3.789
  144MYC   H13329565   5.236   2.068   3.815
  144MYC   H13429566   5.402   2.078   3.757
  144MYC    C6129567   5.269   2.226   3.672
  144MYC   H13529568   5.349   2.299   3.650
  144MYC   H13629569   5.182   2.284   3.703
  144MYC    C6029570   5.235   2.146   3.548
  144MYC   H13729571   5.143   2.090   3.557
  144MYC    C5829572   5.266   2.205   3.413
  144MYC   H13829573   5.321   2.299   3.413
  144MYC    C5929574   5.343   2.084   3.462
  144MYC   H13929575   5.321   1.988   3.415
  144MYC   H14029576   5.446   2.099   3.491
  144MYC    C5729577   5.171   2.196   3.295
  144MYC   HH1029578   5.097   2.277   3.301
  144MYC   H14129579   5.115   2.101   3.297
  144MYC    C5629580   5.250   2.207   3.164
  144MYC   H14229581   5.318   2.121   3.157
  144MYC   H14329582   5.312   2.297   3.168
  144MYC    C5529583   5.163   2.213   3.038
  144MYC   H14429584   5.093   2.297   3.044
  144MYC   H14529585   5.103   2.121   3.030
  144MYC    C5429586   5.252   2.229   2.914
  144MYC   H14629587   5.323   2.145   2.912
  144MYC   H14729588   5.311   2.320   2.923
  144MYC    C5329589   5.176   2.233   2.780
  144MYC   H14829590   5.110   2.320   2.777
  144MYC   H14929591   5.112   2.143   2.772
  144MYC    C5229592   5.275   2.235   2.663
  144MYC    H9929593   5.342   2.149   2.673
  144MYC   H15029594   5.338   2.325   2.671
  144MYC    C5129595   5.209   2.231   2.524
  144MYC    H9729596   5.162   2.328   2.503
  144MYC    H9829597   5.130   2.156   2.524
  144MYC    C5029598   5.312   2.196   2.416
  144MYC    H9529599   5.356   2.099   2.441
  144MYC    H9629600   5.394   2.269   2.417
  144MYC    C4929601   5.253   2.189   2.275
  144MYC    H9329602   5.235   2.291   2.239
  144MYC    H9429603   5.156   2.138   2.278
  144MYC    C4829604   5.346   2.115   2.177
  144MYC    H9129605   5.361   2.012   2.213
  144MYC    H9229606   5.444   2.163   2.175
  144MYC    C4729607   5.289   2.110   2.034
  144MYC    H8929608   5.285   2.212   1.994
  144MYC    H9029609   5.186   2.072   2.037
  144MYC    C4629610   5.372   2.023   1.938
  144MYC    H8729611   5.369   1.919   1.972
  144MYC    H8829612   5.476   2.055   1.942
  144MYC    C4529613   5.320   2.031   1.793
  144MYC    H8529614   5.304   2.136   1.766
  144MYC    H8629615   5.222   1.981   1.788
  144MYC    C4429616   5.414   1.967   1.691
  144MYC    H8329617   5.356   1.939   1.602
  144MYC    H8429618   5.453   1.874   1.733
  144MYC    C1829619   5.530   2.058   1.650
  144MYC    H3129620   5.551   2.137   1.721
  144MYC    C1729621   5.649   1.995   1.583
  144MYC    H3029622   5.640   1.889   1.564
  144MYC    C1929623   5.560   2.088   1.505
  144MYC    H3229624   5.495   2.043   1.429
  144MYC    H3329625   5.597   2.187   1.480
  144MYC    C1629626   5.792   2.035   1.619
  144MYC    H2829627   5.799   2.144   1.634
  144MYC    H2929628   5.857   2.012   1.534
  144MYC    C1529629   5.848   1.962   1.742
  144MYC    H2629630   5.957   1.975   1.745
  144MYC    H2729631   5.830   1.854   1.731
  144MYC    C1429632   5.788   2.008   1.877
  144MYC    H2429633   5.681   1.982   1.878
  144MYC    H2529634   5.796   2.117   1.885
  144MYC    C1329635   5.856   1.942   1.999
  144MYC    H2229636   5.961   1.973   2.002
  144MYC    H2329637   5.855   1.833   1.986
  144MYC    C1229638   5.787   1.978   2.132
  144MYC    H2029639   5.683   1.942   2.129
  144MYC    H2129640   5.783   2.087   2.142
  144MYC    C1129641   5.859   1.918   2.255
  144MYC    H1829642   5.953   1.971   2.271
  144MYC    H1929643   5.884   1.813   2.233
  144MYC    C1029644   5.775   1.920   2.385
  144MYC    H1629645   5.834   1.871   2.464
  144MYC    H1729646   5.685   1.859   2.371
  144MYC     C929647   5.734   2.061   2.432
  144MYC    H1429648   5.680   2.111   2.351
  144MYC    H1529649   5.823   2.122   2.453
  144MYC     C829650   5.640   2.062   2.555
  144MYC    H1229651   5.554   1.997   2.534
  144MYC    H1329652   5.601   2.163   2.568
  144MYC     C729653   5.705   2.017   2.689
  144MYC    H1029654   5.787   2.085   2.714
  144MYC    H1129655   5.748   1.917   2.678
  144MYC     C629656   5.601   2.017   2.803
  144MYC     H829657   5.520   1.948   2.778
  144MYC     H929658   5.555   2.117   2.808
  144MYC     C529659   5.654   1.983   2.943
  144MYC     H629660   5.572   2.003   3.013
  144MYC     H729661   5.735   2.053   2.970
  144MYC     C429662   5.704   1.838   2.965
  144MYC     H429663   5.806   1.829   2.926
  144MYC     H529664   5.642   1.769   2.906
  144MYC     C229665   5.700   1.795   3.114
  144MYC     H229666   5.750   1.874   3.172
  144MYC     O329667   5.563   1.787   3.156
  144MYC     H329668   5.519   1.720   3.101
  144MYC     C129669   5.775   1.662   3.147
  144MYC     H129670   5.882   1.684   3.140
  144MYC    C8129671   5.748   1.550   3.043
  144MYC    O8229672   5.835   1.500   2.975
  144MYC    O8329673   5.619   1.509   3.035
  144MYC   H10529674   5.618   1.439   2.968
  144MYC    C2029675   5.749   1.608   3.291
  144MYC    H3429676   5.644   1.577   3.301
  144MYC    H3529677   5.809   1.517   3.305
  144MYC    C2129678   5.782   1.706   3.407
  144MYC    H3629679   5.888   1.735   3.401
  144MYC    H3729680   5.723   1.797   3.395
  144MYC    C2229681   5.753   1.645   3.546
  144MYC    H3829682   5.649   1.613   3.550
  144MYC    H3929683   5.815   1.555   3.560
  144MYC    C2329684   5.779   1.743   3.663
  144MYC    H4029685   5.883   1.777   3.659
  144MYC    H4129686   5.716   1.831   3.651
  144MYC    C2429687   5.751   1.679   3.801
  144MYC    H4229688   5.648   1.644   3.804
  144MYC    H4329689   5.816   1.591   3.814
  144MYC    C2529690   5.775   1.777   3.919
  144MYC    H4429691   5.877   1.815   3.915
  144MYC    H4529692   5.708   1.863   3.909
  144MYC    C2629693   5.751   1.711   4.058
  144MYC    H4629694   5.649   1.672   4.062
  144MYC    H4729695   5.819   1.626   4.068
  144MYC    C2729696   5.773   1.808   4.176
  144MYC    H4829697   5.874   1.851   4.169
  144MYC    H4929698   5.702   1.892   4.167
  144MYC    C2829699   5.756   1.741   4.314
  144MYC    H5029700   5.656   1.697   4.320
  144MYC    H5129701   5.828   1.659   4.323
  144MYC    C2929702   5.776   1.839   4.432
  144MYC    H5229703   5.874   1.887   4.423
  144MYC    H5329704   5.701   1.918   4.426
  144MYC    C3029705   5.767   1.770   4.570
  144MYC    H5429706   5.670   1.719   4.578
  144MYC    H5529707   5.845   1.692   4.576
  144MYC    C3129708   5.783   1.867   4.689
  144MYC    H5629709   5.878   1.922   4.678
  144MYC    H5729710   5.702   1.941   4.686
  144MYC    C3229711   5.782   1.795   4.825
  144MYC    H5829712   5.691   1.734   4.834
  144MYC    H5929713   5.867   1.725   4.829
  144MYC    C3329714   5.790   1.890   4.947
  144MYC    H6029715   5.880   1.953   4.938
  144MYC    H6129716   5.704   1.958   4.945
  144MYC    C3429717   5.794   1.815   5.081
  144MYC    H6229718   5.708   1.747   5.086
  144MYC    H6329719   5.884   1.753   5.085
  144MYC    C3529720   5.791   1.908   5.205
  144MYC    H6429721   5.878   1.975   5.202
  144MYC    H6529722   5.701   1.971   5.201
  144MYC    C3629723   5.792   1.829   5.338
  144MYC    H6629724   5.707   1.759   5.339
  144MYC    H6729725   5.883   1.770   5.344
  144MYC    C3729726   5.782   1.920   5.463
  144MYC    H6829727   5.869   1.987   5.465
  144MYC    H6929728   5.693   1.983   5.455
  144MYC    C3829729   5.776   1.840   5.595
  144MYC    H7029730   5.688   1.773   5.592
  144MYC    H7129731   5.864   1.776   5.603
  144MYC    C3929732   5.766   1.930   5.720
  144MYC    H7229733   5.856   1.994   5.725
  144MYC    H7329734   5.680   1.997   5.709
  144MYC    C4029735   5.753   1.851   5.852
  144MYC    H7429736   5.662   1.790   5.848
  144MYC    H7529737   5.837   1.781   5.861
  144MYC    C4129738   5.748   1.942   5.976
  144MYC    H7629739   5.842   1.999   5.982
  144MYC    H7729740   5.668   2.016   5.964
  144MYC    C4229741   5.726   1.865   6.108
  144MYC    H7829742   5.630   1.813   6.104
  144MYC    H7929743   5.804   1.789   6.120
  144MYC    C4329744   5.727   1.957   6.232
  144MYC    H8029745   5.704   1.900   6.322
  144MYC    H8129746   5.653   2.037   6.222
  144MYC    H8229747   5.826   2.003   6.245
  145MYC   HH1529748   5.459   3.092   6.202
  145MYC    C8029749   5.496   3.049   6.108
  145MYC   H10029750   5.606   3.049   6.111
  145MYC   H10129751   5.462   2.945   6.102
  145MYC    C7929752   5.444   3.129   5.988
  145MYC   H10229753   5.477   3.234   5.999
  145MYC   H10329754   5.335   3.129   5.989
  145MYC    C7829755   5.495   3.075   5.853
  145MYC   HH1429756   5.467   2.969   5.844
  145MYC   H10429757   5.604   3.080   5.850
  145MYC    C7729758   5.437   3.151   5.732
  145MYC   H10629759   5.466   3.257   5.738
  145MYC   H10729760   5.327   3.147   5.736
  145MYC    C7629761   5.485   3.094   5.597
  145MYC   H10829762   5.465   2.986   5.595
  145MYC   H10929763   5.593   3.108   5.588
  145MYC    C7529764   5.415   3.159   5.476
  145MYC   H11029765   5.440   3.266   5.471
  145MYC   H11129766   5.306   3.153   5.490
  145MYC    C7429767   5.452   3.091   5.343
  145MYC   H11229768   5.436   2.983   5.352
  145MYC   H11329769   5.559   3.106   5.324
  145MYC    C7329770   5.371   3.143   5.223
  145MYC   HH1329771   5.395   3.249   5.206
  145MYC   H11429772   5.264   3.137   5.247
  145MYC    C7229773   5.398   3.062   5.095
  145MYC   H11529774   5.370   2.958   5.111
  145MYC   H11629775   5.505   3.064   5.073
  145MYC    C7129776   5.322   3.117   4.973
  145MYC   H11729777   5.353   3.220   4.954
  145MYC   H11829778   5.214   3.119   4.994
  145MYC    C7029779   5.346   3.032   4.846
  145MYC   H11929780   5.292   2.936   4.856
  145MYC   H12029781   5.452   3.008   4.839
  145MYC    C6929782   5.302   3.103   4.717
  145MYC   H12129783   5.355   3.198   4.710
  145MYC   H12229784   5.195   3.126   4.721
  145MYC    C6829785   5.332   3.019   4.592
  145MYC   HH1229786   5.263   2.933   4.588
  145MYC   H12329787   5.434   2.978   4.598
  145MYC    C6729788   5.319   3.100   4.462
  145MYC   H12429789   5.387   3.186   4.467
  145MYC   H12529790   5.217   3.139   4.452
  145MYC    C6629791   5.354   3.017   4.337
  145MYC   H12629792   5.281   2.935   4.327
  145MYC   H12729793   5.453   2.971   4.351
  145MYC    C6529794   5.355   3.101   4.209
  145MYC   H12829795   5.431   3.180   4.218
  145MYC   H12929796   5.258   3.151   4.197
  145MYC    C6429797   5.384   3.017   4.084
  145MYC   H13029798   5.306   2.940   4.073
  145MYC   H13129799   5.479   2.964   4.096
  145MYC    C6329800   5.389   3.102   3.956
  145MYC   HH1129801   5.473   3.172   3.962
  145MYC   H13229802   5.297   3.162   3.950
  145MYC    C6229803   5.402   3.017   3.829
  145MYC   H13329804   5.317   2.948   3.823
  145MYC   H13429805   5.493   2.957   3.833
  145MYC    C6129806   5.404   3.104   3.702
  145MYC   H13529807   5.494   3.167   3.703
  145MYC   H13629808   5.318   3.172   3.703
  145MYC    C6029809   5.398   3.021   3.575
  145MYC   H13729810   5.311   2.956   3.573
  145MYC    C5829811   5.441   3.081   3.444
  145MYC   H13829812   5.486   3.180   3.447
  145MYC    C5929813   5.522   2.970   3.506
  145MYC   H13929814   5.517   2.872   3.460
  145MYC   H14029815   5.619   2.996   3.549
  145MYC    C5729816   5.356   3.059   3.320
  145MYC   HH1029817   5.284   3.142   3.310
  145MYC   H14129818   5.298   2.967   3.329
  145MYC    C5629819   5.442   3.052   3.193
  145MYC   H14229820   5.510   2.966   3.201
  145MYC   H14329821   5.504   3.142   3.187
  145MYC    C5529822   5.359   3.040   3.065
  145MYC   H14429823   5.302   3.132   3.051
  145MYC   H14529824   5.286   2.958   3.075
  145MYC    C5429825   5.447   3.015   2.941
  145MYC   H14629826   5.493   2.916   2.949
  145MYC   H14729827   5.529   3.088   2.939
  145MYC    C5329828   5.368   3.025   2.810
  145MYC   H14829829   5.325   3.126   2.802
  145MYC   H14929830   5.283   2.955   2.813
  145MYC    C5229831   5.454   2.998   2.686
  145MYC    H9929832   5.492   2.895   2.690
  145MYC   H15029833   5.540   3.065   2.686
  145MYC    C5129834   5.374   3.018   2.557
  145MYC    H9729835   5.334   3.121   2.556
  145MYC    H9829836   5.288   2.950   2.556
  145MYC    C5029837   5.457   2.997   2.430
  145MYC    H9529838   5.495   2.894   2.427
  145MYC    H9629839   5.543   3.064   2.431
  145MYC    C4929840   5.373   3.024   2.304
  145MYC    H9329841   5.329   3.125   2.313
  145MYC    H9429842   5.289   2.953   2.300
  145MYC    C4829843   5.453   3.017   2.174
  145MYC    H9129844   5.490   2.914   2.159
  145MYC    H9229845   5.541   3.082   2.182
  145MYC    C4729846   5.369   3.061   2.054
  145MYC    H8929847   5.336   3.164   2.070
  145MYC    H9029848   5.279   2.998   2.047
  145MYC    C4629849   5.445   3.053   1.921
  145MYC    H8729850   5.457   2.948   1.892
  145MYC    H8829851   5.545   3.095   1.935
  145MYC    C4529852   5.374   3.130   1.808
  145MYC    H8529853   5.381   3.238   1.829
  145MYC    H8629854   5.267   3.105   1.808
  145MYC    C4429855   5.431   3.103   1.668
  145MYC    H8329856   5.393   3.179   1.599
  145MYC    H8429857   5.392   3.007   1.633
  145MYC    C1829858   5.584   3.100   1.662
  145MYC    H3129859   5.629   3.185   1.712
  145MYC    C1729860   5.660   2.969   1.662
  145MYC    H3029861   5.601   2.877   1.660
  145MYC    C1929862   5.652   3.054   1.538
  145MYC    H3229863   5.588   3.024   1.456
  145MYC    H3329864   5.742   3.107   1.508
  145MYC    C1629865   5.794   2.956   1.734
  145MYC    H2829866   5.799   3.031   1.813
  145MYC    H2929867   5.875   2.981   1.664
  145MYC    C1529868   5.825   2.816   1.793
  145MYC    H2629869   5.922   2.824   1.844
  145MYC    H2729870   5.838   2.744   1.712
  145MYC    C1429871   5.721   2.762   1.894
  145MYC    H2429872   5.631   2.731   1.839
  145MYC    H2529873   5.690   2.842   1.961
  145MYC    C1329874   5.774   2.644   1.977
  145MYC    H2229875   5.867   2.673   2.026
  145MYC    H2329876   5.797   2.560   1.910
  145MYC    C1229877   5.673   2.598   2.085
  145MYC    H2029878   5.579   2.570   2.037
  145MYC    H2129879   5.652   2.682   2.151
  145MYC    C1129880   5.725   2.478   2.167
  145MYC    H1829881   5.822   2.504   2.212
  145MYC    H1929882   5.744   2.393   2.100
  145MYC    C1029883   5.629   2.434   2.280
  145MYC    H1629884   5.667   2.340   2.321
  145MYC    H1729885   5.530   2.412   2.238
  145MYC     C929886   5.616   2.539   2.393
  145MYC    H1429887   5.522   2.594   2.381
  145MYC    H1529888   5.696   2.613   2.384
  145MYC     C829889   5.623   2.478   2.534
  145MYC    H1229890   5.711   2.412   2.539
  145MYC    H1329891   5.535   2.415   2.552
  145MYC     C729892   5.635   2.584   2.645
  145MYC    H1029893   5.543   2.643   2.650
  145MYC    H1129894   5.717   2.653   2.619
  145MYC     C629895   5.665   2.521   2.782
  145MYC     H829896   5.747   2.450   2.772
  145MYC     H929897   5.577   2.464   2.815
  145MYC     C529898   5.704   2.626   2.889
  145MYC     H629899   5.621   2.696   2.907
  145MYC     H729900   5.787   2.686   2.850
  145MYC     C429901   5.750   2.563   3.022
  145MYC     H429902   5.823   2.631   3.067
  145MYC     H529903   5.804   2.470   3.001
  145MYC     C229904   5.641   2.537   3.130
  145MYC     H229905   5.623   2.633   3.180
  145MYC     O329906   5.518   2.494   3.069
  145MYC     H329907   5.526   2.399   3.051
  145MYC     C129908   5.688   2.434   3.236
  145MYC     H129909   5.789   2.462   3.267
  145MYC    C8129910   5.696   2.290   3.181
  145MYC    O8229911   5.602   2.230   3.134
  145MYC    O8329912   5.810   2.224   3.214
  145MYC   H10529913   5.796   2.133   3.185
  145MYC    C2029914   5.601   2.433   3.364
  145MYC    H3429915   5.495   2.430   3.337
  145MYC    H3529916   5.621   2.339   3.418
  145MYC    C2129917   5.627   2.551   3.460
  145MYC    H3629918   5.735   2.570   3.467
  145MYC    H3729919   5.581   2.642   3.421
  145MYC    C2229920   5.574   2.520   3.601
  145MYC    H3829921   5.465   2.508   3.597
  145MYC    H3929922   5.616   2.424   3.632
  145MYC    C2329923   5.610   2.626   3.708
  145MYC    H4029924   5.715   2.657   3.696
  145MYC    H4129925   5.547   2.714   3.695
  145MYC    C2429926   5.591   2.566   3.848
  145MYC    H4229927   5.490   2.523   3.855
  145MYC    H4329928   5.662   2.483   3.860
  145MYC    C2529929   5.611   2.664   3.964
  145MYC    H4429930   5.708   2.715   3.955
  145MYC    H4529931   5.533   2.741   3.961
  145MYC    C2629932   5.605   2.589   4.098
  145MYC    H4629933   5.515   2.527   4.100
  145MYC    H4729934   5.691   2.521   4.104
  145MYC    C2729935   5.606   2.679   4.223
  145MYC    H4829936   5.695   2.743   4.222
  145MYC    H4929937   5.518   2.745   4.221
  145MYC    C2829938   5.603   2.594   4.351
  145MYC    H5029939   5.515   2.529   4.349
  145MYC    H5129940   5.691   2.528   4.351
  145MYC    C2929941   5.603   2.676   4.481
  145MYC    H5229942   5.690   2.742   4.483
  145MYC    H5329943   5.514   2.740   4.484
  145MYC    C3029944   5.605   2.584   4.604
  145MYC    H5429945   5.515   2.521   4.603
  145MYC    H5529946   5.692   2.517   4.597
  145MYC    C3129947   5.612   2.660   4.737
  145MYC    H5629948   5.701   2.724   4.738
  145MYC    H5729949   5.525   2.726   4.747
  145MYC    C3229950   5.617   2.563   4.857
  145MYC    H5829951   5.528   2.499   4.855
  145MYC    H5929952   5.704   2.497   4.846
  145MYC    C3329953   5.624   2.634   4.993
  145MYC    H6029954   5.713   2.699   4.995
  145MYC    H6129955   5.537   2.699   5.004
  145MYC    C3429956   5.630   2.534   5.110
  145MYC    H6229957   5.545   2.466   5.103
  145MYC    H6329958   5.721   2.473   5.100
  145MYC    C3529959   5.629   2.603   5.247
  145MYC    H6429960   5.714   2.672   5.254
  145MYC    H6529961   5.537   2.663   5.256
  145MYC    C3629962   5.636   2.502   5.363
  145MYC    H6629963   5.556   2.428   5.350
  145MYC    H6729964   5.731   2.448   5.359
  145MYC    C3729965   5.620   2.568   5.501
  145MYC    H6829966   5.696   2.647   5.513
  145MYC    H6929967   5.522   2.618   5.505
  145MYC    C3829968   5.632   2.468   5.617
  145MYC    H7029969   5.567   2.382   5.598
  145MYC    H7129970   5.735   2.430   5.621
  145MYC    C3929971   5.594   2.530   5.753
  145MYC    H7229972   5.653   2.622   5.769
  145MYC    H7329973   5.489   2.559   5.750
  145MYC    C4029974   5.617   2.435   5.872
  145MYC    H7429975   5.569   2.338   5.852
  145MYC    H7529976   5.725   2.416   5.882
  145MYC    C4129977   5.562   2.491   6.005
  145MYC    H7629978   5.600   2.593   6.020
  145MYC    H7729979   5.452   2.499   5.997
  145MYC    C4229980   5.598   2.405   6.127
  145MYC    H7829981   5.564   2.302   6.111
  145MYC    H7929982   5.707   2.401   6.138
  145MYC    C4329983   5.537   2.458   6.258
  145MYC    H8029984   5.569   2.397   6.343
  145MYC    H8129985   5.427   2.455   6.253
  145MYC    H8229986   5.568   2.562   6.276
  146MYC   HH1529987   5.345   3.490   6.246
  146MYC    C8029988   5.400   3.506   6.153
  146MYC   H10029989   5.444   3.606   6.155
  146MYC   H10129990   5.482   3.432   6.149
  146MYC    C7929991   5.307   3.490   6.031
  146MYC   H10229992   5.222   3.558   6.043
  146MYC   H10329993   5.266   3.388   6.031
  146MYC    C7829994   5.376   3.518   5.897
  146MYC   HH1429995   5.461   3.450   5.884
  146MYC   H10429996   5.417   3.620   5.898
  146MYC    C7729997   5.281   3.503   5.777
  146MYC   H10629998   5.192   3.565   5.794
  146MYC   H10729999   5.246   3.399   5.770
  146MYC    C7630000   5.345   3.544   5.642
  146MYC   H10830001   5.430   3.479   5.622
  146MYC   H10930002   5.383   3.646   5.649
  146MYC    C7530003   5.245   3.535   5.525
  146MYC   H11030004   5.156   3.595   5.549
  146MYC   H11130005   5.211   3.431   5.514
  146MYC    C7430006   5.304   3.583   5.391
  146MYC   H11230007   5.390   3.519   5.366
  146MYC   H11330008   5.341   3.685   5.402
  146MYC    C7330009   5.201   3.577   5.276
  146MYC   HH1330010   5.117   3.644   5.299
  146MYC   H11430011   5.161   3.475   5.269
  146MYC    C7230012   5.263   3.616   5.140
  146MYC   H11530013   5.351   3.553   5.123
  146MYC   H11630014   5.298   3.720   5.143
  146MYC    C7130015   5.165   3.598   5.023
  146MYC   H11730016   5.087   3.675   5.027
  146MYC   H11830017   5.115   3.501   5.031
  146MYC    C7030018   5.237   3.604   4.887
  146MYC   H11930019   5.317   3.530   4.887
  146MYC   H12030020   5.285   3.702   4.875
  146MYC    C6930021   5.144   3.578   4.766
  146MYC   H12130022   5.077   3.663   4.752
  146MYC   H12230023   5.082   3.489   4.786
  146MYC    C6830024   5.226   3.553   4.638
  146MYC   HH1230025   5.286   3.462   4.650
  146MYC   H12330026   5.296   3.636   4.624
  146MYC    C6730027   5.139   3.539   4.511
  146MYC   H12430028   5.081   3.631   4.498
  146MYC   H12530029   5.069   3.456   4.523
  146MYC    C6630030   5.227   3.515   4.387
  146MYC   H12630031   5.274   3.416   4.395
  146MYC   H12730032   5.307   3.589   4.384
  146MYC    C6530033   5.148   3.522   4.255
  146MYC   H12830034   5.096   3.619   4.249
  146MYC   H12930035   5.071   3.444   4.254
  146MYC    C6430036   5.240   3.506   4.132
  146MYC   H13030037   5.290   3.409   4.137
  146MYC   H13130038   5.319   3.583   4.137
  146MYC    C6330039   5.165   3.519   3.999
  146MYC   HH1130040   5.113   3.616   3.995
  146MYC   H13230041   5.089   3.441   3.992
  146MYC    C6230042   5.260   3.508   3.878
  146MYC   H13330043   5.315   3.413   3.884
  146MYC   H13430044   5.335   3.588   3.883
  146MYC    C6130045   5.187   3.515   3.743
  146MYC   H13530046   5.134   3.611   3.736
  146MYC   H13630047   5.111   3.437   3.739
  146MYC    C6030048   5.282   3.499   3.626
  146MYC   H13730049   5.333   3.402   3.627
  146MYC    C5830050   5.251   3.557   3.491
  146MYC   H13830051   5.160   3.617   3.483
  146MYC    C5930052   5.363   3.615   3.573
  146MYC   H13930053   5.465   3.594   3.543
  146MYC   H14030054   5.347   3.713   3.618
  146MYC    C5730055   5.278   3.477   3.364
  146MYC   HH1030056   5.196   3.406   3.348
  146MYC   H14130057   5.369   3.417   3.376
  146MYC    C5630058   5.292   3.567   3.240
  146MYC   H14230059   5.378   3.634   3.254
  146MYC   H14330060   5.203   3.629   3.230
  146MYC    C5530061   5.311   3.486   3.110
  146MYC   H14430062   5.223   3.424   3.094
  146MYC   H14530063   5.397   3.418   3.121
  146MYC    C5430064   5.333   3.577   2.987
  146MYC   H14630065   5.431   3.626   2.996
  146MYC   H14730066   5.258   3.657   2.986
  146MYC    C5330067   5.326   3.499   2.855
  146MYC   H14830068   5.229   3.449   2.847
  146MYC   H14930069   5.403   3.421   2.855
  146MYC    C5230070   5.346   3.589   2.731
  146MYC    H9930071   5.444   3.638   2.738
  146MYC   H15030072   5.270   3.668   2.730
  146MYC    C5130073   5.337   3.508   2.599
  146MYC    H9730074   5.234   3.474   2.585
  146MYC    H9830075   5.397   3.417   2.610
  146MYC    C5030076   5.388   3.584   2.474
  146MYC    H9530077   5.461   3.519   2.425
  146MYC    H9630078   5.442   3.675   2.502
  146MYC    C4930079   5.277   3.619   2.371
  146MYC    H9330080   5.223   3.709   2.404
  146MYC    H9430081   5.204   3.538   2.367
  146MYC    C4830082   5.336   3.640   2.229
  146MYC    H9130083   5.397   3.552   2.205
  146MYC    H9230084   5.404   3.726   2.229
  146MYC    C4730085   5.230   3.659   2.118
  146MYC    H8930086   5.195   3.762   2.117
  146MYC    H9030087   5.143   3.597   2.139
  146MYC    C4630088   5.286   3.620   1.979
  146MYC    H8730089   5.328   3.519   1.984
  146MYC    H8830090   5.368   3.688   1.952
  146MYC    C4530091   5.179   3.622   1.868
  146MYC    H8530092   5.154   3.726   1.843
  146MYC    H8630093   5.087   3.577   1.906
  146MYC    C4430094   5.221   3.547   1.740
  146MYC    H8330095   5.136   3.548   1.670
  146MYC    H8430096   5.238   3.441   1.764
  146MYC    C1830097   5.343   3.605   1.670
  146MYC    H3130098   5.359   3.710   1.692
  146MYC    C1730099   5.466   3.520   1.643
  146MYC    H3030100   5.463   3.414   1.667
  146MYC    C1930101   5.377   3.563   1.529
  146MYC    H3230102   5.315   3.487   1.482
  146MYC    H3330103   5.414   3.639   1.462
  146MYC    C1630104   5.605   3.581   1.658
  146MYC    H2830105   5.597   3.686   1.687
  146MYC    H2930106   5.655   3.580   1.560
  146MYC    C1530107   5.699   3.510   1.758
  146MYC    H2630108   5.787   3.574   1.769
  146MYC    H2730109   5.734   3.416   1.714
  146MYC    C1430110   5.642   3.481   1.900
  146MYC    H2430111   5.574   3.396   1.895
  146MYC    H2530112   5.585   3.567   1.935
  146MYC    C1330113   5.756   3.452   2.000
  146MYC    H2230114   5.806   3.547   2.025
  146MYC    H2330115   5.832   3.389   1.951
  146MYC    C1230116   5.714   3.380   2.131
  146MYC    H2030117   5.682   3.278   2.106
  146MYC    H2130118   5.628   3.429   2.176
  146MYC    C1130119   5.833   3.374   2.232
  146MYC    H1830120   5.856   3.474   2.269
  146MYC    H1930121   5.922   3.342   2.176
  146MYC    C1030122   5.816   3.276   2.351
  146MYC    H1630123   5.915   3.262   2.397
  146MYC    H1730124   5.787   3.178   2.311
  146MYC     C930125   5.716   3.315   2.462
  146MYC    H1430126   5.714   3.231   2.533
  146MYC    H1530127   5.615   3.323   2.421
  146MYC     C830128   5.751   3.445   2.540
  146MYC    H1230129   5.710   3.530   2.485
  146MYC    H1330130   5.860   3.459   2.542
  146MYC     C730131   5.696   3.447   2.685
  146MYC    H1030132   5.609   3.382   2.693
  146MYC    H1130133   5.662   3.549   2.709
  146MYC     C630134   5.801   3.405   2.791
  146MYC     H830135   5.879   3.482   2.793
  146MYC     H930136   5.849   3.312   2.759
  146MYC     C530137   5.744   3.386   2.933
  146MYC     H630138   5.680   3.297   2.935
  146MYC     H730139   5.680   3.472   2.960
  146MYC     C430140   5.857   3.373   3.038
  146MYC     H430141   5.912   3.468   3.040
  146MYC     H530142   5.928   3.296   3.004
  146MYC     C230143   5.810   3.340   3.182
  146MYC     H230144   5.728   3.407   3.208
  146MYC     O330145   5.764   3.205   3.187
  146MYC     H330146   5.728   3.183   3.099
  146MYC     C130147   5.924   3.361   3.287
  146MYC     H130148   5.948   3.468   3.281
  146MYC    C8130149   6.052   3.283   3.249
  146MYC    O8230150   6.064   3.162   3.257
  146MYC    O8330151   6.154   3.361   3.206
  146MYC   H10530152   6.227   3.300   3.186
  146MYC    C2030153   5.882   3.333   3.434
  146MYC    H3430154   5.786   3.380   3.456
  146MYC    H3530155   5.868   3.225   3.447
  146MYC    C2130156   5.987   3.384   3.536
  146MYC    H3630157   6.088   3.360   3.499
  146MYC    H3730158   5.982   3.494   3.540
  146MYC    C2230159   5.976   3.327   3.679
  146MYC    H3830160   5.965   3.218   3.673
  146MYC    H3930161   6.071   3.345   3.730
  146MYC    C2330162   5.863   3.386   3.765
  146MYC    H4030163   5.878   3.495   3.773
  146MYC    H4130164   5.766   3.369   3.717
  146MYC    C2430165   5.862   3.326   3.907
  146MYC    H4230166   5.839   3.219   3.901
  146MYC    H4330167   5.963   3.335   3.950
  146MYC    C2530168   5.762   3.394   4.003
  146MYC    H4430169   5.783   3.502   4.007
  146MYC    H4530170   5.660   3.382   3.965
  146MYC    C2630171   5.771   3.336   4.146
  146MYC    H4630172   5.742   3.229   4.143
  146MYC    H4730173   5.875   3.340   4.179
  146MYC    C2730174   5.683   3.409   4.250
  146MYC    H4830175   5.706   3.516   4.246
  146MYC    H4930176   5.577   3.398   4.224
  146MYC    C2830177   5.708   3.357   4.393
  146MYC    H5030178   5.677   3.251   4.399
  146MYC    H5130179   5.816   3.359   4.412
  146MYC    C2930180   5.636   3.437   4.503
  146MYC    H5230181   5.652   3.544   4.487
  146MYC    H5330182   5.527   3.419   4.498
  146MYC    C3030183   5.689   3.399   4.643
  146MYC    H5430184   5.671   3.292   4.661
  146MYC    H5530185   5.797   3.414   4.644
  146MYC    C3130186   5.627   3.480   4.759
  146MYC    H5630187   5.621   3.586   4.732
  146MYC    H5730188   5.525   3.444   4.778
  146MYC    C3230189   5.713   3.466   4.887
  146MYC    H5830190   5.735   3.359   4.904
  146MYC    H5930191   5.810   3.515   4.870
  146MYC    C3330192   5.649   3.522   5.015
  146MYC    H6030193   5.613   3.624   4.998
  146MYC    H6130194   5.562   3.461   5.040
  146MYC    C3430195   5.749   3.522   5.133
  146MYC    H6230196   5.810   3.431   5.127
  146MYC    H6330197   5.818   3.607   5.122
  146MYC    C3530198   5.683   3.526   5.272
  146MYC    H6430199   5.622   3.617   5.282
  146MYC    H6530200   5.615   3.441   5.280
  146MYC    C3630201   5.786   3.520   5.387
  146MYC    H6630202   5.859   3.440   5.365
  146MYC    H6730203   5.842   3.614   5.391
  146MYC    C3730204   5.721   3.491   5.523
  146MYC    H6830205   5.652   3.573   5.549
  146MYC    H6930206   5.661   3.400   5.515
  146MYC    C3830207   5.823   3.474   5.638
  146MYC    H7030208   5.898   3.399   5.609
  146MYC    H7130209   5.876   3.568   5.655
  146MYC    C3930210   5.755   3.428   5.768
  146MYC    H7230211   5.677   3.501   5.795
  146MYC    H7330212   5.705   3.332   5.750
  146MYC    C4030213   5.851   3.413   5.888
  146MYC    H7430214   5.932   3.344   5.862
  146MYC    H7530215   5.897   3.510   5.910
  146MYC    C4130216   5.778   3.359   6.013
  146MYC    H7630217   5.689   3.421   6.031
  146MYC    H7730218   5.743   3.257   5.994
  146MYC    C4230219   5.865   3.360   6.141
  146MYC    H7830220   5.956   3.302   6.124
  146MYC    H7930221   5.895   3.463   6.164
  146MYC    C4330222   5.791   3.302   6.263
  146MYC    H8030223   5.854   3.307   6.352
  146MYC    H8130224   5.764   3.197   6.246
  146MYC    H8230225   5.699   3.358   6.283
  147MYC   HH1530226   5.740   3.737   6.241
  147MYC    C8030227   5.766   3.815   6.169
  147MYC   H10030228   5.725   3.910   6.204
  147MYC   H10130229   5.876   3.824   6.167
  147MYC    C7930230   5.712   3.780   6.029
  147MYC   H10230231   5.603   3.769   6.035
  147MYC   H10330232   5.752   3.683   5.999
  147MYC    C7830233   5.748   3.886   5.923
  147MYC   HH1430234   5.857   3.896   5.918
  147MYC   H10430235   5.708   3.984   5.953
  147MYC    C7730236   5.694   3.851   5.782
  147MYC   H10630237   5.585   3.849   5.784
  147MYC   H10730238   5.728   3.750   5.756
  147MYC    C7630239   5.743   3.950   5.674
  147MYC   H10830240   5.852   3.950   5.672
  147MYC   H10930241   5.710   4.051   5.699
  147MYC    C7530242   5.690   3.913   5.534
  147MYC   H11030243   5.582   3.930   5.530
  147MYC   H11130244   5.706   3.806   5.517
  147MYC    C7430245   5.759   3.991   5.421
  147MYC   H11230246   5.867   3.973   5.426
  147MYC   H11330247   5.743   4.099   5.434
  147MYC    C7330248   5.707   3.948   5.282
  147MYC   HH1330249   5.605   3.986   5.269
  147MYC   H11430250   5.701   3.839   5.279
  147MYC    C7230251   5.796   3.995   5.165
  147MYC   H11530252   5.897   3.954   5.177
  147MYC   H11630253   5.804   4.104   5.165
  147MYC    C7130254   5.737   3.947   5.031
  147MYC   H11730255   5.642   4.000   5.014
  147MYC   H11830256   5.714   3.841   5.038
  147MYC    C7030257   5.830   3.968   4.910
  147MYC   H11930258   5.923   3.912   4.924
  147MYC   H12030259   5.856   4.075   4.901
  147MYC    C6930260   5.759   3.922   4.781
  147MYC   H12130261   5.665   3.977   4.771
  147MYC   H12230262   5.733   3.816   4.792
  147MYC    C6830263   5.841   3.940   4.652
  147MYC   HH1230264   5.931   3.878   4.656
  147MYC   H12330265   5.873   4.045   4.643
  147MYC    C6730266   5.756   3.901   4.531
  147MYC   H12430267   5.663   3.960   4.532
  147MYC   H12530268   5.726   3.795   4.541
  147MYC    C6630269   5.824   3.921   4.395
  147MYC   H12630270   5.916   3.862   4.390
  147MYC   H12730271   5.852   4.026   4.383
  147MYC    C6530272   5.729   3.879   4.281
  147MYC   H12830273   5.637   3.938   4.287
  147MYC   H12930274   5.700   3.774   4.297
  147MYC    C6430275   5.789   3.894   4.141
  147MYC   H13030276   5.884   3.841   4.136
  147MYC   H13130277   5.809   4.000   4.121
  147MYC    C6330278   5.693   3.838   4.034
  147MYC   HH1130279   5.599   3.894   4.036
  147MYC   H13230280   5.669   3.734   4.059
  147MYC    C6230281   5.754   3.843   3.893
  147MYC   H13330282   5.848   3.788   3.893
  147MYC   H13430283   5.777   3.947   3.868
  147MYC    C6130284   5.660   3.784   3.786
  147MYC   H13530285   5.575   3.851   3.772
  147MYC   H13630286   5.619   3.688   3.822
  147MYC    C6030287   5.733   3.760   3.655
  147MYC   H13730288   5.777   3.661   3.649
  147MYC    C5830289   5.683   3.821   3.527
  147MYC   H13830290   5.598   3.889   3.534
  147MYC    C5930291   5.811   3.870   3.588
  147MYC   H13930292   5.905   3.843   3.540
  147MYC   H14030293   5.810   3.969   3.633
  147MYC    C5730294   5.685   3.744   3.397
  147MYC   HH1030295   5.585   3.706   3.375
  147MYC   H14130296   5.752   3.657   3.404
  147MYC    C5630297   5.732   3.834   3.282
  147MYC   H14230298   5.836   3.862   3.297
  147MYC   H14330299   5.673   3.927   3.284
  147MYC    C5530300   5.716   3.770   3.144
  147MYC   H14430301   5.612   3.741   3.129
  147MYC   H14530302   5.777   3.678   3.138
  147MYC    C5430303   5.759   3.868   3.034
  147MYC   H14630304   5.867   3.887   3.042
  147MYC   H14730305   5.708   3.964   3.051
  147MYC    C5330306   5.726   3.820   2.892
  147MYC   H14830307   5.619   3.794   2.887
  147MYC   H14930308   5.783   3.729   2.870
  147MYC    C5230309   5.756   3.929   2.789
  147MYC    H9930310   5.863   3.955   2.793
  147MYC   H15030311   5.700   4.020   2.814
  147MYC    C5130312   5.721   3.886   2.646
  147MYC    H9730313   5.615   3.856   2.643
  147MYC    H9830314   5.780   3.797   2.620
  147MYC    C5030315   5.746   3.997   2.542
  147MYC    H9530316   5.849   4.033   2.550
  147MYC    H9630317   5.679   4.082   2.562
  147MYC    C4930318   5.721   3.943   2.401
  147MYC    H9330319   5.619   3.903   2.396
  147MYC    H9430320   5.789   3.859   2.385
  147MYC    C4830321   5.741   4.044   2.286
  147MYC    H9130322   5.845   4.080   2.287
  147MYC    H9230323   5.675   4.130   2.300
  147MYC    C4730324   5.712   3.976   2.151
  147MYC    H8930325   5.607   3.945   2.149
  147MYC    H9030326   5.772   3.885   2.143
  147MYC    C4630327   5.740   4.063   2.027
  147MYC    H8730328   5.846   4.092   2.028
  147MYC    H8830329   5.681   4.155   2.033
  147MYC    C4530330   5.707   3.988   1.896
  147MYC    H8530331   5.599   3.973   1.889
  147MYC    H8630332   5.751   3.888   1.901
  147MYC    C4430333   5.759   4.057   1.768
  147MYC    H8330334   5.746   3.988   1.684
  147MYC    H8430335   5.867   4.073   1.777
  147MYC    C1830336   5.687   4.188   1.735
  147MYC    H3130337   5.582   4.172   1.710
  147MYC    C1730338   5.721   4.318   1.803
  147MYC    H3030339   5.802   4.314   1.876
  147MYC    C1930340   5.758   4.297   1.658
  147MYC    H3230341   5.863   4.281   1.634
  147MYC    H3330342   5.701   4.349   1.582
  147MYC    C1630343   5.609   4.414   1.843
  147MYC    H2830344   5.533   4.359   1.901
  147MYC    H2930345   5.559   4.450   1.753
  147MYC    C1530346   5.654   4.537   1.925
  147MYC    H2630347   5.568   4.606   1.928
  147MYC    H2730348   5.734   4.590   1.872
  147MYC    C1430349   5.697   4.506   2.070
  147MYC    H2430350   5.798   4.463   2.069
  147MYC    H2530351   5.630   4.430   2.112
  147MYC    C1330352   5.695   4.630   2.161
  147MYC    H2230353   5.594   4.673   2.159
  147MYC    H2330354   5.763   4.706   2.122
  147MYC    C1230355   5.732   4.599   2.308
  147MYC    H2030356   5.836   4.566   2.313
  147MYC    H2130357   5.669   4.516   2.343
  147MYC    C1130358   5.712   4.721   2.401
  147MYC    H1830359   5.609   4.758   2.389
  147MYC    H1930360   5.778   4.802   2.368
  147MYC    C1030361   5.737   4.695   2.551
  147MYC    H1630362   5.734   4.791   2.604
  147MYC    H1730363   5.838   4.655   2.565
  147MYC     C930364   5.633   4.600   2.616
  147MYC    H1430365   5.645   4.499   2.575
  147MYC    H1530366   5.532   4.634   2.591
  147MYC     C830367   5.646   4.591   2.770
  147MYC    H1230368   5.638   4.692   2.813
  147MYC    H1330369   5.746   4.553   2.796
  147MYC     C730370   5.538   4.501   2.835
  147MYC    H1030371   5.546   4.400   2.793
  147MYC    H1130372   5.439   4.539   2.808
  147MYC     C630373   5.550   4.494   2.988
  147MYC     H830374   5.549   4.595   3.030
  147MYC     H930375   5.647   4.449   3.013
  147MYC     C530376   5.437   4.411   3.053
  147MYC     H630377   5.435   4.310   3.010
  147MYC     H730378   5.341   4.457   3.026
  147MYC     C430379   5.443   4.401   3.208
  147MYC     H430380   5.346   4.359   3.241
  147MYC     H530381   5.445   4.503   3.250
  147MYC     C230382   5.555   4.314   3.274
  147MYC     H230383   5.504   4.248   3.345
  147MYC     O330384   5.620   4.231   3.177
  147MYC     H330385   5.674   4.288   3.120
  147MYC     C130386   5.660   4.394   3.357
  147MYC     H130387   5.600   4.455   3.426
  147MYC    C8130388   5.744   4.493   3.273
  147MYC    O8230389   5.831   4.459   3.195
  147MYC    O8330390   5.717   4.623   3.299
  147MYC   H10530391   5.780   4.674   3.244
  147MYC    C2030392   5.751   4.301   3.444
  147MYC    H3430393   5.749   4.199   3.404
  147MYC    H3530394   5.856   4.333   3.436
  147MYC    C2130395   5.714   4.295   3.593
  147MYC    H3630396   5.606   4.279   3.604
  147MYC    H3730397   5.763   4.208   3.639
  147MYC    C2230398   5.756   4.422   3.672
  147MYC    H3830399   5.865   4.434   3.664
  147MYC    H3930400   5.711   4.511   3.627
  147MYC    C2330401   5.716   4.416   3.821
  147MYC    H4030402   5.607   4.413   3.828
  147MYC    H4130403   5.753   4.322   3.864
  147MYC    C2430404   5.770   4.534   3.904
  147MYC    H4230405   5.880   4.532   3.903
  147MYC    H4330406   5.740   4.629   3.857
  147MYC    C2530407   5.719   4.531   4.049
  147MYC    H4430408   5.609   4.538   4.048
  147MYC    H4530409   5.744   4.434   4.094
  147MYC    C2630410   5.775   4.644   4.139
  147MYC    H4630411   5.883   4.632   4.149
  147MYC    H4730412   5.757   4.741   4.091
  147MYC    C2730413   5.708   4.642   4.278
  147MYC    H4830414   5.600   4.658   4.266
  147MYC    H4930415   5.720   4.542   4.321
  147MYC    C2830416   5.763   4.746   4.378
  147MYC    H5030417   5.870   4.730   4.392
  147MYC    H5130418   5.750   4.847   4.337
  147MYC    C2930419   5.690   4.735   4.514
  147MYC    H5230420   5.584   4.757   4.499
  147MYC    H5330421   5.696   4.630   4.547
  147MYC    C3030422   5.746   4.826   4.625
  147MYC    H5430423   5.854   4.810   4.634
  147MYC    H5530424   5.730   4.931   4.599
  147MYC    C3130425   5.679   4.794   4.761
  147MYC    H5630426   5.571   4.813   4.753
  147MYC    H5730427   5.691   4.687   4.781
  147MYC    C3230428   5.736   4.874   4.880
  147MYC    H5830429   5.845   4.864   4.881
  147MYC    H5930430   5.712   4.980   4.867
  147MYC    C3330431   5.679   4.825   5.014
  147MYC    H6030432   5.570   4.836   5.013
  147MYC    H6130433   5.700   4.718   5.025
  147MYC    C3430434   5.736   4.900   5.136
  147MYC    H6230435   5.845   4.890   5.138
  147MYC    H6330436   5.712   5.006   5.128
  147MYC    C3530437   5.678   4.844   5.268
  147MYC    H6430438   5.569   4.852   5.265
  147MYC    H6530439   5.702   4.738   5.275
  147MYC    C3630440   5.730   4.916   5.394
  147MYC    H6630441   5.839   4.902   5.401
  147MYC    H6730442   5.711   5.023   5.386
  147MYC    C3730443   5.663   4.861   5.522
  147MYC    H6830444   5.555   4.876   5.514
  147MYC    H6930445   5.679   4.752   5.526
  147MYC    C3830446   5.715   4.924   5.652
  147MYC    H7030447   5.821   4.900   5.664
  147MYC    H7130448   5.707   5.033   5.646
  147MYC    C3930449   5.636   4.873   5.775
  147MYC    H7230450   5.532   4.908   5.768
  147MYC    H7330451   5.632   4.764   5.772
  147MYC    C4030452   5.696   4.918   5.910
  147MYC    H7430453   5.799   4.881   5.916
  147MYC    H7530454   5.699   5.027   5.914
  147MYC    C4130455   5.615   4.864   6.030
  147MYC    H7630456   5.515   4.909   6.029
  147MYC    H7730457   5.602   4.755   6.018
  147MYC    C4230458   5.682   4.892   6.166
  147MYC    H7830459   5.784   4.850   6.165
  147MYC    H7930460   5.692   5.000   6.180
  147MYC    C4330461   5.604   4.832   6.284
  147MYC    H8030462   5.655   4.854   6.379
  147MYC    H8130463   5.597   4.723   6.274
  147MYC    H8230464   5.503   4.873   6.288
  148MYC   HH1530465   5.340   5.268   6.281
  148MYC    C8030466   5.407   5.266   6.194
  148MYC   H10030467   5.466   5.359   6.194
  148MYC   H10130468   5.475   5.181   6.204
  148MYC    C7930469   5.326   5.254   6.064
  148MYC   H10230470   5.254   5.337   6.058
  148MYC   H10330471   5.267   5.161   6.068
  148MYC    C7830472   5.414   5.253   5.937
  148MYC   HH1430473   5.483   5.168   5.942
  148MYC   H10430474   5.474   5.344   5.934
  148MYC    C7730475   5.331   5.242   5.807
  148MYC   H10630476   5.267   5.331   5.797
  148MYC   H10730477   5.263   5.156   5.816
  148MYC    C7630478   5.416   5.226   5.680
  148MYC   H10830479   5.476   5.134   5.689
  148MYC   H10930480   5.487   5.309   5.672
  148MYC    C7530481   5.330   5.219   5.553
  148MYC   H11030482   5.286   5.317   5.534
  148MYC   H11130483   5.247   5.149   5.569
  148MYC    C7430484   5.408   5.173   5.428
  148MYC   H11230485   5.444   5.071   5.444
  148MYC   H11330486   5.496   5.237   5.413
  148MYC    C7330487   5.321   5.176   5.301
  148MYC   HH1330488   5.294   5.280   5.278
  148MYC   H11430489   5.227   5.122   5.320
  148MYC    C7230490   5.389   5.113   5.178
  148MYC   H11530491   5.402   5.005   5.195
  148MYC   H11630492   5.489   5.156   5.166
  148MYC    C7130493   5.309   5.134   5.049
  148MYC   H11730494   5.296   5.242   5.033
  148MYC   H11830495   5.209   5.091   5.060
  148MYC    C7030496   5.377   5.073   4.925
  148MYC   H11930497   5.376   4.963   4.934
  148MYC   H12030498   5.482   5.104   4.923
  148MYC    C6930499   5.309   5.115   4.794
  148MYC   H12130500   5.306   5.225   4.789
  148MYC   H12230501   5.204   5.081   4.794
  148MYC    C6830502   5.381   5.060   4.670
  148MYC   HH1230503   5.372   4.951   4.667
  148MYC   H12330504   5.488   5.084   4.677
  148MYC    C6730505   5.326   5.120   4.539
  148MYC   H12430506   5.335   5.229   4.543
  148MYC   H12530507   5.219   5.096   4.530
  148MYC    C6630508   5.400   5.067   4.415
  148MYC   H12630509   5.385   4.958   4.408
  148MYC   H12730510   5.508   5.083   4.427
  148MYC    C6530511   5.354   5.134   4.285
  148MYC   H12830512   5.374   5.242   4.291
  148MYC   H12930513   5.245   5.122   4.274
  148MYC    C6430514   5.424   5.076   4.161
  148MYC   H13030515   5.412   4.967   4.161
  148MYC   H13130516   5.532   5.097   4.168
  148MYC    C6330517   5.370   5.132   4.028
  148MYC   HH1130518   5.385   5.241   4.025
  148MYC   H13230519   5.262   5.114   4.024
  148MYC    C6230520   5.438   5.066   3.907
  148MYC   H13330521   5.440   4.958   3.922
  148MYC   H13430522   5.542   5.100   3.900
  148MYC    C6130523   5.366   5.095   3.773
  148MYC   H13530524   5.365   5.203   3.754
  148MYC   H13630525   5.262   5.063   3.781
  148MYC    C6030526   5.432   5.020   3.658
  148MYC   H13730527   5.445   4.914   3.680
  148MYC    C5830528   5.400   5.055   3.515
  148MYC   H13830529   5.335   5.140   3.498
  148MYC    C5930530   5.537   5.085   3.572
  148MYC   H13930531   5.620   5.024   3.539
  148MYC   H14030532   5.561   5.190   3.590
  148MYC    C5730533   5.379   4.944   3.412
  148MYC   HH1030534   5.272   4.924   3.402
  148MYC   H14130535   5.427   4.851   3.445
  148MYC    C5630536   5.437   4.984   3.276
  148MYC   H14230537   5.547   4.986   3.282
  148MYC   H14330538   5.405   5.087   3.254
  148MYC    C5530539   5.394   4.894   3.159
  148MYC   H14430540   5.285   4.900   3.149
  148MYC   H14530541   5.418   4.789   3.181
  148MYC    C5430542   5.462   4.936   3.028
  148MYC   H14630543   5.564   4.895   3.025
  148MYC   H14730544   5.471   5.045   3.026
  148MYC    C5330545   5.385   4.894   2.901
  148MYC   H14830546   5.281   4.927   2.909
  148MYC   H14930547   5.385   4.785   2.892
  148MYC    C5230548   5.448   4.957   2.775
  148MYC    H9930549   5.552   4.921   2.765
  148MYC   H15030550   5.454   5.066   2.788
  148MYC    C5130551   5.370   4.926   2.646
  148MYC    H9730552   5.268   4.965   2.655
  148MYC    H9830553   5.364   4.818   2.634
  148MYC    C5030554   5.438   4.989   2.523
  148MYC    H9530555   5.543   4.959   2.521
  148MYC    H9630556   5.436   5.098   2.531
  148MYC    C4930557   5.371   4.945   2.390
  148MYC    H9330558   5.269   4.984   2.386
  148MYC    H9430559   5.366   4.836   2.387
  148MYC    C4830560   5.451   4.995   2.268
  148MYC    H9130561   5.557   4.970   2.282
  148MYC    H9230562   5.444   5.104   2.262
  148MYC    C4730563   5.404   4.933   2.135
  148MYC    H8930564   5.302   4.967   2.112
  148MYC    H9030565   5.400   4.824   2.144
  148MYC    C4630566   5.499   4.971   2.020
  148MYC    H8730567   5.601   4.940   2.048
  148MYC    H8830568   5.499   5.080   2.012
  148MYC    C4530569   5.464   4.910   1.883
  148MYC    H8530570   5.373   4.956   1.844
  148MYC    H8630571   5.443   4.803   1.896
  148MYC    C4430572   5.579   4.925   1.780
  148MYC    H8330573   5.552   4.870   1.689
  148MYC    H8430574   5.669   4.877   1.819
  148MYC    C1830575   5.608   5.070   1.742
  148MYC    H3130576   5.525   5.115   1.689
  148MYC    C1730577   5.688   5.162   1.832
  148MYC    H3030578   5.731   5.118   1.921
  148MYC    C1930579   5.747   5.116   1.701
  148MYC    H3230580   5.828   5.044   1.705
  148MYC    H3330581   5.755   5.190   1.621
  148MYC    C1630582   5.636   5.304   1.856
  148MYC    H2830583   5.558   5.302   1.932
  148MYC    H2930584   5.588   5.341   1.765
  148MYC    C1530585   5.743   5.406   1.897
  148MYC    H2630586   5.696   5.505   1.903
  148MYC    H2730587   5.818   5.414   1.817
  148MYC    C1430588   5.815   5.380   2.031
  148MYC    H2430589   5.877   5.467   2.052
  148MYC    H2530590   5.882   5.294   2.021
  148MYC    C1330591   5.721   5.357   2.152
  148MYC    H2230592   5.680   5.255   2.147
  148MYC    H2330593   5.636   5.427   2.147
  148MYC    C1230594   5.795   5.377   2.285
  148MYC    H2030595   5.821   5.483   2.295
  148MYC    H2130596   5.889   5.322   2.282
  148MYC    C1130597   5.714   5.333   2.409
  148MYC    H1830598   5.694   5.225   2.403
  148MYC    H1930599   5.617   5.384   2.412
  148MYC    C1030600   5.792   5.363   2.539
  148MYC    H1630601   5.804   5.471   2.550
  148MYC    H1730602   5.893   5.321   2.530
  148MYC     C930603   5.727   5.306   2.667
  148MYC    H1430604   5.709   5.199   2.654
  148MYC    H1530605   5.630   5.354   2.684
  148MYC     C830606   5.818   5.328   2.790
  148MYC    H1230607   5.835   5.435   2.805
  148MYC    H1330608   5.916   5.284   2.768
  148MYC     C730609   5.768   5.265   2.922
  148MYC    H1030610   5.851   5.265   2.993
  148MYC    H1130611   5.742   5.159   2.904
  148MYC     C630612   5.647   5.337   2.986
  148MYC     H830613   5.560   5.324   2.921
  148MYC     H930614   5.666   5.445   2.990
  148MYC     C530615   5.612   5.284   3.127
  148MYC     H630616   5.674   5.196   3.152
  148MYC     H730617   5.510   5.245   3.120
  148MYC     C430618   5.612   5.387   3.244
  148MYC     H430619   5.527   5.360   3.308
  148MYC     H530620   5.588   5.486   3.205
  148MYC     C230621   5.736   5.397   3.339
  148MYC     H230622   5.693   5.431   3.434
  148MYC     O330623   5.795   5.269   3.362
  148MYC     H330624   5.723   5.202   3.358
  148MYC     C130625   5.844   5.503   3.302
  148MYC     H130626   5.788   5.596   3.285
  148MYC    C8130627   5.920   5.471   3.171
  148MYC    O8230628   6.011   5.391   3.162
  148MYC    O8330629   5.887   5.551   3.067
  148MYC   H10530630   5.946   5.523   2.994
  148MYC    C2030631   5.948   5.530   3.415
  148MYC    H3430632   6.012   5.442   3.429
  148MYC    H3530633   6.014   5.610   3.381
  148MYC    C2130634   5.888   5.573   3.552
  148MYC    H3630635   5.949   5.655   3.591
  148MYC    H3730636   5.787   5.613   3.537
  148MYC    C2230637   5.884   5.462   3.658
  148MYC    H3830638   5.822   5.378   3.623
  148MYC    H3930639   5.985   5.423   3.672
  148MYC    C2330640   5.830   5.511   3.794
  148MYC    H4030641   5.882   5.603   3.823
  148MYC    H4130642   5.723   5.535   3.785
  148MYC    C2430643   5.850   5.406   3.906
  148MYC    H4230644   5.793   5.316   3.882
  148MYC    H4330645   5.956   5.377   3.907
  148MYC    C2530646   5.810   5.456   4.047
  148MYC    H4430647   5.853   5.555   4.064
  148MYC    H4530648   5.701   5.465   4.053
  148MYC    C2630649   5.862   5.360   4.156
  148MYC    H4630650   5.823   5.259   4.136
  148MYC    H4730651   5.971   5.353   4.147
  148MYC    C2730652   5.826   5.400   4.300
  148MYC    H4830653   5.855   5.504   4.318
  148MYC    H4930654   5.717   5.393   4.314
  148MYC    C2830655   5.898   5.308   4.401
  148MYC    H5030656   5.883   5.204   4.370
  148MYC    H5130657   6.006   5.327   4.394
  148MYC    C2930658   5.853   5.323   4.548
  148MYC    H5230659   5.868   5.427   4.582
  148MYC    H5330660   5.746   5.301   4.555
  148MYC    C3030661   5.933   5.227   4.638
  148MYC    H5430662   5.939   5.129   4.588
  148MYC    H5530663   6.036   5.263   4.647
  148MYC    C3130664   5.874   5.203   4.778
  148MYC    H5630665   5.766   5.186   4.770
  148MYC    H5730666   5.918   5.110   4.816
  148MYC    C3230667   5.901   5.314   4.881
  148MYC    H5830668   6.009   5.333   4.886
  148MYC    H5930669   5.852   5.408   4.850
  148MYC    C3330670   5.850   5.272   5.021
  148MYC    H6030671   5.741   5.263   5.018
  148MYC    H6130672   5.889   5.172   5.042
  148MYC    C3430673   5.891   5.365   5.137
  148MYC    H6230674   6.000   5.381   5.134
  148MYC    H6330675   5.843   5.463   5.125
  148MYC    C3530676   5.854   5.302   5.272
  148MYC    H6430677   5.746   5.283   5.274
  148MYC    H6530678   5.903   5.205   5.280
  148MYC    C3630679   5.892   5.387   5.396
  148MYC    H6630680   5.998   5.414   5.391
  148MYC    H6730681   5.834   5.480   5.396
  148MYC    C3730682   5.866   5.308   5.526
  148MYC    H6830683   5.763   5.270   5.524
  148MYC    H6930684   5.932   5.221   5.528
  148MYC    C3830685   5.886   5.390   5.655
  148MYC    H7030686   5.988   5.430   5.658
  148MYC    H7130687   5.817   5.475   5.655
  148MYC    C3930688   5.861   5.303   5.780
  148MYC    H7230689   5.765   5.253   5.770
  148MYC    H7330690   5.938   5.225   5.785
  148MYC    C4030691   5.862   5.383   5.912
  148MYC    H7430692   5.958   5.433   5.925
  148MYC    H7530693   5.785   5.461   5.908
  148MYC    C4130694   5.835   5.292   6.034
  148MYC    H7630695   5.742   5.236   6.018
  148MYC    H7730696   5.916   5.218   6.042
  148MYC    C4230697   5.823   5.368   6.167
  148MYC    H7830698   5.915   5.427   6.185
  148MYC    H7930699   5.740   5.440   6.161
  148MYC    C4330700   5.799   5.274   6.287
  148MYC    H8030701   5.790   5.332   6.380
  148MYC    H8130702   5.882   5.204   6.299
  148MYC    H8230703   5.706   5.218   6.273
  149MYC   HH1530704   5.440   5.658   6.291
  149MYC    C8030705   5.486   5.679   6.194
  149MYC   H10030706   5.529   5.779   6.196
  149MYC   H10130707   5.567   5.607   6.178
  149MYC    C7930708   5.380   5.668   6.082
  149MYC   H10230709   5.300   5.740   6.101
  149MYC   H10330710   5.335   5.568   6.086
  149MYC    C7830711   5.438   5.692   5.941
  149MYC   HH1430712   5.521   5.622   5.923
  149MYC   H10430713   5.480   5.793   5.936
  149MYC    C7730714   5.333   5.674   5.829
  149MYC   H10630715   5.250   5.744   5.846
  149MYC   H10730716   5.291   5.573   5.835
  149MYC    C7630717   5.391   5.696   5.688
  149MYC   H10830718   5.478   5.631   5.674
  149MYC   H10930719   5.426   5.800   5.679
  149MYC    C7530720   5.288   5.668   5.576
  149MYC   H11030721   5.201   5.733   5.589
  149MYC   H11130722   5.252   5.564   5.586
  149MYC    C7430723   5.346   5.688   5.435
  149MYC   H11230724   5.436   5.625   5.424
  149MYC   H11330725   5.379   5.792   5.424
  149MYC    C7330726   5.247   5.654   5.322
  149MYC   HH1330727   5.160   5.720   5.329
  149MYC   H11430728   5.210   5.551   5.336
  149MYC    C7230729   5.310   5.667   5.182
  149MYC   H11530730   5.395   5.597   5.176
  149MYC   H11630731   5.351   5.768   5.171
  149MYC    C7130732   5.212   5.639   5.067
  149MYC   H11730733   5.135   5.717   5.064
  149MYC   H11830734   5.160   5.544   5.085
  149MYC    C7030735   5.284   5.632   4.931
  149MYC   H11930736   5.353   5.546   4.932
  149MYC   H12030737   5.344   5.722   4.918
  149MYC    C6930738   5.189   5.618   4.810
  149MYC   H12130739   5.134   5.713   4.797
  149MYC   H12230740   5.114   5.540   4.830
  149MYC    C6830741   5.265   5.584   4.681
  149MYC   HH1230742   5.308   5.484   4.690
  149MYC   H12330743   5.349   5.654   4.669
  149MYC    C6730744   5.178   5.591   4.554
  149MYC   H12430745   5.144   5.694   4.540
  149MYC   H12530746   5.088   5.529   4.567
  149MYC    C6630747   5.254   5.544   4.428
  149MYC   H12630748   5.276   5.437   4.438
  149MYC   H12730749   5.349   5.597   4.422
  149MYC    C6530750   5.175   5.568   4.298
  149MYC   H12830751   5.158   5.676   4.287
  149MYC   H12930752   5.077   5.520   4.305
  149MYC    C6430753   5.249   5.515   4.174
  149MYC   H13030754   5.250   5.406   4.176
  149MYC   H13130755   5.354   5.548   4.177
  149MYC    C6330756   5.186   5.563   4.042
  149MYC   HH1130757   5.186   5.673   4.041
  149MYC   H13230758   5.081   5.531   4.038
  149MYC    C6230759   5.260   5.511   3.917
  149MYC   H13330760   5.247   5.403   3.910
  149MYC   H13430761   5.368   5.530   3.928
  149MYC    C6130762   5.210   5.578   3.788
  149MYC   H13530763   5.225   5.686   3.797
  149MYC   H13630764   5.102   5.562   3.778
  149MYC    C6030765   5.280   5.526   3.663
  149MYC   H13730766   5.257   5.422   3.644
  149MYC    C5830767   5.297   5.616   3.544
  149MYC   H13830768   5.268   5.720   3.557
  149MYC    C5930769   5.419   5.571   3.622
  149MYC   H13930770   5.484   5.498   3.577
  149MYC   H14030771   5.469   5.645   3.685
  149MYC    C5730772   5.266   5.564   3.405
  149MYC   HH1030773   5.158   5.565   3.390
  149MYC   H14130774   5.299   5.460   3.397
  149MYC    C5630775   5.333   5.647   3.293
  149MYC   H14230776   5.441   5.647   3.308
  149MYC   H14330777   5.298   5.751   3.299
  149MYC    C5530778   5.300   5.590   3.154
  149MYC   H14430779   5.191   5.589   3.143
  149MYC   H14530780   5.333   5.485   3.149
  149MYC    C5430781   5.361   5.668   3.037
  149MYC   H14630782   5.471   5.669   3.047
  149MYC   H14730783   5.327   5.772   3.040
  149MYC    C5330784   5.324   5.606   2.900
  149MYC   H14830785   5.215   5.604   2.891
  149MYC   H14930786   5.359   5.503   2.897
  149MYC    C5230787   5.381   5.683   2.780
  149MYC    H9930788   5.490   5.689   2.789
  149MYC   H15030789   5.343   5.786   2.781
  149MYC    C5130790   5.345   5.617   2.645
  149MYC    H9730791   5.237   5.605   2.638
  149MYC    H9830792   5.390   5.517   2.640
  149MYC    C5030793   5.394   5.700   2.524
  149MYC    H9530794   5.503   5.713   2.531
  149MYC    H9630795   5.349   5.800   2.528
  149MYC    C4930796   5.360   5.636   2.387
  149MYC    H9330797   5.251   5.623   2.379
  149MYC    H9430798   5.405   5.536   2.382
  149MYC    C4830799   5.411   5.720   2.268
  149MYC    H9130800   5.520   5.729   2.275
  149MYC    H9230801   5.370   5.822   2.276
  149MYC    C4730802   5.373   5.662   2.131
  149MYC    H8930803   5.264   5.665   2.119
  149MYC    H9030804   5.403   5.556   2.127
  149MYC    C4630805   5.441   5.736   2.013
  149MYC    H8730806   5.550   5.725   2.023
  149MYC    H8830807   5.419   5.843   2.020
  149MYC    C4530808   5.396   5.683   1.874
  149MYC    H8530809   5.297   5.723   1.850
  149MYC    H8630810   5.384   5.574   1.881
  149MYC    C4430811   5.495   5.711   1.759
  149MYC    H8330812   5.459   5.659   1.669
  149MYC    H8430813   5.591   5.665   1.783
  149MYC    C1830814   5.518   5.858   1.725
  149MYC    H3130815   5.488   5.926   1.805
  149MYC    C1730816   5.642   5.899   1.648
  149MYC    H3030817   5.706   5.819   1.612
  149MYC    C1930818   5.506   5.909   1.583
  149MYC    H3230819   5.483   5.837   1.505
  149MYC    H3330820   5.465   6.008   1.568
  149MYC    C1630821   5.719   6.023   1.688
  149MYC    H2830822   5.650   6.099   1.725
  149MYC    H2930823   5.767   6.066   1.598
  149MYC    C1530824   5.829   5.999   1.794
  149MYC    H2630825   5.872   6.095   1.823
  149MYC    H2730826   5.909   5.941   1.747
  149MYC    C1430827   5.781   5.923   1.920
  149MYC    H2430828   5.751   5.822   1.891
  149MYC    H2530829   5.693   5.973   1.962
  149MYC    C1330830   5.889   5.913   2.029
  149MYC    H2230831   5.897   6.009   2.082
  149MYC    H2330832   5.987   5.896   1.981
  149MYC    C1230833   5.864   5.798   2.129
  149MYC    H2030834   5.864   5.703   2.073
  149MYC    H2130835   5.765   5.808   2.174
  149MYC    C1130836   5.972   5.789   2.238
  149MYC    H1830837   6.070   5.810   2.192
  149MYC    H1930838   5.977   5.687   2.277
  149MYC    C1030839   5.953   5.887   2.356
  149MYC    H1630840   5.922   5.985   2.319
  149MYC    H1730841   6.049   5.901   2.406
  149MYC     C930842   5.851   5.836   2.461
  149MYC    H1430843   5.889   5.742   2.503
  149MYC    H1530844   5.755   5.813   2.413
  149MYC     C830845   5.828   5.938   2.575
  149MYC    H1230846   5.767   6.021   2.537
  149MYC    H1330847   5.924   5.980   2.605
  149MYC     C730848   5.760   5.876   2.699
  149MYC    H1030849   5.823   5.794   2.736
  149MYC    H1130850   5.664   5.831   2.670
  149MYC     C630851   5.737   5.978   2.811
  149MYC     H830852   5.657   6.047   2.783
  149MYC     H930853   5.828   6.039   2.824
  149MYC     C530854   5.704   5.912   2.946
  149MYC     H630855   5.788   5.848   2.975
  149MYC     H730856   5.618   5.845   2.933
  149MYC     C430857   5.671   6.014   3.058
  149MYC     H430858   5.568   6.047   3.042
  149MYC     H530859   5.734   6.103   3.047
  149MYC     C230860   5.684   5.961   3.204
  149MYC     H230861   5.615   6.022   3.264
  149MYC     O330862   5.641   5.825   3.210
  149MYC     H330863   5.695   5.774   3.147
  149MYC     C130864   5.826   5.979   3.268
  149MYC     H130865   5.840   6.087   3.276
  149MYC    C8130866   5.940   5.926   3.178
  149MYC    O8230867   5.974   5.810   3.171
  149MYC    O8330868   6.000   6.021   3.103
  149MYC   H10530869   6.067   5.974   3.051
  149MYC    C2030870   5.839   5.917   3.409
  149MYC    H3430871   5.813   5.810   3.403
  149MYC    H3530872   5.945   5.920   3.440
  149MYC    C2130873   5.755   5.984   3.519
  149MYC    H3630874   5.798   6.082   3.542
  149MYC    H3730875   5.653   6.000   3.484
  149MYC    C2230876   5.751   5.897   3.645
  149MYC    H3830877   5.700   5.803   3.621
  149MYC    H3930878   5.854   5.872   3.675
  149MYC    C2330879   5.679   5.960   3.765
  149MYC    H4030880   5.727   6.055   3.791
  149MYC    H4130881   5.575   5.981   3.739
  149MYC    C2430882   5.684   5.865   3.886
  149MYC    H4230883   5.638   5.770   3.859
  149MYC    H4330884   5.790   5.844   3.909
  149MYC    C2530885   5.616   5.920   4.012
  149MYC    H4430886   5.652   6.022   4.032
  149MYC    H4530887   5.508   5.926   3.996
  149MYC    C2630888   5.647   5.831   4.134
  149MYC    H4630889   5.616   5.728   4.113
  149MYC    H4730890   5.755   5.830   4.148
  149MYC    C2730891   5.578   5.878   4.264
  149MYC    H4830892   5.581   5.987   4.270
  149MYC    H4930893   5.473   5.847   4.263
  149MYC    C2830894   5.650   5.820   4.387
  149MYC    H5030895   5.662   5.712   4.376
  149MYC    H5130896   5.751   5.862   4.390
  149MYC    C2930897   5.579   5.849   4.520
  149MYC    H5230898   5.543   5.953   4.521
  149MYC    H5330899   5.491   5.785   4.528
  149MYC    C3030900   5.673   5.827   4.639
  149MYC    H5430901   5.726   5.732   4.627
  149MYC    H5530902   5.749   5.906   4.639
  149MYC    C3130903   5.600   5.826   4.775
  149MYC    H5630904   5.529   5.910   4.780
  149MYC    H5730905   5.543   5.733   4.784
  149MYC    C3230906   5.699   5.837   4.892
  149MYC    H5830907   5.777   5.760   4.881
  149MYC    H5930908   5.749   5.934   4.887
  149MYC    C3330909   5.632   5.820   5.030
  149MYC    H6030910   5.547   5.889   5.038
  149MYC    H6130911   5.593   5.718   5.039
  149MYC    C3430912   5.731   5.849   5.144
  149MYC    H6230913   5.820   5.784   5.132
  149MYC    H6330914   5.766   5.952   5.136
  149MYC    C3530915   5.672   5.826   5.284
  149MYC    H6430916   5.580   5.886   5.295
  149MYC    H6530917   5.644   5.721   5.295
  149MYC    C3630918   5.771   5.866   5.394
  149MYC    H6630919   5.866   5.812   5.378
  149MYC    H6730920   5.794   5.973   5.385
  149MYC    C3730921   5.721   5.837   5.536
  149MYC    H6830922   5.625   5.888   5.552
  149MYC    H6930923   5.703   5.730   5.548
  149MYC    C3830924   5.821   5.886   5.643
  149MYC    H7030925   5.920   5.842   5.622
  149MYC    H7130926   5.832   5.994   5.634
  149MYC    C3930927   5.780   5.850   5.787
  149MYC    H7230928   5.678   5.886   5.805
  149MYC    H7330929   5.780   5.741   5.799
  149MYC    C4030930   5.875   5.914   5.890
  149MYC    H7430931   5.979   5.885   5.868
  149MYC    H7530932   5.870   6.023   5.880
  149MYC    C4130933   5.843   5.876   6.036
  149MYC    H7630934   5.734   5.882   6.052
  149MYC    H7730935   5.872   5.772   6.053
  149MYC    C4230936   5.913   5.968   6.138
  149MYC    H7830937   6.021   5.972   6.116
  149MYC    H7930938   5.874   6.070   6.125
  149MYC    C4330939   5.893   5.925   6.284
  149MYC    H8030940   5.937   5.999   6.351
  149MYC    H8130941   5.941   5.828   6.303
  149MYC    H8230942   5.787   5.916   6.308
  150SOL     OW30943   2.329   6.060  12.707
  150SOL    HW130944   2.383   6.099  12.776
  150SOL    HW230945   2.242   6.099  12.721
  151SOL     OW30946   4.191   2.319  12.667
  151SOL    HW130947   4.271   2.372  12.671
  151SOL    HW230948   4.122   2.378  12.698
  152SOL     OW30949   4.211   4.193  12.688
  152SOL    HW130950   4.267   4.235  12.754
  152SOL    HW230951   4.125   4.234  12.701
  153SOL     OW30952   4.244   6.192  12.794
  153SOL    HW130953   4.282   6.176  12.707
  153SOL    HW230954   4.153   6.162  12.786
  154SOL     OW30955   6.119   0.571  12.811
  154SOL    HW130956   6.163   0.532  12.735
  154SOL    HW230957   6.028   0.582  12.782
  155SOL     OW30958   6.117   2.441  12.800
  155SOL    HW130959   6.155   2.414  12.717
  155SOL    HW230960   6.023   2.448  12.783
  156SOL     OW30961   6.116   4.310  12.796
  156SOL    HW130962   6.154   4.285  12.711
  156SOL    HW230963   6.022   4.318  12.778
  157SOL     OW30964   6.111   6.174  12.697
  157SOL    HW130965   6.139   6.165  12.788
  157SOL    HW230966   6.015   6.178  12.702
  158SOL     OW30967   1.505   0.994  12.769
  158SOL    HW130968   1.459   0.927  12.718
  158SOL    HW230969   1.567   0.945  12.822
  159SOL     OW30970   1.534   2.829  12.764
  159SOL    HW130971   1.495   2.745  12.737
  159SOL    HW230972   1.587   2.807  12.840
  160SOL     OW30973   1.516   4.700  12.741
  160SOL    HW130974   1.466   4.619  12.733
  160SOL    HW230975   1.570   4.687  12.820
  161SOL     OW30976   3.416   0.991  12.745
  161SOL    HW130977   3.347   0.933  12.713
  161SOL    HW230978   3.453   0.944  12.821
  162SOL     OW30979   3.417   2.820  12.750
  162SOL    HW130980   3.350   2.752  12.738
  162SOL    HW230981   3.467   2.792  12.826
  163SOL     OW30982   3.373   4.754  12.800
  163SOL    HW130983   3.328   4.683  12.755
  163SOL    HW230984   3.447   4.713  12.843
  164SOL     OW30985   5.242   0.993  12.753
  164SOL    HW130986   5.180   0.939  12.704
  164SOL    HW230987   5.293   0.931  12.805
  165SOL     OW30988   5.268   2.848  12.757
  165SOL    HW130989   5.202   2.794  12.714
  165SOL    HW230990   5.309   2.790  12.822
  166SOL     OW30991   5.280   4.716  12.745
  166SOL    HW130992   5.203   4.660  12.733
  166SOL    HW230993   5.319   4.687  12.828
  167SOL     OW30994   0.148   0.635   0.066
  167SOL    HW130995   0.087   0.561   0.069
  167SOL    HW230996   0.095   0.710   0.092
  168SOL     OW30997   0.120   2.505   0.086
  168SOL    HW130998   0.067   2.427   0.100
  168SOL    HW230999   0.057   2.575   0.074
  169SOL     OW31000   0.128   4.352   0.096
  169SOL    HW131001   0.066   4.281   0.109
  169SOL    HW231002   0.081   4.431   0.122
  170SOL     OW31003   0.087   6.230   0.037
  170SOL    HW131004   0.048   6.149   0.071
  170SOL    HW231005   0.099   6.285   0.114
  171SOL     OW31006   1.967   0.708   0.157
  171SOL    HW131007   1.926   0.622   0.166
  171SOL    HW231008   2.044   0.692   0.103
  172SOL     OW31009   1.964   2.513   0.075
  172SOL    HW131010   1.955   2.425   0.111
  172SOL    HW231011   1.970   2.570   0.151
  173SOL     OW31012   1.996   4.369   0.060
  173SOL    HW131013   1.933   4.302   0.088
  173SOL    HW231014   1.982   4.443   0.119
  174SOL     OW31015   1.940   6.266   0.182
  174SOL    HW131016   1.968   6.186   0.137
  174SOL    HW231017   2.012   6.327   0.167
  175SOL     OW31018   3.865   0.645   0.091
  175SOL    HW131019   3.818   0.566   0.119
  175SOL    HW231020   3.842   0.710   0.157
  176SOL     OW31021   3.807   2.524   0.076
  176SOL    HW131022   3.788   2.436   0.108
  176SOL    HW231023   3.818   2.576   0.156
  177SOL     OW31024   3.787   4.432   0.050
  177SOL    HW131025   3.788   4.338   0.065
  177SOL    HW231026   3.815   4.469   0.134
  178SOL     OW31027   3.803   6.244   0.148
  178SOL    HW131028   3.797   6.151   0.166
  178SOL    HW231029   3.860   6.250   0.071
  179SOL     OW31030   5.647   0.679   0.110
  179SOL    HW131031   5.637   0.585   0.096
  179SOL    HW231032   5.678   0.687   0.200
  180SOL     OW31033   5.679   2.522   0.076
  180SOL    HW131034   5.658   2.436   0.111
  180SOL    HW231035   5.687   2.578   0.153
  181SOL     OW31036   5.676   4.387   0.083
  181SOL    HW131037   5.659   4.298   0.113
  181SOL    HW231038   5.683   4.439   0.163
  182SOL     OW31039   5.662   6.232   0.189
  182SOL    HW131040   5.662   6.139   0.167
  182SOL    HW231041   5.734   6.269   0.138
  183SOL     OW31042   1.698   1.626   0.064
  183SOL    HW131043   1.648   1.674  12.859
  183SOL    HW231044   1.631   1.579   0.114
  184SOL     OW31045   1.705   3.509   0.050
  184SOL    HW131046   1.643   3.576   0.019
  184SOL    HW231047   1.658   3.463   0.119
  185SOL     OW31048   1.697   5.370   0.055
  185SOL    HW131049   1.645   5.359  12.838
  185SOL    HW231050   1.645   5.328   0.124
  186SOL     OW31051   3.575   1.641   0.043
  186SOL    HW131052   3.550   1.732   0.059
  186SOL    HW231053   3.526   1.591   0.109
  187SOL     OW31054   3.628   3.541   0.054
  187SOL    HW131055   3.540   3.505   0.044
  187SOL    HW231056   3.626   3.586   0.139
  188SOL     OW31057   3.585   5.340   0.065
  188SOL    HW131058   3.539   5.420   0.038
  188SOL    HW231059   3.526   5.298   0.127
  189SOL     OW31060   5.451   1.643   0.071
  189SOL    HW131061   5.400   1.707   0.022
  189SOL    HW231062   5.386   1.591   0.118
  190SOL     OW31063   5.429   3.514   0.052
  190SOL    HW131064   5.374   3.524  12.837
  190SOL    HW231065   5.379   3.456   0.110
  191SOL     OW31066   5.429   5.372   0.045
  191SOL    HW131067   5.365   5.385  12.837
  191SOL    HW231068   5.381   5.323   0.112
  192SOL     OW31069   0.492   1.411  12.709
  192SOL    HW131070   0.420   1.470  12.686
  192SOL    HW231071   0.503   1.356  12.631
  193SOL     OW31072   0.494   3.279  12.736
  193SOL    HW131073   0.412   3.294  12.783
  193SOL    HW231074   0.502   3.184  12.733
  194SOL     OW31075   0.507   5.139  12.719
  194SOL    HW131076   0.431   5.187  12.685
  194SOL    HW231077   0.531   5.080  12.648
  195SOL     OW31078   2.353   1.404  12.711
  195SOL    HW131079   2.259   1.418  12.712
  195SOL    HW231080   2.370   1.361  12.627
  196SOL     OW31081   2.299   3.212  12.732
  196SOL    HW131082   2.222   3.201  12.676
  196SOL    HW231083   2.373   3.188  12.676
  197SOL     OW31084   2.341   5.118  12.694
  197SOL    HW131085   2.246   5.127  12.697
  197SOL    HW231086   2.358   5.066  12.615
  198SOL     OW31087   4.222   1.414  12.710
  198SOL    HW131088   4.129   1.407  12.729
  198SOL    HW231089   4.233   1.369  12.626
  199SOL     OW31090   4.227   3.279  12.703
  199SOL    HW131091   4.136   3.262  12.727
  199SOL    HW231092   4.240   3.231  12.621
  200SOL     OW31093   4.217   5.142  12.716
  200SOL    HW131094   4.122   5.131  12.717
  200SOL    HW231095   4.246   5.096  12.637
  201SOL     OW31096   6.055   1.387  12.732
  201SOL    HW131097   5.961   1.385  12.716
  201SOL    HW231098   6.093   1.338  12.659
  202SOL     OW31099   6.079   3.284  12.675
  202SOL    HW131100   6.009   3.256  12.734
  202SOL    HW231101   6.080   3.219  12.605
  203SOL     OW31102   6.061   5.114  12.707
  203SOL    HW131103   5.966   5.116  12.703
  203SOL    HW231104   6.087   5.069  12.626
  204SOL     OW31105   0.304   0.052  12.721
  204SOL    HW131106   0.334   0.058  12.812
  204SOL    HW231107   0.314   6.410  12.698
  205SOL     OW31108   0.351   1.907  12.741
  205SOL    HW131109   0.440   1.939  12.725
  205SOL    HW231110   0.344   1.899  12.836
  206SOL     OW31111   0.358   3.769  12.724
  206SOL    HW131112   0.443   3.813  12.720
  206SOL    HW231113   0.336   3.767  12.817
  207SOL     OW31114   0.314   5.626  12.720
  207SOL    HW131115   0.393   5.642  12.667
  207SOL    HW231116   0.344   5.629  12.810
  208SOL     OW31117   2.143   6.439  12.745
  208SOL    HW131118   2.182   0.072  12.716
  208SOL    HW231119   2.154   6.440  12.840
  209SOL     OW31120   2.199   1.873  12.722
  209SOL    HW131121   2.200   1.965  12.697
  209SOL    HW231122   2.178   1.873  12.816
  210SOL     OW31123   2.163   3.696  12.735
  210SOL    HW131124   2.168   3.766  12.801
  210SOL    HW231125   2.144   3.617  12.786
  211SOL     OW31126   2.190   5.601  12.724
  211SOL    HW131127   2.205   5.690  12.690
  211SOL    HW231128   2.192   5.611  12.819
  212SOL     OW31129   4.061   0.004  12.768
  212SOL    HW131130   4.051   0.078  12.708
  212SOL    HW231131   4.019   0.033  12.849
  213SOL     OW31132   4.042   1.871  12.732
  213SOL    HW131133   4.070   1.952  12.691
  213SOL    HW231134   4.048   1.889  12.826
  214SOL     OW31135   4.029   3.809  12.720
  214SOL    HW131136   4.125   3.809  12.721
  214SOL    HW231137   4.005   3.794  12.811
  215SOL     OW31138   4.030   5.602  12.735
  215SOL    HW131139   4.111   5.642  12.704
  215SOL    HW231140   4.033   5.613  12.830
  216SOL     OW31141   5.920   1.886  12.768
  216SOL    HW131142   5.954   1.869  12.680
  216SOL    HW231143   5.959   1.969  12.793
  217SOL     OW31144   5.904   3.740  12.734
  217SOL    HW131145   5.936   3.822  12.696
  217SOL    HW231146   5.908   3.755  12.829
  218SOL     OW31147   5.899   5.591  12.734
  218SOL    HW131148   5.928   5.670  12.688
  218SOL    HW231149   5.909   5.612  12.827
  219SOL     OW31150   1.393   0.008  12.724
  219SOL    HW131151   1.391   6.365  12.701
  219SOL    HW231152   1.351   0.013  12.810
  220SOL     OW31153   1.369   1.857  12.763
  220SOL    HW131154   1.421   1.790  12.717
  220SOL    HW231155   1.293   1.870  12.707
  221SOL     OW31156   1.372   3.726  12.749
  221SOL    HW131157   1.425   3.655  12.714
  221SOL    HW231158   1.302   3.737  12.684
  222SOL     OW31159   1.338   5.585  12.727
  222SOL    HW131160   1.405   5.520  12.708
  222SOL    HW231161   1.287   5.591  12.646
  223SOL     OW31162   3.232   0.025  12.726
  223SOL    HW131163   3.237   6.381  12.709
  223SOL    HW231164   3.191   0.032  12.812
  224SOL     OW31165   3.231   1.863  12.737
  224SOL    HW131166   3.293   1.795  12.711
  224SOL    HW231167   3.145   1.827  12.717
  225SOL     OW31168   3.317   3.567  12.783
  225SOL    HW131169   3.310   3.637  12.719
  225SOL    HW231170   3.274   3.492  12.741
  226SOL     OW31171   3.218   5.593  12.687
  226SOL    HW131172   3.280   5.522  12.673
  226SOL    HW231173   3.138   5.550  12.718
  227SOL     OW31174   5.039   6.414  12.731
  227SOL    HW131175   5.088   6.337  12.703
  227SOL    HW231176   5.105   0.033  12.739
  228SOL     OW31177   5.091   1.847  12.756
  228SOL    HW131178   5.150   1.784  12.714
  228SOL    HW231179   5.010   1.842  12.704
  229SOL     OW31180   5.084   3.704  12.767
  229SOL    HW131181   5.153   3.650  12.729
  229SOL    HW231182   5.006   3.684  12.716
  230SOL     OW31183   5.086   5.584  12.747
  230SOL    HW131184   5.150   5.520  12.713
  230SOL    HW231185   5.007   5.567  12.697
  231SOL     OW31186   1.273   1.794   0.161
  231SOL    HW131187   1.307   1.821   0.075
  231SOL    HW231188   1.212   1.864   0.185
  232SOL     OW31189   1.246   3.645   0.126
  232SOL    HW131190   1.292   3.687   0.053
  232SOL    HW231191   1.204   3.718   0.172
  233SOL     OW31192   3.119   1.779   0.167
  233SOL    HW131193   3.189   1.814   0.112
  233SOL    HW231194   3.082   1.856   0.210
  234SOL     OW31195   3.274   3.556   0.202
  234SOL    HW131196   3.296   3.565   0.109
  234SOL    HW231197   3.206   3.622   0.216
  235SOL     OW31198   3.114   5.524   0.151
  235SOL    HW131199   3.185   5.585   0.134
  235SOL    HW231200   3.048   5.576   0.196
  236SOL     OW31201   4.997   1.781   0.156
  236SOL    HW131202   5.030   1.800   0.068
  236SOL    HW231203   4.988   1.866   0.198
  237SOL     OW31204   4.986   3.643   0.166
  237SOL    HW131205   5.026   3.669   0.083
  237SOL    HW231206   4.928   3.716   0.189
  238SOL     OW31207   5.000   5.513   0.152
  238SOL    HW131208   5.034   5.532   0.064
  238SOL    HW231209   4.953   5.592   0.178
  239SOL     OW31210   0.725   1.553  12.730
  239SOL    HW131211   0.719   1.622  12.663
  239SOL    HW231212   0.640   1.509  12.728
  240SOL     OW31213   0.708   3.446  12.716
  240SOL    HW131214   0.699   3.480  12.627
  240SOL    HW231215   0.629   3.392  12.729
  241SOL     OW31216   0.700   5.335  12.758
  241SOL    HW131217   0.718   5.355  12.667
  241SOL    HW231218   0.632   5.267  12.755
  242SOL     OW31219   2.573   1.567  12.723
  242SOL    HW131220   2.562   1.618  12.643
  242SOL    HW231221   2.491   1.517  12.731
  243SOL     OW31222   2.443   3.385   0.019
  243SOL    HW131223   2.473   3.440  12.808
  243SOL    HW231224   2.380   3.324  12.841
  244SOL     OW31225   2.563   5.276  12.718
  244SOL    HW131226   2.555   5.334  12.643
  244SOL    HW231227   2.481   5.227  12.719
  245SOL     OW31228   4.443   1.572  12.727
  245SOL    HW131229   4.438   1.621  12.646
  245SOL    HW231230   4.360   1.523  12.731
  246SOL     OW31231   4.413   3.490  12.699
  246SOL    HW131232   4.427   3.481  12.605
  246SOL    HW231233   4.349   3.422  12.721
  247SOL     OW31234   4.451   5.289  12.768
  247SOL    HW131235   4.485   5.333  12.690
  247SOL    HW231236   4.365   5.257  12.741
  248SOL     OW31237   6.236   1.604  12.723
  248SOL    HW131238   6.207   1.675  12.665
  248SOL    HW231239   6.169   1.537  12.714
  249SOL     OW31240   6.262   3.487  12.693
  249SOL    HW131241   6.249   3.501  12.599
  249SOL    HW231242   6.196   3.422  12.717
  250SOL     OW31243   6.255   5.310  12.702
  250SOL    HW131244   6.247   5.347  12.614
  250SOL    HW231245   6.181   5.250  12.709
  251SOL     OW31246   1.706   0.886   0.097
  251SOL    HW131247   1.779   0.827   0.081
  251SOL    HW231248   1.745   0.974   0.095
  252SOL     OW31249   1.707   2.776   0.130
  252SOL    HW131250   1.777   2.713   0.145
  252SOL    HW231251   1.751   2.861   0.124
  253SOL     OW31252   1.683   4.653   0.087
  253SOL    HW131253   1.762   4.603   0.110
  253SOL    HW231254   1.695   4.738   0.128
  254SOL     OW31255   3.583   0.912   0.117
  254SOL    HW131256   3.654   0.856   0.147
  254SOL    HW231257   3.623   0.998   0.103
  255SOL     OW31258   3.583   2.762   0.100
  255SOL    HW131259   3.658   2.703   0.108
  255SOL    HW231260   3.615   2.846   0.133
  256SOL     OW31261   3.609   4.646   0.053
  256SOL    HW131262   3.657   4.564   0.050
  256SOL    HW231263   3.665   4.706   0.102
  257SOL     OW31264   5.454   0.887   0.124
  257SOL    HW131265   5.513   0.818   0.092
  257SOL    HW231266   5.484   0.966   0.079
  258SOL     OW31267   5.440   2.760   0.118
  258SOL    HW131268   5.513   2.700   0.134
  258SOL    HW231269   5.481   2.840   0.088
  259SOL     OW31270   5.435   4.632   0.118
  259SOL    HW131271   5.498   4.562   0.099
  259SOL    HW231272   5.485   4.713   0.110
  260SOL     OW31273   0.022   0.020  12.749
  260SOL    HW131274   0.105   0.059  12.722
  260SOL    HW231275   0.047   6.382  12.780
  261SOL     OW31276   0.064   1.958  12.769
  261SOL    HW131277   0.071   2.025  12.701
  261SOL    HW231278   0.155   1.935  12.789
  262SOL     OW31279   0.066   3.866  12.810
  262SOL    HW131280   0.074   3.904  12.722
  262SOL    HW231281   0.090   3.774  12.798
  263SOL     OW31282   0.048   5.700  12.777
  263SOL    HW131283   0.055   5.772  12.714
  263SOL    HW231284   0.132   5.655  12.772
  264SOL     OW31285   0.346   0.055   0.131
  264SOL    HW131286   0.322   0.140   0.168
  264SOL    HW231287   0.275   6.446   0.155
  265SOL     OW31288   0.297   1.903   0.147
  265SOL    HW131289   0.285   1.996   0.168
  265SOL    HW231290   0.323   1.863   0.230
  266SOL     OW31291   0.319   3.784   0.131
  266SOL    HW131292   0.244   3.840   0.152
  266SOL    HW231293   0.335   3.734   0.210
  267SOL     OW31294   0.353   5.640   0.136
  267SOL    HW131295   0.347   5.728   0.173
  267SOL    HW231296   0.344   5.582   0.212
  268SOL     OW31297   2.162   6.441   0.162
  268SOL    HW131298   2.162   0.083   0.191
  268SOL    HW231299   2.254   6.416   0.162
  269SOL     OW31300   2.218   3.859   0.081
  269SOL    HW131301   2.178   3.938   0.117
  269SOL    HW231302   2.200   3.791   0.146
  270SOL     OW31303   2.202   5.640   0.130
  270SOL    HW131304   2.182   5.728   0.163
  270SOL    HW231305   2.206   5.585   0.209
  271SOL     OW31306   4.083   0.039   0.184
  271SOL    HW131307   4.047   0.126   0.200
  271SOL    HW231308   4.067   6.440   0.265
  272SOL     OW31309   4.060   1.928   0.136
  272SOL    HW131310   4.036   2.015   0.166
  272SOL    HW231311   4.060   1.874   0.216
  273SOL     OW31312   4.023   3.775   0.123
  273SOL    HW131313   4.019   3.864   0.159
  273SOL    HW231314   4.049   3.720   0.197
  274SOL     OW31315   4.039   5.640   0.143
  274SOL    HW131316   4.032   5.730   0.174
  274SOL    HW231317   4.056   5.588   0.222
  275SOL     OW31318   5.937   0.014   0.182
  275SOL    HW131319   5.907   0.105   0.181
  275SOL    HW231320   5.912   6.431   0.268
  276SOL     OW31321   5.895   1.890   0.194
  276SOL    HW131322   5.870   1.981   0.207
  276SOL    HW231323   5.876   1.873   0.101
  277SOL     OW31324   5.912   3.803   0.138
  277SOL    HW131325   5.898   3.887   0.180
  277SOL    HW231326   5.919   3.740   0.210
  278SOL     OW31327   5.914   5.663   0.136
  278SOL    HW131328   5.903   5.748   0.177
  278SOL    HW231329   5.918   5.601   0.209
  279SOL     OW31330   1.556   0.214  12.686
  279SOL    HW131331   1.496   0.140  12.700
  279SOL    HW231332   1.567   0.253  12.773
  280SOL     OW31333   1.494   2.102  12.697
  280SOL    HW131334   1.453   2.025  12.735
  280SOL    HW231335   1.562   2.127  12.760
  281SOL     OW31336   1.530   3.954  12.737
  281SOL    HW131337   1.478   3.875  12.753
  281SOL    HW231338   1.495   4.019  12.797
  282SOL     OW31339   1.500   5.822  12.687
  282SOL    HW131340   1.449   5.748  12.721
  282SOL    HW231341   1.571   5.832  12.751
  283SOL     OW31342   3.420   0.232  12.691
  283SOL    HW131343   3.354   0.168  12.718
  283SOL    HW231344   3.388   0.316  12.725
  284SOL     OW31345   3.365   2.102  12.702
  284SOL    HW131346   3.314   2.025  12.724
  284SOL    HW231347   3.419   2.118  12.780
  285SOL     OW31348   3.530   3.973  12.686
  285SOL    HW131349   3.549   3.928  12.768
  285SOL    HW231350   3.610   4.022  12.667
  286SOL     OW31351   3.369   5.838  12.692
  286SOL    HW131352   3.347   5.777  12.762
  286SOL    HW231353   3.444   5.888  12.725
  287SOL     OW31354   5.230   2.086  12.679
  287SOL    HW131355   5.179   2.014  12.718
  287SOL    HW231356   5.284   2.118  12.752
  288SOL     OW31357   5.243   3.936  12.685
  288SOL    HW131358   5.192   3.871  12.733
  288SOL    HW231359   5.226   4.018  12.730
  289SOL     OW31360   5.217   5.827  12.697
  289SOL    HW131361   5.163   5.752  12.719
  289SOL    HW231362   5.294   5.820  12.754
  290SOL     OW31363   0.652   0.956  12.657
  290SOL    HW131364   0.677   1.036  12.610
  290SOL    HW231365   0.614   0.987  12.739
  291SOL     OW31366   0.605   2.856  12.681
  291SOL    HW131367   0.666   2.924  12.652
  291SOL    HW231368   0.596   2.871  12.775
  292SOL     OW31369   0.550   4.700  12.701
  292SOL    HW131370   0.619   4.745  12.653
  292SOL    HW231371   0.590   4.677  12.785
  293SOL     OW31372   2.458   0.983  12.676
  293SOL    HW131373   2.510   1.047  12.626
  293SOL    HW231374   2.503   0.977  12.760
  294SOL     OW31375   2.462   2.794  12.724
  294SOL    HW131376   2.510   2.860  12.673
  294SOL    HW231377   2.497   2.803  12.813
  295SOL     OW31378   2.538   4.678  12.690
  295SOL    HW131379   2.485   4.744  12.645
  295SOL    HW231380   2.494   4.665  12.774
  296SOL     OW31381   4.327   0.949  12.694
  296SOL    HW131382   4.381   1.008  12.640
  296SOL    HW231383   4.352   0.969  12.784
  297SOL     OW31384   4.317   2.852  12.688
  297SOL    HW131385   4.379   2.903  12.636
  297SOL    HW231386   4.371   2.811  12.756
  298SOL     OW31387   4.301   4.717  12.682
  298SOL    HW131388   4.374   4.765  12.641
  298SOL    HW231389   4.344   4.655  12.742
  299SOL     OW31390   6.204   0.934  12.674
  299SOL    HW131391   6.239   1.009  12.626
  299SOL    HW231392   6.236   0.946  12.764
  300SOL     OW31393   6.267   2.799  12.704
  300SOL    HW131394   6.274   2.889  12.673
  300SOL    HW231395   6.258   2.806  12.799
  301SOL     OW31396   6.270   4.656  12.699
  301SOL    HW131397   6.284   4.741  12.658
  301SOL    HW231398   6.262   4.675  12.792
  302SOL     OW31399   1.138   1.245  12.677
  302SOL    HW131400   1.058   1.287  12.648
  302SOL    HW231401   1.164   1.294  12.755
  303SOL     OW31402   1.156   3.210  12.673
  303SOL    HW131403   1.061   3.219  12.667
  303SOL    HW231404   1.171   3.157  12.751
  304SOL     OW31405   1.176   5.059  12.678
  304SOL    HW131406   1.086   5.091  12.679
  304SOL    HW231407   1.170   4.967  12.706
  305SOL     OW31408   3.015   1.339  12.675
  305SOL    HW131409   2.920   1.354  12.669
  305SOL    HW231410   3.022   1.246  12.696
  306SOL     OW31411   3.121   3.137  12.755
  306SOL    HW131412   3.084   3.060  12.712
  306SOL    HW231413   3.072   3.145  12.837
  307SOL     OW31414   4.879   1.331  12.673
  307SOL    HW131415   4.787   1.342  12.649
  307SOL    HW231416   4.877   1.282  12.755
  308SOL     OW31417   4.885   3.231  12.721
  308SOL    HW131418   4.824   3.180  12.669
  308SOL    HW231419   4.966   3.180  12.721
  309SOL     OW31420   4.886   5.057  12.674
  309SOL    HW131421   4.792   5.062  12.655
  309SOL    HW231422   4.891   5.010  12.758
  310SOL     OW31423   0.044   1.549  12.780
  310SOL    HW131424   0.083   1.528  12.695
  310SOL    HW231425   6.403   1.573  12.760
  311SOL     OW31426   0.678   0.094  12.634
  311SOL    HW131427   0.637   0.078  12.719
  311SOL    HW231428   0.609   0.075  12.570
  312SOL     OW31429   0.072   3.447  12.729
  312SOL    HW131430   0.071   3.362  12.772
  312SOL    HW231431   6.429   3.469  12.718
  313SOL     OW31432   0.065   5.301  12.763
  313SOL    HW131433   0.090   5.228  12.706
  313SOL    HW231434   6.421   5.311  12.749
  314SOL     OW31435   0.630   3.844  12.659
  314SOL    HW131436   0.679   3.779  12.710
  314SOL    HW231437   0.603   3.797  12.580
  315SOL     OW31438   0.725   5.670  12.766
  315SOL    HW131439   0.707   5.576  12.767
  315SOL    HW231440   0.673   5.703  12.692
  316SOL     OW31441   1.884   1.548  12.718
  316SOL    HW131442   1.807   1.501  12.688
  316SOL    HW231443   1.857   1.590  12.799
  317SOL     OW31444   2.573   0.082  12.650
  317SOL    HW131445   2.548   0.069  12.741
  317SOL    HW231446   2.494   0.061  12.600
  318SOL     OW31447   1.876   3.422  12.719
  318SOL    HW131448   1.807   3.365  12.687
  318SOL    HW231449   1.839   3.463  12.798
  319SOL     OW31450   2.519   1.979  12.657
  319SOL    HW131451   2.497   1.954  12.747
  319SOL    HW231452   2.452   1.936  12.604
  320SOL     OW31453   1.888   5.291  12.723
  320SOL    HW131454   1.811   5.240  12.694
  320SOL    HW231455   1.859   5.333  12.805
  321SOL     OW31456   2.437   3.732  12.744
  321SOL    HW131457   2.433   3.778  12.828
  321SOL    HW231458   2.345   3.723  12.718
  322SOL     OW31459   2.534   5.680  12.655
  322SOL    HW131460   2.490   5.667  12.739
  322SOL    HW231461   2.470   5.652  12.590
  323SOL     OW31462   3.741   1.547  12.704
  323SOL    HW131463   3.669   1.498  12.664
  323SOL    HW231464   3.702   1.588  12.782
  324SOL     OW31465   4.391   0.090  12.681
  324SOL    HW131466   4.467   0.036  12.659
  324SOL    HW231467   4.337   0.089  12.602
  325SOL     OW31468   3.797   3.454  12.715
  325SOL    HW131469   3.712   3.424  12.681
  325SOL    HW231470   3.777   3.487  12.802
  326SOL     OW31471   4.400   1.973  12.653
  326SOL    HW131472   4.375   1.927  12.733
  326SOL    HW231473   4.343   1.936  12.585
  327SOL     OW31474   3.752   5.250  12.717
  327SOL    HW131475   3.674   5.210  12.679
  327SOL    HW231476   3.722   5.285  12.801
  328SOL     OW31477   4.337   5.651  12.674
  328SOL    HW131478   4.412   5.605  12.713
  328SOL    HW231479   4.375   5.704  12.604
  329SOL     OW31480   5.607   1.556  12.720
  329SOL    HW131481   5.535   1.504  12.685
  329SOL    HW231482   5.574   1.591  12.803
  330SOL     OW31483   6.212   0.093  12.711
  330SOL    HW131484   6.302   0.061  12.722
  330SOL    HW231485   6.221   0.173  12.660
  331SOL     OW31486   5.605   3.430  12.713
  331SOL    HW131487   5.532   3.374  12.686
  331SOL    HW231488   5.576   3.469  12.796
  332SOL     OW31489   6.264   2.074  12.696
  332SOL    HW131490   6.325   2.010  12.733
  332SOL    HW231491   6.206   2.023  12.639
  333SOL     OW31492   5.609   5.274  12.715
  333SOL    HW131493   5.535   5.223  12.683
  333SOL    HW231494   5.576   5.317  12.794
  334SOL     OW31495   6.283   3.904  12.618
  334SOL    HW131496   6.284   3.856  12.701
  334SOL    HW231497   6.218   3.858  12.565
  335SOL     OW31498   6.250   5.768  12.652
  335SOL    HW131499   6.313   5.717  12.702
  335SOL    HW231500   6.209   5.705  12.594
  336SOL     OW31501   0.322   0.609  12.707
  336SOL    HW131502   0.259   0.619  12.778
  336SOL    HW231503   0.269   0.605  12.628
  337SOL     OW31504   0.248   2.490  12.689
  337SOL    HW131505   0.220   2.494  12.780
  337SOL    HW231506   0.168   2.501  12.638
  338SOL     OW31507   0.205   4.329  12.676
  338SOL    HW131508   0.203   4.330  12.772
  338SOL    HW231509   0.138   4.392  12.651
  339SOL     OW31510   0.285   6.229  12.706
  339SOL    HW131511   0.216   6.217  12.772
  339SOL    HW231512   0.247   6.193  12.625
  340SOL     OW31513   2.115   0.613  12.721
  340SOL    HW131514   2.028   0.652  12.717
  340SOL    HW231515   2.134   0.588  12.630
  341SOL     OW31516   2.150   2.490  12.712
  341SOL    HW131517   2.080   2.502  12.776
  341SOL    HW231518   2.104   2.472  12.630
  342SOL     OW31519   2.160   4.398  12.699
  342SOL    HW131520   2.101   4.387  12.774
  342SOL    HW231521   2.119   4.348  12.628
  343SOL     OW31522   2.080   6.176  12.716
  343SOL    HW131523   2.100   6.268  12.733
  343SOL    HW231524   2.058   6.174  12.623
  344SOL     OW31525   4.019   0.630  12.723
  344SOL    HW131526   3.956   0.630  12.796
  344SOL    HW231527   3.967   0.602  12.648
  345SOL     OW31528   3.991   2.489  12.731
  345SOL    HW131529   3.924   2.507  12.798
  345SOL    HW231530   3.941   2.483  12.649
  346SOL     OW31531   3.957   4.308  12.700
  346SOL    HW131532   3.936   4.351  12.783
  346SOL    HW231533   3.958   4.379  12.636
  347SOL     OW31534   3.967   6.198  12.718
  347SOL    HW131535   3.997   6.289  12.720
  347SOL    HW231536   3.965   6.176  12.625
  348SOL     OW31537   5.861   0.597  12.722
  348SOL    HW131538   5.782   0.641  12.753
  348SOL    HW231539   5.847   0.585  12.628
  349SOL     OW31540   5.857   2.458  12.727
  349SOL    HW131541   5.789   2.487  12.787
  349SOL    HW231542   5.817   2.463  12.640
  350SOL     OW31543   5.857   4.333  12.721
  350SOL    HW131544   5.785   4.355  12.781
  350SOL    HW231545   5.815   4.319  12.637
  351SOL     OW31546   5.842   6.246  12.675
  351SOL    HW131547   5.752   6.237  12.704
  351SOL    HW231548   5.844   6.202  12.590
  352SOL     OW31549   0.845   0.462   0.192
  352SOL    HW131550   0.773   0.506   0.148
  352SOL    HW231551   0.821   0.369   0.189
  353SOL     OW31552   0.842   2.350   0.176
  353SOL    HW131553   0.767   2.409   0.168
  353SOL    HW231554   0.826   2.282   0.110
  354SOL     OW31555   0.841   4.214   0.193
  354SOL    HW131556   0.778   4.276   0.157
  354SOL    HW231557   0.897   4.191   0.118
  355SOL     OW31558   0.884   6.038   0.167
  355SOL    HW131559   0.851   6.126   0.184
  355SOL    HW231560   0.836   6.010   0.089
  356SOL     OW31561   2.700   0.454   0.208
  356SOL    HW131562   2.681   0.497   0.125
  356SOL    HW231563   2.669   0.364   0.196
  357SOL     OW31564   2.697   2.348   0.190
  357SOL    HW131565   2.626   2.411   0.181
  357SOL    HW231566   2.705   2.309   0.102
  358SOL     OW31567   2.511   4.161   0.147
  358SOL    HW131568   2.491   4.254   0.155
  358SOL    HW231569   2.470   4.134   0.065
  359SOL     OW31570   2.712   6.068   0.165
  359SOL    HW131571   2.637   6.128   0.159
  359SOL    HW231572   2.713   6.024   0.079
  360SOL     OW31573   4.556   0.473   0.196
  360SOL    HW131574   4.504   0.537   0.147
  360SOL    HW231575   4.580   0.407   0.131
  361SOL     OW31576   4.560   2.354   0.194
  361SOL    HW131577   4.488   2.414   0.177
  361SOL    HW231578   4.587   2.324   0.107
  362SOL     OW31579   4.592   4.224   0.184
  362SOL    HW131580   4.516   4.276   0.157
  362SOL    HW231581   4.628   4.191   0.102
  363SOL     OW31582   4.575   6.054   0.155
  363SOL    HW131583   4.517   6.099   0.094
  363SOL    HW231584   4.621   5.990   0.100
  364SOL     OW31585   6.418   0.423   0.164
  364SOL    HW131586   6.353   0.429   0.094
  364SOL    HW231587   0.012   0.340   0.149
  365SOL     OW31588   6.414   2.283   0.144
  365SOL    HW131589   6.329   2.287   0.100
  365SOL    HW231590   0.004   2.203   0.110
  366SOL     OW31591   6.414   4.129   0.185
  366SOL    HW131592   6.323   4.151   0.166
  366SOL    HW231593   6.434   4.057   0.125
  367SOL     OW31594   6.430   5.991   0.151
  367SOL    HW131595   6.335   5.995   0.143
  367SOL    HW231596   0.007   5.921   0.091
  368SOL     OW31597   1.873   0.437   0.159
  368SOL    HW131598   1.787   0.416   0.196
  368SOL    HW231599   1.885   0.374   0.088
  369SOL     OW31600   1.874   2.244   0.167
  369SOL    HW131601   1.780   2.241   0.188
  369SOL    HW231602   1.882   2.190   0.089
  370SOL     OW31603   1.840   4.147   0.143
  370SOL    HW131604   1.761   4.150   0.197
  370SOL    HW231605   1.815   4.095   0.067
  371SOL     OW31606   1.892   5.949   0.168
  371SOL    HW131607   1.801   5.956   0.195
  371SOL    HW231608   1.888   5.945   0.072
  372SOL     OW31609   3.732   0.408   0.164
  372SOL    HW131610   3.649   0.416   0.211
  372SOL    HW231611   3.708   0.369   0.079
  373SOL     OW31612   3.739   2.268   0.174
  373SOL    HW131613   3.653   2.298   0.206
  373SOL    HW231614   3.721   2.182   0.136
  374SOL     OW31615   3.801   4.165   0.096
  374SOL    HW131616   3.720   4.114   0.093
  374SOL    HW231617   3.869   4.101   0.117
  375SOL     OW31618   3.762   5.970   0.169
  375SOL    HW131619   3.671   5.973   0.198
  375SOL    HW231620   3.758   5.924   0.085
  376SOL     OW31621   5.594   0.397   0.150
  376SOL    HW131622   5.510   0.403   0.195
  376SOL    HW231623   5.573   0.357   0.066
  377SOL     OW31624   5.609   2.267   0.171
  377SOL    HW131625   5.523   2.294   0.204
  377SOL    HW231626   5.589   2.217   0.092
  378SOL     OW31627   5.614   4.124   0.172
  378SOL    HW131628   5.525   4.136   0.205
  378SOL    HW231629   5.604   4.075   0.091
  379SOL     OW31630   5.627   5.956   0.158
  379SOL    HW131631   5.539   5.951   0.196
  379SOL    HW231632   5.622   5.903   0.079
  380SOL     OW31633   0.605   0.680   0.183
  380SOL    HW131634   0.629   0.773   0.193
  380SOL    HW231635   0.544   0.679   0.109
  381SOL     OW31636   0.624   2.526   0.179
  381SOL    HW131637   0.661   2.614   0.189
  381SOL    HW231638   0.557   2.535   0.112
  382SOL     OW31639   0.617   4.403   0.170
  382SOL    HW131640   0.642   4.493   0.192
  382SOL    HW231641   0.559   4.412   0.094
  383SOL     OW31642   2.427   0.697   0.175
  383SOL    HW131643   2.476   0.776   0.197
  383SOL    HW231644   2.428   0.694   0.079
  384SOL     OW31645   2.491   2.528   0.165
  384SOL    HW131646   2.515   2.621   0.169
  384SOL    HW231647   2.413   2.526   0.110
  385SOL     OW31648   2.436   4.427   0.182
  385SOL    HW131649   2.476   4.513   0.179
  385SOL    HW231650   2.352   4.437   0.136
  386SOL     OW31651   4.291   0.659   0.123
  386SOL    HW131652   4.340   0.740   0.141
  386SOL    HW231653   4.210   0.669   0.172
  387SOL     OW31654   4.347   2.536   0.176
  387SOL    HW131655   4.375   2.626   0.189
  387SOL    HW231656   4.269   2.543   0.121
  388SOL     OW31657   6.128   0.703   0.189
  388SOL    HW131658   6.183   0.779   0.171
  388SOL    HW231659   6.121   0.659   0.104
  389SOL     OW31660   6.177   2.541   0.183
  389SOL    HW131661   6.205   2.631   0.165
  389SOL    HW231662   6.149   2.507   0.098
  390SOL     OW31663   6.191   4.404   0.174
  390SOL    HW131664   6.205   4.497   0.157
  390SOL    HW231665   6.159   4.369   0.091
  391SOL     OW31666   6.163   6.306   0.181
  391SOL    HW131667   6.234   6.371   0.180
  391SOL    HW231668   6.083   6.357   0.169
  392SOL     OW31669   0.137   1.184   0.178
  392SOL    HW131670   0.050   1.218   0.198
  392SOL    HW231671   0.123   1.124   0.105
  393SOL     OW31672   0.116   3.094   0.137
  393SOL    HW131673   0.033   3.096   0.185
  393SOL    HW231674   0.166   3.024   0.178
  394SOL     OW31675   0.127   4.911   0.183
  394SOL    HW131676   0.056   4.949   0.237
  394SOL    HW231677   0.088   4.833   0.144
  395SOL     OW31678   1.935   1.169   0.211
  395SOL    HW131679   1.959   1.196   0.299
  395SOL    HW231680   1.987   1.224   0.154
  396SOL     OW31681   1.928   3.042   0.195
  396SOL    HW131682   1.985   3.003   0.261
  396SOL    HW231683   1.985   3.099   0.144
  397SOL     OW31684   1.962   4.950   0.198
  397SOL    HW131685   1.963   4.856   0.218
  397SOL    HW231686   1.973   4.953   0.103
  398SOL     OW31687   3.798   1.187   0.195
  398SOL    HW131688   3.853   1.138   0.256
  398SOL    HW231689   3.860   1.241   0.144
  399SOL     OW31690   3.812   3.056   0.196
  399SOL    HW131691   3.865   3.000   0.252
  399SOL    HW231692   3.863   3.136   0.187
  400SOL     OW31693   3.825   4.923   0.197
  400SOL    HW131694   3.856   4.852   0.254
  400SOL    HW231695   3.879   4.915   0.118
  401SOL     OW31696   5.659   1.193   0.183
  401SOL    HW131697   5.734   1.170   0.238
  401SOL    HW231698   5.698   1.234   0.105
  402SOL     OW31699   5.659   3.059   0.197
  402SOL    HW131700   5.720   3.016   0.258
  402SOL    HW231701   5.715   3.094   0.127
  403SOL     OW31702   5.663   4.914   0.198
  403SOL    HW131703   5.727   4.874   0.256
  403SOL    HW231704   5.714   4.971   0.141
  404SOL     OW31705   1.659   1.222   0.230
  404SOL    HW131706   1.752   1.225   0.209
  404SOL    HW231707   1.626   1.308   0.204
  405SOL     OW31708   1.661   3.089   0.234
  405SOL    HW131709   1.754   3.087   0.212
  405SOL    HW231710   1.633   3.178   0.210
  406SOL     OW31711   1.671   4.961   0.221
  406SOL    HW131712   1.767   4.962   0.223
  406SOL    HW231713   1.648   5.039   0.171
  407SOL     OW31714   3.532   1.236   0.248
  407SOL    HW131715   3.623   1.229   0.219
  407SOL    HW231716   3.503   1.322   0.218
  408SOL     OW31717   3.544   3.081   0.228
  408SOL    HW131718   3.636   3.080   0.203
  408SOL    HW231719   3.518   3.173   0.219
  409SOL     OW31720   3.545   4.955   0.244
  409SOL    HW131721   3.634   4.962   0.211
  409SOL    HW231722   3.505   5.040   0.226
  410SOL     OW31723   5.395   1.234   0.251
  410SOL    HW131724   5.483   1.227   0.213
  410SOL    HW231725   5.363   1.319   0.221
  411SOL     OW31726   5.395   3.096   0.248
  411SOL    HW131727   5.487   3.086   0.223
  411SOL    HW231728   5.367   3.176   0.204
  412SOL     OW31729   5.399   4.953   0.249
  412SOL    HW131730   5.490   4.950   0.219
  412SOL    HW231731   5.366   5.038   0.217
  413SOL     OW31732   1.188   2.904  12.651
  413SOL    HW131733   1.114   2.927  12.594
  413SOL    HW231734   1.189   2.808  12.650
  414SOL     OW31735   1.167   4.772  12.675
  414SOL    HW131736   1.073   4.787  12.666
  414SOL    HW231737   1.175   4.677  12.684
  415SOL     OW31738   3.030   1.069  12.676
  415SOL    HW131739   2.973   1.069  12.599
  415SOL    HW231740   3.084   0.991  12.665
  416SOL     OW31741   3.042   2.914  12.630
  416SOL    HW131742   2.960   2.896  12.583
  416SOL    HW231743   3.082   2.828  12.642
  417SOL     OW31744   2.975   4.744  12.680
  417SOL    HW131745   2.920   4.691  12.621
  417SOL    HW231746   3.060   4.700  12.679
  418SOL     OW31747   4.814   0.960  12.657
  418SOL    HW131748   4.803   1.024  12.586
  418SOL    HW231749   4.902   0.924  12.643
  419SOL     OW31750   4.804   2.802  12.647
  419SOL    HW131751   4.797   2.872  12.582
  419SOL    HW231752   4.896   2.777  12.646
  420SOL     OW31753   4.757   4.658  12.652
  420SOL    HW131754   4.786   4.725  12.589
  420SOL    HW231755   4.838   4.625  12.691
  421SOL     OW31756   0.669   0.948   0.218
  421SOL    HW131757   0.747   0.980   0.263
  421SOL    HW231758   0.605   1.018   0.226
  422SOL     OW31759   0.723   2.778   0.200
  422SOL    HW131760   0.784   2.816   0.262
  422SOL    HW231761   0.653   2.843   0.191
  423SOL     OW31762   0.667   4.664   0.224
  423SOL    HW131763   0.756   4.685   0.251
  423SOL    HW231764   0.621   4.748   0.227
  424SOL     OW31765   0.766   0.197   0.224
  424SOL    HW131766   0.766   0.103   0.208
  424SOL    HW231767   0.697   0.210   0.290
  425SOL     OW31768   2.549   0.946   0.205
  425SOL    HW131769   2.632   0.951   0.254
  425SOL    HW231770   2.503   1.026   0.228
  426SOL     OW31771   2.554   2.801   0.160
  426SOL    HW131772   2.633   2.798   0.214
  426SOL    HW231773   2.491   2.852   0.211
  427SOL     OW31774   2.544   4.683   0.187
  427SOL    HW131775   2.623   4.694   0.240
  427SOL    HW231776   2.484   4.751   0.219
  428SOL     OW31777   2.609   0.198   0.198
  428SOL    HW131778   2.677   0.140   0.233
  428SOL    HW231779   2.538   0.193   0.263
  429SOL     OW31780   4.413   2.801   0.206
  429SOL    HW131781   4.494   2.811   0.256
  429SOL    HW231782   4.361   2.878   0.228
  430SOL     OW31783   4.382   4.763   0.219
  430SOL    HW131784   4.477   4.763   0.212
  430SOL    HW231785   4.358   4.671   0.223
  431SOL     OW31786   4.415   0.063   0.214
  431SOL    HW131787   4.509   0.076   0.228
  431SOL    HW231788   4.374   0.115   0.282
  432SOL     OW31789   6.270   0.933   0.202
  432SOL    HW131790   6.357   0.914   0.236
  432SOL    HW231791   6.251   1.022   0.230
  433SOL     OW31792   6.278   2.795   0.139
  433SOL    HW131793   6.351   2.804   0.201
  433SOL    HW231794   6.212   2.857   0.170
  434SOL     OW31795   6.281   4.678   0.147
  434SOL    HW131796   6.353   4.650   0.204
  434SOL    HW231797   6.234   4.744   0.198
  435SOL     OW31798   6.318   0.093   0.217
  435SOL    HW131799   6.272   0.143   0.284
  435SOL    HW231800   6.285   0.128   0.134
  436SOL     OW31801   1.650   1.423  12.656
  436SOL    HW131802   1.598   1.503  12.643
  436SOL    HW231803   1.592   1.352  12.629
  437SOL     OW31804   1.650   3.283  12.641
  437SOL    HW131805   1.595   3.359  12.663
  437SOL    HW231806   1.650   3.280  12.545
  438SOL     OW31807   1.657   5.163  12.666
  438SOL    HW131808   1.591   5.227  12.640
  438SOL    HW231809   1.645   5.090  12.606
  439SOL     OW31810   3.516   1.424  12.615
  439SOL    HW131811   3.462   1.500  12.635
  439SOL    HW231812   3.455   1.350  12.616
  440SOL     OW31813   3.588   3.175  12.559
  440SOL    HW131814   3.573   3.263  12.594
  440SOL    HW231815   3.516   3.123  12.595
  441SOL     OW31816   3.517   5.149  12.636
  441SOL    HW131817   3.462   5.228  12.637
  441SOL    HW231818   3.454   5.077  12.630
  442SOL     OW31819   5.374   1.429  12.662
  442SOL    HW131820   5.321   1.507  12.644
  442SOL    HW231821   5.318   1.355  12.636
  443SOL     OW31822   5.373   3.293  12.668
  443SOL    HW131823   5.316   3.366  12.644
  443SOL    HW231824   5.331   3.216  12.630
  444SOL     OW31825   5.379   5.148  12.651
  444SOL    HW131826   5.324   5.225  12.637
  444SOL    HW231827   5.322   5.074  12.633
  445SOL     OW31828   1.421   0.615  12.659
  445SOL    HW131829   1.398   0.537  12.710
  445SOL    HW231830   1.511   0.601  12.633
  446SOL     OW31831   1.439   2.442  12.703
  446SOL    HW131832   1.409   2.354  12.726
  446SOL    HW231833   1.478   2.432  12.617
  447SOL     OW31834   1.429   4.304  12.643
  447SOL    HW131835   1.409   4.284  12.735
  447SOL    HW231836   1.519   4.275  12.631
  448SOL     OW31837   1.426   6.184  12.656
  448SOL    HW131838   1.424   6.106  12.712
  448SOL    HW231839   1.515   6.186  12.621
  449SOL     OW31840   3.284   2.418  12.643
  449SOL    HW131841   3.270   2.361  12.719
  449SOL    HW231842   3.378   2.410  12.625
  450SOL     OW31843   3.301   4.366  12.726
  450SOL    HW131844   3.264   4.364  12.814
  450SOL    HW231845   3.389   4.329  12.735
  451SOL     OW31846   3.279   6.189  12.664
  451SOL    HW131847   3.294   6.154  12.752
  451SOL    HW231848   3.366   6.192  12.624
  452SOL     OW31849   5.153   0.581  12.662
  452SOL    HW131850   5.146   0.507  12.722
  452SOL    HW231851   5.245   0.583  12.636
  453SOL     OW31852   5.149   2.440  12.641
  453SOL    HW131853   5.137   2.380  12.714
  453SOL    HW231854   5.240   2.428  12.614
  454SOL     OW31855   5.147   4.255  12.645
  454SOL    HW131856   5.114   4.331  12.692
  454SOL    HW231857   5.241   4.273  12.632
  455SOL     OW31858   5.164   6.167  12.658
  455SOL    HW131859   5.163   6.080  12.699
  455SOL    HW231860   5.254   6.178  12.628
  456SOL     OW31861   1.281   0.925   0.171
  456SOL    HW131862   1.360   0.885   0.209
  456SOL    HW231863   1.313   0.967   0.091
  457SOL     OW31864   1.291   2.812   0.171
  457SOL    HW131865   1.369   2.767   0.201
  457SOL    HW231866   1.310   2.835   0.080
  458SOL     OW31867   1.318   4.717   0.187
  458SOL    HW131868   1.380   4.656   0.227
  458SOL    HW231869   1.268   4.664   0.126
  459SOL     OW31870   1.303   0.042   0.120
  459SOL    HW131871   1.350   6.447   0.191
  459SOL    HW231872   1.227   0.082   0.163
  460SOL     OW31873   3.131   0.950   0.171
  460SOL    HW131874   3.211   0.913   0.208
  460SOL    HW231875   3.144   0.947   0.076
  461SOL     OW31876   3.166   2.798   0.169
  461SOL    HW131877   3.236   2.749   0.212
  461SOL    HW231878   3.202   2.819   0.082
  462SOL     OW31879   3.187   4.759   0.157
  462SOL    HW131880   3.259   4.716   0.203
  462SOL    HW231881   3.225   4.785   0.073
  463SOL     OW31882   3.141   0.053   0.133
  463SOL    HW131883   3.199   0.008   0.195
  463SOL    HW231884   3.155   0.146   0.149
  464SOL     OW31885   5.013   0.947   0.171
  464SOL    HW131886   5.091   0.906   0.209
  464SOL    HW231887   5.032   0.951   0.077
  465SOL     OW31888   5.011   2.812   0.172
  465SOL    HW131889   5.086   2.769   0.212
  465SOL    HW231890   5.031   2.814   0.079
  466SOL     OW31891   5.045   4.710   0.195
  466SOL    HW131892   5.091   4.637   0.237
  466SOL    HW231893   5.030   4.680   0.105
  467SOL     OW31894   4.965   0.086   0.200
  467SOL    HW131895   5.039   0.035   0.232
  467SOL    HW231896   4.996   0.122   0.116
  468SOL     OW31897   0.831   1.569   0.199
  468SOL    HW131898   0.825   1.607   0.112
  468SOL    HW231899   0.756   1.510   0.206
  469SOL     OW31900   0.845   3.433   0.197
  469SOL    HW131901   0.835   3.452   0.104
  469SOL    HW231902   0.769   3.379   0.219
  470SOL     OW31903   0.825   5.309   0.179
  470SOL    HW131904   0.809   5.325   0.086
  470SOL    HW231905   0.762   5.242   0.204
  471SOL     OW31906   2.723   1.547   0.230
  471SOL    HW131907   2.733   1.581   0.142
  471SOL    HW231908   2.638   1.503   0.230
  472SOL     OW31909   2.646   3.412   0.231
  472SOL    HW131910   2.601   3.436   0.150
  472SOL    HW231911   2.593   3.342   0.268
  473SOL     OW31912   2.689   5.291   0.218
  473SOL    HW131913   2.704   5.325   0.130
  473SOL    HW231914   2.611   5.237   0.211
  474SOL     OW31915   4.562   1.582   0.206
  474SOL    HW131916   4.566   1.599   0.112
  474SOL    HW231917   4.488   1.523   0.217
  475SOL     OW31918   4.578   3.400   0.230
  475SOL    HW131919   4.591   3.436   0.142
  475SOL    HW231920   4.493   3.358   0.226
  476SOL     OW31921   4.556   5.316   0.200
  476SOL    HW131922   4.566   5.326   0.105
  476SOL    HW231923   4.483   5.256   0.211
  477SOL     OW31924   0.011   1.592   0.214
  477SOL    HW131925   0.050   1.611   0.129
  477SOL    HW231926   6.375   1.556   0.194
  478SOL     OW31927   6.448   3.479   0.239
  478SOL    HW131928   0.013   3.489   0.144
  478SOL    HW231929   6.370   3.424   0.245
  479SOL     OW31930   0.010   5.325   0.238
  479SOL    HW131931   0.042   5.344   0.149
  479SOL    HW231932   6.369   5.296   0.224
  480SOL     OW31933   1.352   0.483   0.229
  480SOL    HW131934   1.301   0.562   0.211
  480SOL    HW231935   1.309   0.442   0.304
  481SOL     OW31936   1.369   2.348   0.238
  481SOL    HW131937   1.302   2.413   0.215
  481SOL    HW231938   1.331   2.300   0.312
  482SOL     OW31939   1.365   6.049   0.222
  482SOL    HW131940   1.295   6.104   0.186
  482SOL    HW231941   1.331   6.019   0.306
  483SOL     OW31942   3.206   0.436   0.193
  483SOL    HW131943   3.157   0.518   0.184
  483SOL    HW231944   3.182   0.403   0.279
  484SOL     OW31945   3.211   2.334   0.203
  484SOL    HW131946   3.151   2.408   0.205
  484SOL    HW231947   3.196   2.288   0.286
  485SOL     OW31948   3.211   4.374   0.122
  485SOL    HW131949   3.181   4.446   0.178
  485SOL    HW231950   3.176   4.295   0.164
  486SOL     OW31951   3.225   6.043   0.229
  486SOL    HW131952   3.179   6.127   0.229
  486SOL    HW231953   3.203   6.003   0.313
  487SOL     OW31954   5.073   0.480   0.225
  487SOL    HW131955   5.015   0.556   0.217
  487SOL    HW231956   5.042   0.435   0.303
  488SOL     OW31957   5.077   2.345   0.213
  488SOL    HW131958   5.016   2.418   0.216
  488SOL    HW231959   5.061   2.297   0.295
  489SOL     OW31960   5.090   4.194   0.215
  489SOL    HW131961   5.043   4.276   0.200
  489SOL    HW231962   5.050   4.157   0.294
  490SOL     OW31963   5.105   6.075   0.240
  490SOL    HW131964   5.035   6.095   0.177
  490SOL    HW231965   5.061   6.030   0.311
  491SOL     OW31966   1.103   1.121   0.261
  491SOL    HW131967   1.025   1.081   0.299
  491SOL    HW231968   1.152   1.047   0.225
  492SOL     OW31969   1.103   2.997   0.259
  492SOL    HW131970   1.027   2.953   0.298
  492SOL    HW231971   1.154   2.926   0.221
  493SOL     OW31972   1.096   4.850   0.277
  493SOL    HW131973   1.027   4.785   0.291
  493SOL    HW231974   1.169   4.801   0.240
  494SOL     OW31975   2.972   1.139   0.291
  494SOL    HW131976   2.890   1.093   0.311
  494SOL    HW231977   3.025   1.074   0.244
  495SOL     OW31978   2.947   2.956   0.204
  495SOL    HW131979   2.880   2.899   0.241
  495SOL    HW231980   3.022   2.898   0.191
  496SOL     OW31981   2.931   4.886   0.184
  496SOL    HW131982   2.875   4.832   0.240
  496SOL    HW231983   3.013   4.838   0.179
  497SOL     OW31984   4.839   1.141   0.261
  497SOL    HW131985   4.765   1.094   0.301
  497SOL    HW231986   4.892   1.072   0.220
  498SOL     OW31987   4.832   2.989   0.274
  498SOL    HW131988   4.752   2.945   0.302
  498SOL    HW231989   4.886   2.919   0.236
  499SOL     OW31990   4.823   4.862   0.256
  499SOL    HW131991   4.758   4.802   0.294
  499SOL    HW231992   4.893   4.804   0.226
  500SOL     OW31993   1.523   1.480   0.231
  500SOL    HW131994   1.533   1.472   0.326
  500SOL    HW231995   1.435   1.515   0.219
  501SOL     OW31996   1.560   3.361   0.240
  501SOL    HW131997   1.548   3.337   0.332
  501SOL    HW231998   1.476   3.397   0.213
  502SOL     OW31999   1.543   5.239   0.245
  502SOL    HW132000   1.546   5.195   0.330
  502SOL    HW232001   1.450   5.257   0.229
  503SOL     OW32002   3.418   1.504   0.238
  503SOL    HW132003   3.397   1.482   0.328
  503SOL    HW232004   3.360   1.576   0.216
  504SOL     OW32005   3.462   3.355   0.261
  504SOL    HW132006   3.432   3.327   0.347
  504SOL    HW232007   3.410   3.434   0.242
  505SOL     OW32008   3.415   5.219   0.250
  505SOL    HW132009   3.411   5.211   0.345
  505SOL    HW232010   3.326   5.239   0.224
  506SOL     OW32011   5.278   1.503   0.240
  506SOL    HW132012   5.270   1.558   0.318
  506SOL    HW232013   5.192   1.509   0.198
  507SOL     OW32014   5.272   3.360   0.225
  507SOL    HW132015   5.268   3.343   0.319
  507SOL    HW232016   5.192   3.410   0.206
  508SOL     OW32017   5.282   5.223   0.234
  508SOL    HW132018   5.265   5.201   0.325
  508SOL    HW232019   5.195   5.241   0.198
  509SOL     OW32020   1.492   1.647  12.616
  509SOL    HW132021   1.401   1.627  12.595
  509SOL    HW232022   1.534   1.656  12.531
  510SOL     OW32023   1.491   3.511  12.620
  510SOL    HW132024   1.400   3.491  12.599
  510SOL    HW232025   1.535   3.515  12.535
  511SOL     OW32026   1.488   5.380  12.612
  511SOL    HW132027   1.397   5.357  12.592
  511SOL    HW232028   1.531   5.384  12.527
  512SOL     OW32029   3.351   1.648  12.612
  512SOL    HW132030   3.259   1.629  12.596
  512SOL    HW232031   3.390   1.657  12.525
  513SOL     OW32032   3.533   3.426  12.641
  513SOL    HW132033   3.476   3.482  12.694
  513SOL    HW232034   3.553   3.479  12.564
  514SOL     OW32035   3.356   5.374  12.600
  514SOL    HW132036   3.265   5.351  12.581
  514SOL    HW232037   3.400   5.373  12.515
  515SOL     OW32038   5.220   1.652  12.605
  515SOL    HW132039   5.129   1.631  12.587
  515SOL    HW232040   5.261   1.658  12.518
  516SOL     OW32041   5.221   3.519  12.611
  516SOL    HW132042   5.130   3.496  12.592
  516SOL    HW232043   5.263   3.523  12.525
  517SOL     OW32044   5.234   5.385  12.619
  517SOL    HW132045   5.143   5.359  12.602
  517SOL    HW232046   5.274   5.390  12.532
  518SOL     OW32047   1.307   0.861  12.604
  518SOL    HW132048   1.330   0.771  12.624
  518SOL    HW232049   1.342   0.876  12.516
  519SOL     OW32050   1.354   2.681  12.608
  519SOL    HW132051   1.374   2.593  12.640
  519SOL    HW232052   1.355   2.672  12.512
  520SOL     OW32053   1.331   4.547  12.596
  520SOL    HW132054   1.357   4.460  12.625
  520SOL    HW232055   1.336   4.544  12.501
  521SOL     OW32056   3.203   0.862  12.624
  521SOL    HW132057   3.196   0.768  12.638
  521SOL    HW232058   3.219   0.871  12.530
  522SOL     OW32059   3.190   2.678  12.633
  522SOL    HW132060   3.212   2.586  12.645
  522SOL    HW232061   3.200   2.693  12.539
  523SOL     OW32062   3.204   4.603  12.638
  523SOL    HW132063   3.233   4.513  12.655
  523SOL    HW232064   3.207   4.611  12.543
  524SOL     OW32065   5.064   0.842  12.615
  524SOL    HW132066   5.089   0.750  12.624
  524SOL    HW232067   5.080   0.863  12.523
  525SOL     OW32068   5.069   2.704  12.628
  525SOL    HW132069   5.089   2.611  12.631
  525SOL    HW232070   5.084   2.730  12.537
  526SOL     OW32071   1.462   1.220  12.611
  526SOL    HW132072   1.479   1.148  12.671
  526SOL    HW232073   1.378   1.257  12.640
  527SOL     OW32074   3.328   1.217  12.609
  527SOL    HW132075   3.363   1.142  12.658
  527SOL    HW232076   3.239   1.229  12.643
  528SOL     OW32077   3.349   3.048  12.622
  528SOL    HW132078   3.372   2.970  12.672
  528SOL    HW232079   3.277   3.088  12.672
  529SOL     OW32080   3.320   4.954  12.621
  529SOL    HW132081   3.357   4.884  12.675
  529SOL    HW232082   3.235   4.973  12.661
  530SOL     OW32083   5.186   1.228  12.611
  530SOL    HW132084   5.208   1.152  12.664
  530SOL    HW232085   5.095   1.248  12.634
  531SOL     OW32086   5.121   3.083  12.715
  531SOL    HW132087   5.180   3.010  12.737
  531SOL    HW232088   5.128   3.092  12.620
  532SOL     OW32089   5.196   4.947  12.605
  532SOL    HW132090   5.224   4.868  12.651
  532SOL    HW232091   5.101   4.951  12.619
  533SOL     OW32092   0.076   0.395  12.656
  533SOL    HW132093   6.440   0.367  12.624
  533SOL    HW232094   0.109   0.454  12.589
  534SOL     OW32095   0.058   2.157  12.581
  534SOL    HW132096   6.414   2.151  12.599
  534SOL    HW232097   0.067   2.238  12.531
  535SOL     OW32098   0.078   3.997  12.551
  535SOL    HW132099   6.436   3.974  12.564
  535SOL    HW232100   0.076   4.085  12.513
  536SOL     OW32101   0.062   5.907  12.600
  536SOL    HW132102   6.417   5.908  12.584
  536SOL    HW232103   0.094   5.987  12.560
  537SOL     OW32104   1.953   0.350  12.608
  537SOL    HW132105   1.869   0.323  12.569
  537SOL    HW232106   1.979   0.427  12.557
  538SOL     OW32107   1.963   2.169  12.538
  538SOL    HW132108   1.883   2.162  12.486
  538SOL    HW232109   1.972   2.263  12.554
  539SOL     OW32110   1.890   4.100  12.635
  539SOL    HW132111   1.799   4.128  12.627
  539SOL    HW232112   1.940   4.167  12.589
  540SOL     OW32113   1.970   5.899  12.539
  540SOL    HW132114   1.887   5.890  12.493
  540SOL    HW232115   1.995   5.991  12.526
  541SOL     OW32116   3.815   0.360  12.615
  541SOL    HW132117   3.720   0.371  12.623
  541SOL    HW232118   3.842   0.431  12.556
  542SOL     OW32119   3.843   2.168  12.548
  542SOL    HW132120   3.763   2.154  12.496
  542SOL    HW232121   3.868   2.259  12.529
  543SOL     OW32122   3.757   4.111  12.644
  543SOL    HW132123   3.774   4.078  12.555
  543SOL    HW232124   3.838   4.157  12.667
  544SOL     OW32125   3.821   5.921  12.544
  544SOL    HW132126   3.745   5.921  12.486
  544SOL    HW232127   3.873   5.997  12.515
  545SOL     OW32128   5.683   0.350  12.605
  545SOL    HW132129   5.588   0.339  12.594
  545SOL    HW232130   5.706   0.420  12.544
  546SOL     OW32131   5.633   2.254  12.589
  546SOL    HW132132   5.611   2.177  12.537
  546SOL    HW232133   5.692   2.305  12.533
  547SOL     OW32134   5.694   4.042  12.544
  547SOL    HW132135   5.608   4.033  12.503
  547SOL    HW232136   5.724   4.129  12.517
  548SOL     OW32137   5.694   5.927  12.539
  548SOL    HW132138   5.610   5.919  12.492
  548SOL    HW232139   5.737   6.002  12.498
  549SOL     OW32140   1.224   1.609  12.575
  549SOL    HW132141   1.135   1.583  12.601
  549SOL    HW232142   1.212   1.664  12.498
  550SOL     OW32143   1.232   3.459  12.571
  550SOL    HW132144   1.201   3.386  12.624
  550SOL    HW232145   1.153   3.495  12.531
  551SOL     OW32146   1.214   5.336  12.614
  551SOL    HW132147   1.202   5.245  12.642
  551SOL    HW232148   1.151   5.347  12.543
  552SOL     OW32149   3.084   1.602  12.596
  552SOL    HW132150   3.064   1.517  12.636
  552SOL    HW232151   3.011   1.617  12.536
  553SOL     OW32152   3.197   3.372  12.640
  553SOL    HW132153   3.184   3.291  12.690
  553SOL    HW232154   3.132   3.367  12.569
  554SOL     OW32155   3.082   5.351  12.584
  554SOL    HW132156   3.017   5.292  12.623
  554SOL    HW232157   3.040   5.383  12.505
  555SOL     OW32158   4.953   1.601  12.592
  555SOL    HW132159   4.922   1.517  12.626
  555SOL    HW232160   4.884   1.628  12.530
  556SOL     OW32161   4.945   3.480  12.606
  556SOL    HW132162   4.926   3.396  12.646
  556SOL    HW232163   4.885   3.485  12.531
  557SOL     OW32164   4.970   5.322  12.609
  557SOL    HW132165   4.948   5.233  12.636
  557SOL    HW232166   4.890   5.354  12.567
  558SOL     OW32167   1.144   0.711   0.298
  558SOL    HW132168   1.183   0.784   0.250
  558SOL    HW232169   1.073   0.681   0.242
  559SOL     OW32170   1.178   2.557   0.248
  559SOL    HW132171   1.173   2.630   0.186
  559SOL    HW232172   1.089   2.523   0.252
  560SOL     OW32173   1.143   4.476   0.218
  560SOL    HW132174   1.206   4.420   0.172
  560SOL    HW232175   1.114   4.424   0.293
  561SOL     OW32176   3.042   0.686   0.241
  561SOL    HW132177   3.068   0.772   0.209
  561SOL    HW232178   2.999   0.703   0.325
  562SOL     OW32179   3.044   2.552   0.235
  562SOL    HW132180   3.077   2.638   0.207
  562SOL    HW232181   2.998   2.570   0.317
  563SOL     OW32182   3.100   4.545   0.306
  563SOL    HW132183   3.105   4.628   0.258
  563SOL    HW232184   3.027   4.557   0.367
  564SOL     OW32185   4.909   0.700   0.256
  564SOL    HW132186   4.926   0.783   0.212
  564SOL    HW232187   4.852   0.722   0.329
  565SOL     OW32188   4.906   2.559   0.252
  565SOL    HW132189   4.928   2.644   0.213
  565SOL    HW232190   4.854   2.580   0.329
  566SOL     OW32191   4.952   4.434   0.266
  566SOL    HW132192   4.933   4.461   0.176
  566SOL    HW232193   4.872   4.452   0.314
  567SOL     OW32194   0.242   0.277   0.256
  567SOL    HW132195   0.260   0.366   0.224
  567SOL    HW232196   0.242   0.286   0.352
  568SOL     OW32197   0.260   2.156   0.249
  568SOL    HW132198   0.295   2.239   0.217
  568SOL    HW232199   0.260   2.165   0.344
  569SOL     OW32200   0.267   4.041   0.270
  569SOL    HW132201   0.328   4.074   0.204
  569SOL    HW232202   0.319   3.980   0.322
  570SOL     OW32203   0.326   5.871   0.288
  570SOL    HW132204   0.292   5.947   0.241
  570SOL    HW232205   0.267   5.860   0.362
  571SOL     OW32206   2.102   0.253   0.249
  571SOL    HW132207   2.055   0.333   0.225
  571SOL    HW232208   2.136   0.271   0.336
  572SOL     OW32209   2.127   2.260   0.276
  572SOL    HW132210   2.044   2.245   0.231
  572SOL    HW232211   2.150   2.174   0.311
  573SOL     OW32212   2.111   4.077   0.204
  573SOL    HW132213   2.036   4.114   0.158
  573SOL    HW232214   2.084   4.075   0.296
  574SOL     OW32215   2.130   5.859   0.270
  574SOL    HW132216   2.053   5.901   0.232
  574SOL    HW232217   2.122   5.873   0.364
  575SOL     OW32218   3.968   0.277   0.248
  575SOL    HW132219   3.892   0.328   0.221
  575SOL    HW232220   3.970   0.286   0.343
  576SOL     OW32221   3.983   2.157   0.261
  576SOL    HW132222   3.909   2.209   0.230
  576SOL    HW232223   3.978   2.162   0.356
  577SOL     OW32224   4.011   4.026   0.239
  577SOL    HW132225   4.048   4.114   0.233
  577SOL    HW232226   4.048   3.990   0.320
  578SOL     OW32227   4.004   5.877   0.272
  578SOL    HW132228   3.927   5.921   0.236
  578SOL    HW232229   3.991   5.878   0.367
  579SOL     OW32230   5.827   0.263   0.250
  579SOL    HW132231   5.757   0.310   0.205
  579SOL    HW232232   5.823   0.293   0.340
  580SOL     OW32233   5.839   2.142   0.270
  580SOL    HW132234   5.770   2.196   0.230
  580SOL    HW232235   5.834   2.163   0.363
  581SOL     OW32236   5.858   4.031   0.282
  581SOL    HW132237   5.782   4.071   0.239
  581SOL    HW232238   5.832   4.023   0.373
  582SOL     OW32239   5.868   5.891   0.284
  582SOL    HW132240   5.791   5.921   0.236
  582SOL    HW232241   5.837   5.880   0.374
  583SOL     OW32242   0.614   1.399   0.233
  583SOL    HW132243   0.576   1.315   0.257
  583SOL    HW232244   0.584   1.414   0.143
  584SOL     OW32245   0.624   3.283   0.250
  584SOL    HW132246   0.602   3.191   0.263
  584SOL    HW232247   0.578   3.308   0.170
  585SOL     OW32248   0.624   5.126   0.240
  585SOL    HW132249   0.584   5.042   0.263
  585SOL    HW232250   0.602   5.139   0.148
  586SOL     OW32251   2.485   1.409   0.234
  586SOL    HW132252   2.456   1.319   0.247
  586SOL    HW232253   2.450   1.434   0.148
  587SOL     OW32254   2.472   3.201   0.230
  587SOL    HW132255   2.422   3.119   0.222
  587SOL    HW232256   2.467   3.241   0.143
  588SOL     OW32257   2.466   5.128   0.207
  588SOL    HW132258   2.444   5.037   0.223
  588SOL    HW232259   2.438   5.144   0.117
  589SOL     OW32260   4.342   1.418   0.224
  589SOL    HW132261   4.299   1.335   0.244
  589SOL    HW232262   4.327   1.430   0.130
  590SOL     OW32263   4.342   3.264   0.225
  590SOL    HW132264   4.314   3.175   0.246
  590SOL    HW232265   4.304   3.281   0.138
  591SOL     OW32266   4.345   5.138   0.212
  591SOL    HW132267   4.311   5.050   0.227
  591SOL    HW232268   4.338   5.151   0.117
  592SOL     OW32269   6.195   1.419   0.219
  592SOL    HW132270   6.162   1.330   0.230
  592SOL    HW232271   6.178   1.439   0.127
  593SOL     OW32272   6.197   5.137   0.227
  593SOL    HW132273   6.159   5.050   0.235
  593SOL    HW232274   6.175   5.164   0.138
  594SOL     OW32275   1.497   0.812   0.279
  594SOL    HW132276   1.522   0.744   0.342
  594SOL    HW232277   1.577   0.832   0.231
  595SOL     OW32278   1.494   2.676   0.291
  595SOL    HW132279   1.522   2.587   0.316
  595SOL    HW232280   1.570   2.713   0.245
  596SOL     OW32281   1.504   4.555   0.295
  596SOL    HW132282   1.488   4.466   0.327
  596SOL    HW232283   1.560   4.544   0.219
  597SOL     OW32284   1.439   6.390   0.334
  597SOL    HW132285   1.450   6.314   0.391
  597SOL    HW232286   1.525   6.433   0.335
  598SOL     OW32287   3.355   0.847   0.277
  598SOL    HW132288   3.358   0.767   0.329
  598SOL    HW232289   3.437   0.847   0.227
  599SOL     OW32290   3.370   2.659   0.266
  599SOL    HW132291   3.374   2.582   0.324
  599SOL    HW232292   3.456   2.661   0.224
  600SOL     OW32293   3.402   4.625   0.260
  600SOL    HW132294   3.415   4.553   0.322
  600SOL    HW232295   3.478   4.620   0.202
  601SOL     OW32296   3.309   6.390   0.319
  601SOL    HW132297   3.320   6.319   0.382
  601SOL    HW232298   3.380   6.451   0.340
  602SOL     OW32299   5.232   0.833   0.283
  602SOL    HW132300   5.239   0.746   0.322
  602SOL    HW232301   5.312   0.843   0.232
  603SOL     OW32302   5.223   2.694   0.283
  603SOL    HW132303   5.228   2.610   0.329
  603SOL    HW232304   5.304   2.699   0.232
  604SOL     OW32305   5.261   4.541   0.313
  604SOL    HW132306   5.224   4.460   0.278
  604SOL    HW232307   5.316   4.575   0.242
  605SOL     OW32308   5.169   6.391   0.325
  605SOL    HW132309   5.171   6.297   0.341
  605SOL    HW232310   5.243   6.407   0.266
  606SOL     OW32311   1.059   0.577  12.556
  606SOL    HW132312   0.999   0.649  12.537
  606SOL    HW232313   1.051   0.564  12.651
  607SOL     OW32314   0.923   1.404  12.617
  607SOL    HW132315   0.857   1.450  12.670
  607SOL    HW232316   0.932   1.458  12.539
  608SOL     OW32317   1.054   2.415  12.549
  608SOL    HW132318   0.991   2.487  12.548
  608SOL    HW232319   1.114   2.436  12.620
  609SOL     OW32320   0.897   3.272  12.628
  609SOL    HW132321   0.838   3.323  12.683
  609SOL    HW232322   0.915   3.328  12.553
  610SOL     OW32323   1.040   4.279  12.554
  610SOL    HW132324   0.982   4.356  12.548
  610SOL    HW232325   1.096   4.297  12.629
  611SOL     OW32326   0.935   5.165  12.645
  611SOL    HW132327   0.865   5.100  12.643
  611SOL    HW232328   0.920   5.220  12.569
  612SOL     OW32329   1.070   6.158  12.535
  612SOL    HW132330   0.998   6.220  12.524
  612SOL    HW232331   1.110   6.182  12.618
  613SOL     OW32332   2.873   0.528  12.560
  613SOL    HW132333   2.834   0.616  12.561
  613SOL    HW232334   2.956   0.538  12.606
  614SOL     OW32335   2.753   1.397  12.615
  614SOL    HW132336   2.697   1.453  12.668
  614SOL    HW232337   2.778   1.451  12.540
  615SOL     OW32338   2.919   2.420  12.548
  615SOL    HW132339   2.848   2.484  12.542
  615SOL    HW232340   2.959   2.436  12.633
  616SOL     OW32341   2.569   3.215  12.625
  616SOL    HW132342   2.542   3.307  12.620
  616SOL    HW232343   2.664   3.218  12.610
  617SOL     OW32344   2.841   4.374  12.630
  617SOL    HW132345   2.817   4.466  12.622
  617SOL    HW232346   2.911   4.373  12.695
  618SOL     OW32347   2.783   5.143  12.636
  618SOL    HW132348   2.709   5.190  12.676
  618SOL    HW232349   2.802   5.191  12.556
  619SOL     OW32350   2.925   6.145  12.545
  619SOL    HW132351   2.864   6.216  12.526
  619SOL    HW232352   2.969   6.171  12.625
  620SOL     OW32353   4.778   0.555  12.564
  620SOL    HW132354   4.717   0.629  12.556
  620SOL    HW232355   4.844   0.584  12.627
  621SOL     OW32356   4.616   1.393  12.611
  621SOL    HW132357   4.562   1.448  12.668
  621SOL    HW232358   4.638   1.449  12.537
  622SOL     OW32359   4.786   2.408  12.566
  622SOL    HW132360   4.723   2.479  12.552
  622SOL    HW232361   4.851   2.446  12.626
  623SOL     OW32362   4.578   3.265  12.601
  623SOL    HW132363   4.568   3.321  12.678
  623SOL    HW232364   4.634   3.315  12.543
  624SOL     OW32365   4.779   4.272  12.566
  624SOL    HW132366   4.718   4.344  12.550
  624SOL    HW232367   4.847   4.311  12.621
  625SOL     OW32368   4.615   5.100  12.633
  625SOL    HW132369   4.568   5.146  12.702
  625SOL    HW232370   4.639   5.168  12.570
  626SOL     OW32371   4.787   6.148  12.574
  626SOL    HW132372   4.708   6.202  12.575
  626SOL    HW232373   4.856   6.207  12.605
  627SOL     OW32374   1.614   0.423   0.280
  627SOL    HW132375   1.528   0.434   0.240
  627SOL    HW232376   1.625   0.501   0.335
  628SOL     OW32377   1.618   2.253   0.287
  628SOL    HW132378   1.534   2.282   0.252
  628SOL    HW232379   1.652   2.329   0.334
  629SOL     OW32380   1.589   4.160   0.282
  629SOL    HW132381   1.525   4.176   0.213
  629SOL    HW232382   1.569   4.225   0.349
  630SOL     OW32383   1.629   6.002   0.264
  630SOL    HW132384   1.538   6.016   0.239
  630SOL    HW232385   1.666   6.091   0.270
  631SOL     OW32386   3.474   0.420   0.270
  631SOL    HW132387   3.394   0.425   0.218
  631SOL    HW232388   3.457   0.476   0.346
  632SOL     OW32389   3.488   2.346   0.248
  632SOL    HW132390   3.401   2.330   0.210
  632SOL    HW232391   3.471   2.362   0.340
  633SOL     OW32392   3.477   4.342   0.133
  633SOL    HW132393   3.384   4.361   0.127
  633SOL    HW232394   3.502   4.372   0.221
  634SOL     OW32395   3.495   6.011   0.251
  634SOL    HW132396   3.402   6.022   0.233
  634SOL    HW232397   3.519   6.087   0.303
  635SOL     OW32398   5.346   0.421   0.279
  635SOL    HW132399   5.278   0.411   0.212
  635SOL    HW232400   5.316   0.495   0.332
  636SOL     OW32401   5.356   2.346   0.244
  636SOL    HW132402   5.267   2.344   0.210
  636SOL    HW232403   5.347   2.319   0.335
  637SOL     OW32404   5.355   4.157   0.264
  637SOL    HW132405   5.273   4.163   0.215
  637SOL    HW232406   5.342   4.213   0.340
  638SOL     OW32407   5.366   6.004   0.266
  638SOL    HW132408   5.275   6.022   0.244
  638SOL    HW232409   5.407   6.090   0.272
  639SOL     OW32410   0.476   1.151   0.253
  639SOL    HW132411   0.422   1.130   0.329
  639SOL    HW232412   0.414   1.158   0.181
  640SOL     OW32413   0.490   4.883   0.259
  640SOL    HW132414   0.428   4.860   0.329
  640SOL    HW232415   0.438   4.880   0.179
  641SOL     OW32416   2.367   1.161   0.238
  641SOL    HW132417   2.301   1.144   0.306
  641SOL    HW232418   2.327   1.129   0.157
  642SOL     OW32419   2.324   2.977   0.209
  642SOL    HW132420   2.263   2.962   0.282
  642SOL    HW232421   2.289   2.924   0.138
  643SOL     OW32422   2.340   4.882   0.233
  643SOL    HW132423   2.291   4.849   0.309
  643SOL    HW232424   2.293   4.845   0.157
  644SOL     OW32425   4.206   1.190   0.253
  644SOL    HW132426   4.130   1.147   0.292
  644SOL    HW232427   4.259   1.119   0.219
  645SOL     OW32428   4.228   3.014   0.233
  645SOL    HW132429   4.159   2.996   0.298
  645SOL    HW232430   4.193   2.977   0.151
  646SOL     OW32431   4.166   4.925   0.256
  646SOL    HW132432   4.110   4.861   0.300
  646SOL    HW232433   4.241   4.873   0.226
  647SOL     OW32434   6.092   1.165   0.233
  647SOL    HW132435   6.019   1.147   0.293
  647SOL    HW232436   6.060   1.136   0.147
  648SOL     OW32437   6.095   2.967   0.238
  648SOL    HW132438   6.010   2.971   0.282
  648SOL    HW232439   6.122   3.059   0.229
  649SOL     OW32440   6.088   4.881   0.230
  649SOL    HW132441   6.021   4.866   0.298
  649SOL    HW232442   6.047   4.851   0.149
  650SOL     OW32443   1.038   0.070   0.301
  650SOL    HW132444   1.001   0.108   0.221
  650SOL    HW232445   0.981   6.446   0.321
  651SOL     OW32446   1.040   1.946   0.275
  651SOL    HW132447   0.977   1.961   0.205
  651SOL    HW232448   1.012   1.864   0.316
  652SOL     OW32449   1.060   3.810   0.270
  652SOL    HW132450   0.980   3.808   0.218
  652SOL    HW232451   1.056   3.729   0.321
  653SOL     OW32452   1.045   5.620   0.216
  653SOL    HW132453   0.964   5.670   0.203
  653SOL    HW232454   1.023   5.555   0.282
  654SOL     OW32455   2.850   0.071   0.298
  654SOL    HW132456   2.916   0.087   0.231
  654SOL    HW232457   2.855   6.427   0.315
  655SOL     OW32458   2.902   1.950   0.294
  655SOL    HW132459   2.840   1.963   0.223
  655SOL    HW232460   2.873   1.870   0.338
  656SOL     OW32461   2.940   3.581   0.319
  656SOL    HW132462   2.862   3.540   0.281
  656SOL    HW232463   2.961   3.526   0.395
  657SOL     OW32464   2.906   5.653   0.283
  657SOL    HW132465   2.830   5.683   0.232
  657SOL    HW232466   2.872   5.582   0.336
  658SOL     OW32467   4.711   0.071   0.298
  658SOL    HW132468   4.793   0.089   0.251
  658SOL    HW232469   4.709   6.426   0.307
  659SOL     OW32470   4.750   1.951   0.301
  659SOL    HW132471   4.720   1.951   0.209
  659SOL    HW232472   4.726   1.864   0.334
  660SOL     OW32473   4.758   3.801   0.287
  660SOL    HW132474   4.674   3.828   0.251
  660SOL    HW232475   4.740   3.719   0.332
  661SOL     OW32476   4.750   5.662   0.283
  661SOL    HW132477   4.704   5.649   0.200
  661SOL    HW232478   4.732   5.582   0.333
  662SOL     OW32479   1.779   0.970  12.585
  662SOL    HW132480   1.740   0.903  12.530
  662SOL    HW232481   1.706   1.026  12.612
  663SOL     OW32482   1.759   2.853  12.568
  663SOL    HW132483   1.724   2.781  12.515
  663SOL    HW232484   1.714   2.845  12.652
  664SOL     OW32485   1.737   4.724  12.564
  664SOL    HW132486   1.721   4.647  12.509
  664SOL    HW232487   1.681   4.710  12.641
  665SOL     OW32488   1.753   0.117  12.517
  665SOL    HW132489   1.709   0.041  12.481
  665SOL    HW232490   1.695   0.147  12.587
  666SOL     OW32491   3.635   0.981  12.565
  666SOL    HW132492   3.601   0.903  12.521
  666SOL    HW232493   3.571   1.000  12.634
  667SOL     OW32494   3.623   2.843  12.552
  667SOL    HW132495   3.612   2.755  12.517
  667SOL    HW232496   3.566   2.845  12.629
  668SOL     OW32497   3.681   4.703  12.627
  668SOL    HW132498   3.601   4.712  12.574
  668SOL    HW232499   3.649   4.685  12.715
  669SOL     OW32500   3.607   0.115  12.520
  669SOL    HW132501   3.554   0.040  12.494
  669SOL    HW232502   3.559   0.155  12.592
  670SOL     OW32503   5.496   0.957  12.600
  670SOL    HW132504   5.464   0.897  12.534
  670SOL    HW232505   5.419   1.007  12.628
  671SOL     OW32506   5.503   2.832  12.579
  671SOL    HW132507   5.466   2.765  12.522
  671SOL    HW232508   5.429   2.863  12.631
  672SOL     OW32509   5.504   4.698  12.570
  672SOL    HW132510   5.469   4.624  12.519
  672SOL    HW232511   5.434   4.720  12.631
  673SOL     OW32512   5.476   0.102  12.530
  673SOL    HW132513   5.419   0.035  12.494
  673SOL    HW232514   5.432   0.131  12.610
  674SOL     OW32515   0.190   1.745  12.579
  674SOL    HW132516   0.111   1.754  12.633
  674SOL    HW232517   0.254   1.801  12.622
  675SOL     OW32518   0.202   3.616  12.557
  675SOL    HW132519   0.148   3.561  12.613
  675SOL    HW232520   0.254   3.669  12.617
  676SOL     OW32521   0.161   5.471  12.550
  676SOL    HW132522   0.113   5.435  12.624
  676SOL    HW232523   0.221   5.535  12.589
  677SOL     OW32524   2.018   1.743  12.564
  677SOL    HW132525   1.965   1.691  12.624
  677SOL    HW232526   2.080   1.789  12.620
  678SOL     OW32527   1.977   3.613  12.547
  678SOL    HW132528   1.932   3.558  12.610
  678SOL    HW232529   2.036   3.666  12.599
  679SOL     OW32530   2.018   5.470  12.559
  679SOL    HW132531   1.966   5.413  12.616
  679SOL    HW232532   2.078   5.516  12.619
  680SOL     OW32533   3.876   1.742  12.563
  680SOL    HW132534   3.824   1.687  12.622
  680SOL    HW232535   3.934   1.791  12.622
  681SOL     OW32536   3.880   3.655  12.552
  681SOL    HW132537   3.841   3.591  12.611
  681SOL    HW232538   3.929   3.714  12.609
  682SOL     OW32539   3.864   5.464  12.574
  682SOL    HW132540   3.821   5.404  12.635
  682SOL    HW232541   3.919   5.519  12.631
  683SOL     OW32542   5.729   1.762  12.578
  683SOL    HW132543   5.683   1.695  12.630
  683SOL    HW232544   5.781   1.810  12.643
  684SOL     OW32545   5.737   3.617  12.564
  684SOL    HW132546   5.684   3.558  12.618
  684SOL    HW232547   5.796   3.660  12.626
  685SOL     OW32548   5.733   5.468  12.563
  685SOL    HW132549   5.681   5.410  12.619
  685SOL    HW232550   5.792   5.513  12.624
  686SOL     OW32551   0.213   1.280  12.547
  686SOL    HW132552   0.180   1.226  12.475
  686SOL    HW232553   0.148   1.271  12.617
  687SOL     OW32554   0.187   3.163  12.547
  687SOL    HW132555   0.100   3.192  12.518
  687SOL    HW232556   0.174   3.131  12.636
  688SOL     OW32557   0.196   5.049  12.559
  688SOL    HW132558   0.126   5.042  12.494
  688SOL    HW232559   0.176   4.981  12.623
  689SOL     OW32560   2.081   1.310  12.577
  689SOL    HW132561   2.047   1.233  12.532
  689SOL    HW232562   2.004   1.350  12.618
  690SOL     OW32563   2.067   3.184  12.581
  690SOL    HW132564   2.039   3.103  12.538
  690SOL    HW232565   1.991   3.211  12.632
  691SOL     OW32566   2.076   5.078  12.612
  691SOL    HW132567   2.054   4.987  12.593
  691SOL    HW232568   1.995   5.116  12.646
  692SOL     OW32569   3.946   1.303  12.568
  692SOL    HW132570   3.911   1.224  12.528
  692SOL    HW232571   3.875   1.336  12.623
  693SOL     OW32572   3.944   3.177  12.589
  693SOL    HW132573   3.924   3.096  12.542
  693SOL    HW232574   3.863   3.200  12.634
  694SOL     OW32575   3.938   5.060  12.602
  694SOL    HW132576   3.889   4.981  12.577
  694SOL    HW232577   3.873   5.115  12.645
  695SOL     OW32578   5.801   1.317  12.620
  695SOL    HW132579   5.771   1.236  12.578
  695SOL    HW232580   5.726   1.376  12.614
  696SOL     OW32581   5.794   3.168  12.563
  696SOL    HW132582   5.764   3.085  12.525
  696SOL    HW232583   5.719   3.200  12.613
  697SOL     OW32584   5.797   5.036  12.577
  697SOL    HW132585   5.765   4.956  12.535
  697SOL    HW232586   5.719   5.072  12.621
  698SOL     OW32587   1.660   0.567  12.548
  698SOL    HW132588   1.667   0.648  12.498
  698SOL    HW232589   1.703   0.501  12.495
  699SOL     OW32590   1.748   2.431  12.550
  699SOL    HW132591   1.715   2.514  12.517
  699SOL    HW232592   1.705   2.365  12.495
  700SOL     OW32593   1.681   4.266  12.530
  700SOL    HW132594   1.679   4.353  12.489
  700SOL    HW232595   1.701   4.207  12.457
  701SOL     OW32596   1.657   6.163  12.519
  701SOL    HW132597   1.660   6.238  12.461
  701SOL    HW232598   1.711   6.097  12.475
  702SOL     OW32599   3.616   0.570  12.553
  702SOL    HW132600   3.570   0.647  12.519
  702SOL    HW232601   3.612   0.506  12.482
  703SOL     OW32602   3.533   2.400  12.531
  703SOL    HW132603   3.549   2.488  12.497
  703SOL    HW232604   3.619   2.359  12.532
  704SOL     OW32605   3.602   4.333  12.602
  704SOL    HW132606   3.641   4.381  12.675
  704SOL    HW232607   3.652   4.252  12.597
  705SOL     OW32608   3.508   6.163  12.511
  705SOL    HW132609   3.514   6.241  12.456
  705SOL    HW232610   3.586   6.113  12.490
  706SOL     OW32611   5.394   0.579  12.550
  706SOL    HW132612   5.397   0.657  12.495
  706SOL    HW232613   5.432   0.510  12.495
  707SOL     OW32614   5.394   2.403  12.528
  707SOL    HW132615   5.399   2.489  12.486
  707SOL    HW232616   5.481   2.389  12.566
  708SOL     OW32617   5.403   4.283  12.550
  708SOL    HW132618   5.399   4.366  12.502
  708SOL    HW232619   5.443   4.222  12.488
  709SOL     OW32620   5.401   6.168  12.528
  709SOL    HW132621   5.389   6.240  12.466
  709SOL    HW232622   5.437   6.097  12.474
  710SOL     OW32623   0.895   0.811  12.549
  710SOL    HW132624   0.807   0.840  12.574
  710SOL    HW232625   0.901   0.828  12.455
  711SOL     OW32626   0.884   2.628  12.534
  711SOL    HW132627   0.806   2.674  12.565
  711SOL    HW232628   0.903   2.668  12.449
  712SOL     OW32629   0.860   4.490  12.511
  712SOL    HW132630   0.842   4.565  12.568
  712SOL    HW232631   0.896   4.529  12.431
  713SOL     OW32632   0.893   6.357  12.497
  713SOL    HW132633   0.888   6.443  12.539
  713SOL    HW232634   0.802   6.338  12.471
  714SOL     OW32635   2.726   0.762  12.512
  714SOL    HW132636   2.698   0.832  12.571
  714SOL    HW232637   2.758   0.808  12.434
  715SOL     OW32638   2.714   2.603  12.517
  715SOL    HW132639   2.658   2.663  12.565
  715SOL    HW232640   2.742   2.653  12.440
  716SOL     OW32641   2.763   4.618  12.552
  716SOL    HW132642   2.674   4.634  12.584
  716SOL    HW232643   2.754   4.617  12.457
  717SOL     OW32644   2.761   6.376  12.513
  717SOL    HW132645   2.715   6.423  12.582
  717SOL    HW232646   2.695   6.363  12.445
  718SOL     OW32647   4.606   0.767  12.532
  718SOL    HW132648   4.633   0.832  12.597
  718SOL    HW232649   4.623   0.810  12.447
  719SOL     OW32650   4.622   2.623  12.535
  719SOL    HW132651   4.668   2.684  12.592
  719SOL    HW232652   4.632   2.659  12.447
  720SOL     OW32653   4.605   4.481  12.509
  720SOL    HW132654   4.637   4.537  12.580
  720SOL    HW232655   4.628   4.528  12.429
  721SOL     OW32656   4.583   6.370  12.570
  721SOL    HW132657   4.628   6.421  12.502
  721SOL    HW232658   4.520   6.316  12.521
  722SOL     OW32659   6.432   0.835  12.543
  722SOL    HW132660   6.345   0.844  12.581
  722SOL    HW232661   6.427   0.755  12.490
  723SOL     OW32662   6.429   2.646  12.550
  723SOL    HW132663   6.373   2.688  12.614
  723SOL    HW232664   6.390   2.669  12.465
  724SOL     OW32665   6.438   4.487  12.565
  724SOL    HW132666   6.372   4.534  12.616
  724SOL    HW232667   0.018   4.551  12.499
  725SOL     OW32668   0.062   0.847   0.298
  725SOL    HW132669   0.072   0.756   0.326
  725SOL    HW232670   0.144   0.889   0.323
  726SOL     OW32671   0.051   2.698   0.334
  726SOL    HW132672   0.113   2.639   0.290
  726SOL    HW232673   0.101   2.779   0.346
  727SOL     OW32674   0.070   4.597   0.299
  727SOL    HW132675   0.158   4.561   0.307
  727SOL    HW232676   0.059   4.651   0.377
  728SOL     OW32677   0.118   6.392   0.254
  728SOL    HW132678   0.161   6.406   0.338
  728SOL    HW232679   0.047   0.007   0.251
  729SOL     OW32680   1.938   2.686   0.298
  729SOL    HW132681   2.020   2.671   0.346
  729SOL    HW232682   1.895   2.757   0.347
  730SOL     OW32683   3.807   0.834   0.293
  730SOL    HW132684   3.888   0.821   0.342
  730SOL    HW232685   3.758   0.897   0.344
  731SOL     OW32686   3.812   2.694   0.296
  731SOL    HW132687   3.894   2.687   0.346
  731SOL    HW232688   3.761   2.761   0.342
  732SOL     OW32689   3.813   4.565   0.292
  732SOL    HW132690   3.892   4.542   0.342
  732SOL    HW232691   3.765   4.625   0.349
  733SOL     OW32692   5.736   0.845   0.343
  733SOL    HW132693   5.734   0.882   0.255
  733SOL    HW232694   5.656   0.876   0.385
  734SOL     OW32695   5.671   2.690   0.300
  734SOL    HW132696   5.755   2.687   0.345
  734SOL    HW232697   5.621   2.756   0.347
  735SOL     OW32698   5.677   4.542   0.313
  735SOL    HW132699   5.758   4.549   0.363
  735SOL    HW232700   5.621   4.610   0.348
  736SOL     OW32701   1.261   1.578   0.322
  736SOL    HW132702   1.259   1.648   0.257
  736SOL    HW232703   1.260   1.624   0.407
  737SOL     OW32704   1.287   3.432   0.295
  737SOL    HW132705   1.247   3.489   0.230
  737SOL    HW232706   1.326   3.491   0.359
  738SOL     OW32707   1.251   5.330   0.309
  738SOL    HW132708   1.157   5.344   0.315
  738SOL    HW232709   1.286   5.366   0.391
  739SOL     OW32710   3.106   1.555   0.329
  739SOL    HW132711   3.107   1.618   0.257
  739SOL    HW232712   3.120   1.607   0.408
  740SOL     OW32713   3.129   3.366   0.400
  740SOL    HW132714   3.159   3.429   0.334
  740SOL    HW232715   3.209   3.339   0.445
  741SOL     OW32716   3.131   5.298   0.308
  741SOL    HW132717   3.122   5.371   0.247
  741SOL    HW232718   3.167   5.337   0.387
  742SOL     OW32719   5.007   1.580   0.343
  742SOL    HW132720   4.995   1.637   0.266
  742SOL    HW232721   5.025   1.641   0.415
  743SOL     OW32722   4.987   3.408   0.304
  743SOL    HW132723   4.975   3.484   0.247
  743SOL    HW232724   4.999   3.445   0.391
  744SOL     OW32725   4.964   5.306   0.327
  744SOL    HW132726   4.972   5.371   0.257
  744SOL    HW232727   5.014   5.343   0.400
  745SOL     OW32728   0.368   0.932  12.528
  745SOL    HW132729   0.450   0.943  12.577
  745SOL    HW232730   0.388   0.867  12.461
  746SOL     OW32731   0.408   2.833  12.493
  746SOL    HW132732   0.467   2.829  12.568
  746SOL    HW232733   0.411   2.745  12.455
  747SOL     OW32734   0.337   4.667  12.528
  747SOL    HW132735   0.403   4.684  12.594
  747SOL    HW232736   0.380   4.608  12.466
  748SOL     OW32737   2.224   0.934  12.529
  748SOL    HW132738   2.301   0.948  12.584
  748SOL    HW232739   2.253   0.873  12.461
  749SOL     OW32740   2.229   2.812  12.541
  749SOL    HW132741   2.285   2.786  12.614
  749SOL    HW232742   2.246   2.746  12.473
  750SOL     OW32743   2.279   4.698  12.517
  750SOL    HW132744   2.248   4.639  12.586
  750SOL    HW232745   2.263   4.650  12.435
  751SOL     OW32746   4.090   0.922  12.534
  751SOL    HW132747   4.171   0.956  12.572
  751SOL    HW232748   4.119   0.868  12.461
  752SOL     OW32749   4.109   2.822  12.509
  752SOL    HW132750   4.174   2.821  12.579
  752SOL    HW232751   4.126   2.741  12.460
  753SOL     OW32752   4.099   4.650  12.518
  753SOL    HW132753   4.163   4.677  12.583
  753SOL    HW232754   4.144   4.586  12.464
  754SOL     OW32755   5.948   0.900  12.539
  754SOL    HW132756   6.030   0.913  12.587
  754SOL    HW232757   5.972   0.845  12.464
  755SOL     OW32758   5.945   2.768  12.526
  755SOL    HW132759   6.015   2.765  12.591
  755SOL    HW232760   5.971   2.706  12.458
  756SOL     OW32761   5.953   4.643  12.518
  756SOL    HW132762   6.008   4.617  12.592
  756SOL    HW232763   5.974   4.581  12.449
  757SOL     OW32764   0.741   1.188  12.538
  757SOL    HW132765   0.779   1.275  12.553
  757SOL    HW232766   0.655   1.206  12.500
  758SOL     OW32767   0.761   3.054  12.532
  758SOL    HW132768   0.807   3.122  12.582
  758SOL    HW232769   0.717   3.102  12.462
  759SOL     OW32770   2.607   1.173  12.541
  759SOL    HW132771   2.656   1.249  12.570
  759SOL    HW232772   2.538   1.208  12.486
  760SOL     OW32773   2.579   2.963  12.530
  760SOL    HW132774   2.585   3.048  12.573
  760SOL    HW232775   2.494   2.965  12.485
  761SOL     OW32776   2.612   4.924  12.540
  761SOL    HW132777   2.629   5.014  12.513
  761SOL    HW232778   2.523   4.906  12.510
  762SOL     OW32779   4.465   1.162  12.543
  762SOL    HW132780   4.513   1.237  12.576
  762SOL    HW232781   4.388   1.199  12.500
  763SOL     OW32782   4.468   3.025  12.535
  763SOL    HW132783   4.510   3.105  12.566
  763SOL    HW232784   4.388   3.055  12.492
  764SOL     OW32785   4.472   4.888  12.535
  764SOL    HW132786   4.523   4.960  12.573
  764SOL    HW232787   4.413   4.932  12.473
  765SOL     OW32788   6.302   1.154  12.548
  765SOL    HW132789   6.346   1.225  12.501
  765SOL    HW232790   6.209   1.166  12.529
  766SOL     OW32791   6.320   3.014  12.507
  766SOL    HW132792   6.339   3.105  12.485
  766SOL    HW232793   6.226   3.004  12.493
  767SOL     OW32794   6.326   4.870  12.522
  767SOL    HW132795   6.342   4.963  12.505
  767SOL    HW232796   6.237   4.854  12.490
  768SOL     OW32797   0.347   0.297  12.529
  768SOL    HW132798   0.398   0.366  12.571
  768SOL    HW232799   0.267   0.291  12.582
  769SOL     OW32800   0.322   2.131  12.476
  769SOL    HW132801   0.385   2.150  12.545
  769SOL    HW232802   0.239   2.117  12.522
  770SOL     OW32803   0.348   3.994  12.499
  770SOL    HW132804   0.375   4.050  12.571
  770SOL    HW232805   0.254   3.979  12.513
  771SOL     OW32806   0.298   5.859  12.434
  771SOL    HW132807   0.378   5.813  12.461
  771SOL    HW232808   0.241   5.855  12.511
  772SOL     OW32809   2.198   0.238  12.580
  772SOL    HW132810   2.261   0.309  12.592
  772SOL    HW232811   2.113   0.276  12.604
  773SOL     OW32812   2.227   2.106  12.536
  773SOL    HW132813   2.256   2.187  12.579
  773SOL    HW232814   2.132   2.114  12.531
  774SOL     OW32815   2.070   3.933  12.513
  774SOL    HW132816   2.136   3.963  12.575
  774SOL    HW232817   1.987   3.964  12.548
  775SOL     OW32818   2.236   5.832  12.571
  775SOL    HW132819   2.275   5.907  12.617
  775SOL    HW232820   2.143   5.853  12.564
  776SOL     OW32821   4.039   0.216  12.597
  776SOL    HW132822   4.110   0.277  12.579
  776SOL    HW232823   3.964   0.272  12.617
  777SOL     OW32824   4.098   2.085  12.566
  777SOL    HW132825   4.143   2.163  12.600
  777SOL    HW232826   4.005   2.110  12.566
  778SOL     OW32827   4.091   4.007  12.528
  778SOL    HW132828   4.140   4.071  12.579
  778SOL    HW232829   4.042   3.957  12.593
  779SOL     OW32830   4.088   5.831  12.541
  779SOL    HW132831   4.139   5.909  12.564
  779SOL    HW232832   3.999   5.853  12.569
  780SOL     OW32833   5.933   0.247  12.614
  780SOL    HW132834   6.005   0.307  12.594
  780SOL    HW232835   5.857   0.304  12.623
  781SOL     OW32836   5.890   2.121  12.589
  781SOL    HW132837   5.952   2.169  12.533
  781SOL    HW232838   5.825   2.187  12.613
  782SOL     OW32839   5.951   3.959  12.558
  782SOL    HW132840   5.983   4.048  12.576
  782SOL    HW232841   5.856   3.968  12.553
  783SOL     OW32842   5.941   5.810  12.569
  783SOL    HW132843   5.994   5.889  12.572
  783SOL    HW232844   5.851   5.842  12.560
  784SOL     OW32845   1.020   0.167  12.443
  784SOL    HW132846   1.077   0.242  12.424
  784SOL    HW232847   1.025   0.113  12.365
  785SOL     OW32848   1.020   1.994  12.456
  785SOL    HW132849   1.073   2.071  12.439
  785SOL    HW232850   1.074   1.921  12.425
  786SOL     OW32851   1.004   3.866  12.452
  786SOL    HW132852   1.063   3.941  12.439
  786SOL    HW232853   1.055   3.790  12.422
  787SOL     OW32854   1.071   5.708  12.502
  787SOL    HW132855   1.085   5.786  12.449
  787SOL    HW232856   1.101   5.636  12.447
  788SOL     OW32857   2.914   0.147  12.385
  788SOL    HW132858   2.963   0.193  12.453
  788SOL    HW232859   2.887   0.065  12.426
  789SOL     OW32860   2.881   1.997  12.428
  789SOL    HW132861   2.942   2.071  12.426
  789SOL    HW232862   2.934   1.921  12.407
  790SOL     OW32863   2.962   3.617  12.482
  790SOL    HW132864   3.013   3.661  12.549
  790SOL    HW232865   2.872   3.618  12.515
  791SOL     OW32866   2.887   5.704  12.454
  791SOL    HW132867   2.935   5.786  12.440
  791SOL    HW232868   2.946   5.636  12.423
  792SOL     OW32869   4.726   0.121  12.407
  792SOL    HW132870   4.789   0.193  12.408
  792SOL    HW232871   4.764   0.057  12.347
  793SOL     OW32872   4.741   1.991  12.451
  793SOL    HW132873   4.794   2.069  12.436
  793SOL    HW232874   4.796   1.918  12.421
  794SOL     OW32875   4.741   3.852  12.457
  794SOL    HW132876   4.796   3.929  12.441
  794SOL    HW232877   4.791   3.779  12.421
  795SOL     OW32878   4.729   5.727  12.483
  795SOL    HW132879   4.799   5.780  12.445
  795SOL    HW232880   4.757   5.637  12.469
  796SOL     OW32881   1.103   1.360   0.395
  796SOL    HW132882   1.109   1.288   0.332
  796SOL    HW232883   1.159   1.428   0.358
  797SOL     OW32884   1.110   3.231   0.401
  797SOL    HW132885   1.113   3.164   0.334
  797SOL    HW232886   1.160   3.304   0.365
  798SOL     OW32887   1.104   5.087   0.388
  798SOL    HW132888   1.100   5.004   0.341
  798SOL    HW232889   1.171   5.137   0.341
  799SOL     OW32890   2.950   3.143   0.394
  799SOL    HW132891   2.953   3.081   0.321
  799SOL    HW232892   3.025   3.201   0.379
  800SOL     OW32893   2.966   5.086   0.381
  800SOL    HW132894   2.964   5.026   0.307
  800SOL    HW232895   3.029   5.153   0.356
  801SOL     OW32896   4.826   1.371   0.395
  801SOL    HW132897   4.830   1.296   0.335
  801SOL    HW232898   4.882   1.437   0.355
  802SOL     OW32899   4.817   5.084   0.402
  802SOL    HW132900   4.823   5.012   0.340
  802SOL    HW232901   4.872   5.153   0.364
  803SOL     OW32902   0.229   1.375   0.358
  803SOL    HW132903   0.215   1.294   0.309
  803SOL    HW232904   0.235   1.443   0.291
  804SOL     OW32905   0.273   3.215   0.343
  804SOL    HW132906   0.328   3.140   0.319
  804SOL    HW232907   0.211   3.223   0.271
  805SOL     OW32908   0.258   5.090   0.361
  805SOL    HW132909   0.242   4.997   0.346
  805SOL    HW232910   0.240   5.132   0.277
  806SOL     OW32911   1.766   1.595   0.372
  806SOL    HW132912   1.792   1.560   0.287
  806SOL    HW232913   1.787   1.525   0.434
  807SOL     OW32914   1.858   3.392   0.375
  807SOL    HW132915   1.778   3.381   0.324
  807SOL    HW232916   1.867   3.310   0.423
  808SOL     OW32917   1.880   5.274   0.378
  808SOL    HW132918   1.828   5.259   0.299
  808SOL    HW232919   1.830   5.232   0.448
  809SOL     OW32920   3.731   1.559   0.396
  809SOL    HW132921   3.678   1.556   0.316
  809SOL    HW232922   3.682   1.507   0.459
  810SOL     OW32923   3.726   3.396   0.352
  810SOL    HW132924   3.644   3.393   0.302
  810SOL    HW232925   3.707   3.349   0.433
  811SOL     OW32926   3.753   5.250   0.389
  811SOL    HW132927   3.688   5.263   0.319
  811SOL    HW232928   3.701   5.222   0.464
  812SOL     OW32929   5.589   1.558   0.393
  812SOL    HW132930   5.550   1.550   0.306
  812SOL    HW232931   5.532   1.506   0.450
  813SOL     OW32932   5.578   3.428   0.386
  813SOL    HW132933   5.563   3.400   0.296
  813SOL    HW232934   5.572   3.347   0.437
  814SOL     OW32935   5.592   5.279   0.389
  814SOL    HW132936   5.530   5.270   0.317
  814SOL    HW232937   5.548   5.238   0.464
  815SOL     OW32938   0.358   1.814   0.410
  815SOL    HW132939   0.408   1.733   0.419
  815SOL    HW232940   0.422   1.884   0.422
  816SOL     OW32941   0.364   3.684   0.387
  816SOL    HW132942   0.407   3.601   0.405
  816SOL    HW232943   0.428   3.750   0.416
  817SOL     OW32944   0.363   5.534   0.407
  817SOL    HW132945   0.411   5.452   0.418
  817SOL    HW232946   0.429   5.603   0.420
  818SOL     OW32947   2.221   1.806   0.482
  818SOL    HW132948   2.270   1.727   0.465
  818SOL    HW232949   2.226   1.856   0.401
  819SOL     OW32950   2.205   3.645   0.258
  819SOL    HW132951   2.220   3.551   0.267
  819SOL    HW232952   2.269   3.685   0.316
  820SOL     OW32953   2.233   5.540   0.394
  820SOL    HW132954   2.302   5.474   0.397
  820SOL    HW232955   2.278   5.622   0.412
  821SOL     OW32956   4.093   1.815   0.395
  821SOL    HW132957   4.142   1.733   0.399
  821SOL    HW232958   4.158   1.884   0.408
  822SOL     OW32959   4.099   3.659   0.361
  822SOL    HW132960   4.137   3.576   0.390
  822SOL    HW232961   4.165   3.725   0.383
  823SOL     OW32962   4.094   5.533   0.396
  823SOL    HW132963   4.162   5.465   0.395
  823SOL    HW232964   4.140   5.613   0.420
  824SOL     OW32965   5.947   3.693   0.399
  824SOL    HW132966   5.989   3.608   0.409
  824SOL    HW232967   6.019   3.756   0.403
  825SOL     OW32968   5.952   5.539   0.383
  825SOL    HW132969   5.992   5.453   0.396
  825SOL    HW232970   6.021   5.602   0.406
  826SOL     OW32971   0.782   0.291  12.476
  826SOL    HW132972   0.869   0.252  12.470
  826SOL    HW232973   0.735   0.235  12.537
  827SOL     OW32974   0.773   2.124  12.476
  827SOL    HW132975   0.856   2.076  12.479
  827SOL    HW232976   0.730   2.103  12.558
  828SOL     OW32977   0.768   3.997  12.467
  828SOL    HW132978   0.856   3.958  12.466
  828SOL    HW232979   0.728   3.966  12.548
  829SOL     OW32980   0.818   5.848  12.462
  829SOL    HW132981   0.885   5.789  12.498
  829SOL    HW232982   0.735   5.805  12.481
  830SOL     OW32983   2.647   0.277  12.463
  830SOL    HW132984   2.743   0.271  12.464
  830SOL    HW232985   2.619   0.225  12.538
  831SOL     OW32986   2.634   2.101  12.439
  831SOL    HW132987   2.724   2.071  12.450
  831SOL    HW232988   2.589   2.071  12.518
  832SOL     OW32989   2.592   4.141  12.263
  832SOL    HW132990   2.642   4.191  12.327
  832SOL    HW232991   2.503   4.176  12.269
  833SOL     OW32992   2.648   5.832  12.456
  833SOL    HW132993   2.733   5.788  12.458
  833SOL    HW232994   2.602   5.798  12.533
  834SOL     OW32995   4.515   0.291  12.480
  834SOL    HW132996   4.593   0.239  12.461
  834SOL    HW232997   4.475   0.248  12.555
  835SOL     OW32998   4.506   2.133  12.452
  835SOL    HW132999   4.590   2.089  12.447
  835SOL    HW233000   4.463   2.096  12.529
  836SOL     OW33001   4.504   3.955  12.509
  836SOL    HW133002   4.592   3.929  12.484
  836SOL    HW233003   4.514   4.042  12.548
  837SOL     OW33004   4.468   5.790  12.473
  837SOL    HW133005   4.559   5.761  12.477
  837SOL    HW233006   4.472   5.885  12.485
  838SOL     OW33007   0.888   1.000   0.398
  838SOL    HW133008   0.884   0.916   0.443
  838SOL    HW233009   0.843   1.061   0.456
  839SOL     OW33010   0.909   2.852   0.403
  839SOL    HW133011   0.944   2.778   0.453
  839SOL    HW233012   0.852   2.898   0.465
  840SOL     OW33013   0.894   4.691   0.395
  840SOL    HW133014   0.959   4.623   0.412
  840SOL    HW233015   0.829   4.679   0.464
  841SOL     OW33016   2.762   0.984   0.390
  841SOL    HW133017   2.809   0.906   0.419
  841SOL    HW233018   2.710   1.011   0.466
  842SOL     OW33019   2.771   2.799   0.346
  842SOL    HW133020   2.827   2.734   0.389
  842SOL    HW233021   2.705   2.821   0.413
  843SOL     OW33022   2.753   4.748   0.365
  843SOL    HW133023   2.808   4.684   0.409
  843SOL    HW233024   2.708   4.793   0.436
  844SOL     OW33025   4.649   1.002   0.403
  844SOL    HW133026   4.680   0.917   0.433
  844SOL    HW233027   4.572   0.983   0.349
  845SOL     OW33028   4.631   2.829   0.376
  845SOL    HW133029   4.676   2.755   0.416
  845SOL    HW233030   4.591   2.875   0.449
  846SOL     OW33031   4.642   4.709   0.394
  846SOL    HW133032   4.682   4.626   0.419
  846SOL    HW233033   4.580   4.728   0.464
  847SOL     OW33034   0.540   0.515   0.394
  847SOL    HW133035   0.556   0.563   0.312
  847SOL    HW233036   0.607   0.549   0.454
  848SOL     OW33037   0.540   2.368   0.393
  848SOL    HW133038   0.562   2.413   0.312
  848SOL    HW233039   0.605   2.399   0.456
  849SOL     OW33040   0.544   4.244   0.383
  849SOL    HW133041   0.575   4.288   0.305
  849SOL    HW233042   0.611   4.262   0.449
  850SOL     OW33043   0.555   6.111   0.417
  850SOL    HW133044   0.577   6.146   0.331
  850SOL    HW233045   0.629   6.135   0.472
  851SOL     OW33046   2.403   0.515   0.387
  851SOL    HW133047   2.411   0.562   0.304
  851SOL    HW233048   2.466   0.558   0.444
  852SOL     OW33049   2.415   2.389   0.402
  852SOL    HW133050   2.437   2.433   0.320
  852SOL    HW233051   2.480   2.421   0.464
  853SOL     OW33052   2.502   4.298   0.418
  853SOL    HW133053   2.473   4.342   0.339
  853SOL    HW233054   2.470   4.353   0.490
  854SOL     OW33055   2.422   6.093   0.398
  854SOL    HW133056   2.425   6.127   0.308
  854SOL    HW233057   2.492   6.139   0.443
  855SOL     OW33058   4.274   0.508   0.387
  855SOL    HW133059   4.305   0.536   0.301
  855SOL    HW233060   4.337   0.546   0.448
  856SOL     OW33061   4.270   2.378   0.397
  856SOL    HW133062   4.294   2.421   0.314
  856SOL    HW233063   4.336   2.408   0.459
  857SOL     OW33064   4.277   4.289   0.367
  857SOL    HW133065   4.287   4.323   0.277
  857SOL    HW233066   4.339   4.217   0.372
  858SOL     OW33067   4.281   6.100   0.408
  858SOL    HW133068   4.319   6.095   0.320
  858SOL    HW233069   4.346   6.147   0.460
  859SOL     OW33070   6.165   0.508   0.389
  859SOL    HW133071   6.180   0.538   0.299
  859SOL    HW233072   6.232   0.554   0.441
  860SOL     OW33073   6.164   2.377   0.396
  860SOL    HW133074   6.153   2.431   0.318
  860SOL    HW233075   6.259   2.367   0.404
  861SOL     OW33076   6.152   4.245   0.393
  861SOL    HW133077   6.152   4.291   0.309
  861SOL    HW233078   6.206   4.299   0.451
  862SOL     OW33079   6.169   6.107   0.365
  862SOL    HW133080   6.157   6.163   0.289
  862SOL    HW233081   6.241   6.147   0.414
  863SOL     OW33082   0.341   1.543  12.470
  863SOL    HW133083   0.283   1.612  12.502
  863SOL    HW233084   0.284   1.467  12.460
  864SOL     OW33085   0.322   3.395  12.441
  864SOL    HW133086   0.277   3.467  12.486
  864SOL    HW233087   0.283   3.316  12.480
  865SOL     OW33088   0.335   5.276  12.468
  865SOL    HW133089   0.274   5.346  12.492
  865SOL    HW233090   0.288   5.195  12.488
  866SOL     OW33091   2.102   1.537  12.410
  866SOL    HW133092   2.079   1.608  12.471
  866SOL    HW233093   2.118   1.462  12.467
  867SOL     OW33094   2.072   3.401  12.404
  867SOL    HW133095   2.048   3.475  12.460
  867SOL    HW233096   2.095   3.331  12.465
  868SOL     OW33097   2.128   5.265  12.414
  868SOL    HW133098   2.090   5.332  12.471
  868SOL    HW233099   2.128   5.186  12.468
  869SOL     OW33100   3.962   1.534  12.410
  869SOL    HW133101   3.941   1.603  12.473
  869SOL    HW233102   3.978   1.457  12.464
  870SOL     OW33103   4.031   3.411  12.470
  870SOL    HW133104   3.992   3.469  12.535
  870SOL    HW233105   4.023   3.323  12.508
  871SOL     OW33106   3.986   5.278  12.417
  871SOL    HW133107   3.951   5.335  12.484
  871SOL    HW233108   4.006   5.196  12.463
  872SOL     OW33109   5.810   1.549  12.417
  872SOL    HW133110   5.809   1.618  12.483
  872SOL    HW233111   5.873   1.485  12.450
  873SOL     OW33112   5.830   3.402  12.420
  873SOL    HW133113   5.808   3.470  12.483
  873SOL    HW233114   5.839   3.323  12.473
  874SOL     OW33115   5.826   5.262  12.414
  874SOL    HW133116   5.800   5.332  12.474
  874SOL    HW233117   5.835   5.185  12.470
  875SOL     OW33118   1.470   1.145   0.409
  875SOL    HW133119   1.391   1.125   0.358
  875SOL    HW233120   1.536   1.166   0.342
  876SOL     OW33121   1.457   3.000   0.390
  876SOL    HW133122   1.379   2.985   0.336
  876SOL    HW233123   1.525   3.025   0.328
  877SOL     OW33124   1.460   4.878   0.378
  877SOL    HW133125   1.401   4.818   0.332
  877SOL    HW233126   1.534   4.889   0.319
  878SOL     OW33127   3.292   1.156   0.367
  878SOL    HW133128   3.279   1.061   0.365
  878SOL    HW233129   3.375   1.170   0.321
  879SOL     OW33130   3.332   3.001   0.392
  879SOL    HW133131   3.284   2.920   0.371
  879SOL    HW233132   3.395   3.011   0.320
  880SOL     OW33133   3.327   4.883   0.420
  880SOL    HW133134   3.297   4.792   0.426
  880SOL    HW233135   3.384   4.884   0.343
  881SOL     OW33136   5.188   1.155   0.409
  881SOL    HW133137   5.131   1.091   0.367
  881SOL    HW233138   5.256   1.173   0.344
  882SOL     OW33139   5.152   3.034   0.357
  882SOL    HW133140   5.135   2.940   0.362
  882SOL    HW233141   5.240   3.040   0.319
  883SOL     OW33142   5.183   4.866   0.394
  883SOL    HW133143   5.120   4.821   0.339
  883SOL    HW233144   5.255   4.889   0.335
  884SOL     OW33145   0.488   0.062  12.445
  884SOL    HW133146   0.429   0.008  12.392
  884SOL    HW233147   0.434   0.136  12.473
  885SOL     OW33148   0.512   1.891  12.432
  885SOL    HW133149   0.461   1.840  12.369
  885SOL    HW233150   0.459   1.969  12.449
  886SOL     OW33151   0.497   3.768  12.424
  886SOL    HW133152   0.454   3.698  12.376
  886SOL    HW233153   0.429   3.803  12.482
  887SOL     OW33154   2.374   0.059  12.460
  887SOL    HW133155   2.373   0.078  12.366
  887SOL    HW233156   2.302   0.111  12.496
  888SOL     OW33157   2.377   1.899  12.428
  888SOL    HW133158   2.318   1.844  12.376
  888SOL    HW233159   2.322   1.969  12.461
  889SOL     OW33160   2.254   3.777  12.385
  889SOL    HW133161   2.212   3.706  12.335
  889SOL    HW233162   2.183   3.818  12.434
  890SOL     OW33163   2.367   5.620  12.446
  890SOL    HW133164   2.305   5.566  12.397
  890SOL    HW233165   2.313   5.689  12.485
  891SOL     OW33166   4.250   0.070  12.448
  891SOL    HW133167   4.260   6.429  12.418
  891SOL    HW233168   4.156   0.081  12.460
  892SOL     OW33169   4.234   1.880  12.452
  892SOL    HW133170   4.176   1.841  12.387
  892SOL    HW233171   4.186   1.956  12.485
  893SOL     OW33172   4.229   3.776  12.469
  893SOL    HW133173   4.182   3.720  12.407
  893SOL    HW233174   4.181   3.858  12.469
  894SOL     OW33175   4.185   5.627  12.400
  894SOL    HW133176   4.262   5.673  12.365
  894SOL    HW233177   4.148   5.689  12.463
  895SOL     OW33178   6.071   0.055  12.429
  895SOL    HW133179   6.118   0.027  12.351
  895SOL    HW233180   6.087   0.149  12.434
  896SOL     OW33181   6.110   3.775  12.435
  896SOL    HW133182   6.055   3.712  12.388
  896SOL    HW233183   6.047   3.835  12.476
  897SOL     OW33184   6.101   5.620  12.456
  897SOL    HW133185   6.046   5.572  12.393
  897SOL    HW233186   6.042   5.686  12.492
  898SOL     OW33187   1.789   0.982   0.397
  898SOL    HW133188   1.760   1.050   0.337
  898SOL    HW233189   1.764   1.014   0.484
  899SOL     OW33190   1.788   2.891   0.427
  899SOL    HW133191   1.746   2.938   0.355
  899SOL    HW233192   1.724   2.893   0.499
  900SOL     OW33193   1.822   4.822   0.469
  900SOL    HW133194   1.853   4.760   0.402
  900SOL    HW233195   1.744   4.781   0.505
  901SOL     OW33196   3.666   1.047   0.431
  901SOL    HW133197   3.627   1.091   0.356
  901SOL    HW233198   3.598   1.049   0.498
  902SOL     OW33199   3.665   2.902   0.418
  902SOL    HW133200   3.623   2.962   0.356
  902SOL    HW233201   3.606   2.899   0.493
  903SOL     OW33202   3.666   4.772   0.418
  903SOL    HW133203   3.619   4.824   0.353
  903SOL    HW233204   3.614   4.778   0.497
  904SOL     OW33205   5.537   1.044   0.436
  904SOL    HW133206   5.497   1.079   0.357
  904SOL    HW233207   5.468   1.046   0.502
  905SOL     OW33208   5.531   2.903   0.437
  905SOL    HW133209   5.491   2.940   0.358
  905SOL    HW233210   5.461   2.908   0.503
  906SOL     OW33211   5.518   4.745   0.422
  906SOL    HW133212   5.484   4.799   0.350
  906SOL    HW233213   5.463   4.769   0.497
  907SOL     OW33214   1.469   0.250  12.427
  907SOL    HW133215   1.506   0.244  12.515
  907SOL    HW233216   1.394   0.191  12.429
  908SOL     OW33217   1.523   2.050  12.426
  908SOL    HW133218   1.522   2.071  12.519
  908SOL    HW233219   1.435   2.071  12.395
  909SOL     OW33220   1.467   3.982  12.463
  909SOL    HW133221   1.507   3.963  12.548
  909SOL    HW233222   1.506   3.918  12.404
  910SOL     OW33223   1.504   5.812  12.415
  910SOL    HW133224   1.508   5.818  12.511
  910SOL    HW233225   1.435   5.747  12.399
  911SOL     OW33226   3.335   0.232  12.427
  911SOL    HW133227   3.383   0.262  12.504
  911SOL    HW233228   3.270   0.171  12.462
  912SOL     OW33229   3.371   2.081  12.430
  912SOL    HW133230   3.384   2.097  12.524
  912SOL    HW233231   3.321   1.999  12.427
  913SOL     OW33232   3.412   3.789  12.528
  913SOL    HW133233   3.464   3.848  12.582
  913SOL    HW233234   3.321   3.808  12.551
  914SOL     OW33235   5.204   0.234  12.454
  914SOL    HW133236   5.239   0.243  12.542
  914SOL    HW233237   5.138   0.165  12.461
  915SOL     OW33238   5.230   2.073  12.401
  915SOL    HW133239   5.242   2.078  12.496
  915SOL    HW233240   5.150   2.023  12.389
  916SOL     OW33241   5.249   3.934  12.416
  916SOL    HW133242   5.260   3.941  12.511
  916SOL    HW233243   5.195   3.856  12.404
  917SOL     OW33244   5.222   5.808  12.421
  917SOL    HW133245   5.225   5.814  12.516
  917SOL    HW233246   5.154   5.742  12.404
  918SOL     OW33247   1.622   0.184   0.424
  918SOL    HW133248   1.563   0.207   0.495
  918SOL    HW233249   1.623   0.260   0.367
  919SOL     OW33250   1.567   2.005   0.422
  919SOL    HW133251   1.519   2.036   0.499
  919SOL    HW233252   1.578   2.084   0.368
  920SOL     OW33253   1.557   3.905   0.407
  920SOL    HW133254   1.510   3.921   0.488
  920SOL    HW233255   1.554   3.988   0.360
  921SOL     OW33256   1.591   5.768   0.416
  921SOL    HW133257   1.540   5.802   0.490
  921SOL    HW233258   1.601   5.843   0.357
  922SOL     OW33259   3.465   0.179   0.420
  922SOL    HW133260   3.416   0.205   0.498
  922SOL    HW233261   3.466   0.258   0.366
  923SOL     OW33262   3.481   3.900   0.453
  923SOL    HW133263   3.466   3.903   0.547
  923SOL    HW233264   3.442   3.982   0.420
  924SOL     OW33265   3.477   5.755   0.364
  924SOL    HW133266   3.439   5.766   0.451
  924SOL    HW233267   3.480   5.844   0.328
  925SOL     OW33268   5.356   0.202   0.451
  925SOL    HW133269   5.280   0.225   0.504
  925SOL    HW233270   5.355   0.264   0.379
  926SOL     OW33271   5.305   3.920   0.413
  926SOL    HW133272   5.247   3.983   0.456
  926SOL    HW233273   5.329   3.962   0.331
  927SOL     OW33274   5.322   5.772   0.418
  927SOL    HW133275   5.269   5.802   0.491
  927SOL    HW233276   5.330   5.848   0.360
  928SOL     OW33277   0.480   1.249  12.478
  928SOL    HW133278   0.469   1.275  12.386
  928SOL    HW233279   0.390   1.244  12.511
  929SOL     OW33280   0.484   5.007  12.465
  929SOL    HW133281   0.464   5.026  12.373
  929SOL    HW233282   0.399   4.985  12.504
  930SOL     OW33283   2.341   1.283  12.455
  930SOL    HW133284   2.312   1.290  12.364
  930SOL    HW233285   2.262   1.258  12.503
  931SOL     OW33286   2.336   3.052  12.442
  931SOL    HW133287   2.283   3.101  12.379
  931SOL    HW233288   2.277   2.986  12.478
  932SOL     OW33289   2.349   4.963  12.460
  932SOL    HW133290   2.313   4.995  12.378
  932SOL    HW233291   2.303   4.880  12.476
  933SOL     OW33292   4.206   1.280  12.462
  933SOL    HW133293   4.183   1.282  12.370
  933SOL    HW233294   4.123   1.268  12.508
  934SOL     OW33295   4.220   3.132  12.456
  934SOL    HW133296   4.172   3.159  12.378
  934SOL    HW233297   4.170   3.059  12.491
  935SOL     OW33298   4.200   5.025  12.461
  935SOL    HW133299   4.166   5.024  12.371
  935SOL    HW233300   4.134   4.977  12.511
  936SOL     OW33301   6.049   1.229  12.501
  936SOL    HW133302   6.043   1.238  12.406
  936SOL    HW233303   5.958   1.230  12.531
  937SOL     OW33304   6.059   3.101  12.464
  937SOL    HW133305   6.069   3.130  12.373
  937SOL    HW233306   5.964   3.104  12.479
  938SOL     OW33307   6.060   4.986  12.457
  938SOL    HW133308   6.040   5.002  12.364
  938SOL    HW233309   5.975   4.969  12.497
  939SOL     OW33310   0.138   1.037  12.420
  939SOL    HW133311   0.062   0.999  12.464
  939SOL    HW233312   0.213   1.003  12.468
  940SOL     OW33313   0.101   2.884  12.434
  940SOL    HW133314   0.017   2.925  12.453
  940SOL    HW233315   0.106   2.810  12.495
  941SOL     OW33316   0.094   4.707  12.409
  941SOL    HW133317   0.033   4.765  12.454
  941SOL    HW233318   0.173   4.708  12.463
  942SOL     OW33319   0.099   0.183  12.420
  942SOL    HW133320   0.062   0.095  12.416
  942SOL    HW233321   0.189   0.171  12.451
  943SOL     OW33322   2.004   1.071  12.452
  943SOL    HW133323   1.929   1.031  12.497
  943SOL    HW233324   2.079   1.020  12.481
  944SOL     OW33325   1.999   2.938  12.462
  944SOL    HW133326   1.918   2.905  12.500
  944SOL    HW233327   2.067   2.883  12.499
  945SOL     OW33328   1.997   4.820  12.578
  945SOL    HW133329   1.908   4.787  12.569
  945SOL    HW233330   2.044   4.783  12.504
  946SOL     OW33331   2.002   0.112  12.406
  946SOL    HW133332   1.916   0.111  12.449
  946SOL    HW233333   2.063   0.137  12.475
  947SOL     OW33334   3.867   1.063  12.447
  947SOL    HW133335   3.787   1.033  12.490
  947SOL    HW233336   3.936   1.008  12.485
  948SOL     OW33337   3.871   2.945  12.461
  948SOL    HW133338   3.794   2.899  12.493
  948SOL    HW233339   3.944   2.886  12.479
  949SOL     OW33340   3.865   4.738  12.427
  949SOL    HW133341   3.804   4.726  12.500
  949SOL    HW233342   3.951   4.718  12.465
  950SOL     OW33343   3.857   0.118  12.412
  950SOL    HW133344   3.771   0.118  12.454
  950SOL    HW233345   3.917   0.147  12.481
  951SOL     OW33346   5.736   1.077  12.518
  951SOL    HW133347   5.657   1.027  12.536
  951SOL    HW233348   5.806   1.012  12.515
  952SOL     OW33349   5.734   2.926  12.455
  952SOL    HW133350   5.656   2.889  12.496
  952SOL    HW233351   5.805   2.868  12.483
  953SOL     OW33352   5.734   4.796  12.454
  953SOL    HW133353   5.655   4.759  12.493
  953SOL    HW233354   5.804   4.737  12.481
  954SOL     OW33355   5.723   0.109  12.419
  954SOL    HW133356   5.635   0.100  12.456
  954SOL    HW233357   5.765   0.176  12.472
  955SOL     OW33358   0.591   0.245   0.430
  955SOL    HW133359   0.590   0.236   0.525
  955SOL    HW233360   0.560   0.334   0.414
  956SOL     OW33361   0.554   2.012   0.440
  956SOL    HW133362   0.567   2.046   0.528
  956SOL    HW233363   0.554   2.089   0.384
  957SOL     OW33364   0.538   3.899   0.442
  957SOL    HW133365   0.553   3.913   0.536
  957SOL    HW233366   0.594   3.964   0.399
  958SOL     OW33367   0.556   5.737   0.442
  958SOL    HW133368   0.568   5.788   0.522
  958SOL    HW233369   0.519   5.800   0.380
  959SOL     OW33370   2.420   0.230   0.403
  959SOL    HW133371   2.423   0.210   0.496
  959SOL    HW233372   2.421   0.326   0.399
  960SOL     OW33373   2.464   2.028   0.438
  960SOL    HW133374   2.449   2.058   0.528
  960SOL    HW233375   2.424   2.095   0.383
  961SOL     OW33376   2.338   4.072   0.378
  961SOL    HW133377   2.419   4.117   0.357
  961SOL    HW233378   2.293   4.062   0.294
  962SOL     OW33379   2.416   5.741   0.453
  962SOL    HW133380   2.427   5.775   0.541
  962SOL    HW233381   2.412   5.819   0.397
  963SOL     OW33382   4.332   0.231   0.423
  963SOL    HW133383   4.321   0.225   0.518
  963SOL    HW233384   4.302   0.319   0.401
  964SOL     OW33385   4.283   2.014   0.440
  964SOL    HW133386   4.289   2.050   0.529
  964SOL    HW233387   4.270   2.092   0.385
  965SOL     OW33388   4.272   5.737   0.453
  965SOL    HW133389   4.285   5.776   0.539
  965SOL    HW233390   4.250   5.811   0.396
  966SOL     OW33391   6.202   0.234   0.424
  966SOL    HW133392   6.192   0.230   0.519
  966SOL    HW233393   6.180   0.324   0.401
  967SOL     OW33394   6.122   2.046   0.427
  967SOL    HW133395   6.133   2.069   0.519
  967SOL    HW233396   6.107   2.130   0.383
  968SOL     OW33397   6.141   3.901   0.421
  968SOL    HW133398   6.143   3.931   0.512
  968SOL    HW233399   6.106   3.975   0.372
  969SOL     OW33400   6.136   5.747   0.427
  969SOL    HW133401   6.133   5.801   0.506
  969SOL    HW233402   6.107   5.805   0.357
  970SOL     OW33403   0.298   1.071   0.444
  970SOL    HW133404   0.298   0.978   0.467
  970SOL    HW233405   0.221   1.107   0.489
  971SOL     OW33406   0.197   2.916   0.375
  971SOL    HW133407   0.288   2.892   0.388
  971SOL    HW233408   0.171   2.959   0.456
  972SOL     OW33409   0.304   4.800   0.444
  972SOL    HW133410   0.305   4.705   0.456
  972SOL    HW233411   0.229   4.830   0.495
  973SOL     OW33412   2.161   1.078   0.410
  973SOL    HW133413   2.226   1.019   0.450
  973SOL    HW233414   2.149   1.148   0.473
  974SOL     OW33415   2.114   2.943   0.391
  974SOL    HW133416   2.130   2.854   0.421
  974SOL    HW233417   2.138   2.998   0.467
  975SOL     OW33418   2.161   4.840   0.440
  975SOL    HW133419   2.189   4.752   0.466
  975SOL    HW233420   2.066   4.833   0.429
  976SOL     OW33421   3.991   1.077   0.379
  976SOL    HW133422   4.006   0.990   0.415
  976SOL    HW233423   3.951   1.126   0.450
  977SOL     OW33424   4.009   2.943   0.376
  977SOL    HW133425   4.018   2.855   0.413
  977SOL    HW233426   3.968   2.994   0.446
  978SOL     OW33427   3.986   4.795   0.403
  978SOL    HW133428   4.011   4.704   0.418
  978SOL    HW233429   3.932   4.818   0.478
  979SOL     OW33430   5.868   1.107   0.381
  979SOL    HW133431   5.851   1.023   0.424
  979SOL    HW233432   5.822   1.171   0.435
  980SOL     OW33433   5.850   2.957   0.378
  980SOL    HW133434   5.859   2.872   0.420
  980SOL    HW233435   5.813   3.013   0.446
  981SOL     OW33436   5.864   4.820   0.380
  981SOL    HW133437   5.872   4.731   0.415
  981SOL    HW233438   5.818   4.869   0.448
  982SOL     OW33439   0.189   0.556  12.459
  982SOL    HW133440   0.217   0.487  12.400
  982SOL    HW233441   0.172   0.631  12.402
  983SOL     OW33442   0.128   2.377  12.435
  983SOL    HW133443   0.219   2.351  12.447
  983SOL    HW233444   0.132   2.460  12.388
  984SOL     OW33445   0.143   4.235  12.427
  984SOL    HW133446   0.177   4.263  12.512
  984SOL    HW233447   0.150   4.313  12.372
  985SOL     OW33448   0.144   6.147  12.483
  985SOL    HW133449   0.188   6.207  12.422
  985SOL    HW233450   0.051   6.153  12.460
  986SOL     OW33451   2.071   0.541  12.446
  986SOL    HW133452   2.112   0.492  12.374
  986SOL    HW233453   2.037   0.620  12.404
  987SOL     OW33454   2.085   2.407  12.437
  987SOL    HW133455   2.075   2.335  12.374
  987SOL    HW233456   2.036   2.479  12.399
  988SOL     OW33457   2.045   4.262  12.469
  988SOL    HW133458   2.052   4.193  12.403
  988SOL    HW233459   2.016   4.339  12.420
  989SOL     OW33460   2.070   6.136  12.440
  989SOL    HW133461   2.165   6.124  12.430
  989SOL    HW233462   2.049   6.208  12.381
  990SOL     OW33463   3.937   0.537  12.444
  990SOL    HW133464   3.967   0.485  12.369
  990SOL    HW233465   3.897   0.614  12.404
  991SOL     OW33466   3.919   2.412  12.460
  991SOL    HW133467   4.007   2.403  12.423
  991SOL    HW233468   3.877   2.477  12.404
  992SOL     OW33469   3.885   4.232  12.404
  992SOL    HW133470   3.971   4.192  12.420
  992SOL    HW233471   3.905   4.320  12.372
  993SOL     OW33472   3.981   6.123  12.445
  993SOL    HW133473   4.075   6.123  12.431
  993SOL    HW233474   3.948   6.191  12.386
  994SOL     OW33475   5.804   0.535  12.443
  994SOL    HW133476   5.871   0.505  12.382
  994SOL    HW233477   5.763   0.609  12.399
  995SOL     OW33478   5.798   2.392  12.431
  995SOL    HW133479   5.872   2.356  12.383
  995SOL    HW233480   5.776   2.473  12.385
  996SOL     OW33481   5.804   4.266  12.437
  996SOL    HW133482   5.871   4.236  12.374
  996SOL    HW233483   5.762   4.340  12.394
  997SOL     OW33484   5.847   6.127  12.428
  997SOL    HW133485   5.917   6.083  12.379
  997SOL    HW233486   5.817   6.197  12.370
  998SOL     OW33487   0.984   1.121  12.430
  998SOL    HW133488   0.895   1.150  12.451
  998SOL    HW233489   0.972   1.055  12.362
  999SOL     OW33490   1.008   2.967  12.445
  999SOL    HW133491   0.918   2.985  12.473
  999SOL    HW233492   1.001   2.886  12.394
 1000SOL     OW33493   1.047   4.840  12.392
 1000SOL    HW133494   0.979   4.846  12.460
 1000SOL    HW233495   1.031   4.756  12.349
 1001SOL     OW33496   2.868   1.103  12.454
 1001SOL    HW133497   2.778   1.127  12.476
 1001SOL    HW233498   2.860   1.032  12.391
 1002SOL     OW33499   2.835   2.937  12.438
 1002SOL    HW133500   2.744   2.946  12.467
 1002SOL    HW233501   2.834   2.860  12.381
 1003SOL     OW33502   2.859   4.871  12.431
 1003SOL    HW133503   2.764   4.876  12.442
 1003SOL    HW233504   2.874   4.792  12.380
 1004SOL     OW33505   4.727   1.112  12.438
 1004SOL    HW133506   4.637   1.128  12.467
 1004SOL    HW233507   4.720   1.034  12.382
 1005SOL     OW33508   4.719   2.967  12.435
 1005SOL    HW133509   4.628   2.976  12.463
 1005SOL    HW233510   4.720   2.890  12.380
 1006SOL     OW33511   4.730   4.839  12.426
 1006SOL    HW133512   4.641   4.851  12.460
 1006SOL    HW233513   4.724   4.760  12.373
 1007SOL     OW33514   0.699   1.690  12.474
 1007SOL    HW133515   0.628   1.754  12.473
 1007SOL    HW233516   0.774   1.738  12.439
 1008SOL     OW33517   0.694   3.535  12.454
 1008SOL    HW133518   0.643   3.610  12.424
 1008SOL    HW233519   0.784   3.554  12.426
 1009SOL     OW33520   0.712   5.385  12.474
 1009SOL    HW133521   0.648   5.456  12.474
 1009SOL    HW233522   0.775   5.410  12.406
 1010SOL     OW33523   2.555   1.675  12.457
 1010SOL    HW133524   2.504   1.756  12.457
 1010SOL    HW233525   2.644   1.701  12.435
 1011SOL     OW33526   2.500   3.480  12.620
 1011SOL    HW133527   2.429   3.543  12.609
 1011SOL    HW233528   2.580   3.531  12.611
 1012SOL     OW33529   2.551   5.402  12.465
 1012SOL    HW133530   2.486   5.472  12.459
 1012SOL    HW233531   2.635   5.444  12.444
 1013SOL     OW33532   4.422   1.674  12.464
 1013SOL    HW133533   4.360   1.747  12.457
 1013SOL    HW233534   4.505   1.711  12.432
 1014SOL     OW33535   4.451   3.558  12.432
 1014SOL    HW133536   4.392   3.553  12.357
 1014SOL    HW233537   4.537   3.533  12.398
 1015SOL     OW33538   4.369   5.402  12.410
 1015SOL    HW133539   4.338   5.478  12.458
 1015SOL    HW233540   4.463   5.400  12.428
 1016SOL     OW33541   6.335   1.662  12.361
 1016SOL    HW133542   6.281   1.711  12.423
 1016SOL    HW233543   6.292   1.674  12.276
 1017SOL     OW33544   6.282   3.549  12.418
 1017SOL    HW133545   6.232   3.628  12.441
 1017SOL    HW233546   6.262   3.534  12.326
 1018SOL     OW33547   6.264   5.400  12.433
 1018SOL    HW133548   6.216   5.479  12.458
 1018SOL    HW233549   6.274   5.407  12.338
 1019SOL     OW33550   0.950   0.510   0.432
 1019SOL    HW133551   0.915   0.502   0.343
 1019SOL    HW233552   0.947   0.421   0.467
 1020SOL     OW33553   0.958   2.390   0.418
 1020SOL    HW133554   0.915   2.376   0.333
 1020SOL    HW233555   0.975   2.302   0.451
 1021SOL     OW33556   0.947   4.252   0.437
 1021SOL    HW133557   0.911   4.237   0.349
 1021SOL    HW233558   0.987   4.169   0.461
 1022SOL     OW33559   0.956   6.066   0.455
 1022SOL    HW133560   0.930   6.096   0.368
 1022SOL    HW233561   0.982   5.975   0.441
 1023SOL     OW33562   2.805   0.514   0.448
 1023SOL    HW133563   2.774   0.500   0.358
 1023SOL    HW233564   2.831   0.427   0.477
 1024SOL     OW33565   2.805   2.373   0.436
 1024SOL    HW133566   2.771   2.363   0.347
 1024SOL    HW233567   2.839   2.286   0.458
 1025SOL     OW33568   2.745   4.357   0.537
 1025SOL    HW133569   2.673   4.315   0.490
 1025SOL    HW233570   2.791   4.285   0.580
 1026SOL     OW33571   2.804   6.088   0.420
 1026SOL    HW133572   2.777   6.081   0.328
 1026SOL    HW233573   2.846   6.003   0.438
 1027SOL     OW33574   4.668   0.510   0.440
 1027SOL    HW133575   4.634   0.502   0.351
 1027SOL    HW233576   4.688   0.420   0.467
 1028SOL     OW33577   4.667   2.379   0.440
 1028SOL    HW133578   4.633   2.371   0.351
 1028SOL    HW233579   4.703   2.293   0.461
 1029SOL     OW33580   4.665   4.227   0.443
 1029SOL    HW133581   4.640   4.228   0.350
 1029SOL    HW233582   4.672   4.134   0.464
 1030SOL     OW33583   4.664   6.085   0.414
 1030SOL    HW133584   4.635   6.076   0.323
 1030SOL    HW233585   4.698   5.999   0.437
 1031SOL     OW33586   0.071   0.580   0.373
 1031SOL    HW133587   0.040   0.524   0.301
 1031SOL    HW233588   0.065   0.525   0.451
 1032SOL     OW33589   6.440   2.399   0.397
 1032SOL    HW133590   6.439   2.368   0.306
 1032SOL    HW233591   0.065   2.354   0.437
 1033SOL     OW33592   0.094   6.054   0.400
 1033SOL    HW133593   0.052   6.045   0.315
 1033SOL    HW233594   0.093   5.966   0.437
 1034SOL     OW33595   0.746   0.548  12.390
 1034SOL    HW133596   0.742   0.599  12.471
 1034SOL    HW233597   0.752   0.457  12.420
 1035SOL     OW33598   0.739   2.392  12.398
 1035SOL    HW133599   0.782   2.436  12.471
 1035SOL    HW233600   0.741   2.299  12.422
 1036SOL     OW33601   0.720   4.269  12.393
 1036SOL    HW133602   0.764   4.337  12.445
 1036SOL    HW233603   0.750   4.187  12.431
 1037SOL     OW33604   0.761   6.106  12.397
 1037SOL    HW133605   0.686   6.124  12.455
 1037SOL    HW233606   0.785   6.015  12.415
 1038SOL     OW33607   2.593   0.547  12.389
 1038SOL    HW133608   2.637   0.614  12.442
 1038SOL    HW233609   2.614   0.464  12.432
 1039SOL     OW33610   2.610   2.380  12.380
 1039SOL    HW133611   2.637   2.447  12.443
 1039SOL    HW233612   2.620   2.298  12.427
 1040SOL     OW33613   2.503   4.391  12.411
 1040SOL    HW133614   2.486   4.431  12.496
 1040SOL    HW233615   2.598   4.376  12.410
 1041SOL     OW33616   2.604   6.100  12.398
 1041SOL    HW133617   2.573   6.135  12.481
 1041SOL    HW233618   2.624   6.008  12.416
 1042SOL     OW33619   4.450   0.558  12.409
 1042SOL    HW133620   4.503   0.619  12.460
 1042SOL    HW233621   4.476   0.472  12.441
 1043SOL     OW33622   4.458   2.410  12.398
 1043SOL    HW133623   4.510   2.462  12.459
 1043SOL    HW233624   4.477   2.319  12.421
 1044SOL     OW33625   4.432   4.304  12.393
 1044SOL    HW133626   4.487   4.368  12.437
 1044SOL    HW233627   4.414   4.238  12.460
 1045SOL     OW33628   6.285   2.434  12.430
 1045SOL    HW133629   6.339   2.486  12.490
 1045SOL    HW233630   6.347   2.374  12.389
 1046SOL     OW33631   6.288   4.294  12.430
 1046SOL    HW133632   6.336   4.359  12.481
 1046SOL    HW233633   6.357   4.242  12.388
 1047SOL     OW33634   6.320   6.129  12.456
 1047SOL    HW133635   6.267   6.162  12.529
 1047SOL    HW233636   6.256   6.104  12.390
 1048SOL     OW33637   0.956   1.712   0.392
 1048SOL    HW133638   1.015   1.650   0.437
 1048SOL    HW233639   0.915   1.660   0.324
 1049SOL     OW33640   1.009   3.567   0.377
 1049SOL    HW133641   0.968   3.568   0.464
 1049SOL    HW233642   0.950   3.515   0.323
 1050SOL     OW33643   0.977   5.410   0.376
 1050SOL    HW133644   0.968   5.353   0.453
 1050SOL    HW233645   0.921   5.369   0.310
 1051SOL     OW33646   2.824   1.718   0.420
 1051SOL    HW133647   2.908   1.682   0.449
 1051SOL    HW233648   2.792   1.655   0.355
 1052SOL     OW33649   2.826   3.383   0.485
 1052SOL    HW133650   2.901   3.326   0.468
 1052SOL    HW233651   2.754   3.341   0.439
 1053SOL     OW33652   2.810   5.436   0.423
 1053SOL    HW133653   2.891   5.395   0.451
 1053SOL    HW233654   2.777   5.378   0.353
 1054SOL     OW33655   4.674   1.709   0.416
 1054SOL    HW133656   4.744   1.651   0.446
 1054SOL    HW233657   4.635   1.663   0.342
 1055SOL     OW33658   4.697   3.562   0.416
 1055SOL    HW133659   4.719   3.502   0.487
 1055SOL    HW233660   4.661   3.506   0.347
 1056SOL     OW33661   4.674   5.429   0.417
 1056SOL    HW133662   4.753   5.379   0.436
 1056SOL    HW233663   4.635   5.386   0.341
 1057SOL     OW33664   0.989   1.564  12.408
 1057SOL    HW133665   0.963   1.610  12.329
 1057SOL    HW233666   1.046   1.493  12.377
 1058SOL     OW33667   0.970   3.426  12.414
 1058SOL    HW133668   0.965   3.471  12.330
 1058SOL    HW233669   1.025   3.349  12.396
 1059SOL     OW33670   1.018   5.306  12.410
 1059SOL    HW133671   0.985   5.343  12.329
 1059SOL    HW233672   1.047   5.218  12.386
 1060SOL     OW33673   2.850   1.563  12.417
 1060SOL    HW133674   2.826   1.608  12.336
 1060SOL    HW233675   2.906   1.491  12.389
 1061SOL     OW33676   2.827   3.187  12.553
 1061SOL    HW133677   2.893   3.246  12.518
 1061SOL    HW233678   2.845   3.103  12.511
 1062SOL     OW33679   2.856   5.285  12.412
 1062SOL    HW133680   2.831   5.318  12.326
 1062SOL    HW233681   2.916   5.213  12.395
 1063SOL     OW33682   4.712   1.561  12.414
 1063SOL    HW133683   4.693   1.606  12.332
 1063SOL    HW233684   4.768   1.488  12.388
 1064SOL     OW33685   4.701   3.425  12.415
 1064SOL    HW133686   4.701   3.471  12.331
 1064SOL    HW233687   4.758   3.349  12.401
 1065SOL     OW33688   0.515   1.579   0.434
 1065SOL    HW133689   0.584   1.642   0.454
 1065SOL    HW233690   0.550   1.528   0.361
 1066SOL     OW33691   0.517   3.459   0.437
 1066SOL    HW133692   0.592   3.517   0.453
 1066SOL    HW233693   0.550   3.394   0.375
 1067SOL     OW33694   0.524   5.309   0.438
 1067SOL    HW133695   0.598   5.369   0.454
 1067SOL    HW233696   0.554   5.254   0.365
 1068SOL     OW33697   2.366   1.579   0.426
 1068SOL    HW133698   2.435   1.642   0.443
 1068SOL    HW233699   2.401   1.523   0.356
 1069SOL     OW33700   2.294   3.396   0.341
 1069SOL    HW133701   2.344   3.407   0.422
 1069SOL    HW233702   2.346   3.334   0.290
 1070SOL     OW33703   2.344   5.237   0.430
 1070SOL    HW133704   2.395   5.305   0.474
 1070SOL    HW233705   2.397   5.212   0.354
 1071SOL     OW33706   4.229   1.561   0.435
 1071SOL    HW133707   4.296   1.626   0.457
 1071SOL    HW233708   4.263   1.516   0.358
 1072SOL     OW33709   4.224   3.417   0.428
 1072SOL    HW133710   4.296   3.470   0.463
 1072SOL    HW233711   4.264   3.368   0.356
 1073SOL     OW33712   4.202   5.231   0.428
 1073SOL    HW133713   4.250   5.298   0.476
 1073SOL    HW233714   4.258   5.209   0.354
 1074SOL     OW33715   6.086   1.596   0.404
 1074SOL    HW133716   6.162   1.622   0.457
 1074SOL    HW233717   6.120   1.531   0.343
 1075SOL     OW33718   6.073   3.460   0.450
 1075SOL    HW133719   6.151   3.505   0.482
 1075SOL    HW233720   6.104   3.405   0.378
 1076SOL     OW33721   6.085   5.304   0.425
 1076SOL    HW133722   6.156   5.359   0.458
 1076SOL    HW233723   6.127   5.249   0.359
 1077SOL     OW33724   1.151   1.345  12.380
 1077SOL    HW133725   1.178   1.337  12.471
 1077SOL    HW233726   1.096   1.268  12.365
 1078SOL     OW33727   1.133   3.206  12.391
 1078SOL    HW133728   1.175   3.220  12.475
 1078SOL    HW233729   1.094   3.119  12.397
 1079SOL     OW33730   1.190   5.070  12.401
 1079SOL    HW133731   1.185   5.069  12.497
 1079SOL    HW233732   1.142   4.991  12.375
 1080SOL     OW33733   3.015   1.345  12.396
 1080SOL    HW133734   3.043   1.344  12.488
 1080SOL    HW233735   2.976   1.258  12.382
 1081SOL     OW33736   3.068   3.065  12.357
 1081SOL    HW133737   3.126   3.053  12.432
 1081SOL    HW233738   2.988   3.017  12.381
 1082SOL     OW33739   3.033   5.076  12.387
 1082SOL    HW133740   3.117   5.035  12.370
 1082SOL    HW233741   2.972   5.003  12.399
 1083SOL     OW33742   4.874   1.343  12.388
 1083SOL    HW133743   4.915   1.340  12.475
 1083SOL    HW233744   4.829   1.260  12.380
 1084SOL     OW33745   4.851   3.204  12.400
 1084SOL    HW133746   4.942   3.177  12.406
 1084SOL    HW233747   4.801   3.122  12.405
 1085SOL     OW33748   4.906   5.051  12.393
 1085SOL    HW133749   4.913   5.064  12.487
 1085SOL    HW233750   4.849   4.975  12.384
 1086SOL     OW33751   0.843   1.373   0.476
 1086SOL    HW133752   0.932   1.373   0.441
 1086SOL    HW233753   0.789   1.408   0.406
 1087SOL     OW33754   0.847   3.234   0.481
 1087SOL    HW133755   0.936   3.242   0.447
 1087SOL    HW233756   0.790   3.263   0.409
 1088SOL     OW33757   0.847   5.104   0.481
 1088SOL    HW133758   0.931   5.094   0.436
 1088SOL    HW233759   0.783   5.106   0.410
 1089SOL     OW33760   2.698   1.375   0.470
 1089SOL    HW133761   2.743   1.412   0.395
 1089SOL    HW233762   2.606   1.398   0.457
 1090SOL     OW33763   2.659   3.158   0.431
 1090SOL    HW133764   2.744   3.139   0.393
 1090SOL    HW233765   2.599   3.158   0.356
 1091SOL     OW33766   2.718   5.132   0.476
 1091SOL    HW133767   2.807   5.112   0.447
 1091SOL    HW233768   2.676   5.171   0.399
 1092SOL     OW33769   4.569   1.382   0.494
 1092SOL    HW133770   4.654   1.375   0.451
 1092SOL    HW233771   4.506   1.384   0.422
 1093SOL     OW33772   4.555   3.246   0.474
 1093SOL    HW133773   4.577   3.279   0.387
 1093SOL    HW233774   4.460   3.260   0.482
 1094SOL     OW33775   4.563   5.099   0.488
 1094SOL    HW133776   4.654   5.092   0.460
 1094SOL    HW233777   4.515   5.120   0.407
 1095SOL     OW33778   6.400   1.329   0.404
 1095SOL    HW133779   0.027   1.386   0.395
 1095SOL    HW233780   6.334   1.372   0.349
 1096SOL     OW33781   6.424   3.159   0.409
 1096SOL    HW133782   0.027   3.239   0.407
 1096SOL    HW233783   6.343   3.183   0.364
 1097SOL     OW33784   6.415   5.045   0.377
 1097SOL    HW133785   0.020   5.123   0.383
 1097SOL    HW233786   6.332   5.076   0.342
 1098SOL     OW33787   0.091   1.753   0.433
 1098SOL    HW133788   0.072   1.699   0.356
 1098SOL    HW233789   0.182   1.779   0.422
 1099SOL     OW33790   0.094   3.657   0.429
 1099SOL    HW133791   0.060   3.591   0.367
 1099SOL    HW233792   0.188   3.657   0.414
 1100SOL     OW33793   0.098   5.500   0.446
 1100SOL    HW133794   0.067   5.440   0.379
 1100SOL    HW233795   0.191   5.513   0.425
 1101SOL     OW33796   1.959   1.774   0.462
 1101SOL    HW133797   1.955   1.723   0.381
 1101SOL    HW233798   2.051   1.797   0.472
 1102SOL     OW33799   1.925   3.655   0.324
 1102SOL    HW133800   1.899   3.564   0.341
 1102SOL    HW233801   2.015   3.648   0.290
 1103SOL     OW33802   1.984   5.495   0.489
 1103SOL    HW133803   1.950   5.420   0.441
 1103SOL    HW233804   2.066   5.517   0.446
 1104SOL     OW33805   3.850   1.772   0.505
 1104SOL    HW133806   3.811   1.700   0.456
 1104SOL    HW233807   3.928   1.796   0.455
 1105SOL     OW33808   3.838   3.635   0.435
 1105SOL    HW133809   3.803   3.561   0.385
 1105SOL    HW233810   3.928   3.644   0.403
 1106SOL     OW33811   3.843   5.489   0.492
 1106SOL    HW133812   3.816   5.410   0.445
 1106SOL    HW233813   3.926   5.513   0.451
 1107SOL     OW33814   5.726   1.768   0.482
 1107SOL    HW133815   5.684   1.688   0.449
 1107SOL    HW233816   5.756   1.813   0.404
 1108SOL     OW33817   5.696   3.646   0.487
 1108SOL    HW133818   5.661   3.569   0.442
 1108SOL    HW233819   5.781   3.662   0.444
 1109SOL     OW33820   5.706   5.502   0.484
 1109SOL    HW133821   5.673   5.421   0.445
 1109SOL    HW233822   5.790   5.517   0.442
 1110SOL     OW33823   1.162   0.391  12.379
 1110SOL    HW133824   1.108   0.449  12.432
 1110SOL    HW233825   1.244   0.438  12.367
 1111SOL     OW33826   1.170   2.225  12.390
 1111SOL    HW133827   1.112   2.283  12.440
 1111SOL    HW233828   1.253   2.272  12.384
 1112SOL     OW33829   1.145   4.095  12.382
 1112SOL    HW133830   1.100   4.157  12.440
 1112SOL    HW233831   1.236   4.125  12.381
 1113SOL     OW33832   1.141   5.957  12.370
 1113SOL    HW133833   1.091   6.007  12.435
 1113SOL    HW233834   1.230   5.991  12.376
 1114SOL     OW33835   3.023   0.414  12.366
 1114SOL    HW133836   2.966   0.452  12.434
 1114SOL    HW233837   3.111   0.439  12.393
 1115SOL     OW33838   3.021   2.242  12.370
 1115SOL    HW133839   2.974   2.298  12.432
 1115SOL    HW233840   3.110   2.276  12.369
 1116SOL     OW33841   2.768   4.310  12.387
 1116SOL    HW133842   2.798   4.318  12.477
 1116SOL    HW233843   2.831   4.359  12.335
 1117SOL     OW33844   3.032   5.930  12.410
 1117SOL    HW133845   2.975   5.994  12.452
 1117SOL    HW233846   3.113   5.979  12.392
 1118SOL     OW33847   4.874   0.372  12.384
 1118SOL    HW133848   4.824   0.425  12.447
 1118SOL    HW233849   4.961   0.412  12.384
 1119SOL     OW33850   4.878   2.220  12.392
 1119SOL    HW133851   4.828   2.279  12.448
 1119SOL    HW233852   4.960   2.266  12.374
 1120SOL     OW33853   4.871   4.088  12.389
 1120SOL    HW133854   4.829   4.149  12.450
 1120SOL    HW233855   4.959   4.122  12.378
 1121SOL     OW33856   4.877   5.949  12.392
 1121SOL    HW133857   4.825   6.004  12.451
 1121SOL    HW233858   4.960   5.996  12.383
 1122SOL     OW33859   1.407   0.512  12.375
 1122SOL    HW133860   1.420   0.558  12.458
 1122SOL    HW233861   1.446   0.426  12.389
 1123SOL     OW33862   1.394   4.225  12.383
 1123SOL    HW133863   1.400   4.264  12.470
 1123SOL    HW233864   1.432   4.137  12.394
 1124SOL     OW33865   1.387   6.073  12.386
 1124SOL    HW133866   1.400   6.124  12.466
 1124SOL    HW233867   1.448   5.999  12.394
 1125SOL     OW33868   3.304   0.496  12.345
 1125SOL    HW133869   3.287   0.537  12.430
 1125SOL    HW233870   3.335   0.408  12.367
 1126SOL     OW33871   3.285   2.337  12.373
 1126SOL    HW133872   3.279   2.375  12.461
 1126SOL    HW233873   3.315   2.248  12.388
 1127SOL     OW33874   3.438   4.068  12.409
 1127SOL    HW133875   3.424   4.064  12.504
 1127SOL    HW233876   3.532   4.051  12.398
 1128SOL     OW33877   3.273   6.048  12.418
 1128SOL    HW133878   3.245   6.100  12.492
 1128SOL    HW233879   3.368   6.059  12.415
 1129SOL     OW33880   5.122   0.487  12.397
 1129SOL    HW133881   5.139   0.534  12.479
 1129SOL    HW233882   5.170   0.405  12.406
 1130SOL     OW33883   5.123   2.341  12.378
 1130SOL    HW133884   5.131   2.384  12.463
 1130SOL    HW233885   5.177   2.262  12.386
 1131SOL     OW33886   5.125   4.185  12.380
 1131SOL    HW133887   5.129   4.223  12.468
 1131SOL    HW233888   5.178   4.106  12.386
 1132SOL     OW33889   5.121   6.075  12.392
 1132SOL    HW133890   5.133   6.120  12.475
 1132SOL    HW233891   5.170   5.993  12.402
 1133SOL     OW33892   1.643   0.804  12.413
 1133SOL    HW133893   1.554   0.834  12.392
 1133SOL    HW233894   1.696   0.833  12.339
 1134SOL     OW33895   1.639   2.659  12.419
 1134SOL    HW133896   1.577   2.592  12.392
 1134SOL    HW233897   1.682   2.688  12.338
 1135SOL     OW33898   1.648   4.516  12.403
 1135SOL    HW133899   1.559   4.541  12.379
 1135SOL    HW233900   1.703   4.548  12.331
 1136SOL     OW33901   1.623   6.377  12.346
 1136SOL    HW133902   1.545   6.346  12.300
 1136SOL    HW233903   1.650   0.005  12.298
 1137SOL     OW33904   3.509   0.788  12.415
 1137SOL    HW133905   3.418   0.815  12.402
 1137SOL    HW233906   3.554   0.819  12.336
 1138SOL     OW33907   3.494   2.638  12.397
 1138SOL    HW133908   3.411   2.684  12.410
 1138SOL    HW233909   3.542   2.693  12.336
 1139SOL     OW33910   3.489   4.718  12.429
 1139SOL    HW133911   3.427   4.785  12.402
 1139SOL    HW233912   3.550   4.711  12.355
 1140SOL     OW33913   3.477   6.374  12.341
 1140SOL    HW133914   3.405   6.353  12.281
 1140SOL    HW233915   3.519   0.001  12.303
 1141SOL     OW33916   5.367   0.810  12.408
 1141SOL    HW133917   5.279   0.842  12.387
 1141SOL    HW233918   5.422   0.839  12.335
 1142SOL     OW33919   5.375   2.651  12.410
 1142SOL    HW133920   5.287   2.687  12.401
 1142SOL    HW233921   5.425   2.690  12.338
 1143SOL     OW33922   5.378   4.513  12.408
 1143SOL    HW133923   5.289   4.548  12.402
 1143SOL    HW233924   5.423   4.549  12.332
 1144SOL     OW33925   5.337   6.367  12.351
 1144SOL    HW133926   5.260   6.338  12.301
 1144SOL    HW233927   5.365   6.447  12.306
 1145SOL     OW33928   1.261   0.400   0.476
 1145SOL    HW133929   1.180   0.348   0.478
 1145SOL    HW233930   1.328   0.340   0.510
 1146SOL     OW33931   1.301   2.234   0.482
 1146SOL    HW133932   1.210   2.207   0.486
 1146SOL    HW233933   1.347   2.174   0.540
 1147SOL     OW33934   1.304   4.132   0.509
 1147SOL    HW133935   1.218   4.099   0.482
 1147SOL    HW233936   1.345   4.057   0.553
 1148SOL     OW33937   1.295   5.967   0.475
 1148SOL    HW133938   1.206   5.935   0.479
 1148SOL    HW233939   1.345   5.908   0.531
 1149SOL     OW33940   3.151   0.320   0.439
 1149SOL    HW133941   3.067   0.322   0.485
 1149SOL    HW233942   3.201   0.392   0.477
 1150SOL     OW33943   3.176   2.242   0.467
 1150SOL    HW133944   3.087   2.211   0.486
 1150SOL    HW233945   3.233   2.185   0.518
 1151SOL     OW33946   3.114   4.181   0.277
 1151SOL    HW133947   3.037   4.187   0.334
 1151SOL    HW233948   3.184   4.150   0.335
 1152SOL     OW33949   3.174   5.951   0.487
 1152SOL    HW133950   3.085   5.926   0.509
 1152SOL    HW233951   3.229   5.898   0.544
 1153SOL     OW33952   5.016   0.380   0.480
 1153SOL    HW133953   4.925   0.350   0.477
 1153SOL    HW233954   5.058   0.322   0.543
 1154SOL     OW33955   5.039   2.243   0.476
 1154SOL    HW133956   4.952   2.208   0.494
 1154SOL    HW233957   5.096   2.166   0.471
 1155SOL     OW33958   5.019   4.101   0.471
 1155SOL    HW133959   4.942   4.151   0.498
 1155SOL    HW233960   4.987   4.011   0.464
 1156SOL     OW33961   5.014   5.956   0.471
 1156SOL    HW133962   4.924   5.923   0.480
 1156SOL    HW233963   5.066   5.899   0.527
 1157SOL     OW33964   0.323   0.805   0.489
 1157SOL    HW133965   0.419   0.805   0.487
 1157SOL    HW233966   0.299   0.712   0.497
 1158SOL     OW33967   0.333   2.658   0.488
 1158SOL    HW133968   0.426   2.681   0.489
 1158SOL    HW233969   0.332   2.565   0.513
 1159SOL     OW33970   0.332   4.524   0.461
 1159SOL    HW133971   0.426   4.525   0.446
 1159SOL    HW233972   0.313   4.435   0.491
 1160SOL     OW33973   0.303   6.396   0.477
 1160SOL    HW133974   0.377   6.433   0.430
 1160SOL    HW233975   0.329   6.306   0.495
 1161SOL     OW33976   2.164   0.794   0.461
 1161SOL    HW133977   2.250   0.828   0.487
 1161SOL    HW233978   2.167   0.701   0.483
 1162SOL     OW33979   2.166   2.679   0.469
 1162SOL    HW133980   2.256   2.707   0.485
 1162SOL    HW233981   2.165   2.586   0.494
 1163SOL     OW33982   2.164   4.572   0.513
 1163SOL    HW133983   2.245   4.531   0.483
 1163SOL    HW233984   2.098   4.545   0.449
 1164SOL     OW33985   2.167   6.413   0.484
 1164SOL    HW133986   2.227   0.038   0.487
 1164SOL    HW233987   2.188   6.369   0.402
 1165SOL     OW33988   4.046   0.813   0.463
 1165SOL    HW133989   4.139   0.831   0.477
 1165SOL    HW233990   4.034   0.724   0.497
 1166SOL     OW33991   4.047   2.678   0.462
 1166SOL    HW133992   4.137   2.699   0.484
 1166SOL    HW233993   4.035   2.589   0.492
 1167SOL     OW33994   4.044   4.534   0.456
 1167SOL    HW133995   4.135   4.558   0.472
 1167SOL    HW233996   4.039   4.441   0.480
 1168SOL     OW33997   4.053   6.383   0.438
 1168SOL    HW133998   4.077   6.436   0.514
 1168SOL    HW233999   4.041   6.295   0.473
 1169SOL     OW34000   5.900   2.690   0.466
 1169SOL    HW134001   5.993   2.714   0.460
 1169SOL    HW234002   5.901   2.597   0.490
 1170SOL     OW34003   5.911   4.554   0.474
 1170SOL    HW134004   6.000   4.582   0.494
 1170SOL    HW234005   5.909   4.461   0.497
 1171SOL     OW34006   5.898   6.379   0.443
 1171SOL    HW134007   5.950   6.429   0.505
 1171SOL    HW234008   5.901   6.289   0.475
 1172SOL     OW34009   1.398   0.926  12.360
 1172SOL    HW134010   1.426   1.017  12.347
 1172SOL    HW234011   1.386   0.891  12.271
 1173SOL     OW34012   1.375   2.825  12.360
 1173SOL    HW134013   1.417   2.905  12.325
 1173SOL    HW234014   1.376   2.764  12.286
 1174SOL     OW34015   1.407   4.659  12.351
 1174SOL    HW134016   1.443   4.746  12.331
 1174SOL    HW234017   1.390   4.620  12.266
 1175SOL     OW34018   3.268   0.915  12.357
 1175SOL    HW134019   3.290   1.008  12.352
 1175SOL    HW234020   3.257   0.888  12.266
 1176SOL     OW34021   3.237   2.738  12.368
 1176SOL    HW134022   3.271   2.827  12.365
 1176SOL    HW234023   3.240   2.707  12.277
 1177SOL     OW34024   3.197   4.675  12.369
 1177SOL    HW134025   3.196   4.771  12.375
 1177SOL    HW234026   3.229   4.657  12.281
 1178SOL     OW34027   5.121   0.930  12.364
 1178SOL    HW134028   5.141   1.023  12.356
 1178SOL    HW234029   5.117   0.898  12.274
 1179SOL     OW34030   5.133   2.778  12.374
 1179SOL    HW134031   5.137   2.873  12.380
 1179SOL    HW234032   5.126   2.760  12.280
 1180SOL     OW34033   5.150   4.646  12.347
 1180SOL    HW134034   5.156   4.742  12.343
 1180SOL    HW234035   5.131   4.620  12.257
 1181SOL     OW34036   1.489   1.406   0.502
 1181SOL    HW134037   1.417   1.430   0.560
 1181SOL    HW234038   1.470   1.316   0.476
 1182SOL     OW34039   0.693   1.775   0.470
 1182SOL    HW134040   0.656   1.862   0.455
 1182SOL    HW234041   0.782   1.780   0.436
 1183SOL     OW34042   1.488   3.259   0.482
 1183SOL    HW134043   1.419   3.295   0.538
 1183SOL    HW234044   1.453   3.176   0.450
 1184SOL     OW34045   0.702   3.653   0.461
 1184SOL    HW134046   0.659   3.737   0.442
 1184SOL    HW234047   0.769   3.675   0.525
 1185SOL     OW34048   1.506   5.113   0.496
 1185SOL    HW134049   1.430   5.141   0.547
 1185SOL    HW234050   1.478   5.032   0.455
 1186SOL     OW34051   0.708   5.507   0.472
 1186SOL    HW134052   0.658   5.589   0.463
 1186SOL    HW234053   0.785   5.521   0.418
 1187SOL     OW34054   3.341   1.406   0.486
 1187SOL    HW134055   3.285   1.425   0.561
 1187SOL    HW234056   3.347   1.310   0.483
 1188SOL     OW34057   2.549   1.768   0.462
 1188SOL    HW134058   2.518   1.858   0.453
 1188SOL    HW234059   2.644   1.774   0.455
 1189SOL     OW34060   3.365   3.252   0.496
 1189SOL    HW134061   3.314   3.248   0.577
 1189SOL    HW234062   3.357   3.164   0.459
 1190SOL     OW34063   2.418   3.411   0.577
 1190SOL    HW134064   2.415   3.485   0.637
 1190SOL    HW234065   2.449   3.338   0.630
 1191SOL     OW34066   3.342   5.140   0.507
 1191SOL    HW134067   3.271   5.161   0.567
 1191SOL    HW234068   3.323   5.051   0.478
 1192SOL     OW34069   2.510   5.470   0.460
 1192SOL    HW134070   2.492   5.564   0.461
 1192SOL    HW234071   2.605   5.464   0.461
 1193SOL     OW34072   5.151   1.399   0.528
 1193SOL    HW134073   5.110   1.455   0.462
 1193SOL    HW234074   5.164   1.315   0.483
 1194SOL     OW34075   4.401   1.764   0.476
 1194SOL    HW134076   4.375   1.855   0.460
 1194SOL    HW234077   4.494   1.762   0.455
 1195SOL     OW34078   5.215   3.277   0.483
 1195SOL    HW134079   5.151   3.295   0.552
 1195SOL    HW234080   5.202   3.184   0.462
 1196SOL     OW34081   4.429   3.580   0.492
 1196SOL    HW134082   4.393   3.667   0.481
 1196SOL    HW234083   4.521   3.589   0.466
 1197SOL     OW34084   5.205   5.130   0.480
 1197SOL    HW134085   5.140   5.158   0.545
 1197SOL    HW234086   5.182   5.039   0.460
 1198SOL     OW34087   4.371   5.465   0.462
 1198SOL    HW134088   4.355   5.560   0.460
 1198SOL    HW234089   4.466   5.457   0.456
 1199SOL     OW34090   6.274   1.801   0.463
 1199SOL    HW134091   6.272   1.890   0.497
 1199SOL    HW234092   6.367   1.778   0.460
 1200SOL     OW34093   6.268   3.659   0.500
 1200SOL    HW134094   6.242   3.738   0.452
 1200SOL    HW234095   6.362   3.651   0.485
 1201SOL     OW34096   6.268   5.504   0.478
 1201SOL    HW134097   6.237   5.591   0.453
 1201SOL    HW234098   6.364   5.511   0.474
 1202SOL     OW34099   1.427   3.639   0.426
 1202SOL    HW134100   1.454   3.720   0.384
 1202SOL    HW234101   1.499   3.617   0.486
 1203SOL     OW34102   1.508   5.529   0.542
 1203SOL    HW134103   1.533   5.599   0.481
 1203SOL    HW234104   1.591   5.488   0.567
 1204SOL     OW34105   3.349   1.795   0.552
 1204SOL    HW134106   3.364   1.842   0.470
 1204SOL    HW234107   3.436   1.766   0.579
 1205SOL     OW34108   3.555   3.688   0.274
 1205SOL    HW134109   3.568   3.759   0.211
 1205SOL    HW234110   3.526   3.731   0.354
 1206SOL     OW34111   3.373   5.470   0.488
 1206SOL    HW134112   3.378   5.557   0.449
 1206SOL    HW234113   3.408   5.482   0.577
 1207SOL     OW34114   5.221   1.731   0.508
 1207SOL    HW134115   5.226   1.816   0.464
 1207SOL    HW234116   5.297   1.730   0.567
 1208SOL     OW34117   5.231   3.689   0.557
 1208SOL    HW134118   5.257   3.756   0.494
 1208SOL    HW234119   5.302   3.625   0.554
 1209SOL     OW34120   5.222   5.534   0.536
 1209SOL    HW134121   5.250   5.594   0.467
 1209SOL    HW234122   5.304   5.502   0.574
 1210SOL     OW34123   1.869   0.104   0.503
 1210SOL    HW134124   1.915   0.054   0.434
 1210SOL    HW234125   1.785   0.126   0.464
 1211SOL     OW34126   1.857   2.028   0.479
 1211SOL    HW134127   1.927   1.969   0.451
 1211SOL    HW234128   1.853   2.095   0.410
 1212SOL     OW34129   1.824   3.874   0.446
 1212SOL    HW134130   1.858   3.796   0.402
 1212SOL    HW234131   1.732   3.877   0.422
 1213SOL     OW34132   1.847   5.735   0.508
 1213SOL    HW134133   1.887   5.654   0.476
 1213SOL    HW234134   1.765   5.743   0.458
 1214SOL     OW34135   3.724   0.127   0.499
 1214SOL    HW134136   3.750   0.054   0.444
 1214SOL    HW234137   3.636   0.150   0.469
 1215SOL     OW34138   3.706   2.020   0.492
 1215SOL    HW134139   3.745   1.937   0.465
 1215SOL    HW234140   3.629   2.029   0.437
 1216SOL     OW34141   3.740   3.865   0.533
 1216SOL    HW134142   3.776   3.783   0.500
 1216SOL    HW234143   3.653   3.871   0.495
 1217SOL     OW34144   3.722   5.740   0.495
 1217SOL    HW134145   3.754   5.651   0.480
 1217SOL    HW234146   3.639   5.744   0.447
 1218SOL     OW34147   5.609   0.120   0.498
 1218SOL    HW134148   5.642   0.057   0.434
 1218SOL    HW234149   5.524   0.146   0.464
 1219SOL     OW34150   5.589   2.032   0.502
 1219SOL    HW134151   5.607   1.943   0.471
 1219SOL    HW234152   5.503   2.053   0.465
 1220SOL     OW34153   5.571   3.889   0.494
 1220SOL    HW134154   5.607   3.804   0.472
 1220SOL    HW234155   5.485   3.891   0.451
 1221SOL     OW34156   5.583   5.747   0.491
 1221SOL    HW134157   5.617   5.658   0.475
 1221SOL    HW234158   5.494   5.745   0.456
 1222SOL     OW34159   1.072   2.617   0.522
 1222SOL    HW134160   1.032   2.630   0.608
 1222SOL    HW234161   1.032   2.537   0.489
 1223SOL     OW34162   1.043   4.491   0.523
 1223SOL    HW134163   1.022   4.493   0.616
 1223SOL    HW234164   1.021   4.402   0.495
 1224SOL     OW34165   2.901   0.764   0.494
 1224SOL    HW134166   2.884   0.774   0.587
 1224SOL    HW234167   2.876   0.673   0.474
 1225SOL     OW34168   2.925   2.608   0.487
 1225SOL    HW134169   2.902   2.627   0.578
 1225SOL    HW234170   2.890   2.520   0.472
 1226SOL     OW34171   2.907   4.567   0.495
 1226SOL    HW134172   2.921   4.600   0.584
 1226SOL    HW234173   2.854   4.488   0.507
 1227SOL     OW34174   4.777   0.752   0.499
 1227SOL    HW134175   4.749   0.770   0.589
 1227SOL    HW234176   4.747   0.664   0.481
 1228SOL     OW34177   4.773   2.621   0.500
 1228SOL    HW134178   4.747   2.635   0.591
 1228SOL    HW234179   4.744   2.532   0.480
 1229SOL     OW34180   4.766   4.477   0.476
 1229SOL    HW134181   4.765   4.500   0.569
 1229SOL    HW234182   4.731   4.388   0.473
 1230SOL     OW34183   1.768   0.379  12.381
 1230SOL    HW134184   1.759   0.399  12.288
 1230SOL    HW234185   1.753   0.284  12.387
 1231SOL     OW34186   1.754   2.193  12.362
 1231SOL    HW134187   1.736   2.232  12.277
 1231SOL    HW234188   1.670   2.155  12.389
 1232SOL     OW34189   1.746   4.093  12.321
 1232SOL    HW134190   1.718   4.125  12.235
 1232SOL    HW234191   1.709   4.005  12.328
 1233SOL     OW34192   1.750   5.940  12.370
 1233SOL    HW134193   1.752   5.950  12.275
 1233SOL    HW234194   1.671   5.888  12.386
 1234SOL     OW34195   3.623   0.376  12.366
 1234SOL    HW134196   3.608   0.385  12.271
 1234SOL    HW234197   3.625   0.281  12.380
 1235SOL     OW34198   3.643   2.159  12.368
 1235SOL    HW134199   3.651   2.234  12.309
 1235SOL    HW234200   3.548   2.150  12.382
 1236SOL     OW34201   3.695   3.997  12.401
 1236SOL    HW134202   3.727   4.043  12.323
 1236SOL    HW234203   3.677   3.909  12.371
 1237SOL     OW34204   3.614   5.928  12.358
 1237SOL    HW134205   3.633   5.978  12.278
 1237SOL    HW234206   3.604   5.838  12.327
 1238SOL     OW34207   5.486   0.375  12.396
 1238SOL    HW134208   5.495   0.384  12.301
 1238SOL    HW234209   5.472   0.281  12.409
 1239SOL     OW34210   5.498   2.214  12.342
 1239SOL    HW134211   5.531   2.292  12.297
 1239SOL    HW234212   5.440   2.249  12.410
 1240SOL     OW34213   5.479   4.082  12.366
 1240SOL    HW134214   5.473   4.097  12.271
 1240SOL    HW234215   5.405   4.025  12.386
 1241SOL     OW34216   5.467   5.945  12.373
 1241SOL    HW134217   5.469   5.957  12.278
 1241SOL    HW234218   5.391   5.889  12.389
 1242SOL     OW34219   1.034   0.236   0.520
 1242SOL    HW134220   1.023   0.191   0.437
 1242SOL    HW234221   1.025   0.167   0.586
 1243SOL     OW34222   1.046   2.116   0.498
 1243SOL    HW134223   1.044   2.076   0.411
 1243SOL    HW234224   1.035   2.042   0.559
 1244SOL     OW34225   1.058   4.000   0.474
 1244SOL    HW134226   1.073   3.951   0.394
 1244SOL    HW234227   1.012   3.939   0.532
 1245SOL     OW34228   1.061   5.814   0.481
 1245SOL    HW134229   1.062   5.759   0.403
 1245SOL    HW234230   1.045   5.753   0.553
 1246SOL     OW34231   2.876   0.246   0.522
 1246SOL    HW134232   2.861   0.205   0.437
 1246SOL    HW234233   2.881   0.173   0.584
 1247SOL     OW34234   2.915   2.120   0.512
 1247SOL    HW134235   2.918   2.076   0.426
 1247SOL    HW234236   2.904   2.049   0.574
 1248SOL     OW34237   2.827   4.097   0.585
 1248SOL    HW134238   2.810   4.044   0.507
 1248SOL    HW234239   2.757   4.073   0.646
 1249SOL     OW34240   2.909   5.838   0.498
 1249SOL    HW134241   2.924   5.786   0.419
 1249SOL    HW234242   2.903   5.773   0.568
 1250SOL     OW34243   4.757   0.239   0.517
 1250SOL    HW134244   4.733   0.199   0.434
 1250SOL    HW234245   4.752   0.168   0.581
 1251SOL     OW34246   4.774   2.123   0.512
 1251SOL    HW134247   4.768   2.081   0.426
 1251SOL    HW234248   4.766   2.051   0.574
 1252SOL     OW34249   4.768   3.963   0.512
 1252SOL    HW134250   4.762   3.924   0.425
 1252SOL    HW234251   4.749   3.890   0.572
 1253SOL     OW34252   4.765   5.832   0.498
 1253SOL    HW134253   4.761   5.784   0.414
 1253SOL    HW234254   4.759   5.764   0.564
 1254SOL     OW34255   1.493   1.178  12.329
 1254SOL    HW134256   1.488   1.216  12.416
 1254SOL    HW234257   1.578   1.205  12.296
 1255SOL     OW34258   1.494   3.076  12.370
 1255SOL    HW134259   1.475   3.169  12.356
 1255SOL    HW234260   1.583   3.065  12.336
 1256SOL     OW34261   1.481   4.925  12.382
 1256SOL    HW134262   1.433   5.004  12.358
 1256SOL    HW234263   1.569   4.939  12.344
 1257SOL     OW34264   3.358   1.177  12.333
 1257SOL    HW134265   3.347   1.201  12.425
 1257SOL    HW234266   3.448   1.202  12.313
 1258SOL     OW34267   3.382   2.967  12.364
 1258SOL    HW134268   3.375   2.999  12.454
 1258SOL    HW234269   3.476   2.960  12.348
 1259SOL     OW34270   3.326   4.948  12.346
 1259SOL    HW134271   3.335   4.965  12.440
 1259SOL    HW234272   3.412   4.971  12.310
 1260SOL     OW34273   5.203   1.192  12.330
 1260SOL    HW134274   5.208   1.220  12.422
 1260SOL    HW234275   5.290   1.211  12.295
 1261SOL     OW34276   5.212   4.914  12.321
 1261SOL    HW134277   5.203   4.942  12.412
 1261SOL    HW234278   5.302   4.937  12.297
 1262SOL     OW34279   1.622   1.628  12.374
 1262SOL    HW134280   1.608   1.670  12.289
 1262SOL    HW234281   1.702   1.576  12.362
 1263SOL     OW34282   1.604   3.477  12.376
 1263SOL    HW134283   1.596   3.559  12.327
 1263SOL    HW234284   1.683   3.437  12.342
 1264SOL     OW34285   1.622   5.362  12.376
 1264SOL    HW134286   1.605   5.395  12.288
 1264SOL    HW234287   1.704   5.313  12.368
 1265SOL     OW34288   3.473   1.641  12.370
 1265SOL    HW134289   3.479   1.667  12.278
 1265SOL    HW234290   3.529   1.564  12.377
 1266SOL     OW34291   3.614   3.541  12.414
 1266SOL    HW134292   3.611   3.621  12.363
 1266SOL    HW234293   3.699   3.502  12.392
 1267SOL     OW34294   3.485   5.361  12.362
 1267SOL    HW134295   3.481   5.396  12.273
 1267SOL    HW234296   3.565   5.309  12.365
 1268SOL     OW34297   5.344   1.641  12.360
 1268SOL    HW134298   5.343   1.687  12.276
 1268SOL    HW234299   5.422   1.586  12.357
 1269SOL     OW34300   5.348   3.512  12.367
 1269SOL    HW134301   5.341   3.542  12.276
 1269SOL    HW234302   5.421   3.450  12.366
 1270SOL     OW34303   5.361   5.370  12.375
 1270SOL    HW134304   5.342   5.402  12.287
 1270SOL    HW234305   5.433   5.307  12.362
 1271SOL     OW34306   0.699   1.432  12.359
 1271SOL    HW134307   0.607   1.420  12.336
 1271SOL    HW234308   0.704   1.521  12.395
 1272SOL     OW34309   0.676   3.253  12.341
 1272SOL    HW134310   0.585   3.247  12.314
 1272SOL    HW234311   0.684   3.340  12.380
 1273SOL     OW34312   0.720   5.123  12.357
 1273SOL    HW134313   0.651   5.070  12.398
 1273SOL    HW234314   0.703   5.212  12.388
 1274SOL     OW34315   2.560   1.416  12.343
 1274SOL    HW134316   2.477   1.382  12.376
 1274SOL    HW234317   2.565   1.505  12.376
 1275SOL     OW34318   2.507   3.147  12.238
 1275SOL    HW134319   2.486   3.120  12.328
 1275SOL    HW234320   2.423   3.170  12.199
 1276SOL     OW34321   2.568   5.139  12.360
 1276SOL    HW134322   2.478   5.108  12.355
 1276SOL    HW234323   2.560   5.230  12.389
 1277SOL     OW34324   4.420   1.420  12.336
 1277SOL    HW134325   4.343   1.387  12.381
 1277SOL    HW234326   4.432   1.509  12.369
 1278SOL     OW34327   4.418   3.277  12.317
 1278SOL    HW134328   4.346   3.233  12.363
 1278SOL    HW234329   4.465   3.325  12.386
 1279SOL     OW34330   4.422   5.126  12.327
 1279SOL    HW134331   4.343   5.114  12.380
 1279SOL    HW234332   4.448   5.217  12.341
 1280SOL     OW34333   6.333   1.388  12.408
 1280SOL    HW134334   6.262   1.367  12.348
 1280SOL    HW234335   6.344   1.483  12.399
 1281SOL     OW34336   6.361   3.268  12.418
 1281SOL    HW134337   6.309   3.248  12.340
 1281SOL    HW234338   6.339   3.360  12.438
 1282SOL     OW34339   6.330   5.128  12.438
 1282SOL    HW134340   6.246   5.105  12.399
 1282SOL    HW234341   6.330   5.224  12.440
 1283SOL     OW34342   1.503   0.617   0.489
 1283SOL    HW134343   1.449   0.538   0.492
 1283SOL    HW234344   1.559   0.611   0.567
 1284SOL     OW34345   1.445   2.476   0.513
 1284SOL    HW134346   1.407   2.389   0.508
 1284SOL    HW234347   1.514   2.469   0.579
 1285SOL     OW34348   1.474   4.340   0.476
 1285SOL    HW134349   1.408   4.270   0.481
 1285SOL    HW234350   1.522   4.333   0.558
 1286SOL     OW34351   1.440   6.198   0.536
 1286SOL    HW134352   1.388   6.121   0.515
 1286SOL    HW234353   1.507   6.166   0.598
 1287SOL     OW34354   3.347   2.463   0.477
 1287SOL    HW134355   3.286   2.389   0.482
 1287SOL    HW234356   3.398   2.457   0.557
 1288SOL     OW34357   3.450   4.374   0.407
 1288SOL    HW134358   3.406   4.294   0.432
 1288SOL    HW234359   3.506   4.396   0.481
 1289SOL     OW34360   3.304   6.197   0.518
 1289SOL    HW134361   3.257   6.113   0.514
 1289SOL    HW234362   3.375   6.182   0.581
 1290SOL     OW34363   5.224   0.608   0.462
 1290SOL    HW134364   5.148   0.550   0.469
 1290SOL    HW234365   5.262   0.608   0.550
 1291SOL     OW34366   5.189   2.484   0.493
 1291SOL    HW134367   5.137   2.404   0.487
 1291SOL    HW234368   5.250   2.468   0.565
 1292SOL     OW34369   5.237   4.285   0.483
 1292SOL    HW134370   5.155   4.237   0.480
 1292SOL    HW234371   5.259   4.289   0.577
 1293SOL     OW34372   5.155   6.182   0.544
 1293SOL    HW134373   5.105   6.106   0.516
 1293SOL    HW234374   5.228   6.146   0.593
 1294SOL     OW34375   1.208   1.805  12.341
 1294SOL    HW134376   1.209   1.878  12.279
 1294SOL    HW234377   1.217   1.727  12.287
 1295SOL     OW34378   1.174   3.681  12.334
 1295SOL    HW134379   1.195   3.753  12.274
 1295SOL    HW234380   1.237   3.612  12.313
 1296SOL     OW34381   1.232   5.541  12.338
 1296SOL    HW134382   1.218   5.600  12.265
 1296SOL    HW234383   1.223   5.453  12.301
 1297SOL     OW34384   3.055   1.808  12.322
 1297SOL    HW134385   3.074   1.868  12.249
 1297SOL    HW234386   3.075   1.721  12.287
 1298SOL     OW34387   3.002   3.360  12.446
 1298SOL    HW134388   2.980   3.452  12.463
 1298SOL    HW234389   3.020   3.356  12.353
 1299SOL     OW34390   3.105   5.564  12.344
 1299SOL    HW134391   3.084   5.619  12.268
 1299SOL    HW234392   3.115   5.476  12.307
 1300SOL     OW34393   4.927   1.813  12.337
 1300SOL    HW134394   4.928   1.880  12.268
 1300SOL    HW234395   4.942   1.731  12.291
 1301SOL     OW34396   4.899   3.670  12.326
 1301SOL    HW134397   4.915   3.734  12.257
 1301SOL    HW234398   4.923   3.586  12.287
 1302SOL     OW34399   4.988   5.574  12.353
 1302SOL    HW134400   4.953   5.624  12.280
 1302SOL    HW234401   4.964   5.483  12.334
 1303SOL     OW34402   0.203   0.276   0.534
 1303SOL    HW134403   0.247   0.245   0.613
 1303SOL    HW234404   0.124   0.223   0.528
 1304SOL     OW34405   0.211   2.132   0.525
 1304SOL    HW134406   0.245   2.108   0.611
 1304SOL    HW234407   0.165   2.053   0.495
 1305SOL     OW34408   0.181   3.968   0.542
 1305SOL    HW134409   0.224   3.958   0.628
 1305SOL    HW234410   0.154   3.879   0.518
 1306SOL     OW34411   0.170   5.815   0.516
 1306SOL    HW134412   0.221   5.814   0.597
 1306SOL    HW234413   0.143   5.724   0.504
 1307SOL     OW34414   2.077   0.283   0.532
 1307SOL    HW134415   2.105   0.250   0.617
 1307SOL    HW234416   2.001   0.229   0.509
 1308SOL     OW34417   2.092   2.152   0.554
 1308SOL    HW134418   2.128   2.112   0.633
 1308SOL    HW234419   2.001   2.122   0.551
 1309SOL     OW34420   2.010   4.072   0.456
 1309SOL    HW134421   2.041   4.045   0.542
 1309SOL    HW234422   1.942   4.007   0.435
 1310SOL     OW34423   2.078   5.873   0.541
 1310SOL    HW134424   2.109   5.840   0.625
 1310SOL    HW234425   1.993   5.830   0.529
 1311SOL     OW34426   3.948   0.281   0.529
 1311SOL    HW134427   3.979   0.253   0.615
 1311SOL    HW234428   3.865   0.235   0.517
 1312SOL     OW34429   3.945   2.152   0.536
 1312SOL    HW134430   3.975   2.105   0.614
 1312SOL    HW234431   3.857   2.119   0.519
 1313SOL     OW34432   3.974   4.010   0.536
 1313SOL    HW134433   4.005   3.972   0.618
 1313SOL    HW234434   3.891   3.965   0.519
 1314SOL     OW34435   3.954   5.871   0.541
 1314SOL    HW134436   3.980   5.836   0.627
 1314SOL    HW234437   3.866   5.836   0.527
 1315SOL     OW34438   5.796   0.314   0.537
 1315SOL    HW134439   5.839   0.275   0.614
 1315SOL    HW234440   5.725   0.253   0.516
 1316SOL     OW34441   5.819   2.167   0.547
 1316SOL    HW134442   5.848   2.128   0.630
 1316SOL    HW234443   5.732   2.131   0.533
 1317SOL     OW34444   5.793   4.025   0.555
 1317SOL    HW134445   5.817   3.971   0.630
 1317SOL    HW234446   5.709   3.990   0.527
 1318SOL     OW34447   5.794   5.895   0.555
 1318SOL    HW134448   5.829   5.844   0.629
 1318SOL    HW234449   5.714   5.848   0.530
 1319SOL     OW34450   1.852   1.490  12.303
 1319SOL    HW134451   1.871   1.519  12.213
 1319SOL    HW234452   1.934   1.502  12.350
 1320SOL     OW34453   1.829   3.345  12.293
 1320SOL    HW134454   1.842   3.383  12.206
 1320SOL    HW234455   1.912   3.360  12.338
 1321SOL     OW34456   1.854   5.232  12.312
 1321SOL    HW134457   1.879   5.262  12.224
 1321SOL    HW234458   1.936   5.202  12.352
 1322SOL     OW34459   3.722   1.509  12.280
 1322SOL    HW134460   3.707   1.604  12.283
 1322SOL    HW234461   3.804   1.497  12.327
 1323SOL     OW34462   3.803   3.375  12.324
 1323SOL    HW134463   3.827   3.373  12.232
 1323SOL    HW234464   3.886   3.369  12.371
 1324SOL     OW34465   3.726   5.230  12.303
 1324SOL    HW134466   3.750   5.252  12.213
 1324SOL    HW234467   3.807   5.239  12.353
 1325SOL     OW34468   5.573   1.502  12.296
 1325SOL    HW134469   5.604   1.525  12.208
 1325SOL    HW234470   5.652   1.509  12.351
 1326SOL     OW34471   5.577   3.367  12.309
 1326SOL    HW134472   5.601   3.383  12.217
 1326SOL    HW234473   5.661   3.368  12.355
 1327SOL     OW34474   5.581   5.217  12.294
 1327SOL    HW134475   5.603   5.248  12.206
 1327SOL    HW234476   5.662   5.227  12.343
 1328SOL     OW34477   0.331   0.512   0.562
 1328SOL    HW134478   0.286   0.430   0.546
 1328SOL    HW234479   0.403   0.514   0.498
 1329SOL     OW34480   0.318   2.378   0.546
 1329SOL    HW134481   0.281   2.290   0.542
 1329SOL    HW234482   0.395   2.374   0.489
 1330SOL     OW34483   0.304   4.223   0.496
 1330SOL    HW134484   0.301   4.131   0.523
 1330SOL    HW234485   0.388   4.231   0.450
 1331SOL     OW34486   0.320   6.112   0.550
 1331SOL    HW134487   0.253   6.091   0.485
 1331SOL    HW234488   0.403   6.099   0.503
 1332SOL     OW34489   2.168   0.532   0.515
 1332SOL    HW134490   2.136   0.442   0.520
 1332SOL    HW234491   2.253   0.525   0.471
 1333SOL     OW34492   2.183   2.405   0.538
 1333SOL    HW134493   2.146   2.317   0.526
 1333SOL    HW234494   2.261   2.406   0.483
 1334SOL     OW34495   2.205   4.267   0.520
 1334SOL    HW134496   2.123   4.231   0.487
 1334SOL    HW234497   2.274   4.215   0.478
 1335SOL     OW34498   2.197   6.112   0.541
 1335SOL    HW134499   2.154   6.027   0.527
 1335SOL    HW234500   2.274   6.109   0.484
 1336SOL     OW34501   4.051   0.529   0.539
 1336SOL    HW134502   4.010   0.443   0.530
 1336SOL    HW234503   4.127   0.525   0.482
 1337SOL     OW34504   4.045   2.402   0.541
 1337SOL    HW134505   4.005   2.316   0.532
 1337SOL    HW234506   4.123   2.398   0.485
 1338SOL     OW34507   4.069   4.260   0.530
 1338SOL    HW134508   4.047   4.168   0.522
 1338SOL    HW234509   4.148   4.270   0.475
 1339SOL     OW34510   4.051   6.121   0.547
 1339SOL    HW134511   4.012   6.033   0.539
 1339SOL    HW234512   4.130   6.117   0.494
 1340SOL     OW34513   5.933   0.545   0.515
 1340SOL    HW134514   5.875   0.468   0.513
 1340SOL    HW234515   6.015   0.514   0.476
 1341SOL     OW34516   5.928   2.413   0.527
 1341SOL    HW134517   5.888   2.326   0.522
 1341SOL    HW234518   6.011   2.404   0.479
 1342SOL     OW34519   5.939   4.253   0.563
 1342SOL    HW134520   5.882   4.181   0.535
 1342SOL    HW234521   6.010   4.252   0.499
 1343SOL     OW34522   5.969   6.099   0.541
 1343SOL    HW134523   5.904   6.030   0.524
 1343SOL    HW234524   6.025   6.100   0.464
 1344SOL     OW34525   0.438   0.755  12.331
 1344SOL    HW134526   0.510   0.797  12.283
 1344SOL    HW234527   0.468   0.666  12.347
 1345SOL     OW34528   0.443   2.609  12.331
 1345SOL    HW134529   0.509   2.643  12.271
 1345SOL    HW234530   0.477   2.523  12.357
 1346SOL     OW34531   0.450   4.483  12.338
 1346SOL    HW134532   0.507   4.525  12.274
 1346SOL    HW234533   0.507   4.420  12.383
 1347SOL     OW34534   2.296   0.763  12.323
 1347SOL    HW134535   2.359   0.803  12.264
 1347SOL    HW234536   2.335   0.678  12.346
 1348SOL     OW34537   2.277   2.640  12.332
 1348SOL    HW134538   2.352   2.653  12.274
 1348SOL    HW234539   2.283   2.549  12.359
 1349SOL     OW34540   2.264   4.517  12.310
 1349SOL    HW134541   2.330   4.555  12.253
 1349SOL    HW234542   2.302   4.433  12.338
 1350SOL     OW34543   4.168   0.761  12.329
 1350SOL    HW134544   4.232   0.799  12.270
 1350SOL    HW234545   4.187   0.667  12.328
 1351SOL     OW34546   4.163   2.601  12.332
 1351SOL    HW134547   4.220   2.652  12.275
 1351SOL    HW234548   4.210   2.519  12.346
 1352SOL     OW34549   4.190   4.460  12.334
 1352SOL    HW134550   4.242   4.507  12.269
 1352SOL    HW234551   4.247   4.390  12.365
 1353SOL     OW34552   6.024   0.740  12.329
 1353SOL    HW134553   6.088   0.776  12.267
 1353SOL    HW234554   6.047   0.647  12.336
 1354SOL     OW34555   6.023   2.598  12.329
 1354SOL    HW134556   6.089   2.631  12.269
 1354SOL    HW234557   6.049   2.507  12.346
 1355SOL     OW34558   6.025   4.464  12.325
 1355SOL    HW134559   6.088   4.498  12.262
 1355SOL    HW234560   6.060   4.378  12.350
 1356SOL     OW34561   0.169   0.781  12.286
 1356SOL    HW134562   0.263   0.792  12.301
 1356SOL    HW234563   0.131   0.868  12.304
 1357SOL     OW34564   0.170   2.612  12.286
 1357SOL    HW134565   0.264   2.617  12.298
 1357SOL    HW234566   0.140   2.703  12.286
 1358SOL     OW34567   0.178   4.469  12.281
 1358SOL    HW134568   0.272   4.480  12.298
 1358SOL    HW234569   0.139   4.552  12.307
 1359SOL     OW34570   1.999   0.756  12.287
 1359SOL    HW134571   2.085   0.796  12.286
 1359SOL    HW234572   1.939   0.827  12.262
 1360SOL     OW34573   1.990   2.609  12.278
 1360SOL    HW134574   2.072   2.657  12.282
 1360SOL    HW234575   1.924   2.677  12.259
 1361SOL     OW34576   1.989   4.472  12.302
 1361SOL    HW134577   2.078   4.507  12.296
 1361SOL    HW234578   1.933   4.546  12.280
 1362SOL     OW34579   2.045   6.338  12.256
 1362SOL    HW134580   2.106   6.371  12.190
 1362SOL    HW234581   2.020   6.414  12.307
 1363SOL     OW34582   3.859   0.752  12.281
 1363SOL    HW134583   3.941   0.801  12.291
 1363SOL    HW234584   3.792   0.820  12.268
 1364SOL     OW34585   3.886   2.669  12.315
 1364SOL    HW134586   3.978   2.646  12.305
 1364SOL    HW234587   3.841   2.611  12.253
 1365SOL     OW34588   3.918   4.490  12.305
 1365SOL    HW134589   4.014   4.484  12.307
 1365SOL    HW234590   3.898   4.572  12.349
 1366SOL     OW34591   3.896   6.328  12.287
 1366SOL    HW134592   3.928   6.352  12.200
 1366SOL    HW234593   3.878   6.412  12.330
 1367SOL     OW34594   5.724   0.745  12.288
 1367SOL    HW134595   5.806   0.794  12.290
 1367SOL    HW234596   5.657   0.810  12.267
 1368SOL     OW34597   5.721   2.620  12.287
 1368SOL    HW134598   5.809   2.657  12.281
 1368SOL    HW234599   5.662   2.693  12.266
 1369SOL     OW34600   5.717   4.475  12.277
 1369SOL    HW134601   5.801   4.521  12.277
 1369SOL    HW234602   5.652   4.543  12.260
 1370SOL     OW34603   5.777   6.333  12.260
 1370SOL    HW134604   5.826   6.370  12.187
 1370SOL    HW234605   5.753   6.409  12.314
 1371SOL     OW34606   1.751   1.241  12.241
 1371SOL    HW134607   1.839   1.210  12.219
 1371SOL    HW234608   1.765   1.330  12.273
 1372SOL     OW34609   1.744   3.090  12.258
 1372SOL    HW134610   1.831   3.054  12.239
 1372SOL    HW234611   1.760   3.183  12.276
 1373SOL     OW34612   1.716   4.996  12.258
 1373SOL    HW134613   1.794   4.941  12.253
 1373SOL    HW234614   1.750   5.084  12.276
 1374SOL     OW34615   3.618   1.245  12.237
 1374SOL    HW134616   3.705   1.205  12.228
 1374SOL    HW234617   3.635   1.333  12.269
 1375SOL     OW34618   3.657   3.071  12.312
 1375SOL    HW134619   3.749   3.050  12.301
 1375SOL    HW234620   3.648   3.095  12.404
 1376SOL     OW34621   3.592   4.987  12.272
 1376SOL    HW134622   3.667   4.934  12.246
 1376SOL    HW234623   3.629   5.073  12.293
 1377SOL     OW34624   5.458   1.259  12.241
 1377SOL    HW134625   5.539   1.208  12.228
 1377SOL    HW234626   5.489   1.345  12.270
 1378SOL     OW34627   5.474   3.093  12.202
 1378SOL    HW134628   5.568   3.079  12.201
 1378SOL    HW234629   5.460   3.159  12.270
 1379SOL     OW34630   5.476   4.967  12.236
 1379SOL    HW134631   5.565   4.932  12.223
 1379SOL    HW234632   5.490   5.056  12.269
 1380SOL     OW34633   0.074   1.155   0.586
 1380SOL    HW134634   0.056   1.201   0.668
 1380SOL    HW234635   0.025   1.204   0.520
 1381SOL     OW34636   0.079   3.010   0.609
 1381SOL    HW134637   0.056   3.058   0.689
 1381SOL    HW234638   0.032   3.057   0.539
 1382SOL     OW34639   0.078   4.877   0.576
 1382SOL    HW134640   0.066   4.917   0.662
 1382SOL    HW234641   0.025   4.931   0.517
 1383SOL     OW34642   1.886   1.239   0.506
 1383SOL    HW134643   1.971   1.250   0.548
 1383SOL    HW234644   1.824   1.281   0.566
 1384SOL     OW34645   1.897   3.147   0.502
 1384SOL    HW134646   1.898   3.142   0.597
 1384SOL    HW234647   1.883   3.057   0.473
 1385SOL     OW34648   1.971   5.028   0.553
 1385SOL    HW134649   1.950   5.026   0.646
 1385SOL    HW234650   1.915   4.960   0.514
 1386SOL     OW34651   3.851   1.235   0.552
 1386SOL    HW134652   3.822   1.263   0.639
 1386SOL    HW234653   3.776   1.186   0.516
 1387SOL     OW34654   3.859   3.085   0.547
 1387SOL    HW134655   3.838   3.117   0.635
 1387SOL    HW234656   3.780   3.040   0.518
 1388SOL     OW34657   3.851   4.998   0.538
 1388SOL    HW134658   3.843   5.016   0.632
 1388SOL    HW234659   3.767   4.958   0.515
 1389SOL     OW34660   5.705   1.254   0.538
 1389SOL    HW134661   5.678   1.274   0.628
 1389SOL    HW234662   5.635   1.198   0.504
 1390SOL     OW34663   5.688   3.121   0.533
 1390SOL    HW134664   5.664   3.142   0.623
 1390SOL    HW234665   5.627   3.052   0.508
 1391SOL     OW34666   5.707   4.962   0.551
 1391SOL    HW134667   5.686   4.994   0.639
 1391SOL    HW234668   5.623   4.956   0.507
 1392SOL     OW34669   0.743   1.144   0.587
 1392SOL    HW134670   0.681   1.179   0.651
 1392SOL    HW234671   0.782   1.222   0.547
 1393SOL     OW34672   0.751   2.997   0.590
 1393SOL    HW134673   0.689   3.034   0.653
 1393SOL    HW234674   0.789   3.073   0.546
 1394SOL     OW34675   0.765   4.867   0.632
 1394SOL    HW134676   0.696   4.927   0.662
 1394SOL    HW234677   0.807   4.913   0.559
 1395SOL     OW34678   2.611   1.128   0.582
 1395SOL    HW134679   2.560   1.170   0.652
 1395SOL    HW234680   2.651   1.200   0.535
 1396SOL     OW34681   2.724   2.954   0.611
 1396SOL    HW134682   2.648   2.896   0.602
 1396SOL    HW234683   2.700   3.033   0.563
 1397SOL     OW34684   2.596   4.904   0.565
 1397SOL    HW134685   2.537   4.938   0.632
 1397SOL    HW234686   2.646   4.980   0.536
 1398SOL     OW34687   4.450   1.104   0.617
 1398SOL    HW134688   4.403   1.178   0.654
 1398SOL    HW234689   4.504   1.141   0.548
 1399SOL     OW34690   4.535   2.989   0.569
 1399SOL    HW134691   4.461   2.994   0.629
 1399SOL    HW234692   4.544   3.077   0.533
 1400SOL     OW34693   4.461   4.846   0.582
 1400SOL    HW134694   4.431   4.885   0.664
 1400SOL    HW234695   4.502   4.918   0.534
 1401SOL     OW34696   0.626   0.877   0.581
 1401SOL    HW134697   0.647   0.969   0.571
 1401SOL    HW234698   0.558   0.875   0.649
 1402SOL     OW34699   0.614   2.733   0.578
 1402SOL    HW134700   0.645   2.823   0.568
 1402SOL    HW234701   0.554   2.737   0.652
 1403SOL     OW34702   0.629   4.610   0.574
 1403SOL    HW134703   0.611   4.699   0.542
 1403SOL    HW234704   0.560   4.593   0.638
 1404SOL     OW34705   2.377   0.943   0.552
 1404SOL    HW134706   2.457   0.995   0.557
 1404SOL    HW234707   2.365   0.909   0.641
 1405SOL     OW34708   2.428   4.696   0.526
 1405SOL    HW134709   2.489   4.769   0.536
 1405SOL    HW234710   2.367   4.705   0.599
 1406SOL     OW34711   4.314   0.867   0.569
 1406SOL    HW134712   4.362   0.950   0.571
 1406SOL    HW234713   4.261   0.869   0.649
 1407SOL     OW34714   4.310   2.737   0.567
 1407SOL    HW134715   4.334   2.830   0.571
 1407SOL    HW234716   4.258   2.722   0.646
 1408SOL     OW34717   4.289   4.619   0.550
 1408SOL    HW134718   4.353   4.689   0.560
 1408SOL    HW234719   4.261   4.599   0.639
 1409SOL     OW34720   6.099   0.916   0.555
 1409SOL    HW134721   6.126   1.007   0.562
 1409SOL    HW234722   6.073   0.891   0.643
 1410SOL     OW34723   6.196   2.764   0.590
 1410SOL    HW134724   6.198   2.860   0.589
 1410SOL    HW234725   6.132   2.742   0.658
 1411SOL     OW34726   6.156   4.653   0.590
 1411SOL    HW134727   6.166   4.748   0.594
 1411SOL    HW234728   6.107   4.630   0.669
 1412SOL     OW34729   0.975   0.885  12.299
 1412SOL    HW134730   1.023   0.812  12.260
 1412SOL    HW234731   0.934   0.929  12.225
 1413SOL     OW34732   0.964   2.746  12.294
 1413SOL    HW134733   1.013   2.673  12.258
 1413SOL    HW234734   0.927   2.791  12.218
 1414SOL     OW34735   0.966   4.599  12.283
 1414SOL    HW134736   1.016   4.534  12.235
 1414SOL    HW234737   0.917   4.646  12.215
 1415SOL     OW34738   2.814   0.896  12.288
 1415SOL    HW134739   2.876   0.836  12.248
 1415SOL    HW234740   2.771   0.939  12.214
 1416SOL     OW34741   2.816   2.720  12.285
 1416SOL    HW134742   2.876   2.655  12.247
 1416SOL    HW234743   2.770   2.757  12.210
 1417SOL     OW34744   2.836   4.637  12.280
 1417SOL    HW134745   2.892   4.575  12.233
 1417SOL    HW234746   2.781   4.676  12.212
 1418SOL     OW34747   4.677   0.886  12.294
 1418SOL    HW134748   4.735   0.823  12.251
 1418SOL    HW234749   4.632   0.931  12.222
 1419SOL     OW34750   4.689   2.732  12.293
 1419SOL    HW134751   4.736   2.661  12.250
 1419SOL    HW234752   4.639   2.774  12.223
 1420SOL     OW34753   4.682   4.610  12.283
 1420SOL    HW134754   4.739   4.546  12.241
 1420SOL    HW234755   4.637   4.653  12.210
 1421SOL     OW34756   0.136   1.807  12.311
 1421SOL    HW134757   0.146   1.790  12.404
 1421SOL    HW234758   0.044   1.788  12.293
 1422SOL     OW34759   0.120   3.693  12.300
 1422SOL    HW134760   0.140   3.675  12.392
 1422SOL    HW234761   0.046   3.635  12.281
 1423SOL     OW34762   0.112   5.467  12.270
 1423SOL    HW134763   0.117   5.478  12.365
 1423SOL    HW234764   0.076   5.550  12.238
 1424SOL     OW34765   1.985   1.874  12.317
 1424SOL    HW134766   1.989   1.839  12.407
 1424SOL    HW234767   1.892   1.868  12.294
 1425SOL     OW34768   1.911   3.725  12.296
 1425SOL    HW134769   1.911   3.698  12.388
 1425SOL    HW234770   1.820   3.750  12.278
 1426SOL     OW34771   1.984   5.600  12.317
 1426SOL    HW134772   1.990   5.564  12.405
 1426SOL    HW234773   1.903   5.565  12.281
 1427SOL     OW34774   3.803   1.808  12.309
 1427SOL    HW134775   3.824   1.794  12.402
 1427SOL    HW234776   3.739   1.880  12.310
 1428SOL     OW34777   3.855   3.728  12.293
 1428SOL    HW134778   3.857   3.706  12.386
 1428SOL    HW234779   3.762   3.736  12.272
 1429SOL     OW34780   3.889   5.540  12.312
 1429SOL    HW134781   3.875   5.527  12.406
 1429SOL    HW234782   3.801   5.555  12.277
 1430SOL     OW34783   5.663   1.877  12.319
 1430SOL    HW134784   5.679   1.855  12.410
 1430SOL    HW234785   5.713   1.812  12.269
 1431SOL     OW34786   5.712   3.725  12.314
 1431SOL    HW134787   5.720   3.699  12.406
 1431SOL    HW234788   5.634   3.679  12.283
 1432SOL     OW34789   5.704   5.597  12.319
 1432SOL    HW134790   5.711   5.563  12.408
 1432SOL    HW234791   5.616   5.571  12.290
 1433SOL     OW34792   1.302   0.803   0.539
 1433SOL    HW134793   1.303   0.860   0.462
 1433SOL    HW234794   1.383   0.753   0.531
 1434SOL     OW34795   1.321   4.566   0.559
 1434SOL    HW134796   1.236   4.543   0.522
 1434SOL    HW234797   1.382   4.505   0.518
 1435SOL     OW34798   1.305   6.437   0.588
 1435SOL    HW134799   1.289   6.447   0.494
 1435SOL    HW234800   1.354   6.356   0.597
 1436SOL     OW34801   3.169   0.852   0.542
 1436SOL    HW134802   3.085   0.818   0.512
 1436SOL    HW234803   3.230   0.778   0.534
 1437SOL     OW34804   3.192   2.690   0.521
 1437SOL    HW134805   3.103   2.658   0.504
 1437SOL    HW234806   3.248   2.616   0.498
 1438SOL     OW34807   3.245   4.628   0.529
 1438SOL    HW134808   3.208   4.581   0.454
 1438SOL    HW234809   3.234   4.569   0.603
 1439SOL     OW34810   3.157   6.432   0.572
 1439SOL    HW134811   3.176   0.017   0.485
 1439SOL    HW234812   3.201   6.347   0.573
 1440SOL     OW34813   5.047   0.833   0.555
 1440SOL    HW134814   4.960   0.805   0.526
 1440SOL    HW234815   5.107   0.789   0.494
 1441SOL     OW34816   5.040   2.710   0.549
 1441SOL    HW134817   4.953   2.677   0.525
 1441SOL    HW234818   5.100   2.640   0.522
 1442SOL     OW34819   5.055   4.539   0.545
 1442SOL    HW134820   4.975   4.543   0.597
 1442SOL    HW234821   5.026   4.517   0.457
 1443SOL     OW34822   5.036   6.423   0.572
 1443SOL    HW134823   5.051   6.445   0.480
 1443SOL    HW234824   5.058   6.330   0.578
 1444SOL     OW34825   0.389   1.731  12.254
 1444SOL    HW134826   0.298   1.760  12.254
 1444SOL    HW234827   0.389   1.649  12.302
 1445SOL     OW34828   0.382   3.591  12.263
 1445SOL    HW134829   0.292   3.616  12.242
 1445SOL    HW234830   0.374   3.509  12.313
 1446SOL     OW34831   0.384   5.417  12.232
 1446SOL    HW134832   0.292   5.444  12.236
 1446SOL    HW234833   0.396   5.362  12.310
 1447SOL     OW34834   2.222   1.743  12.262
 1447SOL    HW134835   2.139   1.790  12.261
 1447SOL    HW234836   2.200   1.656  12.295
 1448SOL     OW34837   2.131   3.600  12.220
 1448SOL    HW134838   2.047   3.644  12.231
 1448SOL    HW234839   2.120   3.515  12.263
 1449SOL     OW34840   2.224   5.473  12.266
 1449SOL    HW134841   2.138   5.513  12.259
 1449SOL    HW234842   2.208   5.385  12.301
 1450SOL     OW34843   4.071   1.747  12.266
 1450SOL    HW134844   3.984   1.787  12.273
 1450SOL    HW234845   4.062   1.662  12.308
 1451SOL     OW34846   4.104   3.607  12.287
 1451SOL    HW134847   4.016   3.643  12.275
 1451SOL    HW234848   4.091   3.527  12.338
 1452SOL     OW34849   5.936   1.741  12.254
 1452SOL    HW134850   5.977   1.782  12.331
 1452SOL    HW234851   5.905   1.656  12.286
 1453SOL     OW34852   5.959   3.602  12.281
 1453SOL    HW134853   5.875   3.646  12.271
 1453SOL    HW234854   5.936   3.515  12.314
 1454SOL     OW34855   5.948   5.470  12.277
 1454SOL    HW134856   5.866   5.519  12.269
 1454SOL    HW234857   5.920   5.385  12.312
 1455SOL     OW34858   0.371   1.414   0.594
 1455SOL    HW134859   0.309   1.382   0.529
 1455SOL    HW234860   0.425   1.477   0.547
 1456SOL     OW34861   0.376   3.279   0.590
 1456SOL    HW134862   0.320   3.244   0.521
 1456SOL    HW234863   0.428   3.347   0.547
 1457SOL     OW34864   0.379   5.145   0.598
 1457SOL    HW134865   0.319   5.109   0.532
 1457SOL    HW234866   0.433   5.207   0.550
 1458SOL     OW34867   2.156   3.233   0.532
 1458SOL    HW134868   2.065   3.222   0.507
 1458SOL    HW234869   2.192   3.293   0.467
 1459SOL     OW34870   4.076   1.398   0.599
 1459SOL    HW134871   4.003   1.345   0.568
 1459SOL    HW234872   4.111   1.440   0.521
 1460SOL     OW34873   4.032   3.312   0.598
 1460SOL    HW134874   3.998   3.230   0.564
 1460SOL    HW234875   4.096   3.341   0.533
 1461SOL     OW34876   5.942   1.405   0.580
 1461SOL    HW134877   5.859   1.369   0.552
 1461SOL    HW234878   5.967   1.467   0.511
 1462SOL     OW34879   5.939   3.259   0.589
 1462SOL    HW134880   5.865   3.223   0.541
 1462SOL    HW234881   5.981   3.318   0.527
 1463SOL     OW34882   5.947   5.118   0.581
 1463SOL    HW134883   5.861   5.092   0.550
 1463SOL    HW234884   5.975   5.187   0.521
 1464SOL     OW34885   0.720   0.623   0.567
 1464SOL    HW134886   0.797   0.621   0.511
 1464SOL    HW234887   0.691   0.714   0.567
 1465SOL     OW34888   0.719   2.480   0.566
 1465SOL    HW134889   0.803   2.484   0.520
 1465SOL    HW234890   0.689   2.571   0.569
 1466SOL     OW34891   0.723   4.343   0.566
 1466SOL    HW134892   0.806   4.325   0.521
 1466SOL    HW234893   0.710   4.437   0.554
 1467SOL     OW34894   0.765   6.218   0.575
 1467SOL    HW134895   0.839   6.169   0.539
 1467SOL    HW234896   0.750   6.288   0.512
 1468SOL     OW34897   2.583   0.662   0.524
 1468SOL    HW134898   2.657   0.602   0.513
 1468SOL    HW234899   2.623   0.741   0.561
 1469SOL     OW34900   2.593   2.488   0.585
 1469SOL    HW134901   2.672   2.476   0.532
 1469SOL    HW234902   2.568   2.579   0.569
 1470SOL     OW34903   2.515   4.466   0.634
 1470SOL    HW134904   2.607   4.456   0.614
 1470SOL    HW234905   2.491   4.551   0.597
 1471SOL     OW34906   2.613   6.219   0.556
 1471SOL    HW134907   2.688   6.180   0.512
 1471SOL    HW234908   2.636   6.312   0.564
 1472SOL     OW34909   4.440   0.623   0.570
 1472SOL    HW134910   4.525   0.623   0.526
 1472SOL    HW234911   4.410   0.714   0.564
 1473SOL     OW34912   4.443   2.489   0.577
 1473SOL    HW134913   4.525   2.484   0.529
 1473SOL    HW234914   4.415   2.580   0.567
 1474SOL     OW34915   4.463   4.359   0.597
 1474SOL    HW134916   4.527   4.325   0.534
 1474SOL    HW234917   4.408   4.418   0.545
 1475SOL     OW34918   4.478   6.216   0.559
 1475SOL    HW134919   4.552   6.177   0.513
 1475SOL    HW234920   4.504   6.307   0.575
 1476SOL     OW34921   6.290   0.662   0.578
 1476SOL    HW134922   6.379   0.634   0.602
 1476SOL    HW234923   6.295   0.758   0.581
 1477SOL     OW34924   6.290   4.401   0.564
 1477SOL    HW134925   6.382   4.395   0.591
 1477SOL    HW234926   6.269   4.494   0.570
 1478SOL     OW34927   6.302   6.237   0.581
 1478SOL    HW134928   6.393   6.214   0.600
 1478SOL    HW234929   6.305   6.327   0.549
 1479SOL     OW34930   1.624   1.084   0.630
 1479SOL    HW134931   1.603   1.153   0.693
 1479SOL    HW234932   1.564   1.099   0.557
 1480SOL     OW34933   1.593   2.939   0.625
 1480SOL    HW134934   1.600   3.010   0.689
 1480SOL    HW234935   1.547   2.979   0.550
 1481SOL     OW34936   1.584   4.810   0.630
 1481SOL    HW134937   1.599   4.895   0.589
 1481SOL    HW234938   1.516   4.769   0.577
 1482SOL     OW34939   3.472   1.093   0.618
 1482SOL    HW134940   3.480   1.159   0.687
 1482SOL    HW234941   3.379   1.073   0.615
 1483SOL     OW34942   3.488   2.932   0.622
 1483SOL    HW134943   3.486   2.999   0.690
 1483SOL    HW234944   3.411   2.949   0.568
 1484SOL     OW34945   3.505   4.846   0.627
 1484SOL    HW134946   3.497   4.910   0.698
 1484SOL    HW234947   3.430   4.863   0.571
 1485SOL     OW34948   5.343   1.084   0.628
 1485SOL    HW134949   5.333   1.156   0.691
 1485SOL    HW234950   5.275   1.100   0.562
 1486SOL     OW34951   5.335   2.950   0.622
 1486SOL    HW134952   5.338   3.014   0.693
 1486SOL    HW234953   5.242   2.942   0.600
 1487SOL     OW34954   5.333   4.787   0.616
 1487SOL    HW134955   5.332   4.846   0.691
 1487SOL    HW234956   5.264   4.819   0.558
 1488SOL     OW34957   1.778   0.928  12.212
 1488SOL    HW134958   1.765   1.023  12.216
 1488SOL    HW234959   1.749   0.903  12.125
 1489SOL     OW34960   1.776   2.778  12.213
 1489SOL    HW134961   1.762   2.873  12.210
 1489SOL    HW234962   1.748   2.748  12.126
 1490SOL     OW34963   1.790   4.646  12.209
 1490SOL    HW134964   1.851   4.720  12.203
 1490SOL    HW234965   1.755   4.636  12.121
 1491SOL     OW34966   3.638   0.921  12.208
 1491SOL    HW134967   3.615   1.013  12.221
 1491SOL    HW234968   3.609   0.901  12.119
 1492SOL     OW34969   3.588   2.804  12.211
 1492SOL    HW134970   3.648   2.878  12.221
 1492SOL    HW234971   3.603   2.774  12.121
 1493SOL     OW34972   3.635   4.628  12.212
 1493SOL    HW134973   3.728   4.649  12.206
 1493SOL    HW234974   3.603   4.635  12.121
 1494SOL     OW34975   5.521   0.918  12.214
 1494SOL    HW134976   5.570   0.999  12.203
 1494SOL    HW234977   5.482   0.901  12.128
 1495SOL     OW34978   5.498   2.795  12.214
 1495SOL    HW134979   5.485   2.890  12.220
 1495SOL    HW234980   5.471   2.773  12.125
 1496SOL     OW34981   5.506   4.652  12.209
 1496SOL    HW134982   5.475   4.742  12.222
 1496SOL    HW234983   5.475   4.629  12.121
 1497SOL     OW34984   1.146   1.201   0.622
 1497SOL    HW134985   1.098   1.244   0.693
 1497SOL    HW234986   1.130   1.257   0.546
 1498SOL     OW34987   1.154   3.076   0.627
 1498SOL    HW134988   1.096   3.109   0.695
 1498SOL    HW234989   1.131   3.126   0.549
 1499SOL     OW34990   1.160   4.970   0.636
 1499SOL    HW134991   1.082   4.999   0.684
 1499SOL    HW234992   1.141   4.991   0.545
 1500SOL     OW34993   3.004   1.226   0.593
 1500SOL    HW134994   2.969   1.261   0.675
 1500SOL    HW234995   2.932   1.176   0.556
 1501SOL     OW34996   2.992   3.012   0.628
 1501SOL    HW134997   2.904   2.987   0.654
 1501SOL    HW234998   2.982   3.048   0.540
 1502SOL     OW34999   2.977   4.926   0.614
 1502SOL    HW135000   2.948   4.984   0.684
 1502SOL    HW235001   2.979   4.983   0.536
 1503SOL     OW35002   4.888   1.240   0.629
 1503SOL    HW135003   4.802   1.232   0.670
 1503SOL    HW235004   4.869   1.269   0.539
 1504SOL     OW35005   4.863   3.094   0.633
 1504SOL    HW135006   4.819   3.132   0.709
 1504SOL    HW235007   4.792   3.055   0.582
 1505SOL     OW35008   4.896   4.970   0.638
 1505SOL    HW135009   4.815   4.944   0.682
 1505SOL    HW235010   4.869   4.997   0.551
 1506SOL     OW35011   1.230   1.550  12.207
 1506SOL    HW135012   1.216   1.470  12.256
 1506SOL    HW235013   1.148   1.562  12.158
 1507SOL     OW35014   1.211   3.414  12.217
 1507SOL    HW135015   1.189   3.342  12.277
 1507SOL    HW235016   1.127   3.456  12.198
 1508SOL     OW35017   1.239   5.264  12.210
 1508SOL    HW135018   1.229   5.197  12.277
 1508SOL    HW235019   1.172   5.243  12.145
 1509SOL     OW35020   3.091   1.540  12.211
 1509SOL    HW135021   3.086   1.471  12.278
 1509SOL    HW235022   3.033   1.509  12.141
 1510SOL     OW35023   3.140   3.225  12.154
 1510SOL    HW135024   3.120   3.171  12.230
 1510SOL    HW235025   3.054   3.256  12.123
 1511SOL     OW35026   3.092   5.302  12.223
 1511SOL    HW135027   3.080   5.217  12.266
 1511SOL    HW235028   3.009   5.317  12.177
 1512SOL     OW35029   4.958   1.547  12.214
 1512SOL    HW135030   4.948   1.471  12.271
 1512SOL    HW235031   4.885   1.541  12.153
 1513SOL     OW35032   4.941   3.412  12.220
 1513SOL    HW135033   4.946   3.340  12.283
 1513SOL    HW235034   4.901   3.373  12.142
 1514SOL     OW35035   4.961   5.265  12.228
 1514SOL    HW135036   4.951   5.191  12.288
 1514SOL    HW235037   4.874   5.278  12.191
 1515SOL     OW35038   1.719   1.465   0.628
 1515SOL    HW135039   1.635   1.450   0.584
 1515SOL    HW235040   1.714   1.411   0.707
 1516SOL     OW35041   1.679   3.322   0.657
 1516SOL    HW135042   1.623   3.303   0.582
 1516SOL    HW235043   1.669   3.247   0.715
 1517SOL     OW35044   1.730   5.206   0.611
 1517SOL    HW135045   1.650   5.171   0.572
 1517SOL    HW235046   1.768   5.134   0.660
 1518SOL     OW35047   3.576   1.469   0.612
 1518SOL    HW135048   3.495   1.455   0.564
 1518SOL    HW235049   3.576   1.401   0.680
 1519SOL     OW35050   3.631   3.296   0.594
 1519SOL    HW135051   3.536   3.286   0.581
 1519SOL    HW235052   3.651   3.239   0.669
 1520SOL     OW35053   3.587   5.194   0.609
 1520SOL    HW135054   3.499   5.185   0.571
 1520SOL    HW235055   3.585   5.137   0.686
 1521SOL     OW35056   5.422   1.475   0.610
 1521SOL    HW135057   5.332   1.459   0.582
 1521SOL    HW235058   5.440   1.406   0.674
 1522SOL     OW35059   5.430   3.352   0.643
 1522SOL    HW135060   5.360   3.322   0.584
 1522SOL    HW235061   5.452   3.275   0.696
 1523SOL     OW35062   5.452   5.166   0.592
 1523SOL    HW135063   5.362   5.158   0.561
 1523SOL    HW235064   5.453   5.122   0.676
 1524SOL     OW35065   0.474   0.387  12.150
 1524SOL    HW135066   0.556   0.340  12.170
 1524SOL    HW235067   0.407   0.340  12.200
 1525SOL     OW35068   0.495   2.239  12.153
 1525SOL    HW135069   0.572   2.185  12.170
 1525SOL    HW235070   0.421   2.189  12.186
 1526SOL     OW35071   0.497   5.951  12.147
 1526SOL    HW135072   0.574   5.895  12.158
 1526SOL    HW235073   0.436   5.921  12.215
 1527SOL     OW35074   2.335   0.386  12.156
 1527SOL    HW135075   2.408   0.327  12.177
 1527SOL    HW235076   2.257   0.336  12.180
 1528SOL     OW35077   2.324   2.211  12.186
 1528SOL    HW135078   2.345   2.222  12.279
 1528SOL    HW235079   2.234   2.180  12.185
 1529SOL     OW35080   2.289   4.122  12.182
 1529SOL    HW135081   2.341   4.042  12.175
 1529SOL    HW235082   2.201   4.091  12.205
 1530SOL     OW35083   4.199   0.412  12.179
 1530SOL    HW135084   4.277   0.358  12.191
 1530SOL    HW235085   4.126   0.356  12.206
 1531SOL     OW35086   4.181   2.259  12.186
 1531SOL    HW135087   4.268   2.222  12.171
 1531SOL    HW235088   4.127   2.184  12.208
 1532SOL     OW35089   4.215   4.098  12.152
 1532SOL    HW135090   4.292   4.043  12.166
 1532SOL    HW235091   4.143   4.050  12.191
 1533SOL     OW35092   4.205   5.945  12.151
 1533SOL    HW135093   4.290   5.903  12.166
 1533SOL    HW235094   4.142   5.891  12.198
 1534SOL     OW35095   6.022   0.418  12.210
 1534SOL    HW135096   6.093   0.368  12.249
 1534SOL    HW235097   5.948   0.357  12.208
 1535SOL     OW35098   5.998   2.267  12.288
 1535SOL    HW135099   6.067   2.287  12.225
 1535SOL    HW235100   5.943   2.202  12.244
 1536SOL     OW35101   6.016   4.128  12.200
 1536SOL    HW135102   6.095   4.074  12.193
 1536SOL    HW235103   5.945   4.065  12.210
 1537SOL     OW35104   6.031   5.992  12.266
 1537SOL    HW135105   6.082   6.003  12.186
 1537SOL    HW235106   5.965   5.927  12.243
 1538SOL     OW35107   0.214   0.299  12.197
 1538SOL    HW135108   0.149   0.369  12.193
 1538SOL    HW235109   0.181   0.239  12.264
 1539SOL     OW35110   0.232   2.132  12.196
 1539SOL    HW135111   0.192   2.217  12.182
 1539SOL    HW235112   0.240   2.125  12.291
 1540SOL     OW35113   0.259   4.028  12.212
 1540SOL    HW135114   0.219   4.103  12.169
 1540SOL    HW235115   0.199   4.006  12.283
 1541SOL     OW35116   0.209   5.863  12.183
 1541SOL    HW135117   0.178   5.953  12.171
 1541SOL    HW235118   0.237   5.859  12.275
 1542SOL     OW35119   2.082   0.279  12.200
 1542SOL    HW135120   2.011   0.339  12.180
 1542SOL    HW235121   2.046   0.219  12.266
 1543SOL     OW35122   2.063   2.121  12.215
 1543SOL    HW135123   1.979   2.167  12.213
 1543SOL    HW235124   2.044   2.038  12.259
 1544SOL     OW35125   2.038   4.024  12.246
 1544SOL    HW135126   1.945   4.043  12.239
 1544SOL    HW235127   2.045   3.964  12.321
 1545SOL     OW35128   2.102   5.841  12.246
 1545SOL    HW135129   2.041   5.911  12.266
 1545SOL    HW235130   2.059   5.761  12.277
 1546SOL     OW35131   3.947   0.301  12.224
 1546SOL    HW135132   3.868   0.350  12.201
 1546SOL    HW235133   3.915   0.229  12.279
 1547SOL     OW35134   3.936   2.111  12.223
 1547SOL    HW135135   3.900   2.200  12.222
 1547SOL    HW235136   3.910   2.076  12.308
 1548SOL     OW35137   3.984   3.956  12.205
 1548SOL    HW135138   3.907   4.013  12.205
 1548SOL    HW235139   3.955   3.876  12.248
 1549SOL     OW35140   3.938   5.825  12.206
 1549SOL    HW135141   3.918   5.915  12.232
 1549SOL    HW235142   3.944   5.777  12.289
 1550SOL     OW35143   5.786   0.278  12.190
 1550SOL    HW135144   5.713   0.336  12.169
 1550SOL    HW235145   5.750   0.217  12.254
 1551SOL     OW35146   5.782   2.103  12.202
 1551SOL    HW135147   5.735   2.175  12.245
 1551SOL    HW235148   5.757   2.025  12.250
 1552SOL     OW35149   5.792   3.968  12.211
 1552SOL    HW135150   5.718   4.022  12.239
 1552SOL    HW235151   5.773   3.882  12.248
 1553SOL     OW35152   5.807   5.832  12.210
 1553SOL    HW135153   5.733   5.893  12.209
 1553SOL    HW235154   5.774   5.754  12.254
 1554SOL     OW35155   1.425   0.232   0.620
 1554SOL    HW135156   1.381   0.147   0.611
 1554SOL    HW235157   1.374   0.279   0.686
 1555SOL     OW35158   1.445   2.073   0.668
 1555SOL    HW135159   1.502   2.032   0.733
 1555SOL    HW235160   1.387   2.129   0.720
 1556SOL     OW35161   1.418   3.923   0.653
 1556SOL    HW135162   1.389   3.834   0.670
 1556SOL    HW235163   1.378   3.975   0.723
 1557SOL     OW35164   1.443   5.815   0.648
 1557SOL    HW135165   1.461   5.728   0.682
 1557SOL    HW235166   1.388   5.857   0.714
 1558SOL     OW35167   3.323   0.187   0.668
 1558SOL    HW135168   3.247   0.133   0.645
 1558SOL    HW235169   3.286   0.267   0.706
 1559SOL     OW35170   3.309   2.098   0.660
 1559SOL    HW135171   3.304   2.005   0.682
 1559SOL    HW235172   3.252   2.141   0.724
 1560SOL     OW35173   3.482   4.005   0.708
 1560SOL    HW135174   3.572   3.980   0.726
 1560SOL    HW235175   3.434   3.981   0.788
 1561SOL     OW35176   5.162   0.191   0.671
 1561SOL    HW135177   5.092   0.130   0.646
 1561SOL    HW235178   5.118   0.256   0.727
 1562SOL     OW35179   5.110   2.015   0.705
 1562SOL    HW135180   5.182   2.040   0.648
 1562SOL    HW235181   5.077   2.098   0.740
 1563SOL     OW35182   5.169   5.819   0.648
 1563SOL    HW135183   5.187   5.729   0.675
 1563SOL    HW235184   5.116   5.855   0.719
 1564SOL     OW35185   0.071   0.554   0.668
 1564SOL    HW135186   0.163   0.557   0.641
 1564SOL    HW235187   0.075   0.543   0.763
 1565SOL     OW35188   0.049   2.472   0.680
 1565SOL    HW135189   0.136   2.458   0.642
 1565SOL    HW235190   0.061   2.453   0.773
 1566SOL     OW35191   0.081   4.293   0.642
 1566SOL    HW135192   0.173   4.285   0.618
 1566SOL    HW235193   0.081   4.293   0.738
 1567SOL     OW35194   0.083   6.160   0.702
 1567SOL    HW135195   0.159   6.131   0.651
 1567SOL    HW235196   0.100   6.128   0.790
 1568SOL     OW35197   1.922   0.582   0.652
 1568SOL    HW135198   2.001   0.568   0.600
 1568SOL    HW235199   1.953   0.580   0.743
 1569SOL     OW35200   1.911   2.423   0.646
 1569SOL    HW135201   1.991   2.425   0.594
 1569SOL    HW235202   1.941   2.417   0.737
 1570SOL     OW35203   1.877   4.259   0.615
 1570SOL    HW135204   1.898   4.214   0.533
 1570SOL    HW235205   1.935   4.221   0.680
 1571SOL     OW35206   3.791   0.582   0.647
 1571SOL    HW135207   3.873   0.565   0.600
 1571SOL    HW235208   3.811   0.565   0.738
 1572SOL     OW35209   3.780   2.431   0.664
 1572SOL    HW135210   3.860   2.434   0.611
 1572SOL    HW235211   3.812   2.427   0.754
 1573SOL     OW35212   3.821   4.283   0.636
 1573SOL    HW135213   3.904   4.270   0.591
 1573SOL    HW235214   3.843   4.276   0.729
 1574SOL     OW35215   3.774   6.153   0.643
 1574SOL    HW135216   3.859   6.155   0.599
 1574SOL    HW235217   3.796   6.152   0.736
 1575SOL     OW35218   5.621   0.552   0.667
 1575SOL    HW135219   5.681   0.537   0.594
 1575SOL    HW235220   5.677   0.550   0.744
 1576SOL     OW35221   5.628   2.421   0.649
 1576SOL    HW135222   5.704   2.422   0.591
 1576SOL    HW235223   5.666   2.414   0.737
 1577SOL     OW35224   5.617   4.296   0.663
 1577SOL    HW135225   5.679   4.274   0.593
 1577SOL    HW235226   5.668   4.287   0.744
 1578SOL     OW35227   5.618   6.156   0.630
 1578SOL    HW135228   5.673   6.101   0.573
 1578SOL    HW235229   5.654   6.142   0.717
 1579SOL     OW35230   0.414   1.339  12.228
 1579SOL    HW135231   0.405   1.403  12.158
 1579SOL    HW235232   0.354   1.268  12.203
 1580SOL     OW35233   0.396   3.177  12.227
 1580SOL    HW135234   0.368   3.266  12.205
 1580SOL    HW235235   0.351   3.122  12.164
 1581SOL     OW35236   0.387   5.048  12.215
 1581SOL    HW135237   0.368   5.119  12.154
 1581SOL    HW235238   0.319   4.983  12.198
 1582SOL     OW35239   2.232   1.315  12.211
 1582SOL    HW135240   2.231   1.387  12.148
 1582SOL    HW235241   2.156   1.262  12.188
 1583SOL     OW35242   2.216   3.172  12.224
 1583SOL    HW135243   2.197   3.249  12.171
 1583SOL    HW235244   2.141   3.114  12.209
 1584SOL     OW35245   2.279   5.057  12.213
 1584SOL    HW135246   2.249   5.129  12.158
 1584SOL    HW235247   2.208   4.993  12.210
 1585SOL     OW35248   4.100   1.299  12.218
 1585SOL    HW135249   4.102   1.368  12.152
 1585SOL    HW235250   4.021   1.248  12.197
 1586SOL     OW35251   4.087   3.192  12.227
 1586SOL    HW135252   4.102   3.244  12.148
 1586SOL    HW235253   4.029   3.121  12.198
 1587SOL     OW35254   4.076   5.034  12.221
 1587SOL    HW135255   4.099   5.094  12.150
 1587SOL    HW235256   4.010   4.976  12.183
 1588SOL     OW35257   5.969   5.037  12.207
 1588SOL    HW135258   5.965   5.109  12.144
 1588SOL    HW235259   5.889   4.987  12.191
 1589SOL     OW35260   0.704   0.225  12.212
 1589SOL    HW135261   0.792   0.202  12.181
 1589SOL    HW235262   0.716   0.247  12.305
 1590SOL     OW35263   0.707   2.065  12.210
 1590SOL    HW135264   0.790   2.034  12.174
 1590SOL    HW235265   0.725   2.081  12.303
 1591SOL     OW35266   0.699   3.913  12.215
 1591SOL    HW135267   0.773   3.888  12.160
 1591SOL    HW235268   0.739   3.942  12.297
 1592SOL     OW35269   0.710   5.785  12.186
 1592SOL    HW135270   0.792   5.748  12.155
 1592SOL    HW235271   0.716   5.780  12.281
 1593SOL     OW35272   2.553   0.210  12.217
 1593SOL    HW135273   2.636   0.211  12.169
 1593SOL    HW235274   2.576   0.238  12.305
 1594SOL     OW35275   2.441   3.896  12.231
 1594SOL    HW135276   2.505   3.950  12.276
 1594SOL    HW235277   2.388   3.858  12.301
 1595SOL     OW35278   2.550   5.769  12.209
 1595SOL    HW135279   2.630   5.746  12.161
 1595SOL    HW235280   2.581   5.794  12.296
 1596SOL     OW35281   4.422   0.263  12.217
 1596SOL    HW135282   4.503   0.236  12.173
 1596SOL    HW235283   4.444   0.265  12.310
 1597SOL     OW35284   4.415   2.043  12.194
 1597SOL    HW135285   4.500   2.024  12.155
 1597SOL    HW235286   4.436   2.079  12.280
 1598SOL     OW35287   4.421   3.906  12.206
 1598SOL    HW135288   4.504   3.884  12.162
 1598SOL    HW235289   4.447   3.931  12.295
 1599SOL     OW35290   4.406   5.755  12.209
 1599SOL    HW135291   4.489   5.741  12.164
 1599SOL    HW235292   4.430   5.775  12.299
 1600SOL     OW35293   6.258   0.203  12.244
 1600SOL    HW135294   6.344   0.187  12.205
 1600SOL    HW235295   6.276   0.252  12.324
 1601SOL     OW35296   6.229   2.027  12.153
 1601SOL    HW135297   6.322   2.016  12.133
 1601SOL    HW235298   6.225   2.031  12.249
 1602SOL     OW35299   6.232   3.916  12.158
 1602SOL    HW135300   6.324   3.906  12.134
 1602SOL    HW235301   6.229   3.893  12.251
 1603SOL     OW35302   6.236   5.748  12.140
 1603SOL    HW135303   6.329   5.731  12.124
 1603SOL    HW235304   6.234   5.792  12.224
 1604SOL     OW35305   1.240   1.701   0.581
 1604SOL    HW135306   1.301   1.761   0.624
 1604SOL    HW235307   1.254   1.617   0.626
 1605SOL     OW35308   1.325   3.615   0.686
 1605SOL    HW135309   1.328   3.630   0.591
 1605SOL    HW235310   1.290   3.526   0.695
 1606SOL     OW35311   1.252   5.441   0.582
 1606SOL    HW135312   1.340   5.479   0.574
 1606SOL    HW235313   1.268   5.355   0.622
 1607SOL     OW35314   3.096   1.696   0.569
 1607SOL    HW135315   3.179   1.744   0.564
 1607SOL    HW235316   3.115   1.622   0.628
 1608SOL     OW35317   3.071   3.460   0.696
 1608SOL    HW135318   3.134   3.483   0.764
 1608SOL    HW235319   3.095   3.372   0.668
 1609SOL     OW35320   3.096   5.439   0.575
 1609SOL    HW135321   3.180   5.485   0.569
 1609SOL    HW235322   3.116   5.359   0.623
 1610SOL     OW35323   4.974   1.714   0.631
 1610SOL    HW135324   5.053   1.743   0.585
 1610SOL    HW235325   4.989   1.738   0.722
 1611SOL     OW35326   4.988   3.604   0.644
 1611SOL    HW135327   5.071   3.627   0.602
 1611SOL    HW235328   4.993   3.509   0.658
 1612SOL     OW35329   4.973   5.455   0.608
 1612SOL    HW135330   5.060   5.488   0.586
 1612SOL    HW235331   4.988   5.366   0.640
 1613SOL     OW35332   1.638   0.169  12.223
 1613SOL    HW135333   1.662   0.238  12.161
 1613SOL    HW235334   1.573   0.209  12.280
 1614SOL     OW35335   1.607   1.989  12.167
 1614SOL    HW135336   1.632   2.075  12.133
 1614SOL    HW235337   1.581   2.005  12.257
 1615SOL     OW35338   1.610   5.719  12.167
 1615SOL    HW135339   1.642   5.800  12.125
 1615SOL    HW235340   1.570   5.749  12.248
 1616SOL     OW35341   3.483   0.164  12.207
 1616SOL    HW135342   3.514   0.237  12.153
 1616SOL    HW235343   3.434   0.205  12.278
 1617SOL     OW35344   3.446   1.973  12.176
 1617SOL    HW135345   3.474   2.048  12.123
 1617SOL    HW235346   3.425   2.010  12.261
 1618SOL     OW35347   3.570   3.779  12.295
 1618SOL    HW135348   3.519   3.811  12.220
 1618SOL    HW235349   3.508   3.781  12.368
 1619SOL     OW35350   3.472   5.733  12.157
 1619SOL    HW135351   3.540   5.730  12.089
 1619SOL    HW235352   3.445   5.824  12.160
 1620SOL     OW35353   5.354   0.158  12.230
 1620SOL    HW135354   5.398   0.229  12.183
 1620SOL    HW235355   5.299   0.202  12.295
 1621SOL     OW35356   5.317   3.862  12.150
 1621SOL    HW135357   5.363   3.935  12.109
 1621SOL    HW235358   5.296   3.893  12.238
 1622SOL     OW35359   5.330   5.718  12.169
 1622SOL    HW135360   5.364   5.798  12.128
 1622SOL    HW235361   5.285   5.749  12.248
 1623SOL     OW35362   1.213   0.199  12.185
 1623SOL    HW135363   1.193   0.266  12.250
 1623SOL    HW235364   1.243   0.248  12.108
 1624SOL     OW35365   1.185   2.041  12.187
 1624SOL    HW135366   1.171   2.107  12.255
 1624SOL    HW235367   1.225   2.090  12.115
 1625SOL     OW35368   1.162   3.912  12.176
 1625SOL    HW135369   1.158   3.976  12.248
 1625SOL    HW235370   1.219   3.953  12.111
 1626SOL     OW35371   1.185   5.765  12.181
 1626SOL    HW135372   1.162   5.833  12.245
 1626SOL    HW235373   1.223   5.813  12.107
 1627SOL     OW35374   3.045   2.051  12.172
 1627SOL    HW135375   3.033   2.114  12.243
 1627SOL    HW235376   3.091   2.101  12.103
 1628SOL     OW35377   3.351   3.943  12.174
 1628SOL    HW135378   3.381   3.992  12.251
 1628SOL    HW235379   3.261   3.973  12.160
 1629SOL     OW35380   3.031   5.770  12.179
 1629SOL    HW135381   3.017   5.837  12.245
 1629SOL    HW235382   3.071   5.816  12.106
 1630SOL     OW35383   4.933   0.210  12.169
 1630SOL    HW135384   4.916   0.264  12.246
 1630SOL    HW235385   4.961   0.271  12.101
 1631SOL     OW35386   4.926   2.043  12.184
 1631SOL    HW135387   4.896   2.106  12.249
 1631SOL    HW235388   4.951   2.096  12.109
 1632SOL     OW35389   4.893   3.910  12.178
 1632SOL    HW135390   4.882   3.973  12.249
 1632SOL    HW235391   4.942   3.958  12.111
 1633SOL     OW35392   4.902   5.773  12.179
 1633SOL    HW135393   4.886   5.838  12.248
 1633SOL    HW235394   4.941   5.823  12.107
 1634SOL     OW35395   1.305   1.462   0.698
 1634SOL    HW135396   1.363   1.477   0.773
 1634SOL    HW235397   1.238   1.402   0.730
 1635SOL     OW35398   1.314   3.318   0.681
 1635SOL    HW135399   1.356   3.317   0.767
 1635SOL    HW235400   1.244   3.253   0.689
 1636SOL     OW35401   1.317   5.192   0.680
 1636SOL    HW135402   1.361   5.194   0.765
 1636SOL    HW235403   1.263   5.113   0.682
 1637SOL     OW35404   3.175   1.457   0.692
 1637SOL    HW135405   3.234   1.479   0.764
 1637SOL    HW235406   3.105   1.406   0.733
 1638SOL     OW35407   3.179   3.207   0.684
 1638SOL    HW135408   3.210   3.189   0.773
 1638SOL    HW235409   3.113   3.140   0.667
 1639SOL     OW35410   3.153   5.201   0.700
 1639SOL    HW135411   3.221   5.212   0.767
 1639SOL    HW235412   3.081   5.158   0.746
 1640SOL     OW35413   5.034   3.329   0.677
 1640SOL    HW135414   5.083   3.331   0.759
 1640SOL    HW235415   4.974   3.255   0.686
 1641SOL     OW35416   5.035   5.200   0.681
 1641SOL    HW135417   5.087   5.198   0.761
 1641SOL    HW235418   4.982   5.120   0.684
 1642SOL     OW35419   0.212   1.153  12.181
 1642SOL    HW135420   0.176   1.111  12.259
 1642SOL    HW235421   0.217   1.083  12.116
 1643SOL     OW35422   0.207   2.968  12.178
 1643SOL    HW135423   0.123   2.939  12.213
 1643SOL    HW235424   0.216   2.921  12.095
 1644SOL     OW35425   0.188   4.859  12.187
 1644SOL    HW135426   0.152   4.808  12.260
 1644SOL    HW235427   0.198   4.795  12.117
 1645SOL     OW35428   2.004   1.151  12.183
 1645SOL    HW135429   2.014   1.118  12.272
 1645SOL    HW235430   2.024   1.076  12.127
 1646SOL     OW35431   1.995   3.006  12.196
 1646SOL    HW135432   2.005   2.969  12.284
 1646SOL    HW235433   2.015   2.933  12.138
 1647SOL     OW35434   3.869   1.147  12.182
 1647SOL    HW135435   3.878   1.109  12.269
 1647SOL    HW235436   3.887   1.075  12.122
 1648SOL     OW35437   3.902   2.985  12.179
 1648SOL    HW135438   3.914   2.939  12.262
 1648SOL    HW235439   3.913   2.918  12.112
 1649SOL     OW35440   3.839   4.863  12.181
 1649SOL    HW135441   3.861   4.826  12.267
 1649SOL    HW235442   3.873   4.799  12.118
 1650SOL     OW35443   5.696   1.135  12.169
 1650SOL    HW135444   5.777   1.175  12.202
 1650SOL    HW235445   5.726   1.070  12.105
 1651SOL     OW35446   5.730   3.015  12.182
 1651SOL    HW135447   5.748   2.983  12.271
 1651SOL    HW235448   5.752   2.942  12.125
 1652SOL     OW35449   5.735   4.881  12.189
 1652SOL    HW135450   5.740   4.845  12.278
 1652SOL    HW235451   5.751   4.806  12.132
 1653SOL     OW35452   0.822   0.614  12.136
 1653SOL    HW135453   0.790   0.593  12.224
 1653SOL    HW235454   0.786   0.544  12.081
 1654SOL     OW35455   0.951   1.669  12.157
 1654SOL    HW135456   0.906   1.629  12.082
 1654SOL    HW235457   0.937   1.763  12.146
 1655SOL     OW35458   0.784   2.473  12.142
 1655SOL    HW135459   0.768   2.437  12.230
 1655SOL    HW235460   0.765   2.400  12.083
 1656SOL     OW35461   0.953   3.523  12.159
 1656SOL    HW135462   0.918   3.484  12.079
 1656SOL    HW235463   0.948   3.617  12.144
 1657SOL     OW35464   0.785   4.344  12.136
 1657SOL    HW135465   0.771   4.313  12.225
 1657SOL    HW235466   0.766   4.268  12.081
 1658SOL     OW35467   0.929   5.400  12.170
 1658SOL    HW135468   0.912   5.352  12.089
 1658SOL    HW235469   0.915   5.492  12.147
 1659SOL     OW35470   0.800   6.205  12.147
 1659SOL    HW135471   0.759   6.174  12.227
 1659SOL    HW235472   0.763   6.150  12.078
 1660SOL     OW35473   2.664   0.613  12.136
 1660SOL    HW135474   2.636   0.583  12.222
 1660SOL    HW235475   2.634   0.545  12.076
 1661SOL     OW35476   2.758   1.690  12.188
 1661SOL    HW135477   2.759   1.635  12.109
 1661SOL    HW235478   2.790   1.775  12.159
 1662SOL     OW35479   2.677   2.461  12.135
 1662SOL    HW135480   2.651   2.430  12.222
 1662SOL    HW235481   2.643   2.395  12.075
 1663SOL     OW35482   2.914   3.305  12.011
 1663SOL    HW135483   2.848   3.246  12.050
 1663SOL    HW235484   2.930   3.370  12.079
 1664SOL     OW35485   2.649   4.369  12.117
 1664SOL    HW135486   2.645   4.289  12.170
 1664SOL    HW235487   2.590   4.352  12.044
 1665SOL     OW35488   2.825   5.385  12.150
 1665SOL    HW135489   2.790   5.343  12.072
 1665SOL    HW235490   2.804   5.478  12.139
 1666SOL     OW35491   2.669   6.222  12.163
 1666SOL    HW135492   2.647   6.179  12.246
 1666SOL    HW235493   2.645   6.158  12.096
 1667SOL     OW35494   4.496   0.605  12.139
 1667SOL    HW135495   4.476   0.577  12.228
 1667SOL    HW235496   4.478   0.528  12.085
 1668SOL     OW35497   4.658   1.671  12.167
 1668SOL    HW135498   4.633   1.634  12.083
 1668SOL    HW235499   4.658   1.765  12.154
 1669SOL     OW35500   4.494   2.486  12.135
 1669SOL    HW135501   4.488   2.453  12.224
 1669SOL    HW235502   4.511   2.409  12.081
 1670SOL     OW35503   4.619   3.551  12.183
 1670SOL    HW135504   4.624   3.501  12.101
 1670SOL    HW235505   4.632   3.642  12.155
 1671SOL     OW35506   4.513   4.343  12.131
 1671SOL    HW135507   4.489   4.317  12.220
 1671SOL    HW235508   4.495   4.267  12.077
 1672SOL     OW35509   4.572   5.417  12.110
 1672SOL    HW135510   4.594   5.431  12.018
 1672SOL    HW235511   4.615   5.488  12.157
 1673SOL     OW35512   4.515   6.214  12.170
 1673SOL    HW135513   4.465   6.186  12.247
 1673SOL    HW235514   4.499   6.146  12.105
 1674SOL     OW35515   1.094   0.684  12.168
 1674SOL    HW135516   1.017   0.628  12.153
 1674SOL    HW235517   1.168   0.631  12.139
 1675SOL     OW35518   1.082   2.547  12.149
 1675SOL    HW135519   1.030   2.467  12.162
 1675SOL    HW235520   1.171   2.516  12.134
 1676SOL     OW35521   1.094   4.403  12.146
 1676SOL    HW135522   1.046   4.323  12.164
 1676SOL    HW235523   1.186   4.376  12.141
 1677SOL     OW35524   2.956   0.705  12.160
 1677SOL    HW135525   2.897   0.632  12.179
 1677SOL    HW235526   3.043   0.664  12.153
 1678SOL     OW35527   2.946   2.516  12.149
 1678SOL    HW135528   2.857   2.481  12.147
 1678SOL    HW235529   2.998   2.447  12.190
 1679SOL     OW35530   2.909   4.425  12.108
 1679SOL    HW135531   2.815   4.409  12.119
 1679SOL    HW235532   2.936   4.365  12.039
 1680SOL     OW35533   2.921   6.336  12.150
 1680SOL    HW135534   2.842   6.284  12.163
 1680SOL    HW235535   2.993   6.274  12.164
 1681SOL     OW35536   4.809   0.687  12.165
 1681SOL    HW135537   4.775   0.613  12.215
 1681SOL    HW235538   4.903   0.669  12.156
 1682SOL     OW35539   4.811   2.530  12.146
 1682SOL    HW135540   4.765   2.451  12.117
 1682SOL    HW235541   4.903   2.506  12.144
 1683SOL     OW35542   4.817   4.411  12.152
 1683SOL    HW135543   4.764   4.333  12.164
 1683SOL    HW235544   4.907   4.379  12.149
 1684SOL     OW35545   4.773   6.332  12.215
 1684SOL    HW135546   4.692   6.284  12.199
 1684SOL    HW235547   4.842   6.270  12.192
 1685SOL     OW35548   0.590   0.226   0.712
 1685SOL    HW135549   0.619   0.144   0.753
 1685SOL    HW235550   0.496   0.229   0.730
 1686SOL     OW35551   0.588   2.072   0.706
 1686SOL    HW135552   0.618   2.003   0.766
 1686SOL    HW235553   0.498   2.090   0.734
 1687SOL     OW35554   0.583   3.950   0.706
 1687SOL    HW135555   0.646   3.886   0.739
 1687SOL    HW235556   0.502   3.932   0.754
 1688SOL     OW35557   0.577   5.831   0.709
 1688SOL    HW135558   0.619   5.769   0.769
 1688SOL    HW235559   0.483   5.819   0.724
 1689SOL     OW35560   2.402   0.155   0.673
 1689SOL    HW135561   2.474   0.105   0.710
 1689SOL    HW235562   2.414   0.244   0.707
 1690SOL     OW35563   2.429   2.078   0.711
 1690SOL    HW135564   2.469   2.006   0.759
 1690SOL    HW235565   2.336   2.073   0.732
 1691SOL     OW35566   2.349   4.073   0.710
 1691SOL    HW135567   2.346   3.985   0.747
 1691SOL    HW235568   2.271   4.079   0.654
 1692SOL     OW35569   2.429   5.819   0.720
 1692SOL    HW135570   2.477   5.784   0.795
 1692SOL    HW235571   2.336   5.810   0.745
 1693SOL     OW35572   4.303   0.220   0.708
 1693SOL    HW135573   4.331   0.142   0.755
 1693SOL    HW235574   4.210   0.229   0.729
 1694SOL     OW35575   4.289   2.078   0.709
 1694SOL    HW135576   4.334   2.029   0.778
 1694SOL    HW235577   4.198   2.081   0.738
 1695SOL     OW35578   4.291   3.985   0.722
 1695SOL    HW135579   4.310   3.943   0.638
 1695SOL    HW235580   4.204   3.953   0.746
 1696SOL     OW35581   4.296   5.821   0.719
 1696SOL    HW135582   4.339   5.758   0.777
 1696SOL    HW235583   4.203   5.814   0.741
 1697SOL     OW35584   6.168   0.221   0.700
 1697SOL    HW135585   6.205   0.154   0.758
 1697SOL    HW235586   6.075   0.222   0.721
 1698SOL     OW35587   6.157   2.076   0.702
 1698SOL    HW135588   6.208   2.038   0.773
 1698SOL    HW235589   6.066   2.067   0.730
 1699SOL     OW35590   6.147   3.931   0.703
 1699SOL    HW135591   6.233   3.896   0.725
 1699SOL    HW235592   6.085   3.863   0.730
 1700SOL     OW35593   6.152   5.847   0.702
 1700SOL    HW135594   6.212   5.776   0.726
 1700SOL    HW235595   6.066   5.815   0.730
 1701SOL     OW35596   1.780   1.729   0.669
 1701SOL    HW135597   1.867   1.741   0.632
 1701SOL    HW235598   1.763   1.635   0.662
 1702SOL     OW35599   1.053   0.027   0.700
 1702SOL    HW135600   1.019   6.397   0.740
 1702SOL    HW235601   1.134   6.449   0.657
 1703SOL     OW35602   1.623   3.582   0.598
 1703SOL    HW135603   1.694   3.628   0.642
 1703SOL    HW235604   1.641   3.489   0.611
 1704SOL     OW35605   1.021   1.877   0.639
 1704SOL    HW135606   0.943   1.827   0.614
 1704SOL    HW235607   1.094   1.818   0.618
 1705SOL     OW35608   1.793   5.452   0.698
 1705SOL    HW135609   1.859   5.482   0.635
 1705SOL    HW235610   1.770   5.364   0.668
 1706SOL     OW35611   1.027   5.593   0.647
 1706SOL    HW135612   0.956   5.529   0.634
 1706SOL    HW235613   1.107   5.543   0.629
 1707SOL     OW35614   3.655   1.713   0.699
 1707SOL    HW135615   3.713   1.750   0.632
 1707SOL    HW235616   3.625   1.630   0.662
 1708SOL     OW35617   2.906   0.015   0.678
 1708SOL    HW135618   2.890   6.383   0.725
 1708SOL    HW235619   2.996   0.008   0.646
 1709SOL     OW35620   3.805   3.503   0.670
 1709SOL    HW135621   3.822   3.552   0.589
 1709SOL    HW235622   3.757   3.426   0.641
 1710SOL     OW35623   2.884   1.878   0.652
 1710SOL    HW135624   2.827   1.822   0.597
 1710SOL    HW235625   2.969   1.834   0.651
 1711SOL     OW35626   3.665   5.438   0.708
 1711SOL    HW135627   3.720   5.480   0.642
 1711SOL    HW235628   3.636   5.357   0.667
 1712SOL     OW35629   2.853   3.614   0.618
 1712SOL    HW135630   2.821   3.548   0.558
 1712SOL    HW235631   2.933   3.577   0.655
 1713SOL     OW35632   2.883   5.604   0.653
 1713SOL    HW135633   2.831   5.545   0.599
 1713SOL    HW235634   2.972   5.567   0.650
 1714SOL     OW35635   5.530   1.718   0.699
 1714SOL    HW135636   5.590   1.750   0.631
 1714SOL    HW235637   5.497   1.635   0.665
 1715SOL     OW35638   4.783   0.015   0.698
 1715SOL    HW135639   4.780   6.405   0.773
 1715SOL    HW235640   4.863   6.441   0.651
 1716SOL     OW35641   5.536   3.590   0.705
 1716SOL    HW135642   5.595   3.612   0.633
 1716SOL    HW235643   5.501   3.504   0.681
 1717SOL     OW35644   4.739   1.876   0.649
 1717SOL    HW135645   4.685   1.828   0.587
 1717SOL    HW235646   4.826   1.836   0.642
 1718SOL     OW35647   5.471   5.479   0.630
 1718SOL    HW135648   5.554   5.487   0.584
 1718SOL    HW235649   5.484   5.406   0.691
 1719SOL     OW35650   4.748   3.737   0.669
 1719SOL    HW135651   4.677   3.681   0.636
 1719SOL    HW235652   4.827   3.684   0.657
 1720SOL     OW35653   4.745   5.599   0.650
 1720SOL    HW135654   4.690   5.542   0.596
 1720SOL    HW235655   4.831   5.557   0.650
 1721SOL     OW35656   0.104   6.432   0.661
 1721SOL    HW135657   0.097   6.339   0.683
 1721SOL    HW235658   0.177   6.437   0.599
 1722SOL     OW35659   0.586   1.307   0.742
 1722SOL    HW135660   0.504   1.312   0.694
 1722SOL    HW235661   0.602   1.397   0.771
 1723SOL     OW35662   0.590   3.167   0.741
 1723SOL    HW135663   0.508   3.170   0.693
 1723SOL    HW235664   0.604   3.257   0.771
 1724SOL     OW35665   0.589   5.034   0.746
 1724SOL    HW135666   0.504   5.038   0.701
 1724SOL    HW235667   0.601   5.121   0.782
 1725SOL     OW35668   2.471   1.304   0.742
 1725SOL    HW135669   2.380   1.286   0.720
 1725SOL    HW235670   2.473   1.398   0.762
 1726SOL     OW35671   2.472   3.096   0.666
 1726SOL    HW135672   2.431   3.010   0.663
 1726SOL    HW235673   2.500   3.113   0.576
 1727SOL     OW35674   2.420   5.030   0.742
 1727SOL    HW135675   2.364   4.998   0.813
 1727SOL    HW235676   2.444   5.118   0.769
 1728SOL     OW35677   4.314   1.311   0.730
 1728SOL    HW135678   4.233   1.310   0.679
 1728SOL    HW235679   4.335   1.404   0.739
 1729SOL     OW35680   4.335   5.028   0.756
 1729SOL    HW135681   4.269   5.018   0.688
 1729SOL    HW235682   4.339   5.122   0.772
 1730SOL     OW35683   6.127   1.196   0.644
 1730SOL    HW135684   6.062   1.263   0.624
 1730SOL    HW235685   6.199   1.243   0.685
 1731SOL     OW35686   6.146   3.049   0.661
 1731SOL    HW135687   6.087   3.120   0.635
 1731SOL    HW235688   6.214   3.092   0.713
 1732SOL     OW35689   6.143   4.931   0.647
 1732SOL    HW135690   6.068   4.985   0.621
 1732SOL    HW235691   6.194   4.987   0.706
 1733SOL     OW35692   0.594   1.837  12.100
 1733SOL    HW135693   0.523   1.801  12.153
 1733SOL    HW235694   0.626   1.911  12.151
 1734SOL     OW35695   0.586   3.681  12.097
 1734SOL    HW135696   0.515   3.650  12.152
 1734SOL    HW235697   0.629   3.748  12.149
 1735SOL     OW35698   0.591   5.540  12.112
 1735SOL    HW135699   0.518   5.505  12.163
 1735SOL    HW235700   0.616   5.620  12.159
 1736SOL     OW35701   2.466   1.834  12.151
 1736SOL    HW135702   2.371   1.824  12.154
 1736SOL    HW235703   2.500   1.766  12.209
 1737SOL     OW35704   2.318   3.710  12.064
 1737SOL    HW135705   2.252   3.671  12.121
 1737SOL    HW235706   2.357   3.780  12.117
 1738SOL     OW35707   2.453   5.520  12.126
 1738SOL    HW135708   2.375   5.496  12.176
 1738SOL    HW235709   2.496   5.588  12.179
 1739SOL     OW35710   4.288   1.810  12.107
 1739SOL    HW135711   4.218   1.794  12.171
 1739SOL    HW235712   4.334   1.887  12.140
 1740SOL     OW35713   4.295   3.682  12.102
 1740SOL    HW135714   4.226   3.656  12.163
 1740SOL    HW235715   4.335   3.759  12.143
 1741SOL     OW35716   4.298   5.505  12.153
 1741SOL    HW135717   4.371   5.460  12.194
 1741SOL    HW235718   4.326   5.596  12.146
 1742SOL     OW35719   6.190   1.752  12.143
 1742SOL    HW135720   6.098   1.741  12.170
 1742SOL    HW235721   6.201   1.846  12.133
 1743SOL     OW35722   6.198   3.631  12.155
 1743SOL    HW135723   6.111   3.606  12.188
 1743SOL    HW235724   6.191   3.724  12.136
 1744SOL     OW35725   6.195   5.479  12.169
 1744SOL    HW135726   6.104   5.474  12.200
 1744SOL    HW235727   6.209   5.572  12.151
 1745SOL     OW35728   1.353   0.587  12.119
 1745SOL    HW135729   1.379   0.568  12.209
 1745SOL    HW235730   1.377   0.678  12.105
 1746SOL     OW35731   1.339   2.468  12.101
 1746SOL    HW135732   1.376   2.440  12.185
 1746SOL    HW235733   1.376   2.556  12.087
 1747SOL     OW35734   1.348   4.316  12.131
 1747SOL    HW135735   1.378   4.284  12.216
 1747SOL    HW235736   1.394   4.398  12.118
 1748SOL     OW35737   1.264   6.185  12.170
 1748SOL    HW135738   1.312   6.145  12.242
 1748SOL    HW235739   1.318   6.259  12.143
 1749SOL     OW35740   3.205   0.596  12.119
 1749SOL    HW135741   3.247   0.567  12.200
 1749SOL    HW235742   3.240   0.684  12.104
 1750SOL     OW35743   3.227   4.402  11.990
 1750SOL    HW135744   3.192   4.467  12.051
 1750SOL    HW235745   3.238   4.450  11.908
 1751SOL     OW35746   3.167   6.153  12.170
 1751SOL    HW135747   3.213   6.126  12.250
 1751SOL    HW235748   3.212   6.233  12.142
 1752SOL     OW35749   5.053   0.579  12.151
 1752SOL    HW135750   5.091   0.557  12.236
 1752SOL    HW235751   5.128   0.597  12.095
 1753SOL     OW35752   5.076   2.459  12.135
 1753SOL    HW135753   5.103   2.429  12.222
 1753SOL    HW235754   5.111   2.548  12.129
 1754SOL     OW35755   5.071   4.314  12.140
 1754SOL    HW135756   5.103   4.285  12.226
 1754SOL    HW235757   5.110   4.400  12.128
 1755SOL     OW35758   5.024   6.165  12.154
 1755SOL    HW135759   5.060   6.136  12.238
 1755SOL    HW235760   5.069   6.248  12.137
 1756SOL     OW35761   0.662   0.843  12.209
 1756SOL    HW135762   0.653   0.918  12.151
 1756SOL    HW235763   0.717   0.782  12.161
 1757SOL     OW35764   0.644   2.701  12.161
 1757SOL    HW135765   0.712   2.768  12.161
 1757SOL    HW235766   0.691   2.618  12.154
 1758SOL     OW35767   0.631   4.567  12.148
 1758SOL    HW135768   0.689   4.642  12.138
 1758SOL    HW235769   0.688   4.491  12.147
 1759SOL     OW35770   0.639   0.007  12.052
 1759SOL    HW135771   0.645   0.072  12.123
 1759SOL    HW235772   0.682   6.379  12.087
 1760SOL     OW35773   2.500   0.834  12.152
 1760SOL    HW135774   2.556   0.910  12.134
 1760SOL    HW235775   2.560   0.759  12.152
 1761SOL     OW35776   2.494   2.672  12.159
 1761SOL    HW135777   2.549   2.747  12.137
 1761SOL    HW235778   2.553   2.597  12.154
 1762SOL     OW35779   2.483   4.590  12.159
 1762SOL    HW135780   2.547   4.656  12.134
 1762SOL    HW235781   2.533   4.508  12.163
 1763SOL     OW35782   2.498   6.432  12.076
 1763SOL    HW135783   2.518   0.058  12.132
 1763SOL    HW235784   2.563   6.366  12.101
 1764SOL     OW35785   4.359   0.839  12.151
 1764SOL    HW135786   4.422   0.909  12.135
 1764SOL    HW235787   4.412   0.759  12.150
 1765SOL     OW35788   4.352   2.710  12.166
 1765SOL    HW135789   4.418   2.778  12.152
 1765SOL    HW235790   4.400   2.628  12.156
 1766SOL     OW35791   4.359   4.565  12.148
 1766SOL    HW135792   4.418   4.639  12.133
 1766SOL    HW235793   4.415   4.488  12.143
 1767SOL     OW35794   4.439   0.010  12.054
 1767SOL    HW135795   4.381   0.038  12.124
 1767SOL    HW235796   4.463   6.370  12.077
 1768SOL     OW35797   6.219   0.798  12.147
 1768SOL    HW135798   6.276   0.874  12.135
 1768SOL    HW235799   6.263   0.728  12.099
 1769SOL     OW35800   6.227   2.670  12.158
 1769SOL    HW135801   6.286   2.744  12.142
 1769SOL    HW235802   6.277   2.594  12.128
 1770SOL     OW35803   6.218   4.528  12.145
 1770SOL    HW135804   6.273   4.604  12.125
 1770SOL    HW235805   6.277   4.453  12.135
 1771SOL     OW35806   6.192   6.425  12.107
 1771SOL    HW135807   6.212   0.056  12.153
 1771SOL    HW235808   6.277   6.385  12.091
 1772SOL     OW35809   1.278   1.216  12.129
 1772SOL    HW135810   1.301   1.153  12.062
 1772SOL    HW235811   1.352   1.214  12.190
 1773SOL     OW35812   1.267   3.066  12.123
 1773SOL    HW135813   1.298   2.998  12.062
 1773SOL    HW235814   1.347   3.095  12.168
 1774SOL     OW35815   1.292   4.918  12.134
 1774SOL    HW135816   1.298   4.863  12.056
 1774SOL    HW235817   1.379   4.914  12.173
 1775SOL     OW35818   3.149   1.200  12.146
 1775SOL    HW135819   3.177   1.143  12.074
 1775SOL    HW235820   3.221   1.196  12.209
 1776SOL     OW35821   3.343   3.015  12.090
 1776SOL    HW135822   3.304   2.937  12.049
 1776SOL    HW235823   3.353   2.991  12.182
 1777SOL     OW35824   3.140   4.955  12.129
 1777SOL    HW135825   3.161   4.895  12.056
 1777SOL    HW235826   3.218   4.955  12.183
 1778SOL     OW35827   5.006   1.227  12.123
 1778SOL    HW135828   5.034   1.158  12.062
 1778SOL    HW235829   5.069   1.222  12.195
 1779SOL     OW35830   5.006   3.101  12.111
 1779SOL    HW135831   5.037   3.026  12.061
 1779SOL    HW235832   5.057   3.099  12.192
 1780SOL     OW35833   5.020   4.947  12.111
 1780SOL    HW135834   5.057   4.878  12.056
 1780SOL    HW235835   5.074   4.946  12.190
 1781SOL     OW35836   0.802   1.287  12.144
 1781SOL    HW135837   0.773   1.342  12.216
 1781SOL    HW235838   0.722   1.266  12.096
 1782SOL     OW35839   0.819   3.165  12.114
 1782SOL    HW135840   0.779   3.194  12.196
 1782SOL    HW235841   0.751   3.180  12.049
 1783SOL     OW35842   0.811   5.006  12.123
 1783SOL    HW135843   0.784   5.046  12.206
 1783SOL    HW235844   0.739   5.025  12.063
 1784SOL     OW35845   2.670   1.284  12.126
 1784SOL    HW135846   2.638   1.331  12.203
 1784SOL    HW235847   2.608   1.307  12.057
 1785SOL     OW35848   2.721   3.116  12.077
 1785SOL    HW135849   2.655   3.123  12.147
 1785SOL    HW235850   2.677   3.152  12.000
 1786SOL     OW35851   2.654   5.018  12.120
 1786SOL    HW135852   2.628   5.060  12.202
 1786SOL    HW235853   2.576   5.022  12.065
 1787SOL     OW35854   4.518   1.279  12.121
 1787SOL    HW135855   4.492   1.329  12.199
 1787SOL    HW235856   4.447   1.295  12.058
 1788SOL     OW35857   4.524   3.142  12.104
 1788SOL    HW135858   4.493   3.188  12.182
 1788SOL    HW235859   4.450   3.147  12.043
 1789SOL     OW35860   4.541   5.002  12.117
 1789SOL    HW135861   4.503   5.041  12.195
 1789SOL    HW235862   4.509   5.055  12.045
 1790SOL     OW35863   0.883   1.521   0.716
 1790SOL    HW135864   0.862   1.476   0.635
 1790SOL    HW235865   0.948   1.464   0.759
 1791SOL     OW35866   0.878   3.372   0.728
 1791SOL    HW135867   0.861   3.333   0.642
 1791SOL    HW235868   0.944   3.315   0.768
 1792SOL     OW35869   0.893   5.257   0.712
 1792SOL    HW135870   0.868   5.204   0.636
 1792SOL    HW235871   0.949   5.199   0.764
 1793SOL     OW35872   2.749   1.523   0.730
 1793SOL    HW135873   2.733   1.484   0.644
 1793SOL    HW235874   2.816   1.467   0.770
 1794SOL     OW35875   2.745   3.347   0.744
 1794SOL    HW135876   2.770   3.361   0.653
 1794SOL    HW235877   2.812   3.289   0.780
 1795SOL     OW35878   2.748   5.254   0.726
 1795SOL    HW135879   2.735   5.222   0.637
 1795SOL    HW235880   2.820   5.202   0.761
 1796SOL     OW35881   4.604   1.521   0.734
 1796SOL    HW135882   4.589   1.482   0.647
 1796SOL    HW235883   4.668   1.463   0.775
 1797SOL     OW35884   4.654   3.403   0.687
 1797SOL    HW135885   4.607   3.341   0.630
 1797SOL    HW235886   4.690   3.350   0.757
 1798SOL     OW35887   4.609   5.249   0.733
 1798SOL    HW135888   4.596   5.206   0.649
 1798SOL    HW235889   4.678   5.198   0.776
 1799SOL     OW35890   1.661   0.604   0.712
 1799SOL    HW135891   1.658   0.546   0.788
 1799SOL    HW235892   1.751   0.597   0.680
 1800SOL     OW35893   1.648   2.458   0.699
 1800SOL    HW135894   1.640   2.401   0.776
 1800SOL    HW235895   1.738   2.445   0.669
 1801SOL     OW35896   1.635   4.341   0.703
 1801SOL    HW135897   1.621   4.269   0.765
 1801SOL    HW235898   1.719   4.320   0.661
 1802SOL     OW35899   1.647   6.146   0.719
 1802SOL    HW135900   1.651   6.095   0.799
 1802SOL    HW235901   1.720   6.115   0.666
 1803SOL     OW35902   3.544   0.615   0.753
 1803SOL    HW135903   3.470   0.595   0.694
 1803SOL    HW235904   3.622   0.603   0.699
 1804SOL     OW35905   3.513   2.455   0.698
 1804SOL    HW135906   3.499   2.389   0.766
 1804SOL    HW235907   3.605   2.444   0.673
 1805SOL     OW35908   3.589   4.403   0.643
 1805SOL    HW135909   3.563   4.356   0.722
 1805SOL    HW235910   3.675   4.368   0.621
 1806SOL     OW35911   3.507   6.161   0.693
 1806SOL    HW135912   3.501   6.093   0.759
 1806SOL    HW235913   3.599   6.158   0.664
 1807SOL     OW35914   5.361   0.605   0.705
 1807SOL    HW135915   5.344   0.551   0.782
 1807SOL    HW235916   5.452   0.586   0.681
 1808SOL     OW35917   5.368   2.456   0.705
 1808SOL    HW135918   5.359   2.392   0.775
 1808SOL    HW235919   5.457   2.443   0.671
 1809SOL     OW35920   5.362   4.373   0.712
 1809SOL    HW135921   5.337   4.331   0.794
 1809SOL    HW235922   5.451   4.343   0.696
 1810SOL     OW35923   5.376   6.214   0.728
 1810SOL    HW135924   5.366   6.141   0.790
 1810SOL    HW235925   5.458   6.196   0.682
 1811SOL     OW35926   0.956   0.108  12.124
 1811SOL    HW135927   0.953   0.084  12.031
 1811SOL    HW235928   1.042   0.148  12.135
 1812SOL     OW35929   0.941   1.943  12.094
 1812SOL    HW135930   0.959   1.932  12.001
 1812SOL    HW235931   1.021   1.982  12.129
 1813SOL     OW35932   0.927   3.803  12.084
 1813SOL    HW135933   0.951   3.788  11.993
 1813SOL    HW235934   1.005   3.843  12.124
 1814SOL     OW35935   0.942   5.672  12.094
 1814SOL    HW135936   0.957   5.654  12.001
 1814SOL    HW235937   1.027   5.700  12.128
 1815SOL     OW35938   2.808   0.131  12.096
 1815SOL    HW135939   2.823   0.121  12.002
 1815SOL    HW235940   2.839   0.049  12.134
 1816SOL     OW35941   2.799   1.960  12.094
 1816SOL    HW135942   2.816   1.935  12.003
 1816SOL    HW235943   2.884   1.988  12.128
 1817SOL     OW35944   2.818   4.077  12.088
 1817SOL    HW135945   2.754   4.056  12.156
 1817SOL    HW235946   2.895   4.024  12.110
 1818SOL     OW35947   2.791   5.662  12.086
 1818SOL    HW135948   2.815   5.646  11.995
 1818SOL    HW235949   2.869   5.704  12.123
 1819SOL     OW35950   4.661   0.189  12.082
 1819SOL    HW135951   4.611   0.111  12.057
 1819SOL    HW235952   4.742   0.155  12.120
 1820SOL     OW35953   4.657   1.936  12.086
 1820SOL    HW135954   4.678   1.919  11.994
 1820SOL    HW235955   4.713   2.009  12.110
 1821SOL     OW35956   4.655   3.810  12.085
 1821SOL    HW135957   4.678   3.793  11.993
 1821SOL    HW235958   4.735   3.848  12.122
 1822SOL     OW35959   4.648   5.691  12.111
 1822SOL    HW135960   4.649   5.662  12.019
 1822SOL    HW235961   4.738   5.718  12.129
 1823SOL     OW35962   0.015   0.086  12.092
 1823SOL    HW135963   0.042   0.065  12.003
 1823SOL    HW235964   0.081   0.044  12.147
 1824SOL     OW35965   0.033   1.971  12.077
 1824SOL    HW135966   0.079   1.907  12.023
 1824SOL    HW235967   0.101   2.013  12.128
 1825SOL     OW35968   0.041   3.844  12.082
 1825SOL    HW135969   0.058   3.780  12.012
 1825SOL    HW235970   0.079   3.804  12.160
 1826SOL     OW35971   0.040   5.677  12.094
 1826SOL    HW135972   0.090   5.625  12.031
 1826SOL    HW235973   0.102   5.745  12.121
 1827SOL     OW35974   1.423   0.854  12.098
 1827SOL    HW135975   1.371   0.913  12.043
 1827SOL    HW235976   1.511   0.857  12.059
 1828SOL     OW35977   1.428   2.735  12.102
 1828SOL    HW135978   1.378   2.783  12.035
 1828SOL    HW235979   1.515   2.726  12.063
 1829SOL     OW35980   1.425   4.585  12.093
 1829SOL    HW135981   1.373   4.638  12.032
 1829SOL    HW235982   1.514   4.586  12.056
 1830SOL     OW35983   1.426   6.399  12.128
 1830SOL    HW135984   1.382   0.034  12.134
 1830SOL    HW235985   1.500   6.415  12.069
 1831SOL     OW35986   3.286   0.857  12.087
 1831SOL    HW135987   3.237   0.919  12.033
 1831SOL    HW235988   3.375   0.859  12.051
 1832SOL     OW35989   3.335   2.643  12.113
 1832SOL    HW135990   3.267   2.689  12.063
 1832SOL    HW235991   3.417   2.669  12.072
 1833SOL     OW35992   3.303   4.652  12.121
 1833SOL    HW135993   3.250   4.700  12.058
 1833SOL    HW235994   3.389   4.645  12.080
 1834SOL     OW35995   3.297   6.384  12.119
 1834SOL    HW135996   3.276   0.026  12.136
 1834SOL    HW235997   3.358   6.387  12.045
 1835SOL     OW35998   5.152   0.879  12.105
 1835SOL    HW135999   5.109   0.934  12.039
 1835SOL    HW236000   5.238   0.860  12.068
 1836SOL     OW36001   5.151   2.724  12.105
 1836SOL    HW136002   5.100   2.781  12.048
 1836SOL    HW236003   5.239   2.726  12.067
 1837SOL     OW36004   5.151   4.573  12.084
 1837SOL    HW136005   5.102   4.631  12.026
 1837SOL    HW236006   5.241   4.577  12.051
 1838SOL     OW36007   5.152   6.400  12.129
 1838SOL    HW136008   5.098   0.029  12.139
 1838SOL    HW236009   5.224   6.427  12.072
 1839SOL     OW36010   1.627   1.727  12.108
 1839SOL    HW136011   1.685   1.728  12.032
 1839SOL    HW236012   1.611   1.819  12.127
 1840SOL     OW36013   1.608   3.548  12.065
 1840SOL    HW136014   1.663   3.565  11.989
 1840SOL    HW236015   1.609   3.630  12.114
 1841SOL     OW36016   1.627   5.453  12.108
 1841SOL    HW136017   1.682   5.450  12.030
 1841SOL    HW236018   1.612   5.546  12.124
 1842SOL     OW36019   3.502   1.717  12.104
 1842SOL    HW136020   3.557   1.725  12.026
 1842SOL    HW236021   3.478   1.808  12.126
 1843SOL     OW36022   3.604   3.550  12.064
 1843SOL    HW136023   3.624   3.551  11.971
 1843SOL    HW236024   3.531   3.611  12.073
 1844SOL     OW36025   3.488   5.458  12.101
 1844SOL    HW136026   3.547   5.456  12.025
 1844SOL    HW236027   3.475   5.550  12.120
 1845SOL     OW36028   5.355   1.742  12.093
 1845SOL    HW136029   5.431   1.715  12.041
 1845SOL    HW236030   5.299   1.788  12.030
 1846SOL     OW36031   5.353   3.597  12.099
 1846SOL    HW136032   5.414   3.595  12.025
 1846SOL    HW236033   5.336   3.690  12.114
 1847SOL     OW36034   5.356   5.456  12.106
 1847SOL    HW136035   5.403   5.457  12.022
 1847SOL    HW236036   5.340   5.548  12.125
 1848SOL     OW36037   0.148   0.567  12.133
 1848SOL    HW136038   0.155   0.649  12.182
 1848SOL    HW236039   0.059   0.565  12.100
 1849SOL     OW36040   0.160   2.387  12.125
 1849SOL    HW136041   0.236   2.410  12.071
 1849SOL    HW236042   0.140   2.467  12.174
 1850SOL     OW36043   0.170   4.260  12.101
 1850SOL    HW136044   0.259   4.280  12.071
 1850SOL    HW236045   0.146   4.333  12.157
 1851SOL     OW36046   0.140   6.120  12.116
 1851SOL    HW136047   0.226   6.126  12.073
 1851SOL    HW236048   0.139   6.193  12.178
 1852SOL     OW36049   1.984   0.552  12.107
 1852SOL    HW136050   2.073   0.560  12.072
 1852SOL    HW236051   1.976   0.625  12.168
 1853SOL     OW36052   1.973   2.408  12.094
 1853SOL    HW136053   2.065   2.411  12.070
 1853SOL    HW236054   1.962   2.479  12.158
 1854SOL     OW36055   1.941   4.295  12.096
 1854SOL    HW136056   2.034   4.299  12.073
 1854SOL    HW236057   1.934   4.351  12.173
 1855SOL     OW36058   1.979   6.124  12.092
 1855SOL    HW136059   2.072   6.112  12.071
 1855SOL    HW236060   1.977   6.199  12.151
 1856SOL     OW36061   3.838   0.551  12.100
 1856SOL    HW136062   3.928   0.556  12.069
 1856SOL    HW236063   3.831   0.621  12.165
 1857SOL     OW36064   3.848   4.329  12.093
 1857SOL    HW136065   3.939   4.315  12.069
 1857SOL    HW236066   3.851   4.390  12.166
 1858SOL     OW36067   3.819   6.100  12.142
 1858SOL    HW136068   3.889   6.087  12.078
 1858SOL    HW236069   3.836   6.187  12.179
 1859SOL     OW36070   5.707   0.567  12.077
 1859SOL    HW136071   5.799   0.577  12.053
 1859SOL    HW236072   5.695   0.625  12.152
 1860SOL     OW36073   5.671   2.393  12.145
 1860SOL    HW136074   5.751   2.384  12.094
 1860SOL    HW236075   5.680   2.478  12.189
 1861SOL     OW36076   5.689   4.276  12.091
 1861SOL    HW136077   5.781   4.276  12.065
 1861SOL    HW236078   5.683   4.343  12.159
 1862SOL     OW36079   5.706   6.113  12.099
 1862SOL    HW136080   5.794   6.107  12.063
 1862SOL    HW236081   5.709   6.190  12.156
 1863SOL     OW36082   1.794   0.168   0.770
 1863SOL    HW136083   1.870   0.142   0.822
 1863SOL    HW236084   1.826   0.169   0.680
 1864SOL     OW36085   1.815   2.033   0.757
 1864SOL    HW136086   1.867   1.956   0.781
 1864SOL    HW236087   1.821   2.037   0.661
 1865SOL     OW36088   1.810   3.917   0.716
 1865SOL    HW136089   1.810   3.826   0.743
 1865SOL    HW236090   1.804   3.914   0.620
 1866SOL     OW36091   1.816   5.760   0.776
 1866SOL    HW136092   1.847   5.672   0.800
 1866SOL    HW236093   1.823   5.761   0.680
 1867SOL     OW36094   3.699   0.172   0.773
 1867SOL    HW136095   3.639   0.101   0.795
 1867SOL    HW236096   3.716   0.161   0.680
 1868SOL     OW36097   3.727   2.021   0.763
 1868SOL    HW136098   3.665   1.953   0.788
 1868SOL    HW236099   3.713   2.033   0.669
 1869SOL     OW36100   3.728   3.955   0.796
 1869SOL    HW136101   3.813   3.956   0.840
 1869SOL    HW236102   3.747   3.920   0.709
 1870SOL     OW36103   3.709   5.760   0.772
 1870SOL    HW136104   3.647   5.690   0.790
 1870SOL    HW236105   3.706   5.770   0.676
 1871SOL     OW36106   5.506   0.119   0.751
 1871SOL    HW136107   5.580   0.109   0.811
 1871SOL    HW236108   5.547   0.129   0.665
 1872SOL     OW36109   5.539   2.020   0.770
 1872SOL    HW136110   5.540   1.925   0.773
 1872SOL    HW236111   5.551   2.041   0.677
 1873SOL     OW36112   5.533   3.873   0.762
 1873SOL    HW136113   5.548   3.779   0.769
 1873SOL    HW236114   5.544   3.893   0.669
 1874SOL     OW36115   5.548   5.753   0.764
 1874SOL    HW136116   5.541   5.661   0.788
 1874SOL    HW236117   5.554   5.753   0.669
 1875SOL     OW36118   1.757   0.401  12.100
 1875SOL    HW136119   1.829   0.464  12.095
 1875SOL    HW236120   1.782   0.332  12.039
 1876SOL     OW36121   1.752   2.240  12.085
 1876SOL    HW136122   1.821   2.306  12.082
 1876SOL    HW236123   1.783   2.169  12.030
 1877SOL     OW36124   1.713   4.155  12.057
 1877SOL    HW136125   1.798   4.198  12.068
 1877SOL    HW236126   1.734   4.071  12.017
 1878SOL     OW36127   1.758   5.956  12.090
 1878SOL    HW136128   1.826   6.024  12.088
 1878SOL    HW236129   1.792   5.886  12.035
 1879SOL     OW36130   3.609   0.396  12.087
 1879SOL    HW136131   3.681   0.458  12.086
 1879SOL    HW236132   3.636   0.327  12.027
 1880SOL     OW36133   3.527   2.214  12.051
 1880SOL    HW136134   3.595   2.273  12.085
 1880SOL    HW236135   3.575   2.145  12.006
 1881SOL     OW36136   3.742   4.078  12.148
 1881SOL    HW136137   3.772   4.164  12.119
 1881SOL    HW236138   3.729   4.028  12.067
 1882SOL     OW36139   3.596   5.977  12.071
 1882SOL    HW136140   3.674   6.030  12.089
 1882SOL    HW236141   3.630   5.902  12.023
 1883SOL     OW36142   5.496   0.363  12.122
 1883SOL    HW136143   5.461   0.439  12.077
 1883SOL    HW236144   5.527   0.306  12.051
 1884SOL     OW36145   5.460   2.255  12.054
 1884SOL    HW136146   5.531   2.314  12.081
 1884SOL    HW236147   5.497   2.204  11.983
 1885SOL     OW36148   5.478   4.102  12.088
 1885SOL    HW136149   5.549   4.166  12.086
 1885SOL    HW236150   5.507   4.033  12.028
 1886SOL     OW36151   5.480   5.958  12.095
 1886SOL    HW136152   5.553   6.021  12.091
 1886SOL    HW236153   5.505   5.889  12.034
 1887SOL     OW36154   0.319   0.209   0.772
 1887SOL    HW136155   0.278   0.243   0.851
 1887SOL    HW236156   0.334   0.116   0.792
 1888SOL     OW36157   0.313   2.063   0.764
 1888SOL    HW136158   0.341   2.101   0.847
 1888SOL    HW236159   0.294   1.971   0.785
 1889SOL     OW36160   0.312   3.918   0.778
 1889SOL    HW136161   0.298   3.950   0.867
 1889SOL    HW236162   0.289   3.825   0.782
 1890SOL     OW36163   0.312   5.774   0.763
 1890SOL    HW136164   0.282   5.806   0.848
 1890SOL    HW236165   0.284   5.683   0.761
 1891SOL     OW36166   2.102   0.162   0.773
 1891SOL    HW136167   2.089   0.208   0.856
 1891SOL    HW236168   2.183   0.113   0.785
 1892SOL     OW36169   2.168   2.039   0.784
 1892SOL    HW136170   2.136   2.068   0.870
 1892SOL    HW236171   2.151   1.944   0.783
 1893SOL     OW36172   2.058   4.033   0.718
 1893SOL    HW136173   2.093   4.053   0.805
 1893SOL    HW236174   1.979   3.983   0.735
 1894SOL     OW36175   2.161   5.782   0.785
 1894SOL    HW136176   2.131   5.811   0.870
 1894SOL    HW236177   2.140   5.688   0.782
 1895SOL     OW36178   4.035   0.206   0.776
 1895SOL    HW136179   3.986   0.231   0.855
 1895SOL    HW236180   4.048   0.112   0.785
 1896SOL     OW36181   4.003   2.032   0.787
 1896SOL    HW136182   4.020   2.080   0.867
 1896SOL    HW236183   3.907   2.022   0.784
 1897SOL     OW36184   4.026   3.913   0.789
 1897SOL    HW136185   4.009   3.934   0.881
 1897SOL    HW236186   4.025   3.818   0.786
 1898SOL     OW36187   4.034   5.774   0.784
 1898SOL    HW136188   3.986   5.802   0.862
 1898SOL    HW236189   4.015   5.681   0.776
 1899SOL     OW36190   5.899   0.201   0.766
 1899SOL    HW136191   5.862   0.233   0.847
 1899SOL    HW236192   5.909   0.107   0.779
 1900SOL     OW36193   5.899   2.043   0.782
 1900SOL    HW136194   5.862   2.073   0.864
 1900SOL    HW236195   5.876   1.951   0.776
 1901SOL     OW36196   5.868   3.918   0.798
 1901SOL    HW136197   5.828   3.929   0.884
 1901SOL    HW236198   5.865   3.823   0.782
 1902SOL     OW36199   5.902   5.773   0.777
 1902SOL    HW136200   5.851   5.787   0.857
 1902SOL    HW236201   5.894   5.679   0.760
 1903SOL     OW36202   1.310   1.014   0.734
 1903SOL    HW136203   1.304   0.945   0.668
 1903SOL    HW236204   1.256   1.085   0.699
 1904SOL     OW36205   1.324   2.888   0.728
 1904SOL    HW136206   1.404   2.916   0.683
 1904SOL    HW236207   1.256   2.946   0.694
 1905SOL     OW36208   1.289   4.754   0.744
 1905SOL    HW136209   1.302   4.684   0.680
 1905SOL    HW236210   1.245   4.824   0.695
 1906SOL     OW36211   3.190   1.044   0.721
 1906SOL    HW136212   3.185   0.970   0.662
 1906SOL    HW236213   3.130   1.109   0.684
 1907SOL     OW36214   3.186   2.853   0.731
 1907SOL    HW136215   3.202   2.792   0.659
 1907SOL    HW236216   3.115   2.909   0.699
 1908SOL     OW36217   3.197   4.810   0.727
 1908SOL    HW136218   3.227   4.750   0.659
 1908SOL    HW236219   3.117   4.849   0.691
 1909SOL     OW36220   5.033   1.028   0.737
 1909SOL    HW136221   5.045   0.958   0.674
 1909SOL    HW236222   4.979   1.093   0.692
 1910SOL     OW36223   5.043   2.904   0.733
 1910SOL    HW136224   5.043   2.830   0.671
 1910SOL    HW236225   4.981   2.967   0.695
 1911SOL     OW36226   5.067   4.786   0.740
 1911SOL    HW136227   5.014   4.708   0.721
 1911SOL    HW236228   5.020   4.857   0.696
 1912SOL     OW36229   0.892   1.022  12.087
 1912SOL    HW136230   0.863   0.995  12.000
 1912SOL    HW236231   0.841   1.101  12.106
 1913SOL     OW36232   0.868   2.882  12.074
 1913SOL    HW136233   0.879   2.815  12.007
 1913SOL    HW236234   0.801   2.941  12.039
 1914SOL     OW36235   0.835   4.738  12.086
 1914SOL    HW136236   0.873   4.736  11.999
 1914SOL    HW236237   0.828   4.831  12.107
 1915SOL     OW36238   2.688   1.018  12.077
 1915SOL    HW136239   2.701   1.018  11.982
 1915SOL    HW236240   2.684   1.111  12.100
 1916SOL     OW36241   2.699   2.835  12.069
 1916SOL    HW136242   2.738   2.805  11.987
 1916SOL    HW236243   2.695   2.930  12.060
 1917SOL     OW36244   2.694   4.749  12.080
 1917SOL    HW136245   2.719   4.733  11.989
 1917SOL    HW236246   2.681   4.844  12.085
 1918SOL     OW36247   4.558   1.013  12.085
 1918SOL    HW136248   4.601   1.007  12.000
 1918SOL    HW236249   4.547   1.107  12.100
 1919SOL     OW36250   4.559   2.870  12.097
 1919SOL    HW136251   4.603   2.842  12.016
 1919SOL    HW236252   4.558   2.965  12.091
 1920SOL     OW36253   4.556   4.737  12.077
 1920SOL    HW136254   4.602   4.730  11.993
 1920SOL    HW236255   4.550   4.831  12.093
 1921SOL     OW36256   6.391   0.995  12.081
 1921SOL    HW136257   0.023   0.992  12.031
 1921SOL    HW236258   6.362   1.086  12.073
 1922SOL     OW36259   6.387   2.890  12.093
 1922SOL    HW136260   6.434   2.894  12.010
 1922SOL    HW236261   6.322   2.960  12.088
 1923SOL     OW36262   6.379   4.728  12.066
 1923SOL    HW136263   0.016   4.706  12.033
 1923SOL    HW236264   6.370   4.822  12.050
 1924SOL     OW36265   0.979   0.749   0.711
 1924SOL    HW136266   1.025   0.746   0.795
 1924SOL    HW236267   0.886   0.750   0.735
 1925SOL     OW36268   0.947   2.634   0.756
 1925SOL    HW136269   1.008   2.616   0.827
 1925SOL    HW236270   0.862   2.605   0.789
 1926SOL     OW36271   0.929   4.529   0.788
 1926SOL    HW136272   1.003   4.504   0.844
 1926SOL    HW236273   0.871   4.453   0.790
 1927SOL     OW36274   2.812   0.784   0.752
 1927SOL    HW136275   2.883   0.777   0.817
 1927SOL    HW236276   2.745   0.723   0.782
 1928SOL     OW36277   2.833   2.620   0.745
 1928SOL    HW136278   2.888   2.598   0.820
 1928SOL    HW236279   2.753   2.567   0.758
 1929SOL     OW36280   2.881   4.593   0.771
 1929SOL    HW136281   2.950   4.605   0.837
 1929SOL    HW236282   2.878   4.498   0.758
 1930SOL     OW36283   4.682   0.777   0.752
 1930SOL    HW136284   4.743   0.771   0.826
 1930SOL    HW236285   4.604   0.730   0.782
 1931SOL     OW36286   4.681   2.640   0.755
 1931SOL    HW136287   4.742   2.635   0.828
 1931SOL    HW236288   4.601   2.599   0.788
 1932SOL     OW36289   0.220   1.798   0.762
 1932SOL    HW136290   0.274   1.728   0.799
 1932SOL    HW236291   0.204   1.771   0.672
 1933SOL     OW36292   0.229   3.655   0.754
 1933SOL    HW136293   0.283   3.585   0.789
 1933SOL    HW236294   0.200   3.623   0.669
 1934SOL     OW36295   0.198   5.521   0.743
 1934SOL    HW136296   0.257   5.452   0.774
 1934SOL    HW236297   0.176   5.496   0.654
 1935SOL     OW36298   2.112   1.775   0.735
 1935SOL    HW136299   2.165   1.706   0.774
 1935SOL    HW236300   2.152   1.790   0.649
 1936SOL     OW36301   1.831   3.647   0.753
 1936SOL    HW136302   1.831   3.627   0.847
 1936SOL    HW236303   1.897   3.589   0.716
 1937SOL     OW36304   2.097   5.521   0.747
 1937SOL    HW136305   2.154   5.447   0.767
 1937SOL    HW236306   2.076   5.510   0.654
 1938SOL     OW36307   4.015   1.756   0.728
 1938SOL    HW136308   4.039   1.846   0.748
 1938SOL    HW236309   3.961   1.762   0.649
 1939SOL     OW36310   4.009   3.648   0.791
 1939SOL    HW136311   4.069   3.578   0.819
 1939SOL    HW236312   3.943   3.602   0.739
 1940SOL     OW36313   3.989   5.510   0.747
 1940SOL    HW136314   4.038   5.430   0.769
 1940SOL    HW236315   3.953   5.493   0.660
 1941SOL     OW36316   5.848   1.777   0.739
 1941SOL    HW136317   5.902   1.700   0.756
 1941SOL    HW236318   5.819   1.766   0.649
 1942SOL     OW36319   5.867   3.657   0.736
 1942SOL    HW136320   5.909   3.578   0.768
 1942SOL    HW236321   5.842   3.637   0.645
 1943SOL     OW36322   5.872   5.512   0.730
 1943SOL    HW136323   5.839   5.449   0.794
 1943SOL    HW236324   5.823   5.493   0.650
 1944SOL     OW36325   1.034   0.433   0.713
 1944SOL    HW136326   0.948   0.443   0.753
 1944SOL    HW236327   1.024   0.359   0.653
 1945SOL     OW36328   1.025   2.260   0.742
 1945SOL    HW136329   0.934   2.276   0.767
 1945SOL    HW236330   1.019   2.216   0.657
 1946SOL     OW36331   1.028   4.136   0.745
 1946SOL    HW136332   0.936   4.136   0.769
 1946SOL    HW236333   1.035   4.072   0.674
 1947SOL     OW36334   1.011   5.985   0.741
 1947SOL    HW136335   0.924   6.001   0.776
 1947SOL    HW236336   1.001   5.992   0.647
 1948SOL     OW36337   2.870   0.410   0.751
 1948SOL    HW136338   2.779   0.409   0.781
 1948SOL    HW236339   2.869   0.361   0.669
 1949SOL     OW36340   2.878   2.276   0.746
 1949SOL    HW136341   2.784   2.276   0.768
 1949SOL    HW236342   2.883   2.233   0.661
 1950SOL     OW36343   2.619   4.024   0.724
 1950SOL    HW136344   2.624   4.008   0.818
 1950SOL    HW236345   2.525   4.040   0.707
 1951SOL     OW36346   2.859   6.001   0.733
 1951SOL    HW136347   2.766   6.015   0.754
 1951SOL    HW236348   2.858   5.965   0.644
 1952SOL     OW36349   4.750   0.401   0.746
 1952SOL    HW136350   4.658   0.415   0.771
 1952SOL    HW236351   4.745   0.357   0.662
 1953SOL     OW36352   4.738   2.256   0.757
 1953SOL    HW136353   4.644   2.271   0.770
 1953SOL    HW236354   4.746   2.227   0.667
 1954SOL     OW36355   4.754   4.092   0.762
 1954SOL    HW136356   4.668   4.126   0.786
 1954SOL    HW236357   4.744   4.062   0.671
 1955SOL     OW36358   4.738   5.983   0.743
 1955SOL    HW136359   4.649   6.004   0.769
 1955SOL    HW236360   4.730   5.948   0.654
 1956SOL     OW36361   0.447   0.837   0.791
 1956SOL    HW136362   0.513   0.847   0.860
 1956SOL    HW236363   0.417   0.746   0.800
 1957SOL     OW36364   0.444   2.706   0.793
 1957SOL    HW136365   0.506   2.717   0.865
 1957SOL    HW236366   0.413   2.615   0.801
 1958SOL     OW36367   0.460   4.573   0.785
 1958SOL    HW136368   0.519   4.572   0.860
 1958SOL    HW236369   0.436   4.481   0.773
 1959SOL     OW36370   0.390   6.412   0.851
 1959SOL    HW136371   0.484   6.421   0.865
 1959SOL    HW236372   0.376   6.318   0.839
 1960SOL     OW36373   2.287   0.823   0.800
 1960SOL    HW136374   2.363   0.831   0.858
 1960SOL    HW236375   2.268   0.729   0.800
 1961SOL     OW36376   2.247   2.686   0.848
 1961SOL    HW136377   2.340   2.701   0.866
 1961SOL    HW236378   2.241   2.592   0.830
 1962SOL     OW36379   2.284   4.664   0.771
 1962SOL    HW136380   2.343   4.657   0.845
 1962SOL    HW236381   2.256   4.574   0.753
 1963SOL     OW36382   2.251   6.378   0.838
 1963SOL    HW136383   2.338   6.416   0.842
 1963SOL    HW236384   2.263   6.287   0.867
 1964SOL     OW36385   4.163   0.836   0.797
 1964SOL    HW136386   4.232   0.844   0.863
 1964SOL    HW236387   4.137   0.744   0.799
 1965SOL     OW36388   4.162   2.676   0.785
 1965SOL    HW136389   4.222   2.702   0.855
 1965SOL    HW236390   4.133   2.588   0.810
 1966SOL     OW36391   4.160   4.546   0.791
 1966SOL    HW136392   4.231   4.553   0.854
 1966SOL    HW236393   4.136   4.453   0.792
 1967SOL     OW36394   4.115   6.401   0.806
 1967SOL    HW136395   4.206   6.407   0.834
 1967SOL    HW236396   4.094   6.308   0.812
 1968SOL     OW36397   6.007   0.818   0.794
 1968SOL    HW136398   6.080   0.825   0.855
 1968SOL    HW236399   5.978   0.727   0.802
 1969SOL     OW36400   6.021   2.684   0.792
 1969SOL    HW136401   6.089   2.688   0.860
 1969SOL    HW236402   5.985   2.596   0.800
 1970SOL     OW36403   6.008   4.549   0.803
 1970SOL    HW136404   6.080   4.554   0.866
 1970SOL    HW236405   5.998   4.455   0.785
 1971SOL     OW36406   5.955   6.395   0.828
 1971SOL    HW136407   6.047   6.405   0.852
 1971SOL    HW236408   5.944   6.301   0.813
 1972SOL     OW36409   1.682   0.888   0.806
 1972SOL    HW136410   1.692   0.799   0.772
 1972SOL    HW236411   1.655   0.940   0.730
 1973SOL     OW36412   1.668   2.727   0.793
 1973SOL    HW136413   1.669   2.642   0.749
 1973SOL    HW236414   1.653   2.790   0.723
 1974SOL     OW36415   1.668   4.598   0.795
 1974SOL    HW136416   1.665   4.513   0.753
 1974SOL    HW236417   1.650   4.661   0.725
 1975SOL     OW36418   1.568   6.418   0.763
 1975SOL    HW136419   1.598   6.328   0.744
 1975SOL    HW236420   1.640   0.024   0.735
 1976SOL     OW36421   3.532   0.882   0.801
 1976SOL    HW136422   3.540   0.790   0.776
 1976SOL    HW236423   3.524   0.929   0.718
 1977SOL     OW36424   3.544   2.721   0.791
 1977SOL    HW136425   3.538   2.638   0.744
 1977SOL    HW236426   3.531   2.787   0.723
 1978SOL     OW36427   3.616   4.642   0.769
 1978SOL    HW136428   3.605   4.562   0.718
 1978SOL    HW236429   3.577   4.711   0.715
 1979SOL     OW36430   3.492   6.432   0.777
 1979SOL    HW136431   3.495   6.345   0.737
 1979SOL    HW236432   3.446   0.036   0.712
 1980SOL     OW36433   5.393   0.870   0.791
 1980SOL    HW136434   5.383   0.787   0.744
 1980SOL    HW236435   5.378   0.938   0.725
 1981SOL     OW36436   5.385   2.725   0.787
 1981SOL    HW136437   5.382   2.640   0.743
 1981SOL    HW236438   5.378   2.789   0.716
 1982SOL     OW36439   1.279   0.366   0.805
 1982SOL    HW136440   1.313   0.442   0.853
 1982SOL    HW236441   1.193   0.394   0.774
 1983SOL     OW36442   1.283   2.235   0.810
 1983SOL    HW136443   1.311   2.313   0.858
 1983SOL    HW236444   1.192   2.252   0.786
 1984SOL     OW36445   1.286   4.093   0.827
 1984SOL    HW136446   1.315   4.174   0.870
 1984SOL    HW236447   1.200   4.114   0.791
 1985SOL     OW36448   1.268   5.940   0.814
 1985SOL    HW136449   1.291   6.015   0.868
 1985SOL    HW236450   1.179   5.957   0.784
 1986SOL     OW36451   3.141   0.370   0.804
 1986SOL    HW136452   3.177   0.449   0.845
 1986SOL    HW236453   3.051   0.395   0.780
 1987SOL     OW36454   3.136   2.234   0.817
 1987SOL    HW136455   3.169   2.311   0.863
 1987SOL    HW236456   3.047   2.258   0.791
 1988SOL     OW36457   3.325   3.993   0.962
 1988SOL    HW136458   3.280   4.077   0.978
 1988SOL    HW236459   3.254   3.930   0.950
 1989SOL     OW36460   3.098   5.959   0.846
 1989SOL    HW136461   3.125   6.039   0.891
 1989SOL    HW236462   3.015   5.981   0.804
 1990SOL     OW36463   5.009   0.369   0.808
 1990SOL    HW136464   5.038   0.450   0.849
 1990SOL    HW236465   4.919   0.386   0.780
 1991SOL     OW36466   4.995   2.229   0.836
 1991SOL    HW136467   5.027   2.313   0.870
 1991SOL    HW236468   4.906   2.247   0.806
 1992SOL     OW36469   5.023   4.086   0.797
 1992SOL    HW136470   5.060   4.163   0.841
 1992SOL    HW236471   4.933   4.111   0.776
 1993SOL     OW36472   4.994   5.941   0.821
 1993SOL    HW136473   5.015   6.017   0.875
 1993SOL    HW236474   4.904   5.957   0.791
 1994SOL     OW36475   0.191   0.954   0.791
 1994SOL    HW136476   0.278   0.914   0.786
 1994SOL    HW236477   0.174   0.984   0.702
 1995SOL     OW36478   0.184   2.815   0.784
 1995SOL    HW136479   0.272   2.780   0.770
 1995SOL    HW236480   0.169   2.873   0.709
 1996SOL     OW36481   0.205   4.686   0.813
 1996SOL    HW136482   0.292   4.648   0.805
 1996SOL    HW236483   0.164   4.671   0.728
 1997SOL     OW36484   2.030   0.930   0.805
 1997SOL    HW136485   2.117   0.894   0.825
 1997SOL    HW236486   2.029   0.939   0.710
 1998SOL     OW36487   2.026   2.831   0.826
 1998SOL    HW136488   2.111   2.788   0.834
 1998SOL    HW236489   1.987   2.793   0.747
 1999SOL     OW36490   2.018   4.718   0.798
 1999SOL    HW136491   2.112   4.708   0.781
 1999SOL    HW236492   1.976   4.662   0.732
 2000SOL     OW36493   3.919   0.957   0.831
 2000SOL    HW136494   4.008   0.923   0.815
 2000SOL    HW236495   3.865   0.913   0.765
 2001SOL     OW36496   3.916   2.794   0.820
 2001SOL    HW136497   4.008   2.773   0.804
 2001SOL    HW236498   3.870   2.760   0.742
 2002SOL     OW36499   3.929   4.695   0.813
 2002SOL    HW136500   4.011   4.648   0.801
 2002SOL    HW236501   3.862   4.637   0.777
 2003SOL     OW36502   5.776   0.954   0.848
 2003SOL    HW136503   5.861   0.916   0.826
 2003SOL    HW236504   5.718   0.925   0.779
 2004SOL     OW36505   5.776   2.808   0.816
 2004SOL    HW136506   5.867   2.778   0.806
 2004SOL    HW236507   5.732   2.778   0.737
 2005SOL     OW36508   5.762   4.677   0.830
 2005SOL    HW136509   5.848   4.637   0.826
 2005SOL    HW236510   5.736   4.688   0.738
 2006SOL     OW36511   0.759   0.439   0.766
 2006SOL    HW136512   0.702   0.363   0.756
 2006SOL    HW236513   0.731   0.500   0.698
 2007SOL     OW36514   0.754   2.293   0.764
 2007SOL    HW136515   0.689   2.223   0.759
 2007SOL    HW236516   0.728   2.355   0.696
 2008SOL     OW36517   0.753   4.163   0.773
 2008SOL    HW136518   0.701   4.083   0.766
 2008SOL    HW236519   0.729   4.215   0.696
 2009SOL     OW36520   0.744   6.049   0.785
 2009SOL    HW136521   0.682   5.980   0.761
 2009SOL    HW236522   0.739   6.113   0.714
 2010SOL     OW36523   2.602   2.285   0.768
 2010SOL    HW136524   2.540   2.215   0.746
 2010SOL    HW236525   2.587   2.352   0.702
 2011SOL     OW36526   2.457   4.290   0.823
 2011SOL    HW136527   2.428   4.211   0.778
 2011SOL    HW236528   2.489   4.347   0.754
 2012SOL     OW36529   2.590   6.045   0.765
 2012SOL    HW136530   2.529   5.975   0.740
 2012SOL    HW236531   2.584   6.108   0.693
 2013SOL     OW36532   4.473   0.432   0.763
 2013SOL    HW136533   4.413   0.359   0.749
 2013SOL    HW236534   4.451   0.495   0.694
 2014SOL     OW36535   4.464   2.294   0.764
 2014SOL    HW136536   4.399   2.227   0.744
 2014SOL    HW236537   4.450   2.362   0.698
 2015SOL     OW36538   4.486   4.164   0.786
 2015SOL    HW136539   4.419   4.097   0.770
 2015SOL    HW236540   4.469   4.231   0.719
 2016SOL     OW36541   4.466   6.041   0.773
 2016SOL    HW136542   4.403   5.970   0.758
 2016SOL    HW236543   4.454   6.101   0.699
 2017SOL     OW36544   6.196   0.486   0.786
 2017SOL    HW136545   6.210   0.397   0.755
 2017SOL    HW236546   6.238   0.541   0.720
 2018SOL     OW36547   6.196   2.334   0.798
 2018SOL    HW136548   6.191   2.248   0.756
 2018SOL    HW236549   6.281   2.369   0.771
 2019SOL     OW36550   6.204   4.228   0.757
 2019SOL    HW136551   6.280   4.174   0.781
 2019SOL    HW236552   6.238   4.289   0.692
 2020SOL     OW36553   1.048   1.346  12.034
 2020SOL    HW136554   0.968   1.318  12.079
 2020SOL    HW236555   1.119   1.302  12.079
 2021SOL     OW36556   1.075   5.082  12.064
 2021SOL    HW136557   0.987   5.056  12.089
 2021SOL    HW236558   1.132   5.015  12.102
 2022SOL     OW36559   2.940   1.356  12.063
 2022SOL    HW136560   2.853   1.327  12.089
 2022SOL    HW236561   2.999   1.292  12.103
 2023SOL     OW36562   2.986   3.009  12.016
 2023SOL    HW136563   2.900   3.032  12.054
 2023SOL    HW236564   3.049   3.033  12.084
 2024SOL     OW36565   2.911   5.071  12.028
 2024SOL    HW136566   2.831   5.044  12.072
 2024SOL    HW236567   2.981   5.026  12.076
 2025SOL     OW36568   4.776   1.351  12.038
 2025SOL    HW136569   4.701   1.319  12.087
 2025SOL    HW236570   4.851   1.309  12.080
 2026SOL     OW36571   4.781   3.229  12.042
 2026SOL    HW136572   4.704   3.187  12.082
 2026SOL    HW236573   4.855   3.178  12.075
 2027SOL     OW36574   4.797   5.069  12.023
 2027SOL    HW136575   4.720   5.045  12.075
 2027SOL    HW236576   4.870   5.030  12.070
 2028SOL     OW36577   1.470   1.499  12.084
 2028SOL    HW136578   1.524   1.578  12.090
 2028SOL    HW236579   1.393   1.519  12.137
 2029SOL     OW36580   1.444   3.345  12.108
 2029SOL    HW136581   1.504   3.419  12.098
 2029SOL    HW236582   1.368   3.382  12.152
 2030SOL     OW36583   1.472   5.225  12.079
 2030SOL    HW136584   1.524   5.304  12.088
 2030SOL    HW236585   1.394   5.241  12.132
 2031SOL     OW36586   3.329   1.501  12.075
 2031SOL    HW136587   3.384   1.579  12.086
 2031SOL    HW236588   3.254   1.516  12.134
 2032SOL     OW36589   3.360   3.325  12.012
 2032SOL    HW136590   3.326   3.406  11.973
 2032SOL    HW236591   3.288   3.293  12.066
 2033SOL     OW36592   3.327   5.236  12.088
 2033SOL    HW136593   3.389   5.309  12.089
 2033SOL    HW236594   3.258   5.262  12.148
 2034SOL     OW36595   5.195   1.506  12.078
 2034SOL    HW136596   5.256   1.576  12.099
 2034SOL    HW236597   5.123   1.518  12.140
 2035SOL     OW36598   5.192   3.376  12.068
 2035SOL    HW136599   5.249   3.451  12.080
 2035SOL    HW236600   5.139   3.372  12.148
 2036SOL     OW36601   5.199   5.227  12.090
 2036SOL    HW136602   5.250   5.308  12.099
 2036SOL    HW236603   5.124   5.239  12.148
 2037SOL     OW36604   0.077   1.548  12.044
 2037SOL    HW136605   0.068   1.643  12.046
 2037SOL    HW236606   0.171   1.532  12.045
 2038SOL     OW36607   0.098   3.418  12.112
 2038SOL    HW136608   0.025   3.445  12.055
 2038SOL    HW236609   0.176   3.426  12.057
 2039SOL     OW36610   0.064   5.270  12.070
 2039SOL    HW136611   0.065   5.335  12.140
 2039SOL    HW236612   0.156   5.263  12.043
 2040SOL     OW36613   1.948   1.562  12.062
 2040SOL    HW136614   1.916   1.635  12.009
 2040SOL    HW236615   2.043   1.565  12.053
 2041SOL     OW36616   1.918   3.445  12.059
 2041SOL    HW136617   1.913   3.533  12.022
 2041SOL    HW236618   2.010   3.421  12.053
 2042SOL     OW36619   1.953   5.308  12.074
 2042SOL    HW136620   1.918   5.365  12.005
 2042SOL    HW236621   2.046   5.300  12.053
 2043SOL     OW36622   3.846   3.394  12.063
 2043SOL    HW136623   3.804   3.479  12.048
 2043SOL    HW236624   3.938   3.409  12.040
 2044SOL     OW36625   3.823   5.285  12.055
 2044SOL    HW136626   3.801   5.358  11.998
 2044SOL    HW236627   3.918   5.279  12.050
 2045SOL     OW36628   5.691   1.572  12.063
 2045SOL    HW136629   5.689   1.651  12.010
 2045SOL    HW236630   5.783   1.546  12.065
 2046SOL     OW36631   5.679   3.432  12.064
 2046SOL    HW136632   5.651   3.503  12.007
 2046SOL    HW236633   5.774   3.426  12.050
 2047SOL     OW36634   5.692   5.294  12.057
 2047SOL    HW136635   5.672   5.372  12.006
 2047SOL    HW236636   5.787   5.286  12.052
 2048SOL     OW36637   0.381   0.576   0.826
 2048SOL    HW136638   0.426   0.511   0.880
 2048SOL    HW236639   0.382   0.539   0.738
 2049SOL     OW36640   0.375   2.443   0.813
 2049SOL    HW136641   0.417   2.377   0.869
 2049SOL    HW236642   0.375   2.404   0.726
 2050SOL     OW36643   0.411   4.314   0.754
 2050SOL    HW136644   0.408   4.274   0.842
 2050SOL    HW236645   0.420   4.240   0.695
 2051SOL     OW36646   0.373   6.141   0.828
 2051SOL    HW136647   0.428   6.078   0.874
 2051SOL    HW236648   0.378   6.116   0.736
 2052SOL     OW36649   2.222   0.554   0.816
 2052SOL    HW136650   2.268   0.507   0.886
 2052SOL    HW236651   2.268   0.529   0.736
 2053SOL     OW36652   2.217   2.412   0.821
 2053SOL    HW136653   2.276   2.354   0.868
 2053SOL    HW236654   2.234   2.394   0.728
 2054SOL     OW36655   2.198   4.375   0.776
 2054SOL    HW136656   2.292   4.361   0.793
 2054SOL    HW236657   2.188   4.354   0.683
 2055SOL     OW36658   2.218   6.105   0.821
 2055SOL    HW136659   2.263   6.052   0.886
 2055SOL    HW236660   2.250   6.072   0.737
 2056SOL     OW36661   4.104   0.575   0.815
 2056SOL    HW136662   4.142   0.506   0.871
 2056SOL    HW236663   4.101   0.536   0.728
 2057SOL     OW36664   4.082   2.417   0.819
 2057SOL    HW136665   4.138   2.350   0.857
 2057SOL    HW236666   4.090   2.404   0.724
 2058SOL     OW36667   4.100   4.277   0.820
 2058SOL    HW136668   4.142   4.215   0.880
 2058SOL    HW236669   4.122   4.244   0.732
 2059SOL     OW36670   4.083   6.133   0.832
 2059SOL    HW136671   4.134   6.069   0.882
 2059SOL    HW236672   4.095   6.106   0.741
 2060SOL     OW36673   5.933   0.553   0.793
 2060SOL    HW136674   6.021   0.524   0.818
 2060SOL    HW236675   5.933   0.549   0.697
 2061SOL     OW36676   5.939   2.424   0.797
 2061SOL    HW136677   6.026   2.390   0.816
 2061SOL    HW236678   5.932   2.421   0.701
 2062SOL     OW36679   5.961   6.123   0.812
 2062SOL    HW136680   5.972   6.049   0.872
 2062SOL    HW236681   5.933   6.082   0.730
 2063SOL     OW36682   0.353   1.531  12.009
 2063SOL    HW136683   0.342   1.493  11.922
 2063SOL    HW236684   0.446   1.550  12.016
 2064SOL     OW36685   0.347   3.426  11.988
 2064SOL    HW136686   0.341   3.364  11.915
 2064SOL    HW236687   0.441   3.434  12.005
 2065SOL     OW36688   0.326   5.250  11.994
 2065SOL    HW136689   0.346   5.203  11.914
 2065SOL    HW236690   0.410   5.284  12.025
 2066SOL     OW36691   2.215   1.525  12.009
 2066SOL    HW136692   2.206   1.473  11.929
 2066SOL    HW236693   2.309   1.543  12.016
 2067SOL     OW36694   2.170   3.356  12.024
 2067SOL    HW136695   2.151   3.308  11.944
 2067SOL    HW236696   2.262   3.379  12.017
 2068SOL     OW36697   2.217   5.265  11.999
 2068SOL    HW136698   2.204   5.204  11.926
 2068SOL    HW236699   2.312   5.276  12.005
 2069SOL     OW36700   4.092   1.492  12.021
 2069SOL    HW136701   4.090   1.452  11.934
 2069SOL    HW236702   4.181   1.527  12.029
 2070SOL     OW36703   4.104   3.401  11.998
 2070SOL    HW136704   4.097   3.349  11.919
 2070SOL    HW236705   4.197   3.417  12.008
 2071SOL     OW36706   4.092   5.247  12.025
 2071SOL    HW136707   4.073   5.203  11.942
 2071SOL    HW236708   4.186   5.264  12.021
 2072SOL     OW36709   5.950   1.538  11.980
 2072SOL    HW136710   5.956   1.481  11.903
 2072SOL    HW236711   6.007   1.497  12.045
 2073SOL     OW36712   5.943   3.406  11.991
 2073SOL    HW136713   5.947   3.352  11.911
 2073SOL    HW236714   6.001   3.361  12.053
 2074SOL     OW36715   5.964   5.240  12.000
 2074SOL    HW136716   5.952   5.189  11.920
 2074SOL    HW236717   6.059   5.250  12.007
 2075SOL     OW36718   0.018   1.279   0.830
 2075SOL    HW136719   0.081   1.247   0.894
 2075SOL    HW236720   0.024   1.375   0.837
 2076SOL     OW36721   0.053   4.999   0.829
 2076SOL    HW136722   0.112   4.968   0.898
 2076SOL    HW236723   0.048   5.094   0.844
 2077SOL     OW36724   1.887   1.310   0.816
 2077SOL    HW136725   1.971   1.287   0.776
 2077SOL    HW236726   1.897   1.401   0.844
 2078SOL     OW36727   1.911   3.117   0.773
 2078SOL    HW136728   1.988   3.070   0.805
 2078SOL    HW236729   1.839   3.082   0.826
 2079SOL     OW36730   1.872   5.046   0.806
 2079SOL    HW136731   1.912   4.980   0.862
 2079SOL    HW236732   1.900   5.129   0.844
 2080SOL     OW36733   3.799   1.321   0.804
 2080SOL    HW136734   3.822   1.263   0.877
 2080SOL    HW236735   3.803   1.409   0.842
 2081SOL     OW36736   3.788   3.170   0.798
 2081SOL    HW136737   3.824   3.103   0.856
 2081SOL    HW236738   3.812   3.253   0.840
 2082SOL     OW36739   3.829   5.048   0.801
 2082SOL    HW136740   3.829   4.983   0.870
 2082SOL    HW236741   3.808   5.131   0.845
 2083SOL     OW36742   5.643   1.310   0.797
 2083SOL    HW136743   5.681   1.258   0.868
 2083SOL    HW236744   5.654   1.401   0.826
 2084SOL     OW36745   5.626   3.188   0.790
 2084SOL    HW136746   5.662   3.124   0.853
 2084SOL    HW236747   5.647   3.273   0.828
 2085SOL     OW36748   5.644   5.048   0.802
 2085SOL    HW136749   5.682   5.005   0.879
 2085SOL    HW236750   5.647   5.141   0.823
 2086SOL     OW36751   0.629   1.565   0.812
 2086SOL    HW136752   0.617   1.655   0.844
 2086SOL    HW236753   0.717   1.564   0.775
 2087SOL     OW36754   0.628   3.428   0.816
 2087SOL    HW136755   0.622   3.516   0.852
 2087SOL    HW236756   0.717   3.420   0.783
 2088SOL     OW36757   0.642   5.286   0.826
 2088SOL    HW136758   0.627   5.375   0.858
 2088SOL    HW236759   0.722   5.291   0.774
 2089SOL     OW36760   2.492   1.571   0.816
 2089SOL    HW136761   2.483   1.656   0.860
 2089SOL    HW236762   2.583   1.568   0.789
 2090SOL     OW36763   2.481   3.340   0.841
 2090SOL    HW136764   2.485   3.374   0.930
 2090SOL    HW236765   2.573   3.339   0.812
 2091SOL     OW36766   2.496   5.278   0.825
 2091SOL    HW136767   2.491   5.359   0.876
 2091SOL    HW236768   2.584   5.278   0.788
 2092SOL     OW36769   4.344   1.578   0.793
 2092SOL    HW136770   4.340   1.660   0.842
 2092SOL    HW236771   4.436   1.570   0.767
 2093SOL     OW36772   4.389   3.435   0.826
 2093SOL    HW136773   4.365   3.520   0.862
 2093SOL    HW236774   4.450   3.455   0.755
 2094SOL     OW36775   4.347   5.298   0.802
 2094SOL    HW136776   4.341   5.380   0.851
 2094SOL    HW236777   4.440   5.291   0.778
 2095SOL     OW36778   6.228   1.550   0.849
 2095SOL    HW136779   6.222   1.636   0.890
 2095SOL    HW236780   6.322   1.535   0.839
 2096SOL     OW36781   6.211   3.411   0.847
 2096SOL    HW136782   6.259   3.485   0.884
 2096SOL    HW236783   6.274   3.339   0.848
 2097SOL     OW36784   6.251   5.265   0.822
 2097SOL    HW136785   6.231   5.349   0.864
 2097SOL    HW236786   6.345   5.252   0.839
 2098SOL     OW36787   1.607   1.275   0.830
 2098SOL    HW136788   1.681   1.298   0.886
 2098SOL    HW236789   1.537   1.334   0.857
 2099SOL     OW36790   1.607   3.122   0.836
 2099SOL    HW136791   1.643   3.094   0.920
 2099SOL    HW236792   1.544   3.191   0.859
 2100SOL     OW36793   3.482   1.287   0.812
 2100SOL    HW136794   3.530   1.260   0.890
 2100SOL    HW236795   3.425   1.358   0.842
 2101SOL     OW36796   3.484   3.127   0.810
 2101SOL    HW136797   3.544   3.115   0.883
 2101SOL    HW236798   3.442   3.212   0.827
 2102SOL     OW36799   3.493   5.029   0.828
 2102SOL    HW136800   3.535   5.005   0.910
 2102SOL    HW236801   3.428   5.095   0.853
 2103SOL     OW36802   5.327   1.292   0.818
 2103SOL    HW136803   5.386   1.263   0.887
 2103SOL    HW236804   5.285   1.370   0.854
 2104SOL     OW36805   5.323   3.137   0.822
 2104SOL    HW136806   5.381   3.120   0.896
 2104SOL    HW236807   5.269   3.211   0.851
 2105SOL     OW36808   5.335   4.997   0.814
 2105SOL    HW136809   5.401   4.993   0.883
 2105SOL    HW236810   5.276   5.067   0.842
 2106SOL     OW36811   1.604   1.274  12.000
 2106SOL    HW136812   1.661   1.259  12.076
 2106SOL    HW236813   1.549   1.348  12.025
 2107SOL     OW36814   1.652   3.202  12.018
 2107SOL    HW136815   1.672   3.136  12.085
 2107SOL    HW236816   1.575   3.248  12.053
 2108SOL     OW36817   1.610   5.004  11.990
 2108SOL    HW136818   1.662   4.987  12.068
 2108SOL    HW236819   1.556   5.080  12.014
 2109SOL     OW36820   3.485   1.290  11.998
 2109SOL    HW136821   3.515   1.255  12.082
 2109SOL    HW236822   3.418   1.355  12.022
 2110SOL     OW36823   3.524   3.104  11.907
 2110SOL    HW136824   3.608   3.113  11.952
 2110SOL    HW236825   3.460   3.094  11.976
 2111SOL     OW36826   3.443   5.003  11.995
 2111SOL    HW136827   3.529   5.000  12.036
 2111SOL    HW236828   3.402   5.082  12.031
 2112SOL     OW36829   5.325   1.276  11.991
 2112SOL    HW136830   5.382   1.257  12.066
 2112SOL    HW236831   5.274   1.352  12.019
 2113SOL     OW36832   5.335   3.157  11.973
 2113SOL    HW136833   5.387   3.127  12.047
 2113SOL    HW236834   5.278   3.225  12.010
 2114SOL     OW36835   5.345   5.011  11.992
 2114SOL    HW136836   5.392   4.988  12.072
 2114SOL    HW236837   5.283   5.078  12.019
 2115SOL     OW36838   0.623   1.580  12.009
 2115SOL    HW136839   0.624   1.672  12.034
 2115SOL    HW236840   0.706   1.566  11.964
 2116SOL     OW36841   0.634   3.432  11.995
 2116SOL    HW136842   0.624   3.523  12.024
 2116SOL    HW236843   0.722   3.428  11.959
 2117SOL     OW36844   0.616   5.294  11.993
 2117SOL    HW136845   0.611   5.376  12.041
 2117SOL    HW236846   0.691   5.304  11.935
 2118SOL     OW36847   2.479   1.577  11.998
 2118SOL    HW136848   2.482   1.663  12.039
 2118SOL    HW236849   2.560   1.573  11.946
 2119SOL     OW36850   2.427   3.387  11.967
 2119SOL    HW136851   2.412   3.469  11.919
 2119SOL    HW236852   2.518   3.363  11.947
 2120SOL     OW36853   2.491   5.290  11.990
 2120SOL    HW136854   2.486   5.374  12.035
 2120SOL    HW236855   2.581   5.286  11.957
 2121SOL     OW36856   4.350   1.573  11.992
 2121SOL    HW136857   4.340   1.660  12.032
 2121SOL    HW236858   4.442   1.569  11.967
 2122SOL     OW36859   4.367   3.443  11.984
 2122SOL    HW136860   4.359   3.530  12.023
 2122SOL    HW236861   4.459   3.436  11.958
 2123SOL     OW36862   4.350   5.286  11.978
 2123SOL    HW136863   4.369   5.367  12.025
 2123SOL    HW236864   4.435   5.259  11.942
 2124SOL     OW36865   6.254   1.535  11.986
 2124SOL    HW136866   6.223   1.612  12.033
 2124SOL    HW236867   6.347   1.529  12.008
 2125SOL     OW36868   6.315   3.457  11.972
 2125SOL    HW136869   6.262   3.518  12.024
 2125SOL    HW236870   6.277   3.371  11.989
 2126SOL     OW36871   6.237   5.271  12.005
 2126SOL    HW136872   6.224   5.348  12.060
 2126SOL    HW236873   6.331   5.258  12.005
 2127SOL     OW36874   0.040   1.273  12.003
 2127SOL    HW136875   0.100   1.248  12.074
 2127SOL    HW236876   0.030   1.368  12.011
 2128SOL     OW36877   0.070   3.155  11.998
 2128SOL    HW136878   0.076   3.103  12.078
 2128SOL    HW236879   0.045   3.242  12.027
 2129SOL     OW36880   0.030   4.999  12.011
 2129SOL    HW136881   0.085   4.965  12.081
 2129SOL    HW236882   0.027   5.093  12.025
 2130SOL     OW36883   1.920   1.307  11.961
 2130SOL    HW136884   1.954   1.253  12.033
 2130SOL    HW236885   1.925   1.396  11.995
 2131SOL     OW36886   1.945   3.170  11.974
 2131SOL    HW136887   1.956   3.120  12.055
 2131SOL    HW236888   1.899   3.249  12.000
 2132SOL     OW36889   1.925   5.048  11.960
 2132SOL    HW136890   1.953   4.979  12.020
 2132SOL    HW236891   1.927   5.128  12.012
 2133SOL     OW36892   3.798   1.363  12.001
 2133SOL    HW136893   3.843   1.290  12.043
 2133SOL    HW236894   3.706   1.355  12.029
 2134SOL     OW36895   3.766   3.146  12.006
 2134SOL    HW136896   3.814   3.090  12.067
 2134SOL    HW236897   3.796   3.235  12.026
 2135SOL     OW36898   3.732   5.034  11.987
 2135SOL    HW136899   3.773   4.975  12.050
 2135SOL    HW236900   3.766   5.121  12.009
 2136SOL     OW36901   5.638   1.319  11.962
 2136SOL    HW136902   5.668   1.256  12.027
 2136SOL    HW236903   5.661   1.404  11.999
 2137SOL     OW36904   5.659   3.175  11.961
 2137SOL    HW136905   5.688   3.115  12.029
 2137SOL    HW236906   5.658   3.261  12.003
 2138SOL     OW36907   5.663   5.035  11.966
 2138SOL    HW136908   5.686   4.982  12.042
 2138SOL    HW236909   5.661   5.125  11.999
 2139SOL     OW36910   0.343   1.530   0.838
 2139SOL    HW136911   0.346   1.485   0.753
 2139SOL    HW236912   0.433   1.556   0.854
 2140SOL     OW36913   0.350   3.417   0.825
 2140SOL    HW136914   0.340   3.358   0.750
 2140SOL    HW236915   0.445   3.425   0.836
 2141SOL     OW36916   0.342   5.292   0.821
 2141SOL    HW136917   0.346   5.234   0.745
 2141SOL    HW236918   0.427   5.283   0.863
 2142SOL     OW36919   2.224   1.532   0.830
 2142SOL    HW136920   2.213   1.464   0.763
 2142SOL    HW236921   2.317   1.552   0.829
 2143SOL     OW36922   2.235   3.191   0.791
 2143SOL    HW136923   2.202   3.204   0.702
 2143SOL    HW236924   2.328   3.210   0.785
 2144SOL     OW36925   2.218   5.278   0.809
 2144SOL    HW136926   2.230   5.194   0.765
 2144SOL    HW236927   2.306   5.304   0.835
 2145SOL     OW36928   4.111   3.390   0.843
 2145SOL    HW136929   4.085   3.354   0.758
 2145SOL    HW236930   4.206   3.385   0.843
 2146SOL     OW36931   4.079   5.252   0.837
 2146SOL    HW136932   4.073   5.168   0.792
 2146SOL    HW236933   4.173   5.272   0.839
 2147SOL     OW36934   5.958   1.520   0.827
 2147SOL    HW136935   5.950   1.471   0.745
 2147SOL    HW236936   6.052   1.532   0.840
 2148SOL     OW36937   5.949   3.401   0.815
 2148SOL    HW136938   5.944   3.347   0.736
 2148SOL    HW236939   6.042   3.411   0.831
 2149SOL     OW36940   5.988   5.207   0.837
 2149SOL    HW136941   5.958   5.184   0.750
 2149SOL    HW236942   6.080   5.229   0.826
 2150SOL     OW36943   0.396   2.433  11.990
 2150SOL    HW136944   0.440   2.365  12.042
 2150SOL    HW236945   0.382   2.393  11.904
 2151SOL     OW36946   0.418   4.283  11.989
 2151SOL    HW136947   0.507   4.249  12.002
 2151SOL    HW236948   0.397   4.259  11.899
 2152SOL     OW36949   0.375   6.135  11.988
 2152SOL    HW136950   0.427   6.071  12.037
 2152SOL    HW236951   0.380   6.105  11.897
 2153SOL     OW36952   2.226   0.571  11.989
 2153SOL    HW136953   2.279   0.507  12.036
 2153SOL    HW236954   2.231   0.544  11.898
 2154SOL     OW36955   2.229   2.415  12.001
 2154SOL    HW136956   2.278   2.344  12.042
 2154SOL    HW236957   2.231   2.395  11.907
 2155SOL     OW36958   2.194   4.314  12.014
 2155SOL    HW136959   2.241   4.249  12.067
 2155SOL    HW236960   2.205   4.284  11.924
 2156SOL     OW36961   2.241   6.115  11.991
 2156SOL    HW136962   2.337   6.111  11.986
 2156SOL    HW236963   2.212   6.115  11.900
 2157SOL     OW36964   4.086   0.574  11.993
 2157SOL    HW136965   4.138   0.515  12.048
 2157SOL    HW236966   4.093   0.538  11.905
 2158SOL     OW36967   4.102   2.445  11.989
 2158SOL    HW136968   4.138   2.386  12.055
 2158SOL    HW236969   4.125   2.404  11.906
 2159SOL     OW36970   4.097   4.290  11.999
 2159SOL    HW136971   4.148   4.228  12.050
 2159SOL    HW236972   4.102   4.258  11.909
 2160SOL     OW36973   4.033   6.072  11.981
 2160SOL    HW136974   4.108   6.036  12.027
 2160SOL    HW236975   4.056   6.163  11.963
 2161SOL     OW36976   5.964   0.575  11.991
 2161SOL    HW136977   5.999   0.513  12.056
 2161SOL    HW236978   5.968   0.528  11.908
 2162SOL     OW36979   5.941   4.288  11.989
 2162SOL    HW136980   5.984   4.234  12.055
 2162SOL    HW236981   5.966   4.249  11.906
 2163SOL     OW36982   5.943   6.127  11.963
 2163SOL    HW136983   6.033   6.102  11.984
 2163SOL    HW236984   5.939   6.125  11.868
 2164SOL     OW36985   0.065   1.553   0.868
 2164SOL    HW136986   0.056   1.642   0.900
 2164SOL    HW236987   0.159   1.538   0.866
 2165SOL     OW36988   0.048   3.488   0.936
 2165SOL    HW136989   0.114   3.504   0.869
 2165SOL    HW236990   0.032   3.393   0.932
 2166SOL     OW36991   0.072   5.280   0.871
 2166SOL    HW136992   0.062   5.370   0.841
 2166SOL    HW236993   0.167   5.267   0.877
 2167SOL     OW36994   1.960   1.571   0.883
 2167SOL    HW136995   1.952   1.657   0.840
 2167SOL    HW236996   2.053   1.551   0.881
 2168SOL     OW36997   1.836   3.364   0.879
 2168SOL    HW136998   1.769   3.387   0.814
 2168SOL    HW236999   1.888   3.296   0.836
 2169SOL     OW37000   1.954   5.293   0.891
 2169SOL    HW137001   1.918   5.369   0.845
 2169SOL    HW237002   2.049   5.299   0.876
 2170SOL     OW37003   3.830   1.594   0.880
 2170SOL    HW137004   3.761   1.623   0.822
 2170SOL    HW237005   3.888   1.670   0.889
 2171SOL     OW37006   3.843   3.417   0.922
 2171SOL    HW137007   3.826   3.456   0.836
 2171SOL    HW237008   3.938   3.406   0.926
 2172SOL     OW37009   3.814   5.303   0.907
 2172SOL    HW137010   3.772   5.368   0.850
 2172SOL    HW237011   3.908   5.314   0.891
 2173SOL     OW37012   5.686   1.564   0.887
 2173SOL    HW137013   5.656   1.639   0.837
 2173SOL    HW237014   5.782   1.567   0.880
 2174SOL     OW37015   5.692   3.434   0.898
 2174SOL    HW137016   5.660   3.503   0.840
 2174SOL    HW237017   5.785   3.428   0.879
 2175SOL     OW37018   1.470   1.506   0.908
 2175SOL    HW137019   1.524   1.584   0.920
 2175SOL    HW237020   1.395   1.520   0.966
 2176SOL     OW37021   1.458   3.337   0.915
 2176SOL    HW137022   1.496   3.424   0.902
 2176SOL    HW237023   1.379   3.354   0.966
 2177SOL     OW37024   1.478   5.226   0.910
 2177SOL    HW137025   1.531   5.306   0.909
 2177SOL    HW237026   1.399   5.250   0.960
 2178SOL     OW37027   3.344   1.505   0.898
 2178SOL    HW137028   3.392   1.586   0.913
 2178SOL    HW237029   3.265   1.514   0.952
 2179SOL     OW37030   3.377   3.366   0.871
 2179SOL    HW137031   3.432   3.434   0.909
 2179SOL    HW237032   3.294   3.372   0.919
 2180SOL     OW37033   3.331   5.239   0.900
 2180SOL    HW137034   3.390   5.314   0.911
 2180SOL    HW237035   3.261   5.254   0.963
 2181SOL     OW37036   5.179   1.521   0.884
 2181SOL    HW137037   5.242   1.592   0.893
 2181SOL    HW237038   5.111   1.541   0.947
 2182SOL     OW37039   5.187   3.366   0.903
 2182SOL    HW137040   5.237   3.448   0.904
 2182SOL    HW237041   5.115   3.382   0.964
 2183SOL     OW37042   5.189   5.216   0.905
 2183SOL    HW137043   5.242   5.296   0.910
 2183SOL    HW237044   5.115   5.234   0.963
 2184SOL     OW37045   1.047   1.332   0.841
 2184SOL    HW137046   0.970   1.314   0.895
 2184SOL    HW237047   1.121   1.307   0.897
 2185SOL     OW37048   1.044   3.190   0.850
 2185SOL    HW137049   0.966   3.169   0.902
 2185SOL    HW237050   1.117   3.158   0.903
 2186SOL     OW37051   1.034   5.077   0.871
 2186SOL    HW137052   0.960   5.032   0.911
 2186SOL    HW237053   1.111   5.036   0.911
 2187SOL     OW37054   2.918   1.327   0.833
 2187SOL    HW137055   2.839   1.307   0.883
 2187SOL    HW237056   2.990   1.304   0.892
 2188SOL     OW37057   2.924   3.179   0.865
 2188SOL    HW137058   2.845   3.128   0.880
 2188SOL    HW237059   2.996   3.119   0.882
 2189SOL     OW37060   2.932   5.083   0.840
 2189SOL    HW137061   2.854   5.057   0.889
 2189SOL    HW237062   3.005   5.046   0.890
 2190SOL     OW37063   4.773   1.350   0.876
 2190SOL    HW137064   4.689   1.318   0.908
 2190SOL    HW237065   4.838   1.305   0.930
 2191SOL     OW37066   4.779   3.219   0.864
 2191SOL    HW137067   4.697   3.187   0.901
 2191SOL    HW237068   4.847   3.169   0.910
 2192SOL     OW37069   4.784   5.096   0.889
 2192SOL    HW137070   4.704   5.054   0.921
 2192SOL    HW237071   4.854   5.036   0.915
 2193SOL     OW37072   0.755   0.430  11.947
 2193SOL    HW137073   0.692   0.359  11.931
 2193SOL    HW237074   0.733   0.497  11.883
 2194SOL     OW37075   0.747   2.290  11.943
 2194SOL    HW137076   0.687   2.216  11.928
 2194SOL    HW237077   0.724   2.353  11.874
 2195SOL     OW37078   0.712   4.163  11.947
 2195SOL    HW137079   0.672   4.081  11.915
 2195SOL    HW237080   0.716   4.219  11.870
 2196SOL     OW37081   0.740   6.042  11.937
 2196SOL    HW137082   0.682   5.966  11.929
 2196SOL    HW237083   0.718   6.097  11.862
 2197SOL     OW37084   2.607   0.438  11.933
 2197SOL    HW137085   2.547   0.365  11.919
 2197SOL    HW237086   2.587   0.499  11.862
 2198SOL     OW37087   2.600   2.286  11.944
 2198SOL    HW137088   2.538   2.215  11.925
 2198SOL    HW237089   2.584   2.351  11.876
 2199SOL     OW37090   2.483   4.306  11.923
 2199SOL    HW137091   2.402   4.273  11.883
 2199SOL    HW237092   2.532   4.345  11.850
 2200SOL     OW37093   2.591   6.054  11.958
 2200SOL    HW137094   2.540   5.978  11.930
 2200SOL    HW237095   2.591   6.112  11.882
 2201SOL     OW37096   4.491   0.428  11.914
 2201SOL    HW137097   4.426   0.358  11.910
 2201SOL    HW237098   4.461   0.492  11.850
 2202SOL     OW37099   4.374   2.297  11.931
 2202SOL    HW137100   4.458   2.252  11.941
 2202SOL    HW237101   4.392   2.370  11.872
 2203SOL     OW37102   4.473   4.152  11.941
 2203SOL    HW137103   4.414   4.082  11.916
 2203SOL    HW237104   4.458   4.220  11.875
 2204SOL     OW37105   4.465   6.040  11.959
 2204SOL    HW137106   4.402   5.973  11.934
 2204SOL    HW237107   4.462   6.104  11.887
 2205SOL     OW37108   6.293   0.503  11.942
 2205SOL    HW137109   6.240   0.425  11.928
 2205SOL    HW237110   6.264   0.565  11.875
 2206SOL     OW37111   6.266   2.347  11.934
 2206SOL    HW137112   6.254   2.253  11.921
 2206SOL    HW237113   6.177   2.382  11.936
 2207SOL     OW37114   6.263   4.214  11.950
 2207SOL    HW137115   6.222   4.130  11.931
 2207SOL    HW237116   6.237   4.270  11.877
 2208SOL     OW37117   6.199   6.044  11.990
 2208SOL    HW137118   6.189   5.960  11.945
 2208SOL    HW237119   6.285   6.077  11.961
 2209SOL     OW37120   0.208   0.981  11.954
 2209SOL    HW137121   0.300   0.997  11.935
 2209SOL    HW237122   0.161   1.022  11.881
 2210SOL     OW37123   0.206   2.806  11.960
 2210SOL    HW137124   0.296   2.773  11.954
 2210SOL    HW237125   0.154   2.742  11.911
 2211SOL     OW37126   0.187   4.690  11.972
 2211SOL    HW137127   0.270   4.643  11.964
 2211SOL    HW237128   0.171   4.725  11.884
 2212SOL     OW37129   2.055   0.948  12.012
 2212SOL    HW137130   2.144   0.918  11.996
 2212SOL    HW237131   2.008   0.929  11.931
 2213SOL     OW37132   2.048   2.809  12.020
 2213SOL    HW137133   2.134   2.773  11.997
 2213SOL    HW237134   1.993   2.791  11.944
 2214SOL     OW37135   2.039   4.676  11.876
 2214SOL    HW137136   2.123   4.658  11.917
 2214SOL    HW237137   1.981   4.608  11.908
 2215SOL     OW37138   3.920   0.957  11.996
 2215SOL    HW137139   4.009   0.925  11.984
 2215SOL    HW237140   3.868   0.908  11.932
 2216SOL     OW37141   3.922   2.809  11.975
 2216SOL    HW137142   4.013   2.782  11.967
 2216SOL    HW237143   3.872   2.738  11.935
 2217SOL     OW37144   3.917   4.685  11.996
 2217SOL    HW137145   4.005   4.647  11.993
 2217SOL    HW237146   3.882   4.673  11.908
 2218SOL     OW37147   5.758   0.947  11.988
 2218SOL    HW137148   5.850   0.924  11.982
 2218SOL    HW237149   5.714   0.884  11.931
 2219SOL     OW37150   5.777   2.811  12.009
 2219SOL    HW137151   5.867   2.783  11.994
 2219SOL    HW237152   5.725   2.761  11.946
 2220SOL     OW37153   5.781   4.681  12.014
 2220SOL    HW137154   5.866   4.643  11.993
 2220SOL    HW237155   5.722   4.645  11.947
 2221SOL     OW37156   1.291   0.362  11.981
 2221SOL    HW137157   1.323   0.443  12.020
 2221SOL    HW237158   1.199   0.379  11.960
 2222SOL     OW37159   1.276   2.223  11.999
 2222SOL    HW137160   1.307   2.309  12.029
 2222SOL    HW237161   1.186   2.239  11.972
 2223SOL     OW37162   1.270   4.093  11.993
 2223SOL    HW137163   1.305   4.170  12.036
 2223SOL    HW237164   1.180   4.116  11.971
 2224SOL     OW37165   1.269   5.953  11.998
 2224SOL    HW137166   1.289   6.037  12.040
 2224SOL    HW237167   1.181   5.965  11.962
 2225SOL     OW37168   3.136   0.353  12.020
 2225SOL    HW137169   3.177   0.435  12.047
 2225SOL    HW237170   3.066   0.380  11.961
 2226SOL     OW37171   3.134   2.239  11.991
 2226SOL    HW137172   3.172   2.323  11.965
 2226SOL    HW237173   3.042   2.245  11.966
 2227SOL     OW37174   3.120   4.180  11.890
 2227SOL    HW137175   3.154   4.262  11.927
 2227SOL    HW237176   3.025   4.190  11.895
 2228SOL     OW37177   3.129   5.946  11.995
 2228SOL    HW137178   3.152   6.023  12.047
 2228SOL    HW237179   3.039   5.963  11.966
 2229SOL     OW37180   4.947   0.412  11.966
 2229SOL    HW137181   4.985   0.471  12.030
 2229SOL    HW237182   5.006   0.417  11.891
 2230SOL     OW37183   5.021   2.228  11.997
 2230SOL    HW137184   5.049   2.309  12.040
 2230SOL    HW237185   4.930   2.244  11.974
 2231SOL     OW37186   5.005   4.090  12.001
 2231SOL    HW137187   5.035   4.170  12.044
 2231SOL    HW237188   4.916   4.110  11.973
 2232SOL     OW37189   4.997   5.952  11.990
 2232SOL    HW137190   5.015   6.029  12.043
 2232SOL    HW237191   4.907   5.963  11.961
 2233SOL     OW37192   1.667   0.865  11.970
 2233SOL    HW137193   1.664   0.782  11.922
 2233SOL    HW237194   1.655   0.932  11.904
 2234SOL     OW37195   1.671   2.703  11.977
 2234SOL    HW137196   1.660   2.620  11.931
 2234SOL    HW237197   1.655   2.770  11.911
 2235SOL     OW37198   1.668   4.597  11.968
 2235SOL    HW137199   1.665   4.513  11.923
 2235SOL    HW237200   1.662   4.662  11.897
 2236SOL     OW37201   1.629   6.423  11.936
 2236SOL    HW137202   1.636   6.329  11.916
 2236SOL    HW237203   1.615   0.014  11.851
 2237SOL     OW37204   3.529   0.870  11.960
 2237SOL    HW137205   3.530   0.787  11.913
 2237SOL    HW237206   3.518   0.936  11.892
 2238SOL     OW37207   3.549   2.704  11.953
 2238SOL    HW137208   3.589   2.626  11.915
 2238SOL    HW237209   3.536   2.763  11.878
 2239SOL     OW37210   3.528   4.635  11.965
 2239SOL    HW137211   3.548   4.559  11.910
 2239SOL    HW237212   3.513   4.706  11.904
 2240SOL     OW37213   3.455   6.416  11.899
 2240SOL    HW137214   3.494   6.330  11.883
 2240SOL    HW237215   3.527   0.028  11.889
 2241SOL     OW37216   5.398   0.863  11.976
 2241SOL    HW137217   5.388   0.775  11.939
 2241SOL    HW237218   5.387   0.921  11.901
 2242SOL     OW37219   5.390   2.731  11.969
 2242SOL    HW137220   5.390   2.647  11.922
 2242SOL    HW237221   5.378   2.797  11.901
 2243SOL     OW37222   5.400   4.588  11.965
 2243SOL    HW137223   5.393   4.506  11.917
 2243SOL    HW237224   5.389   4.656  11.898
 2244SOL     OW37225   5.345   6.430  11.918
 2244SOL    HW137226   5.354   6.335  11.916
 2244SOL    HW237227   5.352   0.008  11.827
 2245SOL     OW37228   0.441   0.783  11.988
 2245SOL    HW137229   0.492   0.863  12.002
 2245SOL    HW237230   0.352   0.807  12.015
 2246SOL     OW37231   0.457   2.694  11.963
 2246SOL    HW137232   0.517   2.705  12.037
 2246SOL    HW237233   0.429   2.602  11.968
 2247SOL     OW37234   0.430   4.556  11.965
 2247SOL    HW137235   0.494   4.579  12.033
 2247SOL    HW237236   0.412   4.463  11.978
 2248SOL     OW37237   0.395   6.404  11.930
 2248SOL    HW137238   0.477   6.424  11.974
 2248SOL    HW237239   0.369   6.319  11.964
 2249SOL     OW37240   2.298   0.834  11.972
 2249SOL    HW137241   2.369   0.842  12.036
 2249SOL    HW237242   2.271   0.743  11.977
 2250SOL     OW37243   2.289   2.681  11.977
 2250SOL    HW137244   2.354   2.691  12.046
 2250SOL    HW237245   2.259   2.590  11.985
 2251SOL     OW37246   2.285   4.569  11.969
 2251SOL    HW137247   2.347   4.584  12.040
 2251SOL    HW237248   2.249   4.482  11.986
 2252SOL     OW37249   2.229   6.390  12.056
 2252SOL    HW137250   2.323   6.407  12.062
 2252SOL    HW237251   2.224   6.301  12.021
 2253SOL     OW37252   4.163   0.835  11.965
 2253SOL    HW137253   4.229   0.844  12.034
 2253SOL    HW237254   4.133   0.744  11.973
 2254SOL     OW37255   4.173   2.704  11.967
 2254SOL    HW137256   4.233   2.714  12.041
 2254SOL    HW237257   4.145   2.613  11.971
 2255SOL     OW37258   4.158   4.557  11.971
 2255SOL    HW137259   4.227   4.570  12.035
 2255SOL    HW237260   4.137   4.464  11.977
 2256SOL     OW37261   6.008   0.838  11.973
 2256SOL    HW137262   6.071   0.850  12.043
 2256SOL    HW237263   5.986   0.745  11.977
 2257SOL     OW37264   6.025   2.703  11.974
 2257SOL    HW137265   6.086   2.700  12.048
 2257SOL    HW237266   5.993   2.613  11.965
 2258SOL     OW37267   6.016   4.548  11.966
 2258SOL    HW137268   6.083   4.550  12.035
 2258SOL    HW237269   5.982   4.458  11.970
 2259SOL     OW37270   5.936   6.391  12.031
 2259SOL    HW137271   6.027   6.402  12.056
 2259SOL    HW237272   5.931   6.301  11.999
 2260SOL     OW37273   1.027   0.393  11.937
 2260SOL    HW137274   0.936   0.413  11.959
 2260SOL    HW237275   1.023   0.356  11.849
 2261SOL     OW37276   1.018   2.259  11.928
 2261SOL    HW137277   0.925   2.267  11.947
 2261SOL    HW237278   1.021   2.222  11.840
 2262SOL     OW37279   1.005   4.126  11.922
 2262SOL    HW137280   0.912   4.133  11.941
 2262SOL    HW237281   1.009   4.081  11.838
 2263SOL     OW37282   1.011   5.999  11.923
 2263SOL    HW137283   0.917   6.011  11.939
 2263SOL    HW237284   1.015   5.954  11.839
 2264SOL     OW37285   2.877   0.384  11.932
 2264SOL    HW137286   2.787   0.415  11.942
 2264SOL    HW237287   2.884   0.358  11.840
 2265SOL     OW37288   2.875   2.256  11.915
 2265SOL    HW137289   2.782   2.266  11.934
 2265SOL    HW237290   2.877   2.206  11.833
 2266SOL     OW37291   2.859   4.249  11.893
 2266SOL    HW137292   2.832   4.189  11.962
 2266SOL    HW237293   2.801   4.228  11.820
 2267SOL     OW37294   2.867   5.979  11.931
 2267SOL    HW137295   2.778   6.006  11.952
 2267SOL    HW237296   2.863   5.950  11.840
 2268SOL     OW37297   4.747   4.122  11.926
 2268SOL    HW137298   4.654   4.134  11.946
 2268SOL    HW237299   4.748   4.084  11.839
 2269SOL     OW37300   4.737   5.985  11.928
 2269SOL    HW137301   4.646   6.001  11.952
 2269SOL    HW237302   4.732   5.936  11.845
 2270SOL     OW37303   0.211   1.791  11.926
 2270SOL    HW137304   0.269   1.718  11.951
 2270SOL    HW237305   0.180   1.767  11.839
 2271SOL     OW37306   0.213   3.664  11.916
 2271SOL    HW137307   0.260   3.584  11.942
 2271SOL    HW237308   0.169   3.640  11.834
 2272SOL     OW37309   0.209   5.528  11.926
 2272SOL    HW137310   0.255   5.451  11.959
 2272SOL    HW237311   0.172   5.500  11.843
 2273SOL     OW37312   2.138   1.783  11.919
 2273SOL    HW137313   2.174   1.698  11.946
 2273SOL    HW237314   2.112   1.769  11.827
 2274SOL     OW37315   2.049   3.665  11.901
 2274SOL    HW137316   2.134   3.624  11.916
 2274SOL    HW237317   2.033   3.653  11.807
 2275SOL     OW37318   2.146   5.512  11.899
 2275SOL    HW137319   2.173   5.427  11.934
 2275SOL    HW237320   2.154   5.503  11.804
 2276SOL     OW37321   4.029   1.772  11.900
 2276SOL    HW137322   4.121   1.777  11.925
 2276SOL    HW237323   4.028   1.794  11.806
 2277SOL     OW37324   3.989   3.649  11.925
 2277SOL    HW137325   4.044   3.582  11.967
 2277SOL    HW237326   3.996   3.630  11.831
 2278SOL     OW37327   3.990   5.495  11.905
 2278SOL    HW137328   4.057   5.431  11.930
 2278SOL    HW237329   4.009   5.513  11.813
 2279SOL     OW37330   5.824   1.777  11.920
 2279SOL    HW137331   5.883   1.709  11.954
 2279SOL    HW237332   5.843   1.779  11.826
 2280SOL     OW37333   5.855   3.658  11.914
 2280SOL    HW137334   5.898   3.578  11.944
 2280SOL    HW237335   5.819   3.636  11.829
 2281SOL     OW37336   5.857   5.493  11.914
 2281SOL    HW137337   5.910   5.419  11.944
 2281SOL    HW237338   5.882   5.505  11.823
 2282SOL     OW37339   0.962   0.767  11.924
 2282SOL    HW137340   1.022   0.779  11.998
 2282SOL    HW237341   0.886   0.724  11.961
 2283SOL     OW37342   0.939   2.650  11.938
 2283SOL    HW137343   1.003   2.624  12.004
 2283SOL    HW237344   0.870   2.584  11.944
 2284SOL     OW37345   0.946   4.488  11.931
 2284SOL    HW137346   1.022   4.476  11.988
 2284SOL    HW237347   0.872   4.454  11.983
 2285SOL     OW37348   2.815   0.767  11.934
 2285SOL    HW137349   2.880   0.767  12.004
 2285SOL    HW237350   2.736   0.732  11.975
 2286SOL     OW37351   2.832   2.625  11.915
 2286SOL    HW137352   2.890   2.599  11.987
 2286SOL    HW237353   2.753   2.574  11.929
 2287SOL     OW37354   2.815   4.572  11.883
 2287SOL    HW137355   2.846   4.533  11.964
 2287SOL    HW237356   2.742   4.515  11.856
 2288SOL     OW37357   4.672   0.762  11.941
 2288SOL    HW137358   4.737   0.751  12.010
 2288SOL    HW237359   4.590   0.729  11.978
 2289SOL     OW37360   4.675   2.656  11.943
 2289SOL    HW137361   4.742   2.629  12.006
 2289SOL    HW237362   4.601   2.597  11.959
 2290SOL     OW37363   4.682   4.500  11.932
 2290SOL    HW137364   4.748   4.485  12.000
 2290SOL    HW237365   4.602   4.460  11.966
 2291SOL     OW37366   0.839   1.017   0.901
 2291SOL    HW137367   0.861   1.029   0.808
 2291SOL    HW237368   0.823   1.105   0.933
 2292SOL     OW37369   0.838   2.875   0.914
 2292SOL    HW137370   0.859   2.875   0.820
 2292SOL    HW237371   0.823   2.967   0.935
 2293SOL     OW37372   2.695   1.004   0.924
 2293SOL    HW137373   2.739   0.988   0.841
 2293SOL    HW237374   2.689   1.099   0.931
 2294SOL     OW37375   2.716   2.827   0.897
 2294SOL    HW137376   2.755   2.787   0.820
 2294SOL    HW237377   2.704   2.919   0.874
 2295SOL     OW37378   2.688   4.746   0.904
 2295SOL    HW137379   2.748   4.713   0.837
 2295SOL    HW237380   2.705   4.840   0.908
 2296SOL     OW37381   4.565   1.006   0.918
 2296SOL    HW137382   4.582   0.991   0.825
 2296SOL    HW237383   4.550   1.100   0.925
 2297SOL     OW37384   4.562   2.872   0.924
 2297SOL    HW137385   4.570   2.857   0.830
 2297SOL    HW237386   4.539   2.965   0.932
 2298SOL     OW37387   4.561   4.727   0.933
 2298SOL    HW137388   4.628   4.701   0.870
 2298SOL    HW237389   4.564   4.823   0.933
 2299SOL     OW37390   6.378   1.008   0.881
 2299SOL    HW137391   0.015   0.984   0.849
 2299SOL    HW237392   6.374   1.103   0.867
 2300SOL     OW37393   6.383   2.850   0.897
 2300SOL    HW137394   0.019   2.833   0.858
 2300SOL    HW237395   6.374   2.945   0.894
 2301SOL     OW37396   6.375   4.742   0.906
 2301SOL    HW137397   0.017   4.734   0.877
 2301SOL    HW237398   6.355   4.835   0.897
 2302SOL     OW37399   1.317   1.037  11.920
 2302SOL    HW137400   1.331   0.971  11.852
 2302SOL    HW237401   1.262   1.103  11.877
 2303SOL     OW37402   1.279   2.887  11.917
 2303SOL    HW137403   1.302   2.812  11.863
 2303SOL    HW237404   1.282   2.962  11.858
 2304SOL     OW37405   1.307   4.762  11.909
 2304SOL    HW137406   1.321   4.702  11.835
 2304SOL    HW237407   1.252   4.831  11.874
 2305SOL     OW37408   3.178   1.043  11.915
 2305SOL    HW137409   3.184   0.981  11.842
 2305SOL    HW237410   3.119   1.112  11.883
 2306SOL     OW37411   3.199   2.815  11.955
 2306SOL    HW137412   3.216   2.786  11.865
 2306SOL    HW237413   3.111   2.852  11.952
 2307SOL     OW37414   3.169   4.770  11.920
 2307SOL    HW137415   3.193   4.701  11.858
 2307SOL    HW237416   3.107   4.825  11.871
 2308SOL     OW37417   5.038   1.041  11.915
 2308SOL    HW137418   5.050   0.974  11.848
 2308SOL    HW237419   4.981   1.106  11.874
 2309SOL     OW37420   5.032   2.894  11.920
 2309SOL    HW137421   5.048   2.835  11.846
 2309SOL    HW237422   4.977   2.963  11.884
 2310SOL     OW37423   5.048   4.747  11.900
 2310SOL    HW137424   5.066   4.697  11.820
 2310SOL    HW237425   4.979   4.808  11.875
 2311SOL     OW37426   0.310   0.217  11.953
 2311SOL    HW137427   0.267   0.225  12.039
 2311SOL    HW237428   0.323   0.122  11.943
 2312SOL     OW37429   0.320   2.043  11.948
 2312SOL    HW137430   0.290   2.078  12.033
 2312SOL    HW237431   0.290   1.952  11.949
 2313SOL     OW37432   0.316   3.911  11.948
 2313SOL    HW137433   0.268   3.946  12.023
 2313SOL    HW237434   0.285   3.821  11.940
 2314SOL     OW37435   0.320   5.781  11.940
 2314SOL    HW137436   0.296   5.817  12.026
 2314SOL    HW237437   0.294   5.689  11.944
 2315SOL     OW37438   2.177   0.192  11.950
 2315SOL    HW137439   2.132   0.231  12.025
 2315SOL    HW237440   2.176   0.098  11.968
 2316SOL     OW37441   2.168   2.047  11.963
 2316SOL    HW137442   2.117   2.071  12.041
 2316SOL    HW237443   2.152   1.953  11.953
 2317SOL     OW37444   2.108   3.928  11.974
 2317SOL    HW137445   2.078   3.955  12.061
 2317SOL    HW237446   2.080   3.837  11.965
 2318SOL     OW37447   2.162   5.764  11.971
 2318SOL    HW137448   2.076   5.786  12.006
 2318SOL    HW237449   2.156   5.671  11.948
 2319SOL     OW37450   4.050   0.236  11.968
 2319SOL    HW137451   4.017   0.267  12.053
 2319SOL    HW237452   4.030   0.143  11.968
 2320SOL     OW37453   4.009   2.052  11.967
 2320SOL    HW137454   3.985   2.075  12.057
 2320SOL    HW237455   4.018   1.957  11.969
 2321SOL     OW37456   4.051   3.912  11.943
 2321SOL    HW137457   4.034   3.939  12.034
 2321SOL    HW237458   4.036   3.818  11.943
 2322SOL     OW37459   4.029   5.764  11.946
 2322SOL    HW137460   3.996   5.799  12.029
 2322SOL    HW237461   4.010   5.670  11.949
 2323SOL     OW37462   5.901   0.200  11.949
 2323SOL    HW137463   5.851   0.236  12.022
 2323SOL    HW237464   5.902   0.105  11.965
 2324SOL     OW37465   5.882   2.044  11.947
 2324SOL    HW137466   5.853   2.080  12.031
 2324SOL    HW237467   5.861   1.950  11.954
 2325SOL     OW37468   5.885   3.924  11.949
 2325SOL    HW137469   5.845   3.945  12.034
 2325SOL    HW237470   5.873   3.829  11.940
 2326SOL     OW37471   5.882   5.762  11.954
 2326SOL    HW137472   5.854   5.790  12.041
 2326SOL    HW237473   5.862   5.668  11.951
 2327SOL     OW37474   1.753   0.405   0.920
 2327SOL    HW137475   1.833   0.458   0.924
 2327SOL    HW237476   1.775   0.334   0.859
 2328SOL     OW37477   1.748   2.237   0.917
 2328SOL    HW137478   1.819   2.301   0.918
 2328SOL    HW237479   1.776   2.171   0.855
 2329SOL     OW37480   1.717   4.124   0.871
 2329SOL    HW137481   1.788   4.187   0.873
 2329SOL    HW237482   1.748   4.055   0.811
 2330SOL     OW37483   1.751   5.971   0.927
 2330SOL    HW137484   1.823   6.034   0.923
 2330SOL    HW237485   1.780   5.897   0.874
 2331SOL     OW37486   3.614   0.383   0.921
 2331SOL    HW137487   3.609   0.467   0.876
 2331SOL    HW237488   3.649   0.323   0.856
 2332SOL     OW37489   3.621   2.236   0.909
 2332SOL    HW137490   3.688   2.304   0.915
 2332SOL    HW237491   3.656   2.173   0.846
 2333SOL     OW37492   3.598   4.218   0.891
 2333SOL    HW137493   3.686   4.253   0.907
 2333SOL    HW237494   3.612   4.140   0.838
 2334SOL     OW37495   3.609   5.978   0.904
 2334SOL    HW137496   3.685   6.036   0.900
 2334SOL    HW237497   3.635   5.901   0.854
 2335SOL     OW37498   5.478   0.369   0.921
 2335SOL    HW137499   5.548   0.434   0.921
 2335SOL    HW237500   5.483   0.327   0.835
 2336SOL     OW37501   5.474   2.240   0.912
 2336SOL    HW137502   5.547   2.302   0.911
 2336SOL    HW237503   5.501   2.169   0.854
 2337SOL     OW37504   5.485   4.094   0.909
 2337SOL    HW137505   5.553   4.160   0.897
 2337SOL    HW237506   5.511   4.022   0.852
 2338SOL     OW37507   5.478   5.966   0.913
 2338SOL    HW137508   5.551   6.026   0.908
 2338SOL    HW237509   5.504   5.892   0.857
 2339SOL     OW37510   1.823   0.183  11.959
 2339SOL    HW137511   1.767   0.107  11.977
 2339SOL    HW237512   1.853   0.171  11.869
 2340SOL     OW37513   1.841   2.024  11.949
 2340SOL    HW137514   1.823   1.931  11.961
 2340SOL    HW237515   1.841   2.036  11.854
 2341SOL     OW37516   1.798   3.928  11.937
 2341SOL    HW137517   1.777   3.845  11.980
 2341SOL    HW237518   1.818   3.904  11.846
 2342SOL     OW37519   1.858   5.746  11.948
 2342SOL    HW137520   1.831   5.655  11.960
 2342SOL    HW237521   1.850   5.761  11.853
 2343SOL     OW37522   3.683   0.171  11.951
 2343SOL    HW137523   3.741   0.106  11.990
 2343SOL    HW237524   3.702   0.165  11.857
 2344SOL     OW37525   3.657   2.011  11.942
 2344SOL    HW137526   3.706   1.932  11.966
 2344SOL    HW237527   3.675   2.023  11.849
 2345SOL     OW37528   3.747   3.827  11.965
 2345SOL    HW137529   3.824   3.777  11.990
 2345SOL    HW237530   3.702   3.771  11.902
 2346SOL     OW37531   3.652   5.730  11.954
 2346SOL    HW137532   3.697   5.646  11.958
 2346SOL    HW237533   3.665   5.760  11.864
 2347SOL     OW37534   5.560   0.164  11.949
 2347SOL    HW137535   5.493   0.098  11.967
 2347SOL    HW237536   5.580   0.154  11.856
 2348SOL     OW37537   5.511   1.989  11.969
 2348SOL    HW137538   5.552   1.902  11.966
 2348SOL    HW237539   5.519   2.022  11.880
 2349SOL     OW37540   5.544   3.891  11.935
 2349SOL    HW137541   5.542   3.796  11.947
 2349SOL    HW237542   5.563   3.903  11.841
 2350SOL     OW37543   5.546   5.750  11.938
 2350SOL    HW137544   5.534   5.655  11.942
 2350SOL    HW237545   5.564   5.768  11.846
 2351SOL     OW37546   0.137   0.546   0.939
 2351SOL    HW137547   0.224   0.560   0.901
 2351SOL    HW237548   0.123   0.622   0.995
 2352SOL     OW37549   0.131   2.406   0.937
 2352SOL    HW137550   0.219   2.407   0.900
 2352SOL    HW237551   0.130   2.479   0.999
 2353SOL     OW37552   0.113   4.304   0.910
 2353SOL    HW137553   0.186   4.247   0.933
 2353SOL    HW237554   0.116   4.375   0.974
 2354SOL     OW37555   0.144   6.111   0.968
 2354SOL    HW137556   0.230   6.131   0.931
 2354SOL    HW237557   0.124   6.186   1.024
 2355SOL     OW37558   1.977   0.570   0.927
 2355SOL    HW137559   2.066   0.558   0.894
 2355SOL    HW237560   1.985   0.642   0.990
 2356SOL     OW37561   1.966   2.400   0.919
 2356SOL    HW137562   2.057   2.396   0.890
 2356SOL    HW237563   1.966   2.466   0.988
 2357SOL     OW37564   1.919   4.308   0.907
 2357SOL    HW137565   1.984   4.353   0.854
 2357SOL    HW237566   1.927   4.347   0.994
 2358SOL     OW37567   1.958   6.163   0.894
 2358SOL    HW137568   2.042   6.117   0.884
 2358SOL    HW237569   1.974   6.228   0.962
 2359SOL     OW37570   3.853   0.563   0.913
 2359SOL    HW137571   3.945   0.573   0.888
 2359SOL    HW237572   3.839   0.632   0.979
 2360SOL     OW37573   3.842   2.392   0.939
 2360SOL    HW137574   3.931   2.404   0.906
 2360SOL    HW237575   3.831   2.460   1.005
 2361SOL     OW37576   3.849   4.311   0.916
 2361SOL    HW137577   3.940   4.293   0.890
 2361SOL    HW237578   3.857   4.380   0.982
 2362SOL     OW37579   3.828   6.135   0.915
 2362SOL    HW137580   3.920   6.131   0.891
 2362SOL    HW237581   3.825   6.198   0.988
 2363SOL     OW37582   5.707   0.527   0.940
 2363SOL    HW137583   5.794   0.533   0.903
 2363SOL    HW237584   5.699   0.605   0.995
 2364SOL     OW37585   5.698   2.397   0.920
 2364SOL    HW137586   5.789   2.401   0.891
 2364SOL    HW237587   5.691   2.466   0.986
 2365SOL     OW37588   5.725   4.261   0.913
 2365SOL    HW137589   5.756   4.199   0.978
 2365SOL    HW237590   5.720   4.345   0.959
 2366SOL     OW37591   5.690   6.138   0.895
 2366SOL    HW137592   5.784   6.124   0.883
 2366SOL    HW237593   5.685   6.209   0.959
 2367SOL     OW37594   1.630   1.736   0.919
 2367SOL    HW137595   1.683   1.740   0.839
 2367SOL    HW237596   1.608   1.827   0.938
 2368SOL     OW37597   1.553   3.588   0.888
 2368SOL    HW137598   1.520   3.597   0.799
 2368SOL    HW237599   1.571   3.678   0.915
 2369SOL     OW37600   1.630   5.454   0.924
 2369SOL    HW137601   1.685   5.461   0.846
 2369SOL    HW237602   1.612   5.544   0.948
 2370SOL     OW37603   3.497   1.731   0.927
 2370SOL    HW137604   3.544   1.735   0.844
 2370SOL    HW237605   3.483   1.823   0.951
 2371SOL     OW37606   3.570   3.528   0.997
 2371SOL    HW137607   3.656   3.499   0.967
 2371SOL    HW237608   3.582   3.619   1.020
 2372SOL     OW37609   3.501   5.449   0.929
 2372SOL    HW137610   3.555   5.451   0.850
 2372SOL    HW237611   3.482   5.541   0.946
 2373SOL     OW37612   5.355   1.727   0.922
 2373SOL    HW137613   5.415   1.732   0.847
 2373SOL    HW237614   5.340   1.818   0.946
 2374SOL     OW37615   5.329   3.606   0.897
 2374SOL    HW137616   5.400   3.595   0.833
 2374SOL    HW237617   5.330   3.699   0.918
 2375SOL     OW37618   5.328   5.447   0.941
 2375SOL    HW137619   5.419   5.429   0.916
 2375SOL    HW237620   5.320   5.542   0.937
 2376SOL     OW37621   1.427   0.840   0.910
 2376SOL    HW137622   1.375   0.901   0.858
 2376SOL    HW237623   1.517   0.856   0.883
 2377SOL     OW37624   1.422   2.714   0.918
 2377SOL    HW137625   1.369   2.766   0.857
 2377SOL    HW237626   1.510   2.717   0.883
 2378SOL     OW37627   1.427   4.584   0.923
 2378SOL    HW137628   1.371   4.625   0.858
 2378SOL    HW237629   1.513   4.579   0.881
 2379SOL     OW37630   3.286   0.857   0.922
 2379SOL    HW137631   3.234   0.906   0.859
 2379SOL    HW237632   3.374   0.857   0.885
 2380SOL     OW37633   3.305   2.698   0.920
 2380SOL    HW137634   3.253   2.748   0.858
 2380SOL    HW237635   3.394   2.704   0.887
 2381SOL     OW37636   3.303   4.688   0.950
 2381SOL    HW137637   3.277   4.729   0.868
 2381SOL    HW237638   3.392   4.720   0.967
 2382SOL     OW37639   3.285   6.404   0.965
 2382SOL    HW137640   3.227   0.031   0.960
 2382SOL    HW237641   3.358   6.425   0.908
 2383SOL     OW37642   5.149   0.853   0.919
 2383SOL    HW137643   5.095   0.907   0.861
 2383SOL    HW237644   5.236   0.857   0.881
 2384SOL     OW37645   5.149   2.725   0.927
 2384SOL    HW137646   5.097   2.782   0.870
 2384SOL    HW237647   5.235   2.722   0.887
 2385SOL     OW37648   5.132   4.575   0.936
 2385SOL    HW137649   5.054   4.602   0.887
 2385SOL    HW237650   5.203   4.626   0.896
 2386SOL     OW37651   5.146   6.419   0.923
 2386SOL    HW137652   5.057   0.001   0.937
 2386SOL    HW237653   5.202   0.036   0.962
 2387SOL     OW37654   0.947   0.165   0.925
 2387SOL    HW137655   0.948   0.120   0.841
 2387SOL    HW237656   1.035   0.152   0.960
 2388SOL     OW37657   0.964   1.925   0.909
 2388SOL    HW137658   0.977   1.923   0.814
 2388SOL    HW237659   1.038   1.976   0.942
 2389SOL     OW37660   0.956   3.794   0.965
 2389SOL    HW137661   0.938   3.794   0.871
 2389SOL    HW237662   1.039   3.840   0.974
 2390SOL     OW37663   0.946   5.660   0.908
 2390SOL    HW137664   0.970   5.652   0.816
 2390SOL    HW237665   1.022   5.701   0.950
 2391SOL     OW37666   2.797   0.129   0.917
 2391SOL    HW137667   2.816   0.106   0.827
 2391SOL    HW237668   2.883   0.150   0.955
 2392SOL     OW37669   2.780   1.940   0.904
 2392SOL    HW137670   2.808   1.924   0.813
 2392SOL    HW237671   2.854   1.985   0.944
 2393SOL     OW37672   2.696   3.754   0.781
 2393SOL    HW137673   2.754   3.712   0.719
 2393SOL    HW237674   2.678   3.840   0.743
 2394SOL     OW37675   2.802   5.660   0.916
 2394SOL    HW137676   2.826   5.652   0.823
 2394SOL    HW237677   2.877   5.703   0.956
 2395SOL     OW37678   4.657   0.156   0.924
 2395SOL    HW137679   4.659   0.111   0.839
 2395SOL    HW237680   4.749   0.171   0.946
 2396SOL     OW37681   4.659   1.931   0.913
 2396SOL    HW137682   4.677   1.923   0.819
 2396SOL    HW237683   4.735   1.977   0.948
 2397SOL     OW37684   4.655   3.799   0.926
 2397SOL    HW137685   4.668   3.787   0.832
 2397SOL    HW237686   4.727   3.855   0.954
 2398SOL     OW37687   4.653   5.668   0.908
 2398SOL    HW137688   4.677   5.653   0.817
 2398SOL    HW237689   4.733   5.701   0.948
 2399SOL     OW37690   0.040   0.064   0.913
 2399SOL    HW137691   0.063   0.046   0.822
 2399SOL    HW237692   0.093   0.141   0.935
 2400SOL     OW37693   0.023   1.968   0.872
 2400SOL    HW137694   0.086   1.907   0.831
 2400SOL    HW237695   0.078   2.030   0.920
 2401SOL     OW37696   6.442   3.858   0.857
 2401SOL    HW137697   0.026   3.770   0.844
 2401SOL    HW237698   0.056   3.901   0.913
 2402SOL     OW37699   0.013   5.704   0.883
 2402SOL    HW137700   0.058   5.637   0.831
 2402SOL    HW237701   0.082   5.741   0.939
 2403SOL     OW37702   1.651   0.593  11.885
 2403SOL    HW137703   1.644   0.535  11.961
 2403SOL    HW237704   1.741   0.582  11.854
 2404SOL     OW37705   1.633   2.443  11.879
 2404SOL    HW137706   1.625   2.381  11.951
 2404SOL    HW237707   1.723   2.432  11.848
 2405SOL     OW37708   1.643   4.339  11.866
 2405SOL    HW137709   1.639   4.276  11.938
 2405SOL    HW237710   1.731   4.328  11.829
 2406SOL     OW37711   1.636   6.147  11.885
 2406SOL    HW137712   1.638   6.080  11.953
 2406SOL    HW237713   1.724   6.145  11.846
 2407SOL     OW37714   3.498   0.593  11.874
 2407SOL    HW137715   3.495   0.539  11.953
 2407SOL    HW237716   3.588   0.585  11.843
 2408SOL     OW37717   3.498   2.407  11.853
 2408SOL    HW137718   3.497   2.337  11.917
 2408SOL    HW237719   3.591   2.422  11.834
 2409SOL     OW37720   3.574   4.424  11.810
 2409SOL    HW137721   3.510   4.375  11.758
 2409SOL    HW237722   3.658   4.385  11.787
 2410SOL     OW37723   3.523   6.146  11.864
 2410SOL    HW137724   3.527   6.091  11.942
 2410SOL    HW237725   3.613   6.153  11.834
 2411SOL     OW37726   5.382   2.465  11.872
 2411SOL    HW137727   5.374   2.402  11.944
 2411SOL    HW237728   5.473   2.456  11.843
 2412SOL     OW37729   5.369   4.316  11.876
 2412SOL    HW137730   5.364   4.254  11.949
 2412SOL    HW237731   5.458   4.308  11.843
 2413SOL     OW37732   5.368   6.155  11.886
 2413SOL    HW137733   5.366   6.091  11.957
 2413SOL    HW237734   5.457   6.149  11.851
 2414SOL     OW37735   0.884   1.530  11.901
 2414SOL    HW137736   0.855   1.483  11.823
 2414SOL    HW237737   0.945   1.471  11.944
 2415SOL     OW37738   0.895   3.397  11.902
 2415SOL    HW137739   0.866   3.340  11.831
 2415SOL    HW237740   0.981   3.427  11.874
 2416SOL     OW37741   2.670   3.310  11.879
 2416SOL    HW137742   2.648   3.377  11.814
 2416SOL    HW237743   2.763   3.326  11.898
 2417SOL     OW37744   2.750   5.254  11.901
 2417SOL    HW137745   2.728   5.217  11.816
 2417SOL    HW237746   2.812   5.192  11.939
 2418SOL     OW37747   4.607   1.531  11.916
 2418SOL    HW137748   4.596   1.504  11.825
 2418SOL    HW237749   4.673   1.473  11.951
 2419SOL     OW37750   4.622   3.402  11.908
 2419SOL    HW137751   4.603   3.356  11.826
 2419SOL    HW237752   4.687   3.347  11.952
 2420SOL     OW37753   4.572   5.173  11.884
 2420SOL    HW137754   4.582   5.166  11.789
 2420SOL    HW237755   4.661   5.170  11.918
 2421SOL     OW37756   0.793   1.280   0.949
 2421SOL    HW137757   0.772   1.328   1.029
 2421SOL    HW237758   0.717   1.292   0.892
 2422SOL     OW37759   0.790   3.139   0.950
 2422SOL    HW137760   0.764   3.186   1.029
 2422SOL    HW237761   0.717   3.150   0.889
 2423SOL     OW37762   0.783   4.950   0.933
 2423SOL    HW137763   0.758   4.983   1.019
 2423SOL    HW237764   0.715   4.984   0.874
 2424SOL     OW37765   2.669   1.273   0.936
 2424SOL    HW137766   2.643   1.321   1.015
 2424SOL    HW237767   2.596   1.285   0.875
 2425SOL     OW37768   2.657   3.089   0.877
 2425SOL    HW137769   2.602   3.126   0.945
 2425SOL    HW237770   2.605   3.096   0.797
 2426SOL     OW37771   2.689   5.023   0.944
 2426SOL    HW137772   2.665   5.056   1.031
 2426SOL    HW237773   2.616   5.049   0.888
 2427SOL     OW37774   4.513   1.274   0.930
 2427SOL    HW137775   4.483   1.322   1.007
 2427SOL    HW237776   4.441   1.280   0.868
 2428SOL     OW37777   4.527   3.147   0.936
 2428SOL    HW137778   4.491   3.198   1.009
 2428SOL    HW237779   4.452   3.133   0.878
 2429SOL     OW37780   4.532   5.005   0.947
 2429SOL    HW137781   4.494   5.052   1.021
 2429SOL    HW237782   4.464   5.005   0.880
 2430SOL     OW37783   1.291   1.231   0.929
 2430SOL    HW137784   1.318   1.154   0.879
 2430SOL    HW237785   1.342   1.226   1.010
 2431SOL     OW37786   1.276   3.080   0.947
 2431SOL    HW137787   1.300   3.002   0.896
 2431SOL    HW237788   1.333   3.076   1.024
 2432SOL     OW37789   1.321   4.948   0.931
 2432SOL    HW137790   1.305   4.874   0.872
 2432SOL    HW237791   1.298   4.916   1.018
 2433SOL     OW37792   3.146   1.216   0.936
 2433SOL    HW137793   3.179   1.147   0.878
 2433SOL    HW237794   3.206   1.215   1.011
 2434SOL     OW37795   3.170   3.047   0.922
 2434SOL    HW137796   3.190   2.972   0.866
 2434SOL    HW237797   3.236   3.045   0.991
 2435SOL     OW37798   3.150   4.973   0.948
 2435SOL    HW137799   3.182   4.912   0.880
 2435SOL    HW237800   3.214   4.966   1.018
 2436SOL     OW37801   5.035   1.232   0.925
 2436SOL    HW137802   5.039   1.147   0.883
 2436SOL    HW237803   5.086   1.222   1.006
 2437SOL     OW37804   5.009   3.087   0.942
 2437SOL    HW137805   5.035   3.019   0.880
 2437SOL    HW237806   5.073   3.081   1.013
 2438SOL     OW37807   5.009   4.944   0.966
 2438SOL    HW137808   5.028   4.885   0.893
 2438SOL    HW237809   5.087   4.939   1.022
 2439SOL     OW37810   0.648   0.829   0.977
 2439SOL    HW137811   0.701   0.907   0.964
 2439SOL    HW237812   0.711   0.757   0.980
 2440SOL     OW37813   0.643   2.697   0.982
 2440SOL    HW137814   0.703   2.770   0.969
 2440SOL    HW237815   0.698   2.619   0.981
 2441SOL     OW37816   0.675   4.588   0.976
 2441SOL    HW137817   0.621   4.587   1.054
 2441SOL    HW237818   0.708   4.499   0.968
 2442SOL     OW37819   0.652   0.002   0.900
 2442SOL    HW137820   0.674   0.074   0.959
 2442SOL    HW237821   0.710   6.380   0.927
 2443SOL     OW37822   2.499   0.822   0.970
 2443SOL    HW137823   2.555   0.900   0.962
 2443SOL    HW237824   2.561   0.749   0.973
 2444SOL     OW37825   2.495   2.687   0.969
 2444SOL    HW137826   2.559   2.754   0.947
 2444SOL    HW237827   2.546   2.605   0.968
 2445SOL     OW37828   2.452   4.637   0.982
 2445SOL    HW137829   2.528   4.690   0.956
 2445SOL    HW237830   2.490   4.554   1.012
 2446SOL     OW37831   2.511   6.414   0.892
 2446SOL    HW137832   2.522   0.037   0.954
 2446SOL    HW237833   2.579   6.352   0.916
 2447SOL     OW37834   4.367   0.827   0.976
 2447SOL    HW137835   4.427   0.901   0.963
 2447SOL    HW237836   4.423   0.750   0.972
 2448SOL     OW37837   4.350   2.697   0.985
 2448SOL    HW137838   4.401   2.776   0.970
 2448SOL    HW237839   4.414   2.626   0.979
 2449SOL     OW37840   4.364   4.547   0.970
 2449SOL    HW137841   4.422   4.622   0.958
 2449SOL    HW237842   4.422   4.471   0.969
 2450SOL     OW37843   4.370   6.439   0.890
 2450SOL    HW137844   4.388   0.060   0.952
 2450SOL    HW237845   4.428   6.368   0.918
 2451SOL     OW37846   6.216   0.814   0.968
 2451SOL    HW137847   6.269   0.889   0.942
 2451SOL    HW237848   6.279   0.745   0.988
 2452SOL     OW37849   6.221   2.656   0.980
 2452SOL    HW137850   6.271   2.734   0.954
 2452SOL    HW237851   6.287   2.589   0.997
 2453SOL     OW37852   6.217   4.533   0.973
 2453SOL    HW137853   6.272   4.609   0.954
 2453SOL    HW237854   6.278   4.466   1.002
 2454SOL     OW37855   6.214   6.429   0.897
 2454SOL    HW137856   6.204   0.052   0.959
 2454SOL    HW237857   6.308   6.411   0.897
 2455SOL     OW37858   1.346   0.577   0.960
 2455SOL    HW137859   1.378   0.552   1.047
 2455SOL    HW237860   1.380   0.666   0.947
 2456SOL     OW37861   1.349   2.448   0.962
 2456SOL    HW137862   1.382   2.414   1.046
 2456SOL    HW237863   1.383   2.537   0.958
 2457SOL     OW37864   1.348   4.317   0.978
 2457SOL    HW137865   1.381   4.290   1.064
 2457SOL    HW237866   1.391   4.401   0.962
 2458SOL     OW37867   1.328   6.138   0.990
 2458SOL    HW137868   1.354   6.102   1.074
 2458SOL    HW237869   1.369   6.225   0.987
 2459SOL     OW37870   3.200   0.586   0.974
 2459SOL    HW137871   3.237   0.554   1.057
 2459SOL    HW237872   3.246   0.668   0.957
 2460SOL     OW37873   3.212   2.446   0.964
 2460SOL    HW137874   3.247   2.415   1.048
 2460SOL    HW237875   3.254   2.531   0.951
 2461SOL     OW37876   3.204   4.223   1.039
 2461SOL    HW137877   3.157   4.223   1.122
 2461SOL    HW237878   3.277   4.284   1.052
 2462SOL     OW37879   3.157   6.171   1.009
 2462SOL    HW137880   3.208   6.132   1.080
 2462SOL    HW237881   3.205   6.250   0.985
 2463SOL     OW37882   5.069   0.590   0.950
 2463SOL    HW137883   5.094   0.566   1.039
 2463SOL    HW237884   5.099   0.680   0.940
 2464SOL     OW37885   5.062   2.463   0.958
 2464SOL    HW137886   5.099   2.428   1.039
 2464SOL    HW237887   5.102   2.549   0.949
 2465SOL     OW37888   5.127   4.293   0.940
 2465SOL    HW137889   5.122   4.269   1.033
 2465SOL    HW237890   5.115   4.388   0.940
 2466SOL     OW37891   5.049   6.154   0.983
 2466SOL    HW137892   5.084   6.128   1.068
 2466SOL    HW237893   5.091   6.238   0.964
 2467SOL     OW37894   0.584   1.811   0.909
 2467SOL    HW137895   0.512   1.790   0.967
 2467SOL    HW237896   0.638   1.872   0.959
 2468SOL     OW37897   0.592   3.669   0.927
 2468SOL    HW137898   0.516   3.653   0.983
 2468SOL    HW237899   0.627   3.753   0.958
 2469SOL     OW37900   0.604   5.532   0.925
 2469SOL    HW137901   0.523   5.516   0.974
 2469SOL    HW237902   0.634   5.617   0.957
 2470SOL     OW37903   2.431   1.809   0.940
 2470SOL    HW137904   2.362   1.786   1.002
 2470SOL    HW237905   2.470   1.889   0.976
 2471SOL     OW37906   2.521   3.677   1.079
 2471SOL    HW137907   2.464   3.607   1.112
 2471SOL    HW237908   2.580   3.634   1.018
 2472SOL     OW37909   2.446   5.507   0.958
 2472SOL    HW137910   2.367   5.499   1.012
 2472SOL    HW237911   2.481   5.593   0.980
 2473SOL     OW37912   4.295   1.799   0.938
 2473SOL    HW137913   4.214   1.787   0.987
 2473SOL    HW237914   4.332   1.881   0.972
 2474SOL     OW37915   4.322   3.662   0.949
 2474SOL    HW137916   4.240   3.640   0.994
 2474SOL    HW237917   4.333   3.755   0.965
 2475SOL     OW37918   4.306   5.526   0.945
 2475SOL    HW137919   4.228   5.508   0.997
 2475SOL    HW237920   4.341   5.607   0.982
 2476SOL     OW37921   6.194   1.782   0.983
 2476SOL    HW137922   6.105   1.772   1.016
 2476SOL    HW237923   6.210   1.876   0.985
 2477SOL     OW37924   6.211   3.659   0.993
 2477SOL    HW137925   6.118   3.637   1.005
 2477SOL    HW237926   6.213   3.754   0.994
 2478SOL     OW37927   6.193   5.490   0.966
 2478SOL    HW137928   6.105   5.470   0.997
 2478SOL    HW237929   6.191   5.584   0.946
 2479SOL     OW37930   0.587   3.173  11.922
 2479SOL    HW137931   0.507   3.172  11.869
 2479SOL    HW237932   0.598   3.265  11.947
 2480SOL     OW37933   0.596   5.031  11.921
 2480SOL    HW137934   0.518   5.039  11.865
 2480SOL    HW237935   0.610   5.120  11.955
 2481SOL     OW37936   2.449   1.306  11.915
 2481SOL    HW137937   2.370   1.306  11.862
 2481SOL    HW237938   2.465   1.399  11.934
 2482SOL     OW37939   2.384   3.114  11.918
 2482SOL    HW137940   2.308   3.126  11.861
 2482SOL    HW237941   2.399   3.201  11.956
 2483SOL     OW37942   2.448   5.030  11.917
 2483SOL    HW137943   2.362   5.024  11.876
 2483SOL    HW237944   2.457   5.123  11.939
 2484SOL     OW37945   4.322   1.314  11.901
 2484SOL    HW137946   4.240   1.317  11.851
 2484SOL    HW237947   4.338   1.404  11.928
 2485SOL     OW37948   4.316   3.178  11.913
 2485SOL    HW137949   4.236   3.183  11.862
 2485SOL    HW237950   4.339   3.269  11.932
 2486SOL     OW37951   4.292   5.023  11.888
 2486SOL    HW137952   4.209   5.044  11.844
 2486SOL    HW237953   4.327   5.108  11.914
 2487SOL     OW37954   6.147   1.208  11.819
 2487SOL    HW137955   6.076   1.266  11.791
 2487SOL    HW237956   6.175   1.243  11.904
 2488SOL     OW37957   6.164   3.106  11.849
 2488SOL    HW137958   6.090   3.155  11.813
 2488SOL    HW237959   6.167   3.131  11.941
 2489SOL     OW37960   6.154   4.930  11.809
 2489SOL    HW137961   6.076   4.984  11.794
 2489SOL    HW237962   6.212   4.985  11.861
 2490SOL     OW37963   1.803   1.731  11.885
 2490SOL    HW137964   1.860   1.754  11.812
 2490SOL    HW237965   1.768   1.645  11.862
 2491SOL     OW37966   1.041   0.014  11.860
 2491SOL    HW137967   0.998   6.385  11.826
 2491SOL    HW237968   1.133   0.004  11.832
 2492SOL     OW37969   1.742   3.583  11.826
 2492SOL    HW137970   1.823   3.606  11.780
 2492SOL    HW237971   1.734   3.489  11.815
 2493SOL     OW37972   1.032   1.882  11.832
 2493SOL    HW137973   0.970   1.826  11.786
 2493SOL    HW237974   1.116   1.836  11.826
 2494SOL     OW37975   1.804   5.447  11.881
 2494SOL    HW137976   1.854   5.477  11.805
 2494SOL    HW237977   1.768   5.362  11.855
 2495SOL     OW37978   1.024   3.738  11.829
 2495SOL    HW137979   0.986   3.678  11.765
 2495SOL    HW237980   1.113   3.705  11.842
 2496SOL     OW37981   1.039   5.613  11.841
 2496SOL    HW137982   0.978   5.540  11.832
 2496SOL    HW237983   1.126   5.574  11.832
 2497SOL     OW37984   3.702   1.692  11.889
 2497SOL    HW137985   3.736   1.732  11.809
 2497SOL    HW237986   3.649   1.618  11.858
 2498SOL     OW37987   2.911   0.028  11.855
 2498SOL    HW137988   2.894   6.395  11.902
 2498SOL    HW237989   2.998   0.017  11.817
 2499SOL     OW37990   3.654   3.570  11.799
 2499SOL    HW137991   3.721   3.594  11.735
 2499SOL    HW237992   3.637   3.477  11.781
 2500SOL     OW37993   2.897   1.894  11.841
 2500SOL    HW137994   2.841   1.817  11.840
 2500SOL    HW237995   2.986   1.860  11.829
 2501SOL     OW37996   3.660   5.445  11.875
 2501SOL    HW137997   3.718   5.474  11.805
 2501SOL    HW237998   3.632   5.357  11.848
 2502SOL     OW37999   2.975   3.566  11.903
 2502SOL    HW138000   2.946   3.476  11.920
 2502SOL    HW238001   3.067   3.559  11.881
 2503SOL     OW38002   2.891   5.596  11.830
 2503SOL    HW138003   2.833   5.546  11.774
 2503SOL    HW238004   2.976   5.553  11.822
 2504SOL     OW38005   5.514   1.722  11.858
 2504SOL    HW138006   5.581   1.750  11.796
 2504SOL    HW238007   5.499   1.630  11.837
 2505SOL     OW38008   4.778   0.022  11.857
 2505SOL    HW138009   4.737   6.388  11.882
 2505SOL    HW238010   4.868   6.449  11.836
 2506SOL     OW38011   5.529   3.590  11.870
 2506SOL    HW138012   5.595   3.614  11.805
 2506SOL    HW238013   5.495   3.506  11.840
 2507SOL     OW38014   4.746   1.858  11.832
 2507SOL    HW138015   4.690   1.812  11.769
 2507SOL    HW238016   4.833   1.820  11.818
 2508SOL     OW38017   5.505   5.456  11.858
 2508SOL    HW138018   5.568   5.478  11.789
 2508SOL    HW238019   5.485   5.364  11.844
 2509SOL     OW38020   4.751   3.747  11.830
 2509SOL    HW138021   4.699   3.691  11.772
 2509SOL    HW238022   4.836   3.705  11.834
 2510SOL     OW38023   0.108   0.001  11.846
 2510SOL    HW138024   0.100   0.003  11.750
 2510SOL    HW238025   0.193   6.410  11.862
 2511SOL     OW38026   0.581   0.223  11.884
 2511SOL    HW138027   0.614   0.147  11.933
 2511SOL    HW238028   0.489   0.230  11.909
 2512SOL     OW38029   0.583   2.072  11.882
 2512SOL    HW138030   0.617   1.996  11.929
 2512SOL    HW238031   0.490   2.074  11.906
 2513SOL     OW38032   0.579   3.931  11.877
 2513SOL    HW138033   0.615   3.849  11.911
 2513SOL    HW238034   0.486   3.929  11.900
 2514SOL     OW38035   0.589   5.809  11.889
 2514SOL    HW138036   0.624   5.746  11.952
 2514SOL    HW238037   0.495   5.812  11.908
 2515SOL     OW38038   2.445   0.215  11.897
 2515SOL    HW138039   2.472   0.134  11.940
 2515SOL    HW238040   2.351   0.221  11.914
 2516SOL     OW38041   2.434   2.073  11.897
 2516SOL    HW138042   2.455   1.980  11.895
 2516SOL    HW238043   2.342   2.076  11.924
 2517SOL     OW38044   2.285   3.877  11.760
 2517SOL    HW138045   2.232   3.902  11.836
 2517SOL    HW238046   2.262   3.941  11.692
 2518SOL     OW38047   2.428   5.825  11.921
 2518SOL    HW138048   2.476   5.745  11.899
 2518SOL    HW238049   2.338   5.807  11.895
 2519SOL     OW38050   4.316   0.217  11.890
 2519SOL    HW138051   4.352   0.139  11.933
 2519SOL    HW238052   4.226   0.222  11.921
 2520SOL     OW38053   4.277   2.019  11.869
 2520SOL    HW138054   4.345   2.018  11.935
 2520SOL    HW238055   4.208   2.075  11.905
 2521SOL     OW38056   4.313   3.937  11.872
 2521SOL    HW138057   4.350   3.865  11.922
 2521SOL    HW238058   4.221   3.940  11.900
 2522SOL     OW38059   4.298   5.829  11.877
 2522SOL    HW138060   4.345   5.758  11.921
 2522SOL    HW238061   4.208   5.821  11.908
 2523SOL     OW38062   6.163   0.257  11.898
 2523SOL    HW138063   6.210   0.197  11.957
 2523SOL    HW238064   6.071   0.243  11.918
 2524SOL     OW38065   6.150   2.086  11.896
 2524SOL    HW138066   6.183   2.057  11.981
 2524SOL    HW238067   6.055   2.090  11.907
 2525SOL     OW38068   6.144   3.971  11.890
 2525SOL    HW138069   6.187   3.935  11.967
 2525SOL    HW238070   6.051   3.954  11.904
 2526SOL     OW38071   6.141   5.796  11.887
 2526SOL    HW138072   6.182   5.766  11.967
 2526SOL    HW238073   6.047   5.787  11.903
 2527SOL     OW38074   1.089   0.691   0.955
 2527SOL    HW138075   1.018   0.633   0.980
 2527SOL    HW238076   1.169   0.640   0.970
 2528SOL     OW38077   1.089   2.543   0.970
 2528SOL    HW138078   1.025   2.474   0.985
 2528SOL    HW238079   1.174   2.498   0.970
 2529SOL     OW38080   1.091   4.407   0.975
 2529SOL    HW138081   1.035   4.330   0.981
 2529SOL    HW238082   1.180   4.372   0.973
 2530SOL     OW38083   1.077   6.302   0.946
 2530SOL    HW138084   0.985   6.280   0.962
 2530SOL    HW238085   1.124   6.220   0.962
 2531SOL     OW38086   2.953   0.702   0.976
 2531SOL    HW138087   2.885   0.634   0.977
 2531SOL    HW238088   3.035   0.653   0.972
 2532SOL     OW38089   2.954   2.527   0.976
 2532SOL    HW138090   2.901   2.446   0.980
 2532SOL    HW238091   3.044   2.496   0.973
 2533SOL     OW38092   3.054   4.542   0.984
 2533SOL    HW138093   3.072   4.450   1.001
 2533SOL    HW238094   3.134   4.575   0.943
 2534SOL     OW38095   2.924   6.308   1.091
 2534SOL    HW138096   2.849   6.281   1.039
 2534SOL    HW238097   2.997   6.257   1.055
 2535SOL     OW38098   4.810   0.692   0.986
 2535SOL    HW138099   4.739   0.628   0.979
 2535SOL    HW238100   4.889   0.641   0.968
 2536SOL     OW38101   4.808   2.557   0.989
 2536SOL    HW138102   4.745   2.486   0.982
 2536SOL    HW238103   4.893   2.516   0.975
 2537SOL     OW38104   4.801   4.383   1.028
 2537SOL    HW138105   4.711   4.353   1.015
 2537SOL    HW238106   4.825   4.427   0.947
 2538SOL     OW38107   4.801   6.316   0.941
 2538SOL    HW138108   4.711   6.288   0.958
 2538SOL    HW238109   4.854   6.241   0.966
 2539SOL     OW38110   0.818   0.605   0.977
 2539SOL    HW138111   0.777   0.581   1.060
 2539SOL    HW238112   0.788   0.539   0.915
 2540SOL     OW38113   0.967   1.662   0.994
 2540SOL    HW138114   0.904   1.624   0.932
 2540SOL    HW238115   0.960   1.756   0.980
 2541SOL     OW38116   0.799   2.470   0.969
 2541SOL    HW138117   0.762   2.445   1.053
 2541SOL    HW238118   0.775   2.399   0.909
 2542SOL     OW38119   0.958   3.520   0.990
 2542SOL    HW138120   0.917   3.488   0.909
 2542SOL    HW238121   0.953   3.615   0.984
 2543SOL     OW38122   0.787   4.348   0.963
 2543SOL    HW138123   0.765   4.317   1.051
 2543SOL    HW238124   0.771   4.273   0.906
 2544SOL     OW38125   0.914   5.400   1.007
 2544SOL    HW138126   0.880   5.360   0.926
 2544SOL    HW238127   0.922   5.493   0.986
 2545SOL     OW38128   0.811   6.227   0.987
 2545SOL    HW138129   0.792   6.186   1.071
 2545SOL    HW238130   0.783   6.163   0.922
 2546SOL     OW38131   2.680   0.616   0.984
 2546SOL    HW138132   2.648   0.594   1.072
 2546SOL    HW238133   2.641   0.549   0.927
 2547SOL     OW38134   2.757   1.689   1.019
 2547SOL    HW138135   2.762   1.639   0.937
 2547SOL    HW238136   2.772   1.780   0.993
 2548SOL     OW38137   2.651   2.466   0.965
 2548SOL    HW138138   2.629   2.438   1.054
 2548SOL    HW238139   2.632   2.390   0.910
 2549SOL     OW38140   2.681   3.538   0.920
 2549SOL    HW138141   2.717   3.467   0.867
 2549SOL    HW238142   2.689   3.616   0.865
 2550SOL     OW38143   2.545   4.399   1.052
 2550SOL    HW138144   2.550   4.328   1.116
 2550SOL    HW238145   2.525   4.356   0.970
 2551SOL     OW38146   2.811   5.388   0.988
 2551SOL    HW138147   2.778   5.354   0.906
 2551SOL    HW238148   2.809   5.483   0.977
 2552SOL     OW38149   2.685   6.212   0.967
 2552SOL    HW138150   2.649   6.180   1.050
 2552SOL    HW238151   2.658   6.147   0.903
 2553SOL     OW38152   4.535   0.608   0.958
 2553SOL    HW138153   4.502   0.581   1.044
 2553SOL    HW238154   4.506   0.539   0.899
 2554SOL     OW38155   4.666   1.662   0.991
 2554SOL    HW138156   4.628   1.624   0.912
 2554SOL    HW238157   4.661   1.757   0.976
 2555SOL     OW38158   4.522   2.479   0.958
 2555SOL    HW138159   4.497   2.449   1.046
 2555SOL    HW238160   4.497   2.407   0.900
 2556SOL     OW38161   4.640   3.534   1.022
 2556SOL    HW138162   4.581   3.486   0.964
 2556SOL    HW238163   4.637   3.624   0.990
 2557SOL     OW38164   4.531   4.329   0.995
 2557SOL    HW138165   4.478   4.295   1.067
 2557SOL    HW238166   4.514   4.268   0.923
 2558SOL     OW38167   4.645   5.399   0.984
 2558SOL    HW138168   4.630   5.355   0.900
 2558SOL    HW238169   4.641   5.492   0.964
 2559SOL     OW38170   4.538   6.227   0.968
 2559SOL    HW138171   4.521   6.193   1.056
 2559SOL    HW238172   4.510   6.156   0.909
 2560SOL     OW38173   0.190   1.139   0.993
 2560SOL    HW138174   0.156   1.093   1.070
 2560SOL    HW238175   0.200   1.071   0.926
 2561SOL     OW38176   0.225   2.969   1.015
 2561SOL    HW138177   0.140   3.014   1.015
 2561SOL    HW238178   0.221   2.910   0.939
 2562SOL     OW38179   0.218   4.868   1.014
 2562SOL    HW138180   0.186   4.825   1.094
 2562SOL    HW238181   0.219   4.799   0.948
 2563SOL     OW38182   2.018   1.123   1.010
 2563SOL    HW138183   2.040   1.093   1.099
 2563SOL    HW238184   2.075   1.072   0.953
 2564SOL     OW38185   1.998   2.986   1.047
 2564SOL    HW138186   2.000   2.930   1.124
 2564SOL    HW238187   2.012   2.925   0.973
 2565SOL     OW38188   1.991   4.871   1.015
 2565SOL    HW138189   2.005   4.823   1.097
 2565SOL    HW238190   2.005   4.806   0.946
 2566SOL     OW38191   3.871   1.147   1.015
 2566SOL    HW138192   3.874   1.103   1.100
 2566SOL    HW238193   3.884   1.076   0.952
 2567SOL     OW38194   3.873   2.992   0.992
 2567SOL    HW138195   3.882   2.955   1.080
 2567SOL    HW238196   3.892   2.919   0.933
 2568SOL     OW38197   3.862   4.863   1.011
 2568SOL    HW138198   3.868   4.813   1.093
 2568SOL    HW238199   3.889   4.801   0.943
 2569SOL     OW38200   5.735   1.158   1.018
 2569SOL    HW138201   5.737   1.121   1.106
 2569SOL    HW238202   5.753   1.084   0.960
 2570SOL     OW38203   5.725   3.017   0.978
 2570SOL    HW138204   5.735   2.985   1.068
 2570SOL    HW238205   5.746   2.942   0.923
 2571SOL     OW38206   5.725   4.874   1.014
 2571SOL    HW138207   5.736   4.833   1.100
 2571SOL    HW238208   5.745   4.804   0.952
 2572SOL     OW38209   1.319   1.471  11.855
 2572SOL    HW138210   1.365   1.473  11.939
 2572SOL    HW238211   1.260   1.396  11.862
 2573SOL     OW38212   1.307   3.318  11.872
 2573SOL    HW138213   1.361   3.331  11.950
 2573SOL    HW238214   1.273   3.229  11.880
 2574SOL     OW38215   1.309   5.208  11.855
 2574SOL    HW138216   1.362   5.204  11.935
 2574SOL    HW238217   1.238   5.145  11.870
 2575SOL     OW38218   3.179   1.480  11.844
 2575SOL    HW138219   3.226   1.484  11.927
 2575SOL    HW238220   3.107   1.419  11.859
 2576SOL     OW38221   3.151   3.232  11.846
 2576SOL    HW138222   3.220   3.205  11.906
 2576SOL    HW238223   3.070   3.218  11.895
 2577SOL     OW38224   3.143   5.200  11.890
 2577SOL    HW138225   3.210   5.204  11.958
 2577SOL    HW238226   3.076   5.142  11.926
 2578SOL     OW38227   5.036   1.463  11.862
 2578SOL    HW138228   5.091   1.474  11.940
 2578SOL    HW238229   4.992   1.380  11.875
 2579SOL     OW38230   5.042   3.327  11.848
 2579SOL    HW138231   5.094   3.341  11.927
 2579SOL    HW238232   5.000   3.242  11.862
 2580SOL     OW38233   5.034   5.179  11.881
 2580SOL    HW138234   5.093   5.191  11.954
 2580SOL    HW238235   4.956   5.138  11.919
 2581SOL     OW38236   1.227   0.195   1.007
 2581SOL    HW138237   1.207   0.239   1.089
 2581SOL    HW238238   1.227   0.265   0.942
 2582SOL     OW38239   1.191   2.050   0.993
 2582SOL    HW138240   1.166   2.110   1.063
 2582SOL    HW238241   1.231   2.107   0.926
 2583SOL     OW38242   1.196   3.922   1.018
 2583SOL    HW138243   1.177   3.992   1.080
 2583SOL    HW238244   1.232   3.966   0.941
 2584SOL     OW38245   1.178   5.769   1.008
 2584SOL    HW138246   1.162   5.833   1.077
 2584SOL    HW238247   1.216   5.820   0.936
 2585SOL     OW38248   3.064   0.192   0.996
 2585SOL    HW138249   3.050   0.255   1.067
 2585SOL    HW238250   3.095   0.246   0.923
 2586SOL     OW38251   3.000   2.067   0.984
 2586SOL    HW138252   3.010   2.111   1.069
 2586SOL    HW238253   3.058   2.114   0.925
 2587SOL     OW38254   3.192   3.958   1.216
 2587SOL    HW138255   3.155   4.043   1.238
 2587SOL    HW238256   3.252   3.976   1.144
 2588SOL     OW38257   3.031   5.770   1.023
 2588SOL    HW138258   3.026   5.837   1.092
 2588SOL    HW238259   3.069   5.816   0.948
 2589SOL     OW38260   4.927   0.200   1.007
 2589SOL    HW138261   4.909   0.261   1.078
 2589SOL    HW238262   4.957   0.254   0.935
 2590SOL     OW38263   4.892   2.042   1.012
 2590SOL    HW138264   4.878   2.110   1.078
 2590SOL    HW238265   4.939   2.086   0.942
 2591SOL     OW38266   4.908   3.916   0.990
 2591SOL    HW138267   4.904   3.956   1.077
 2591SOL    HW238268   4.888   3.989   0.930
 2592SOL     OW38269   4.898   5.756   1.006
 2592SOL    HW138270   4.887   5.824   1.073
 2592SOL    HW238271   4.941   5.802   0.933
 2593SOL     OW38272   1.568   0.170   1.026
 2593SOL    HW138273   1.637   0.227   0.992
 2593SOL    HW238274   1.549   0.205   1.113
 2594SOL     OW38275   1.581   2.000   0.970
 2594SOL    HW138276   1.631   2.078   0.947
 2594SOL    HW238277   1.548   2.017   1.059
 2595SOL     OW38278   1.615   3.844   0.975
 2595SOL    HW138279   1.610   3.918   0.914
 2595SOL    HW238280   1.560   3.870   1.049
 2596SOL     OW38281   1.594   5.710   1.003
 2596SOL    HW138282   1.626   5.791   0.964
 2596SOL    HW238283   1.556   5.736   1.087
 2597SOL     OW38284   3.508   0.158   1.052
 2597SOL    HW138285   3.529   0.221   0.983
 2597SOL    HW238286   3.430   0.193   1.094
 2598SOL     OW38287   3.500   1.994   0.999
 2598SOL    HW138288   3.512   2.081   0.961
 2598SOL    HW238289   3.447   2.008   1.078
 2599SOL     OW38290   3.608   3.791   1.078
 2599SOL    HW138291   3.610   3.859   1.010
 2599SOL    HW238292   3.535   3.817   1.134
 2600SOL     OW38293   3.468   5.709   0.980
 2600SOL    HW138294   3.435   5.748   0.899
 2600SOL    HW238295   3.436   5.765   1.050
 2601SOL     OW38296   5.323   0.147   1.025
 2601SOL    HW138297   5.372   0.216   0.980
 2601SOL    HW238298   5.282   0.191   1.099
 2602SOL     OW38299   5.336   1.985   1.004
 2602SOL    HW138300   5.365   2.055   0.946
 2602SOL    HW238301   5.287   2.030   1.073
 2603SOL     OW38302   5.281   3.879   0.955
 2603SOL    HW138303   5.351   3.939   0.929
 2603SOL    HW238304   5.275   3.889   1.050
 2604SOL     OW38305   5.312   5.720   0.965
 2604SOL    HW138306   5.361   5.794   0.929
 2604SOL    HW238307   5.291   5.747   1.054
 2605SOL     OW38308   1.260   1.733  11.792
 2605SOL    HW138309   1.345   1.762  11.760
 2605SOL    HW238310   1.276   1.645  11.826
 2606SOL     OW38311   1.253   3.591  11.816
 2606SOL    HW138312   1.335   3.624  11.778
 2606SOL    HW238313   1.271   3.499  11.834
 2607SOL     OW38314   1.276   5.482  11.813
 2607SOL    HW138315   1.360   5.495  11.771
 2607SOL    HW238316   1.273   5.388  11.833
 2608SOL     OW38317   3.131   1.759  11.805
 2608SOL    HW138318   3.218   1.772  11.768
 2608SOL    HW238319   3.126   1.665  11.822
 2609SOL     OW38320   3.230   3.508  11.839
 2609SOL    HW138321   3.291   3.540  11.772
 2609SOL    HW238322   3.210   3.418  11.813
 2610SOL     OW38323   3.112   5.438  11.760
 2610SOL    HW138324   3.200   5.472  11.748
 2610SOL    HW238325   3.123   5.358  11.811
 2611SOL     OW38326   4.972   1.702  11.742
 2611SOL    HW138327   5.058   1.744  11.736
 2611SOL    HW238328   4.988   1.622  11.793
 2612SOL     OW38329   4.972   3.591  11.787
 2612SOL    HW138330   5.057   3.623  11.756
 2612SOL    HW238331   4.989   3.500  11.811
 2613SOL     OW38332   5.014   5.407  11.724
 2613SOL    HW138333   5.098   5.452  11.732
 2613SOL    HW238334   5.015   5.342  11.795
 2614SOL     OW38335   0.704   0.241   1.032
 2614SOL    HW138336   0.791   0.231   0.992
 2614SOL    HW238337   0.723   0.260   1.124
 2615SOL     OW38338   0.715   1.987   1.058
 2615SOL    HW138339   0.802   2.015   1.030
 2615SOL    HW238340   0.665   2.068   1.066
 2616SOL     OW38341   0.706   3.897   1.016
 2616SOL    HW138342   0.796   3.868   1.003
 2616SOL    HW238343   0.711   3.960   1.088
 2617SOL     OW38344   0.708   5.777   0.990
 2617SOL    HW138345   0.791   5.746   0.955
 2617SOL    HW238346   0.727   5.800   1.081
 2618SOL     OW38347   2.516   0.179   1.063
 2618SOL    HW138348   2.560   0.225   0.991
 2618SOL    HW238349   2.573   0.192   1.139
 2619SOL     OW38350   2.551   2.047   1.020
 2619SOL    HW138351   2.629   2.019   0.973
 2619SOL    HW238352   2.584   2.089   1.099
 2620SOL     OW38353   2.648   3.941   0.975
 2620SOL    HW138354   2.617   3.856   0.945
 2620SOL    HW238355   2.649   3.934   1.070
 2621SOL     OW38356   2.558   5.760   1.007
 2621SOL    HW138357   2.643   5.734   0.972
 2621SOL    HW238358   2.577   5.793   1.095
 2622SOL     OW38359   4.410   0.221   1.033
 2622SOL    HW138360   4.495   0.217   0.988
 2622SOL    HW238361   4.432   0.247   1.123
 2623SOL     OW38362   4.417   2.035   1.014
 2623SOL    HW138363   4.500   2.011   0.974
 2623SOL    HW238364   4.440   2.074   1.098
 2624SOL     OW38365   4.395   3.918   1.015
 2624SOL    HW138366   4.476   3.894   0.971
 2624SOL    HW238367   4.421   3.938   1.105
 2625SOL     OW38368   4.416   5.770   1.027
 2625SOL    HW138369   4.500   5.745   0.987
 2625SOL    HW238370   4.440   5.803   1.114
 2626SOL     OW38371   6.231   0.193   1.063
 2626SOL    HW138372   6.327   0.195   1.070
 2626SOL    HW238373   6.202   0.162   1.149
 2627SOL     OW38374   6.251   2.051   0.997
 2627SOL    HW138375   6.334   2.029   0.954
 2627SOL    HW238376   6.276   2.111   1.067
 2628SOL     OW38377   6.244   3.941   1.025
 2628SOL    HW138378   6.315   3.921   0.964
 2628SOL    HW238379   6.283   3.927   1.112
 2629SOL     OW38380   6.232   5.780   1.013
 2629SOL    HW138381   6.318   5.757   0.979
 2629SOL    HW238382   6.227   5.737   1.098
 2630SOL     OW38383   0.399   1.310   1.031
 2630SOL    HW138384   0.380   1.391   0.984
 2630SOL    HW238385   0.325   1.253   1.011
 2631SOL     OW38386   0.401   3.181   1.026
 2631SOL    HW138387   0.364   3.254   0.976
 2631SOL    HW238388   0.340   3.109   1.011
 2632SOL     OW38389   0.430   5.048   1.044
 2632SOL    HW138390   0.383   5.121   1.086
 2632SOL    HW238391   0.363   4.981   1.030
 2633SOL     OW38392   2.235   1.322   1.028
 2633SOL    HW138393   2.245   1.400   0.973
 2633SOL    HW238394   2.167   1.271   0.985
 2634SOL     OW38395   2.211   3.160   1.053
 2634SOL    HW138396   2.223   3.171   0.958
 2634SOL    HW238397   2.131   3.109   1.062
 2635SOL     OW38398   2.229   5.017   0.960
 2635SOL    HW138399   2.206   5.105   0.990
 2635SOL    HW238400   2.150   4.966   0.977
 2636SOL     OW38401   4.080   1.331   1.013
 2636SOL    HW138402   4.021   1.388   1.062
 2636SOL    HW238403   4.030   1.251   0.997
 2637SOL     OW38404   4.094   3.163   1.034
 2637SOL    HW138405   4.137   3.192   0.954
 2637SOL    HW238406   4.027   3.101   1.004
 2638SOL     OW38407   4.076   5.043   1.057
 2638SOL    HW138408   4.063   5.123   1.007
 2638SOL    HW238409   4.003   4.987   1.031
 2639SOL     OW38410   5.981   1.305   1.055
 2639SOL    HW138411   5.982   1.381   0.996
 2639SOL    HW238412   5.899   1.260   1.035
 2640SOL     OW38413   5.965   3.180   1.017
 2640SOL    HW138414   5.980   3.244   0.947
 2640SOL    HW238415   5.888   3.130   0.988
 2641SOL     OW38416   5.964   5.021   1.029
 2641SOL    HW138417   5.971   5.093   0.966
 2641SOL    HW238418   5.878   4.983   1.013
 2642SOL     OW38419   0.099   0.486  11.866
 2642SOL    HW138420   0.097   0.570  11.821
 2642SOL    HW238421   0.009   0.472  11.895
 2643SOL     OW38422   0.074   2.473  11.841
 2643SOL    HW138423   0.152   2.422  11.817
 2643SOL    HW238424   0.026   2.415  11.899
 2644SOL     OW38425   0.062   4.271  11.830
 2644SOL    HW138426   0.146   4.260  11.873
 2644SOL    HW238427  -0.002   4.241  11.895
 2645SOL     OW38428   0.004   6.108  11.881
 2645SOL    HW138429   0.075   6.088  11.820
 2645SOL    HW238430   0.046   6.113  11.966
 2646SOL     OW38431   1.913   0.562  11.831
 2646SOL    HW138432   1.988   0.565  11.772
 2646SOL    HW238433   1.951   0.562  11.919
 2647SOL     OW38434   1.896   2.415  11.828
 2647SOL    HW138435   1.971   2.399  11.771
 2647SOL    HW238436   1.932   2.417  11.916
 2648SOL     OW38437   1.906   4.296  11.818
 2648SOL    HW138438   1.949   4.219  11.782
 2648SOL    HW238439   1.924   4.293  11.912
 2649SOL     OW38440   1.897   6.143  11.824
 2649SOL    HW138441   1.970   6.161  11.764
 2649SOL    HW238442   1.935   6.146  11.911
 2650SOL     OW38443   3.762   0.572  11.830
 2650SOL    HW138444   3.836   0.569  11.770
 2650SOL    HW238445   3.801   0.564  11.917
 2651SOL     OW38446   3.767   2.445  11.833
 2651SOL    HW138447   3.840   2.430  11.773
 2651SOL    HW238448   3.806   2.435  11.921
 2652SOL     OW38449   3.798   4.275  11.834
 2652SOL    HW138450   3.881   4.271  11.786
 2652SOL    HW238451   3.823   4.307  11.921
 2653SOL     OW38452   3.785   6.167  11.810
 2653SOL    HW138453   3.854   6.149  11.746
 2653SOL    HW238454   3.829   6.214  11.881
 2654SOL     OW38455   5.657   0.597  11.797
 2654SOL    HW138456   5.750   0.577  11.782
 2654SOL    HW238457   5.643   0.578  11.890
 2655SOL     OW38458   5.645   2.433  11.812
 2655SOL    HW138459   5.688   2.432  11.726
 2655SOL    HW238460   5.716   2.424  11.875
 2656SOL     OW38461   5.633   4.298  11.820
 2656SOL    HW138462   5.714   4.289  11.770
 2656SOL    HW238463   5.661   4.290  11.912
 2657SOL     OW38464   5.628   6.136  11.821
 2657SOL    HW138465   5.696   6.110  11.759
 2657SOL    HW238466   5.671   6.133  11.906
 2658SOL     OW38467   1.439   0.207  11.807
 2658SOL    HW138468   1.385   0.128  11.805
 2658SOL    HW238469   1.401   0.259  11.879
 2659SOL     OW38470   1.439   2.086  11.832
 2659SOL    HW138471   1.449   1.999  11.870
 2659SOL    HW238472   1.390   2.135  11.897
 2660SOL     OW38473   1.439   3.958  11.828
 2660SOL    HW138474   1.480   3.887  11.877
 2660SOL    HW238475   1.388   4.005  11.894
 2661SOL     OW38476   1.431   5.812  11.818
 2661SOL    HW138477   1.429   5.718  11.835
 2661SOL    HW238478   1.385   5.851  11.892
 2662SOL     OW38479   3.293   0.225  11.804
 2662SOL    HW138480   3.279   0.130  11.811
 2662SOL    HW238481   3.273   0.259  11.891
 2663SOL     OW38482   3.299   2.082  11.812
 2663SOL    HW138483   3.314   1.989  11.826
 2663SOL    HW238484   3.264   2.114  11.895
 2664SOL     OW38485   3.389   3.713  12.028
 2664SOL    HW138486   3.318   3.691  11.968
 2664SOL    HW238487   3.366   3.800  12.062
 2665SOL     OW38488   3.298   5.817  11.820
 2665SOL    HW138489   3.333   5.739  11.863
 2665SOL    HW238490   3.248   5.862  11.888
 2666SOL     OW38491   5.163   0.221  11.795
 2666SOL    HW138492   5.126   0.137  11.820
 2666SOL    HW238493   5.205   0.253  11.875
 2667SOL     OW38494   5.167   2.089  11.818
 2667SOL    HW138495   5.142   1.998  11.835
 2667SOL    HW238496   5.125   2.139  11.888
 2668SOL     OW38497   5.163   3.951  11.829
 2668SOL    HW138498   5.174   3.862  11.863
 2668SOL    HW238499   5.117   3.998  11.898
 2669SOL     OW38500   5.170   5.814  11.829
 2669SOL    HW138501   5.172   5.723  11.861
 2669SOL    HW238502   5.117   5.861  11.893
 2670SOL     OW38503   0.193   0.279   1.007
 2670SOL    HW138504   0.163   0.369   1.002
 2670SOL    HW238505   0.169   0.251   1.096
 2671SOL     OW38506   0.146   2.138   1.038
 2671SOL    HW138507   0.128   2.229   1.012
 2671SOL    HW238508   0.240   2.138   1.060
 2672SOL     OW38509   0.160   3.975   1.032
 2672SOL    HW138510   0.227   4.043   1.045
 2672SOL    HW238511   0.175   3.912   1.102
 2673SOL     OW38512   0.217   5.846   1.013
 2673SOL    HW138513   0.178   5.934   1.014
 2673SOL    HW238514   0.227   5.824   1.106
 2674SOL     OW38515   2.025   0.272   1.009
 2674SOL    HW138516   2.071   0.352   1.032
 2674SOL    HW238517   2.025   0.220   1.089
 2675SOL     OW38518   2.078   2.109   1.029
 2675SOL    HW138519   2.026   2.179   1.067
 2675SOL    HW238520   2.038   2.028   1.061
 2676SOL     OW38521   1.964   3.986   1.003
 2676SOL    HW138522   2.023   4.061   0.992
 2676SOL    HW238523   1.882   4.025   1.033
 2677SOL     OW38524   2.068   5.834   1.043
 2677SOL    HW138525   2.048   5.884   1.122
 2677SOL    HW238526   2.034   5.746   1.062
 2678SOL     OW38527   3.934   0.269   1.035
 2678SOL    HW138528   3.853   0.313   1.010
 2678SOL    HW238529   3.907   0.209   1.105
 2679SOL     OW38530   3.949   2.130   1.055
 2679SOL    HW138531   3.885   2.200   1.046
 2679SOL    HW238532   3.896   2.051   1.070
 2680SOL     OW38533   3.929   3.965   1.044
 2680SOL    HW138534   3.884   4.027   1.100
 2680SOL    HW238535   3.918   3.880   1.087
 2681SOL     OW38536   3.938   5.833   1.041
 2681SOL    HW138537   3.864   5.892   1.054
 2681SOL    HW238538   3.906   5.747   1.070
 2682SOL     OW38539   5.788   0.261   1.006
 2682SOL    HW138540   5.740   0.344   1.011
 2682SOL    HW238541   5.760   0.213   1.084
 2683SOL     OW38542   5.801   2.113   1.030
 2683SOL    HW138543   5.733   2.177   1.053
 2683SOL    HW238544   5.770   2.031   1.068
 2684SOL     OW38545   5.771   3.967   1.051
 2684SOL    HW138546   5.754   4.026   1.125
 2684SOL    HW238547   5.738   3.882   1.080
 2685SOL     OW38548   5.787   5.827   1.024
 2685SOL    HW138549   5.731   5.883   1.078
 2685SOL    HW238550   5.765   5.738   1.049
 2686SOL     OW38551   0.471   0.389   1.001
 2686SOL    HW138552   0.552   0.340   1.011
 2686SOL    HW238553   0.402   0.328   1.027
 2687SOL     OW38554   0.488   5.954   0.991
 2687SOL    HW138555   0.567   5.901   0.988
 2687SOL    HW238556   0.419   5.894   1.020
 2688SOL     OW38557   2.301   0.393   1.037
 2688SOL    HW138558   2.383   0.410   0.991
 2688SOL    HW238559   2.306   0.302   1.064
 2689SOL     OW38560   2.327   2.239   1.013
 2689SOL    HW138561   2.404   2.183   1.012
 2689SOL    HW238562   2.254   2.178   1.023
 2690SOL     OW38563   2.339   4.361   1.314
 2690SOL    HW138564   2.412   4.390   1.369
 2690SOL    HW238565   2.364   4.273   1.286
 2691SOL     OW38566   2.334   5.943   0.997
 2691SOL    HW138567   2.420   5.902   1.010
 2691SOL    HW238568   2.273   5.888   1.045
 2692SOL     OW38569   4.183   0.389   0.995
 2692SOL    HW138570   4.259   0.333   1.010
 2692SOL    HW238571   4.108   0.334   1.019
 2693SOL     OW38572   4.195   2.211   0.957
 2693SOL    HW138573   4.273   2.167   0.990
 2693SOL    HW238574   4.126   2.187   1.018
 2694SOL     OW38575   4.181   4.100   1.012
 2694SOL    HW138576   4.259   4.045   1.001
 2694SOL    HW238577   4.113   4.039   1.040
 2695SOL     OW38578   4.188   5.949   1.009
 2695SOL    HW138579   4.264   5.890   1.013
 2695SOL    HW238580   4.112   5.891   1.021
 2696SOL     OW38581   6.007   0.418   1.095
 2696SOL    HW138582   6.095   0.390   1.069
 2696SOL    HW238583   5.949   0.351   1.060
 2697SOL     OW38584   6.008   2.303   1.076
 2697SOL    HW138585   6.089   2.292   1.026
 2697SOL    HW238586   5.954   2.228   1.052
 2698SOL     OW38587   6.019   4.103   1.003
 2698SOL    HW138588   6.103   4.062   1.022
 2698SOL    HW238589   5.955   4.051   1.051
 2699SOL     OW38590   6.024   5.957   1.012
 2699SOL    HW138591   6.101   5.901   1.019
 2699SOL    HW238592   5.950   5.898   1.026
 2700SOL     OW38593   1.707   1.487  11.828
 2700SOL    HW138594   1.637   1.460  11.768
 2700SOL    HW238595   1.719   1.411  11.885
 2701SOL     OW38596   1.701   3.315  11.781
 2701SOL    HW138597   1.621   3.291  11.734
 2701SOL    HW238598   1.697   3.264  11.862
 2702SOL     OW38599   1.724   5.204  11.791
 2702SOL    HW138600   1.640   5.177  11.753
 2702SOL    HW238601   1.747   5.132  11.850
 2703SOL     OW38602   3.565   1.473  11.808
 2703SOL    HW138603   3.497   1.458  11.742
 2703SOL    HW238604   3.548   1.408  11.875
 2704SOL     OW38605   3.568   3.318  11.741
 2704SOL    HW138606   3.486   3.311  11.692
 2704SOL    HW238607   3.562   3.251  11.808
 2705SOL     OW38608   3.577   5.197  11.796
 2705SOL    HW138609   3.491   5.171  11.761
 2705SOL    HW238610   3.601   5.126  11.856
 2706SOL     OW38611   5.461   1.466  11.791
 2706SOL    HW138612   5.376   1.435  11.760
 2706SOL    HW238613   5.489   1.401  11.855
 2707SOL     OW38614   5.435   3.351  11.767
 2707SOL    HW138615   5.356   3.325  11.719
 2707SOL    HW238616   5.445   3.284  11.835
 2708SOL     OW38617   5.448   5.196  11.794
 2708SOL    HW138618   5.365   5.180  11.750
 2708SOL    HW238619   5.452   5.130  11.863
 2709SOL     OW38620   1.225   1.552   1.034
 2709SOL    HW138621   1.209   1.477   1.092
 2709SOL    HW238622   1.138   1.584   1.011
 2710SOL     OW38623   1.227   3.413   1.042
 2710SOL    HW138624   1.210   3.340   1.101
 2710SOL    HW238625   1.141   3.435   1.005
 2711SOL     OW38626   1.234   5.267   1.028
 2711SOL    HW138627   1.224   5.194   1.089
 2711SOL    HW238628   1.153   5.268   0.978
 2712SOL     OW38629   3.111   1.532   1.030
 2712SOL    HW138630   3.091   1.462   1.092
 2712SOL    HW238631   3.104   1.612   1.081
 2713SOL     OW38632   3.124   3.340   0.974
 2713SOL    HW138633   3.133   3.268   1.036
 2713SOL    HW238634   3.049   3.314   0.920
 2714SOL     OW38635   3.095   5.286   1.041
 2714SOL    HW138636   3.084   5.206   1.092
 2714SOL    HW238637   3.008   5.302   1.003
 2715SOL     OW38638   4.946   1.564   1.022
 2715SOL    HW138639   4.940   1.489   1.082
 2715SOL    HW238640   4.856   1.579   0.994
 2716SOL     OW38641   4.946   3.411   1.040
 2716SOL    HW138642   4.943   3.339   1.102
 2716SOL    HW238643   4.875   3.392   0.978
 2717SOL     OW38644   4.951   5.272   1.038
 2717SOL    HW138645   4.941   5.204   1.105
 2717SOL    HW238646   4.890   5.247   0.969
 2718SOL     OW38647   1.165   1.236  11.807
 2718SOL    HW138648   1.098   1.262  11.871
 2718SOL    HW238649   1.132   1.267  11.723
 2719SOL     OW38650   1.087   3.097  11.835
 2719SOL    HW138651   1.052   3.017  11.796
 2719SOL    HW238652   1.103   3.155  11.760
 2720SOL     OW38653   1.146   4.963  11.818
 2720SOL    HW138654   1.088   5.009  11.878
 2720SOL    HW238655   1.124   4.997  11.731
 2721SOL     OW38656   3.013   1.238  11.819
 2721SOL    HW138657   2.955   1.283  11.880
 2721SOL    HW238658   2.988   1.272  11.733
 2722SOL     OW38659   2.984   2.907  11.767
 2722SOL    HW138660   2.978   2.952  11.851
 2722SOL    HW238661   3.068   2.936  11.730
 2723SOL     OW38662   2.993   4.930  11.796
 2723SOL    HW138663   2.935   4.976  11.857
 2723SOL    HW238664   2.982   4.976  11.713
 2724SOL     OW38665   4.876   1.230  11.810
 2724SOL    HW138666   4.820   1.273  11.875
 2724SOL    HW238667   4.853   1.272  11.727
 2725SOL     OW38668   4.879   3.094  11.813
 2725SOL    HW138669   4.820   3.138  11.874
 2725SOL    HW238670   4.853   3.126  11.727
 2726SOL     OW38671   4.853   4.910  11.805
 2726SOL    HW138672   4.822   4.968  11.874
 2726SOL    HW238673   4.846   4.961  11.725
 2727SOL     OW38674   1.781   2.770   1.041
 2727SOL    HW138675   1.752   2.859   1.060
 2727SOL    HW238676   1.753   2.754   0.951
 2728SOL     OW38677   1.773   4.636   1.044
 2728SOL    HW138678   1.788   4.730   1.041
 2728SOL    HW238679   1.746   4.613   0.955
 2729SOL     OW38680   3.646   0.942   1.037
 2729SOL    HW138681   3.616   1.032   1.049
 2729SOL    HW238682   3.616   0.919   0.949
 2730SOL     OW38683   3.631   2.781   1.045
 2730SOL    HW138684   3.621   2.876   1.050
 2730SOL    HW238685   3.612   2.759   0.954
 2731SOL     OW38686   3.573   4.678   1.032
 2731SOL    HW138687   3.617   4.760   1.058
 2731SOL    HW238688   3.605   4.662   0.943
 2732SOL     OW38689   5.500   0.925   1.036
 2732SOL    HW138690   5.480   1.018   1.049
 2732SOL    HW238691   5.470   0.906   0.948
 2733SOL     OW38692   5.496   2.764   1.033
 2733SOL    HW138693   5.484   2.858   1.048
 2733SOL    HW238694   5.469   2.751   0.942
 2734SOL     OW38695   5.477   4.674   1.023
 2734SOL    HW138696   5.460   4.766   1.045
 2734SOL    HW238697   5.537   4.677   0.948
 2735SOL     OW38698   1.621   1.079  11.802
 2735SOL    HW138699   1.611   1.147  11.869
 2735SOL    HW238700   1.545   1.091  11.744
 2736SOL     OW38701   1.628   4.810  11.794
 2736SOL    HW138702   1.620   4.876  11.862
 2736SOL    HW238703   1.559   4.830  11.731
 2737SOL     OW38704   3.474   1.087  11.795
 2737SOL    HW138705   3.463   1.155  11.862
 2737SOL    HW238706   3.402   1.103  11.734
 2738SOL     OW38707   3.494   2.889  11.754
 2738SOL    HW138708   3.506   2.965  11.812
 2738SOL    HW238709   3.417   2.910  11.702
 2739SOL     OW38710   3.468   4.829  11.787
 2739SOL    HW138711   3.450   4.895  11.855
 2739SOL    HW238712   3.399   4.843  11.722
 2740SOL     OW38713   5.347   1.080  11.799
 2740SOL    HW138714   5.340   1.144  11.870
 2740SOL    HW238715   5.275   1.102  11.740
 2741SOL     OW38716   5.337   2.945  11.800
 2741SOL    HW138717   5.336   3.017  11.864
 2741SOL    HW238718   5.265   2.965  11.740
 2742SOL     OW38719   5.361   4.808  11.802
 2742SOL    HW138720   5.355   4.877  11.868
 2742SOL    HW238721   5.290   4.827  11.741
 2743SOL     OW38722   0.724   0.623  11.764
 2743SOL    HW138723   0.801   0.620  11.708
 2743SOL    HW238724   0.690   0.712  11.752
 2744SOL     OW38725   0.727   2.487  11.754
 2744SOL    HW138726   0.807   2.472  11.704
 2744SOL    HW238727   0.702   2.577  11.733
 2745SOL     OW38728   0.740   4.343  11.743
 2745SOL    HW138729   0.824   4.319  11.704
 2745SOL    HW238730   0.744   4.438  11.753
 2746SOL     OW38731   0.734   6.209  11.716
 2746SOL    HW138732   0.815   6.179  11.674
 2746SOL    HW238733   0.731   6.303  11.699
 2747SOL     OW38734   2.574   0.623  11.732
 2747SOL    HW138735   2.659   0.629  11.689
 2747SOL    HW238736   2.541   0.713  11.731
 2748SOL     OW38737   2.590   2.490  11.759
 2748SOL    HW138738   2.667   2.499  11.702
 2748SOL    HW238739   2.543   2.573  11.749
 2749SOL     OW38740   2.630   4.430  11.735
 2749SOL    HW138741   2.674   4.423  11.650
 2749SOL    HW238742   2.566   4.500  11.724
 2750SOL     OW38743   2.625   6.231  11.749
 2750SOL    HW138744   2.695   6.187  11.702
 2750SOL    HW238745   2.643   6.324  11.737
 2751SOL     OW38746   4.441   0.619  11.720
 2751SOL    HW138747   4.525   0.620  11.675
 2751SOL    HW238748   4.412   0.710  11.719
 2752SOL     OW38749   4.452   2.484  11.746
 2752SOL    HW138750   4.543   2.469  11.719
 2752SOL    HW238751   4.439   2.578  11.737
 2753SOL     OW38752   4.463   4.356  11.760
 2753SOL    HW138753   4.547   4.350  11.715
 2753SOL    HW238754   4.440   4.449  11.754
 2754SOL     OW38755   4.481   6.208  11.746
 2754SOL    HW138756   4.559   6.175  11.700
 2754SOL    HW238757   4.469   6.297  11.711
 2755SOL     OW38758   6.280   0.694  11.730
 2755SOL    HW138759   6.356   0.721  11.678
 2755SOL    HW238760   6.230   0.774  11.743
 2756SOL     OW38761   6.304   2.529  11.678
 2756SOL    HW138762   6.364   2.512  11.751
 2756SOL    HW238763   6.258   2.609  11.703
 2757SOL     OW38764   6.270   4.393  11.737
 2757SOL    HW138765   6.361   4.388  11.766
 2757SOL    HW238766   6.248   4.486  11.744
 2758SOL     OW38767   6.297   6.238  11.696
 2758SOL    HW138768   6.350   6.194  11.763
 2758SOL    HW238769   6.311   6.331  11.711
 2759SOL     OW38770   0.333   1.459  11.752
 2759SOL    HW138771   0.299   1.404  11.682
 2759SOL    HW238772   0.399   1.514  11.710
 2760SOL     OW38773   0.373   3.276  11.765
 2760SOL    HW138774   0.305   3.244  11.706
 2760SOL    HW238775   0.422   3.340  11.713
 2761SOL     OW38776   0.388   5.126  11.760
 2761SOL    HW138777   0.333   5.091  11.690
 2761SOL    HW238778   0.438   5.197  11.718
 2762SOL     OW38779   2.213   1.398  11.775
 2762SOL    HW138780   2.141   1.360  11.725
 2762SOL    HW238781   2.258   1.454  11.713
 2763SOL     OW38782   2.186   3.248  11.768
 2763SOL    HW138783   2.109   3.195  11.746
 2763SOL    HW238784   2.191   3.313  11.698
 2764SOL     OW38785   2.216   5.118  11.774
 2764SOL    HW138786   2.141   5.071  11.738
 2764SOL    HW238787   2.247   5.172  11.701
 2765SOL     OW38788   4.086   1.398  11.770
 2765SOL    HW138789   4.007   1.362  11.729
 2765SOL    HW238790   4.123   1.457  11.705
 2766SOL     OW38791   4.088   3.260  11.771
 2766SOL    HW138792   4.008   3.216  11.742
 2766SOL    HW238793   4.115   3.313  11.695
 2767SOL     OW38794   4.055   5.136  11.783
 2767SOL    HW138795   3.988   5.085  11.737
 2767SOL    HW238796   4.100   5.184  11.713
 2768SOL     OW38797   5.949   1.389  11.744
 2768SOL    HW138798   5.863   1.368  11.708
 2768SOL    HW238799   5.979   1.464  11.692
 2769SOL     OW38800   5.946   3.265  11.755
 2769SOL    HW138801   5.865   3.223  11.725
 2769SOL    HW238802   5.975   3.317  11.680
 2770SOL     OW38803   5.949   5.116  11.759
 2770SOL    HW138804   5.867   5.082  11.725
 2770SOL    HW238805   5.975   5.184  11.696
 2771SOL     OW38806   0.386   1.743   1.078
 2771SOL    HW138807   0.294   1.765   1.067
 2771SOL    HW238808   0.386   1.667   1.137
 2772SOL     OW38809   0.382   3.613   1.088
 2772SOL    HW138810   0.290   3.637   1.080
 2772SOL    HW238811   0.381   3.527   1.131
 2773SOL     OW38812   0.383   5.478   1.073
 2773SOL    HW138813   0.294   5.514   1.070
 2773SOL    HW238814   0.370   5.386   1.096
 2774SOL     OW38815   2.220   1.743   1.111
 2774SOL    HW138816   2.139   1.789   1.091
 2774SOL    HW238817   2.192   1.663   1.156
 2775SOL     OW38818   2.384   3.375   1.108
 2775SOL    HW138819   2.323   3.436   1.150
 2775SOL    HW238820   2.330   3.302   1.080
 2776SOL     OW38821   2.213   5.464   1.103
 2776SOL    HW138822   2.131   5.512   1.090
 2776SOL    HW238823   2.187   5.386   1.152
 2777SOL     OW38824   4.054   1.730   1.063
 2777SOL    HW138825   3.977   1.788   1.062
 2777SOL    HW238826   4.028   1.659   1.122
 2778SOL     OW38827   4.096   3.597   1.093
 2778SOL    HW138828   4.011   3.638   1.082
 2778SOL    HW238829   4.077   3.509   1.126
 2779SOL     OW38830   4.083   5.469   1.101
 2779SOL    HW138831   4.001   5.515   1.086
 2779SOL    HW238832   4.058   5.388   1.145
 2780SOL     OW38833   5.952   1.742   1.103
 2780SOL    HW138834   5.870   1.790   1.086
 2780SOL    HW238835   5.924   1.657   1.135
 2781SOL     OW38836   5.951   3.625   1.069
 2781SOL    HW138837   5.868   3.667   1.046
 2781SOL    HW238838   5.925   3.545   1.116
 2782SOL     OW38839   5.962   5.464   1.107
 2782SOL    HW138840   5.879   5.508   1.087
 2782SOL    HW238841   5.936   5.377   1.138
 2783SOL     OW38842   1.347   0.844  11.734
 2783SOL    HW138843   1.263   0.823  11.693
 2783SOL    HW238844   1.407   0.777  11.702
 2784SOL     OW38845   1.310   2.683  11.748
 2784SOL    HW138846   1.230   2.655  11.704
 2784SOL    HW238847   1.379   2.631  11.708
 2785SOL     OW38848   1.313   4.593  11.697
 2785SOL    HW138849   1.222   4.567  11.680
 2785SOL    HW238850   1.362   4.511  11.695
 2786SOL     OW38851   1.289   6.435  11.744
 2786SOL    HW138852   1.272   0.008  11.653
 2786SOL    HW238853   1.335   6.352  11.741
 2787SOL     OW38854   3.180   0.862  11.711
 2787SOL    HW138855   3.090   0.829  11.703
 2787SOL    HW238856   3.235   0.785  11.699
 2788SOL     OW38857   3.201   2.710  11.698
 2788SOL    HW138858   3.111   2.682  11.684
 2788SOL    HW238859   3.253   2.630  11.689
 2789SOL     OW38860   3.211   4.551  11.757
 2789SOL    HW138861   3.127   4.535  11.714
 2789SOL    HW238862   3.275   4.544  11.686
 2790SOL     OW38863   3.150   6.430  11.737
 2790SOL    HW138864   3.150   0.003  11.644
 2790SOL    HW238865   3.208   6.354  11.743
 2791SOL     OW38866   5.043   0.854  11.721
 2791SOL    HW138867   4.953   0.827  11.703
 2791SOL    HW238868   5.095   0.775  11.706
 2792SOL     OW38869   5.047   2.741  11.696
 2792SOL    HW138870   4.956   2.712  11.685
 2792SOL    HW238871   5.098   2.660  11.696
 2793SOL     OW38872   5.054   4.594  11.667
 2793SOL    HW138873   4.963   4.568  11.677
 2793SOL    HW238874   5.103   4.512  11.671
 2794SOL     OW38875   5.027   6.428  11.760
 2794SOL    HW138876   5.013   0.003  11.669
 2794SOL    HW238877   5.072   6.344  11.756
 2795SOL     OW38878   0.115   1.786   1.092
 2795SOL    HW138879   0.126   1.782   1.187
 2795SOL    HW238880   0.075   1.871   1.076
 2796SOL     OW38881   0.119   3.682   1.117
 2796SOL    HW138882   0.119   3.641   1.204
 2796SOL    HW238883   0.078   3.618   1.060
 2797SOL     OW38884   0.120   5.545   1.113
 2797SOL    HW138885   0.133   5.501   1.198
 2797SOL    HW238886   0.032   5.518   1.086
 2798SOL     OW38887   1.969   1.868   1.100
 2798SOL    HW138888   1.981   1.865   1.195
 2798SOL    HW238889   1.885   1.823   1.086
 2799SOL     OW38890   1.833   3.662   1.025
 2799SOL    HW138891   1.773   3.604   1.073
 2799SOL    HW238892   1.782   3.741   1.008
 2800SOL     OW38893   1.968   5.592   1.119
 2800SOL    HW138894   1.984   5.580   1.213
 2800SOL    HW238895   1.876   5.567   1.108
 2801SOL     OW38896   3.821   1.877   1.090
 2801SOL    HW138897   3.822   1.855   1.183
 2801SOL    HW238898   3.729   1.889   1.069
 2802SOL     OW38899   3.856   3.719   1.150
 2802SOL    HW138900   3.849   3.662   1.226
 2802SOL    HW238901   3.766   3.738   1.125
 2803SOL     OW38902   3.835   5.590   1.120
 2803SOL    HW138903   3.827   5.558   1.210
 2803SOL    HW238904   3.747   5.580   1.084
 2804SOL     OW38905   5.706   1.867   1.128
 2804SOL    HW138906   5.714   1.834   1.218
 2804SOL    HW238907   5.613   1.859   1.108
 2805SOL     OW38908   5.683   3.710   1.121
 2805SOL    HW138909   5.719   3.650   1.187
 2805SOL    HW238910   5.591   3.684   1.113
 2806SOL     OW38911   5.713   5.585   1.105
 2806SOL    HW138912   5.698   5.550   1.193
 2806SOL    HW238913   5.675   5.520   1.046
 2807SOL     OW38914   0.959   0.880   1.105
 2807SOL    HW138915   1.017   0.820   1.057
 2807SOL    HW238916   0.915   0.930   1.037
 2808SOL     OW38917   0.976   2.746   1.110
 2808SOL    HW138918   1.025   2.678   1.063
 2808SOL    HW238919   0.926   2.791   1.042
 2809SOL     OW38920   0.953   4.602   1.110
 2809SOL    HW138921   1.022   4.544   1.078
 2809SOL    HW238922   0.872   4.558   1.086
 2810SOL     OW38923   2.819   0.880   1.135
 2810SOL    HW138924   2.877   0.818   1.089
 2810SOL    HW238925   2.768   0.921   1.065
 2811SOL     OW38926   2.825   2.719   1.121
 2811SOL    HW138927   2.879   2.650   1.081
 2811SOL    HW238928   2.777   2.757   1.047
 2812SOL     OW38929   2.832   4.631   1.114
 2812SOL    HW138930   2.910   4.598   1.069
 2812SOL    HW238931   2.770   4.652   1.044
 2813SOL     OW38932   4.682   0.882   1.134
 2813SOL    HW138933   4.738   0.817   1.091
 2813SOL    HW238934   4.634   0.923   1.062
 2814SOL     OW38935   4.685   2.753   1.131
 2814SOL    HW138936   4.738   2.685   1.089
 2814SOL    HW238937   4.635   2.793   1.060
 2815SOL     OW38938   4.688   4.607   1.145
 2815SOL    HW138939   4.741   4.536   1.108
 2815SOL    HW238940   4.639   4.642   1.071
 2816SOL     OW38941   0.610   0.868  11.734
 2816SOL    HW138942   0.650   0.953  11.716
 2816SOL    HW238943   0.568   0.879  11.819
 2817SOL     OW38944   0.609   2.741  11.741
 2817SOL    HW138945   0.633   2.833  11.747
 2817SOL    HW238946   0.551   2.727  11.815
 2818SOL     OW38947   0.564   4.609  11.730
 2818SOL    HW138948   0.623   4.685  11.730
 2818SOL    HW238949   0.529   4.606  11.819
 2819SOL     OW38950   2.451   0.870  11.742
 2819SOL    HW138951   2.495   0.955  11.738
 2819SOL    HW238952   2.396   0.876  11.820
 2820SOL     OW38953   2.432   2.716  11.750
 2820SOL    HW138954   2.473   2.803  11.753
 2820SOL    HW238955   2.378   2.712  11.829
 2821SOL     OW38956   2.439   4.616  11.750
 2821SOL    HW138957   2.457   4.710  11.747
 2821SOL    HW238958   2.381   4.605  11.826
 2822SOL     OW38959   4.316   0.875  11.738
 2822SOL    HW138960   4.358   0.960  11.740
 2822SOL    HW238961   4.265   0.871  11.819
 2823SOL     OW38962   4.344   2.745  11.753
 2823SOL    HW138963   4.387   2.830  11.763
 2823SOL    HW238964   4.290   2.736  11.831
 2824SOL     OW38965   4.331   4.607  11.746
 2824SOL    HW138966   4.372   4.693  11.744
 2824SOL    HW238967   4.276   4.608  11.824
 2825SOL     OW38968   6.135   0.930  11.754
 2825SOL    HW138969   6.154   1.023  11.759
 2825SOL    HW238970   6.089   0.910  11.835
 2826SOL     OW38971   6.164   2.767  11.752
 2826SOL    HW138972   6.179   2.862  11.756
 2826SOL    HW238973   6.115   2.747  11.832
 2827SOL     OW38974   6.163   4.655  11.762
 2827SOL    HW138975   6.170   4.750  11.772
 2827SOL    HW238976   6.115   4.626  11.840
 2828SOL     OW38977   0.766   1.126  11.735
 2828SOL    HW138978   0.708   1.125  11.811
 2828SOL    HW238979   0.783   1.219  11.719
 2829SOL     OW38980   0.759   2.997  11.801
 2829SOL    HW138981   0.688   3.044  11.847
 2829SOL    HW238982   0.799   3.063  11.745
 2830SOL     OW38983   0.724   4.842  11.759
 2830SOL    HW138984   0.684   4.890  11.831
 2830SOL    HW238985   0.760   4.909  11.702
 2831SOL     OW38986   2.609   1.115  11.792
 2831SOL    HW138987   2.550   1.167  11.846
 2831SOL    HW238988   2.643   1.177  11.727
 2832SOL     OW38989   2.569   2.956  11.794
 2832SOL    HW138990   2.507   2.987  11.860
 2832SOL    HW238991   2.573   3.027  11.730
 2833SOL     OW38992   2.627   4.877  11.782
 2833SOL    HW138993   2.557   4.912  11.838
 2833SOL    HW238994   2.661   4.954  11.735
 2834SOL     OW38995   4.465   1.128  11.756
 2834SOL    HW138996   4.412   1.178  11.818
 2834SOL    HW238997   4.513   1.196  11.707
 2835SOL     OW38998   4.471   2.994  11.773
 2835SOL    HW138999   4.409   3.034  11.833
 2835SOL    HW239000   4.522   3.067  11.739
 2836SOL     OW39001   4.462   4.859  11.744
 2836SOL    HW139002   4.406   4.903  11.808
 2836SOL    HW239003   4.497   4.930  11.690
 2837SOL     OW39004   0.087   1.152  11.765
 2837SOL    HW139005   0.068   1.199  11.847
 2837SOL    HW239006   0.035   1.198  11.699
 2838SOL     OW39007   0.027   3.041  11.753
 2838SOL    HW139008   0.044   3.081  11.838
 2838SOL    HW239009   6.392   3.077  11.726
 2839SOL     OW39010   0.083   4.878  11.767
 2839SOL    HW139011   0.066   4.917  11.853
 2839SOL    HW239012   0.038   4.936  11.705
 2840SOL     OW39013   1.962   1.281  11.692
 2840SOL    HW139014   1.942   1.290  11.785
 2840SOL    HW239015   1.903   1.212  11.662
 2841SOL     OW39016   1.972   3.087  11.723
 2841SOL    HW139017   1.949   3.113  11.812
 2841SOL    HW239018   1.892   3.047  11.688
 2842SOL     OW39019   1.982   4.974  11.705
 2842SOL    HW139020   1.960   4.996  11.795
 2842SOL    HW239021   1.919   4.907  11.680
 2843SOL     OW39022   3.837   1.281  11.719
 2843SOL    HW139023   3.803   1.303  11.807
 2843SOL    HW239024   3.773   1.220  11.684
 2844SOL     OW39025   3.852   3.112  11.743
 2844SOL    HW139026   3.816   3.118  11.832
 2844SOL    HW239027   3.779   3.083  11.689
 2845SOL     OW39028   3.829   4.952  11.735
 2845SOL    HW139029   3.791   4.976  11.820
 2845SOL    HW239030   3.764   4.895  11.695
 2846SOL     OW39031   5.695   1.256  11.703
 2846SOL    HW139032   5.680   1.279  11.795
 2846SOL    HW239033   5.632   1.186  11.685
 2847SOL     OW39034   5.709   3.125  11.702
 2847SOL    HW139035   5.687   3.140  11.794
 2847SOL    HW239036   5.641   3.065  11.671
 2848SOL     OW39037   5.709   4.976  11.708
 2848SOL    HW139038   5.687   4.996  11.798
 2848SOL    HW239039   5.641   4.915  11.679
 2849SOL     OW39040   1.770   1.243   1.081
 2849SOL    HW139041   1.863   1.223   1.088
 2849SOL    HW239042   1.762   1.333   1.112
 2850SOL     OW39043   1.742   3.070   1.073
 2850SOL    HW139044   1.834   3.043   1.069
 2850SOL    HW239045   1.746   3.158   1.111
 2851SOL     OW39046   1.753   4.984   1.081
 2851SOL    HW139047   1.837   4.941   1.067
 2851SOL    HW239048   1.776   5.068   1.121
 2852SOL     OW39049   3.613   1.238   1.062
 2852SOL    HW139050   3.701   1.202   1.050
 2852SOL    HW239051   3.628   1.328   1.091
 2853SOL     OW39052   3.631   3.095   1.057
 2853SOL    HW139053   3.716   3.059   1.032
 2853SOL    HW239054   3.652   3.175   1.107
 2854SOL     OW39055   3.621   4.976   1.072
 2854SOL    HW139056   3.707   4.937   1.057
 2854SOL    HW239057   3.640   5.061   1.113
 2855SOL     OW39058   5.473   1.238   1.063
 2855SOL    HW139059   5.562   1.206   1.045
 2855SOL    HW239060   5.486   1.326   1.098
 2856SOL     OW39061   5.469   3.103   1.067
 2856SOL    HW139062   5.555   3.068   1.045
 2856SOL    HW239063   5.487   3.192   1.099
 2857SOL     OW39064   5.472   4.962   1.076
 2857SOL    HW139065   5.561   4.934   1.054
 2857SOL    HW239066   5.484   5.048   1.116
 2858SOL     OW39067   0.179   0.758   1.106
 2858SOL    HW139068   0.274   0.763   1.115
 2858SOL    HW239069   0.148   0.847   1.127
 2859SOL     OW39070   0.189   2.609   1.111
 2859SOL    HW139071   0.284   2.623   1.115
 2859SOL    HW239072   0.151   2.692   1.139
 2860SOL     OW39073   0.175   4.482   1.112
 2860SOL    HW139074   0.270   4.482   1.119
 2860SOL    HW239075   0.149   4.567   1.147
 2861SOL     OW39076   0.120   6.343   1.113
 2861SOL    HW139077   0.129   6.404   1.186
 2861SOL    HW239078   0.093   6.397   1.040
 2862SOL     OW39079   2.041   0.760   1.119
 2862SOL    HW139080   2.136   0.754   1.118
 2862SOL    HW239081   2.022   0.844   1.160
 2863SOL     OW39082   2.006   2.597   1.103
 2863SOL    HW139083   2.093   2.634   1.089
 2863SOL    HW239084   1.946   2.668   1.077
 2864SOL     OW39085   1.977   4.459   1.130
 2864SOL    HW139086   2.063   4.500   1.124
 2864SOL    HW239087   1.915   4.530   1.113
 2865SOL     OW39088   2.056   6.350   1.083
 2865SOL    HW139089   2.146   6.378   1.064
 2865SOL    HW239090   2.019   6.423   1.133
 2866SOL     OW39091   3.862   0.761   1.102
 2866SOL    HW139092   3.945   0.809   1.107
 2866SOL    HW239093   3.796   0.829   1.087
 2867SOL     OW39094   3.852   2.595   1.114
 2867SOL    HW139095   3.944   2.621   1.120
 2867SOL    HW239096   3.805   2.676   1.096
 2868SOL     OW39097   3.911   4.489   1.111
 2868SOL    HW139098   4.006   4.496   1.119
 2868SOL    HW239099   3.877   4.567   1.155
 2869SOL     OW39100   3.894   6.300   1.126
 2869SOL    HW139101   3.981   6.328   1.099
 2869SOL    HW239102   3.854   6.378   1.163
 2870SOL     OW39103   5.722   0.755   1.091
 2870SOL    HW139104   5.803   0.807   1.091
 2870SOL    HW239105   5.652   0.819   1.077
 2871SOL     OW39106   5.710   2.592   1.110
 2871SOL    HW139107   5.794   2.637   1.117
 2871SOL    HW239108   5.647   2.661   1.091
 2872SOL     OW39109   5.737   4.472   1.099
 2872SOL    HW139110   5.825   4.503   1.119
 2872SOL    HW239111   5.680   4.546   1.120
 2873SOL     OW39112   5.767   6.342   1.062
 2873SOL    HW139113   5.824   6.393   1.005
 2873SOL    HW239114   5.739   6.404   1.130
 2874SOL     OW39115   0.464   0.722   1.154
 2874SOL    HW139116   0.514   0.768   1.087
 2874SOL    HW239117   0.525   0.657   1.190
 2875SOL     OW39118   0.462   2.610   1.168
 2875SOL    HW139119   0.519   2.650   1.102
 2875SOL    HW239120   0.508   2.529   1.192
 2876SOL     OW39121   0.474   4.476   1.148
 2876SOL    HW139122   0.458   4.425   1.069
 2876SOL    HW239123   0.497   4.411   1.215
 2877SOL     OW39124   2.312   0.717   1.139
 2877SOL    HW139125   2.371   0.763   1.079
 2877SOL    HW239126   2.363   0.643   1.170
 2878SOL     OW39127   2.309   2.590   1.149
 2878SOL    HW139128   2.357   2.639   1.081
 2878SOL    HW239129   2.366   2.516   1.170
 2879SOL     OW39130   2.240   4.540   1.131
 2879SOL    HW139131   2.307   4.581   1.076
 2879SOL    HW239132   2.287   4.472   1.179
 2880SOL     OW39133   4.164   0.768   1.152
 2880SOL    HW139134   4.234   0.793   1.091
 2880SOL    HW239135   4.178   0.675   1.168
 2881SOL     OW39136   4.129   2.621   1.134
 2881SOL    HW139137   4.196   2.668   1.085
 2881SOL    HW239138   4.173   2.543   1.166
 2882SOL     OW39139   4.184   4.471   1.161
 2882SOL    HW139140   4.240   4.505   1.091
 2882SOL    HW239141   4.233   4.396   1.195
 2883SOL     OW39142   6.031   0.762   1.162
 2883SOL    HW139143   6.087   0.791   1.091
 2883SOL    HW239144   6.076   0.685   1.198
 2884SOL     OW39145   6.006   2.606   1.139
 2884SOL    HW139146   6.079   2.637   1.085
 2884SOL    HW239147   6.012   2.511   1.136
 2885SOL     OW39148   6.035   4.448   1.166
 2885SOL    HW139149   6.078   4.494   1.093
 2885SOL    HW239150   6.101   4.387   1.198
 2886SOL     OW39151   0.362   0.499  11.751
 2886SOL    HW139152   0.299   0.438  11.712
 2886SOL    HW239153   0.432   0.505  11.687
 2887SOL     OW39154   0.325   2.363  11.734
 2887SOL    HW139155   0.274   2.287  11.705
 2887SOL    HW239156   0.402   2.363  11.676
 2888SOL     OW39157   0.358   4.234  11.731
 2888SOL    HW139158   0.296   4.163  11.714
 2888SOL    HW239159   0.430   4.218  11.669
 2889SOL     OW39160   0.356   6.098  11.719
 2889SOL    HW139161   0.275   6.082  11.671
 2889SOL    HW239162   0.424   6.057  11.666
 2890SOL     OW39163   2.179   0.533  11.714
 2890SOL    HW139164   2.140   0.446  11.706
 2890SOL    HW239165   2.256   0.531  11.657
 2891SOL     OW39166   2.206   2.390  11.726
 2891SOL    HW139167   2.158   2.307  11.718
 2891SOL    HW239168   2.279   2.381  11.665
 2892SOL     OW39169   2.240   4.253  11.756
 2892SOL    HW139170   2.173   4.188  11.732
 2892SOL    HW239171   2.300   4.254  11.681
 2893SOL     OW39172   2.176   6.123  11.728
 2893SOL    HW139173   2.135   6.038  11.710
 2893SOL    HW239174   2.260   6.119  11.682
 2894SOL     OW39175   4.033   0.542  11.714
 2894SOL    HW139176   3.992   0.455  11.715
 2894SOL    HW239177   4.110   0.532  11.659
 2895SOL     OW39178   4.055   2.404  11.697
 2895SOL    HW139179   4.014   2.319  11.709
 2895SOL    HW239180   4.132   2.386  11.643
 2896SOL     OW39181   4.047   4.247  11.725
 2896SOL    HW139182   4.015   4.159  11.707
 2896SOL    HW239183   4.125   4.256  11.670
 2897SOL     OW39184   4.025   6.129  11.651
 2897SOL    HW139185   3.997   6.041  11.677
 2897SOL    HW239186   4.118   6.119  11.630
 2898SOL     OW39187   5.925   0.528  11.715
 2898SOL    HW139188   5.876   0.446  11.702
 2898SOL    HW239189   6.005   0.516  11.664
 2899SOL     OW39190   5.900   2.415  11.628
 2899SOL    HW139191   5.895   2.380  11.717
 2899SOL    HW239192   5.982   2.381  11.593
 2900SOL     OW39193   5.944   4.268  11.693
 2900SOL    HW139194   5.896   4.185  11.692
 2900SOL    HW239195   6.016   4.255  11.632
 2901SOL     OW39196   5.942   6.123  11.692
 2901SOL    HW139197   5.894   6.040  11.691
 2901SOL    HW239198   6.019   6.106  11.637
 2902SOL     OW39199   1.855   1.505   1.125
 2902SOL    HW139200   1.886   1.532   1.038
 2902SOL    HW239201   1.931   1.518   1.182
 2903SOL     OW39202   1.802   3.326   1.141
 2903SOL    HW139203   1.828   3.346   1.051
 2903SOL    HW239204   1.884   3.332   1.191
 2904SOL     OW39205   1.854   5.231   1.137
 2904SOL    HW139206   1.886   5.259   1.051
 2904SOL    HW239207   1.930   5.240   1.194
 2905SOL     OW39208   3.725   1.486   1.107
 2905SOL    HW139209   3.753   1.530   1.027
 2905SOL    HW239210   3.794   1.507   1.171
 2906SOL     OW39211   3.750   3.324   1.162
 2906SOL    HW139212   3.780   3.355   1.077
 2906SOL    HW239213   3.823   3.340   1.222
 2907SOL     OW39214   3.727   5.217   1.147
 2907SOL    HW139215   3.752   5.253   1.062
 2907SOL    HW239216   3.807   5.224   1.200
 2908SOL     OW39217   5.582   1.485   1.124
 2908SOL    HW139218   5.606   1.516   1.037
 2908SOL    HW239219   5.662   1.495   1.176
 2909SOL     OW39220   5.571   3.350   1.129
 2909SOL    HW139221   5.614   3.382   1.050
 2909SOL    HW239222   5.642   3.333   1.191
 2910SOL     OW39223   5.573   5.205   1.157
 2910SOL    HW139224   5.584   5.248   1.072
 2910SOL    HW239225   5.659   5.212   1.199
 2911SOL     OW39226   0.213   0.271  11.670
 2911SOL    HW139227   0.223   0.253  11.763
 2911SOL    HW239228   0.169   0.194  11.635
 2912SOL     OW39229   0.233   2.097  11.694
 2912SOL    HW139230   0.268   2.081  11.782
 2912SOL    HW239231   0.158   2.037  11.687
 2913SOL     OW39232   0.222   3.993  11.698
 2913SOL    HW139233   0.257   3.960  11.781
 2913SOL    HW239234   0.141   3.944  11.684
 2914SOL     OW39235   0.198   5.807  11.693
 2914SOL    HW139236   0.245   5.811  11.777
 2914SOL    HW239237   0.149   5.725  11.698
 2915SOL     OW39238   2.097   0.278  11.699
 2915SOL    HW139239   2.134   0.243  11.781
 2915SOL    HW239240   2.014   0.232  11.688
 2916SOL     OW39241   2.078   2.157  11.729
 2916SOL    HW139242   2.106   2.116  11.810
 2916SOL    HW239243   1.992   2.119  11.712
 2917SOL     OW39244   2.038   4.065  11.748
 2917SOL    HW139245   2.054   4.019  11.831
 2917SOL    HW239246   1.976   4.009  11.702
 2918SOL     OW39247   2.088   5.868  11.716
 2918SOL    HW139248   2.112   5.822  11.796
 2918SOL    HW239249   2.000   5.837  11.695
 2919SOL     OW39250   3.939   0.292  11.726
 2919SOL    HW139251   3.978   0.265  11.809
 2919SOL    HW239252   3.861   0.237  11.717
 2920SOL     OW39253   3.928   2.171  11.740
 2920SOL    HW139254   3.963   2.133  11.821
 2920SOL    HW239255   3.848   2.122  11.723
 2921SOL     OW39256   3.942   3.995  11.705
 2921SOL    HW139257   3.980   3.963  11.787
 2921SOL    HW239258   3.854   3.958  11.704
 2922SOL     OW39259   3.946   5.877  11.703
 2922SOL    HW139260   3.985   5.850  11.786
 2922SOL    HW239261   3.859   5.837  11.704
 2923SOL     OW39262   5.808   0.283  11.701
 2923SOL    HW139263   5.843   0.252  11.785
 2923SOL    HW239264   5.724   0.238  11.692
 2924SOL     OW39265   5.821   2.129  11.692
 2924SOL    HW139266   5.856   2.116  11.780
 2924SOL    HW239267   5.728   2.106  11.699
 2925SOL     OW39268   5.820   4.029  11.701
 2925SOL    HW139269   5.846   3.992  11.785
 2925SOL    HW239270   5.735   3.988  11.683
 2926SOL     OW39271   5.812   5.894  11.723
 2926SOL    HW139272   5.835   5.845  11.802
 2926SOL    HW239273   5.733   5.851  11.691
 2927SOL     OW39274   1.231   1.833   1.161
 2927SOL    HW139275   1.218   1.891   1.086
 2927SOL    HW239276   1.234   1.745   1.123
 2928SOL     OW39277   1.219   3.691   1.169
 2928SOL    HW139278   1.209   3.752   1.096
 2928SOL    HW239279   1.225   3.605   1.128
 2929SOL     OW39280   1.220   5.542   1.161
 2929SOL    HW139281   1.210   5.606   1.090
 2929SOL    HW239282   1.231   5.458   1.116
 2930SOL     OW39283   3.298   3.687   1.150
 2930SOL    HW139284   3.210   3.695   1.187
 2930SOL    HW239285   3.322   3.596   1.164
 2931SOL     OW39286   3.040   5.540   1.172
 2931SOL    HW139287   3.051   5.609   1.107
 2931SOL    HW239288   3.080   5.463   1.131
 2932SOL     OW39289   4.904   1.815   1.170
 2932SOL    HW139290   4.908   1.889   1.109
 2932SOL    HW239291   4.934   1.740   1.120
 2933SOL     OW39292   4.921   3.669   1.155
 2933SOL    HW139293   4.901   3.730   1.084
 2933SOL    HW239294   4.922   3.583   1.113
 2934SOL     OW39295   4.919   5.524   1.164
 2934SOL    HW139296   4.919   5.595   1.100
 2934SOL    HW239297   4.933   5.445   1.112
 2935SOL     OW39298   1.499   0.614  11.660
 2935SOL    HW139299   1.426   0.552  11.665
 2935SOL    HW239300   1.546   0.603  11.743
 2936SOL     OW39301   1.481   2.471  11.652
 2936SOL    HW139302   1.415   2.402  11.655
 2936SOL    HW239303   1.528   2.463  11.735
 2937SOL     OW39304   1.443   4.352  11.684
 2937SOL    HW139305   1.400   4.267  11.684
 2937SOL    HW239306   1.512   4.344  11.749
 2938SOL     OW39307   1.432   6.205  11.709
 2938SOL    HW139308   1.382   6.127  11.687
 2938SOL    HW239309   1.500   6.174  11.770
 2939SOL     OW39310   3.323   0.621  11.665
 2939SOL    HW139311   3.260   0.549  11.669
 2939SOL    HW239312   3.380   0.609  11.741
 2940SOL     OW39313   3.320   2.462  11.659
 2940SOL    HW139314   3.259   2.389  11.668
 2940SOL    HW239315   3.384   2.448  11.729
 2941SOL     OW39316   3.371   4.288  11.682
 2941SOL    HW139317   3.290   4.243  11.656
 2941SOL    HW239318   3.376   4.363  11.624
 2942SOL     OW39319   3.304   6.196  11.706
 2942SOL    HW139320   3.256   6.114  11.698
 2942SOL    HW239321   3.377   6.176  11.766
 2943SOL     OW39322   5.172   0.610  11.649
 2943SOL    HW139323   5.108   0.539  11.644
 2943SOL    HW239324   5.218   0.596  11.732
 2944SOL     OW39325   5.177   2.497  11.689
 2944SOL    HW139326   5.126   2.416  11.686
 2944SOL    HW239327   5.245   2.479  11.755
 2945SOL     OW39328   5.173   4.348  11.683
 2945SOL    HW139329   5.118   4.270  11.680
 2945SOL    HW239330   5.230   4.334  11.758
 2946SOL     OW39331   5.167   6.196  11.706
 2946SOL    HW139332   5.111   6.119  11.702
 2946SOL    HW239333   5.233   6.175  11.773
 2947SOL     OW39334   0.707   1.424   1.164
 2947SOL    HW139335   0.625   1.389   1.199
 2947SOL    HW239336   0.706   1.516   1.188
 2948SOL     OW39337   0.686   3.285   1.157
 2948SOL    HW139338   0.592   3.266   1.150
 2948SOL    HW239339   0.690   3.376   1.187
 2949SOL     OW39340   0.675   5.079   1.156
 2949SOL    HW139341   0.587   5.066   1.119
 2949SOL    HW239342   0.678   5.173   1.175
 2950SOL     OW39343   2.571   1.415   1.143
 2950SOL    HW139344   2.502   1.376   1.196
 2950SOL    HW239345   2.577   1.505   1.173
 2951SOL     OW39346   2.474   3.252   1.336
 2951SOL    HW139347   2.425   3.173   1.314
 2951SOL    HW239348   2.466   3.307   1.258
 2952SOL     OW39349   2.571   5.135   1.161
 2952SOL    HW139350   2.491   5.088   1.185
 2952SOL    HW239351   2.561   5.221   1.201
 2953SOL     OW39352   4.410   1.414   1.141
 2953SOL    HW139353   4.332   1.385   1.187
 2953SOL    HW239354   4.420   1.506   1.166
 2954SOL     OW39355   4.413   3.282   1.142
 2954SOL    HW139356   4.339   3.238   1.185
 2954SOL    HW239357   4.409   3.372   1.174
 2955SOL     OW39358   4.385   5.145   1.131
 2955SOL    HW139359   4.301   5.111   1.160
 2955SOL    HW239360   4.398   5.225   1.183
 2956SOL     OW39361   6.300   1.408   1.224
 2956SOL    HW139362   6.243   1.399   1.147
 2956SOL    HW239363   6.311   1.502   1.236
 2957SOL     OW39364   6.340   3.277   1.287
 2957SOL    HW139365   6.270   3.245   1.230
 2957SOL    HW239366   6.341   3.372   1.272
 2958SOL     OW39367   6.314   5.114   1.225
 2958SOL    HW139368   6.222   5.089   1.231
 2958SOL    HW239369   6.311   5.209   1.211
 2959SOL     OW39370   1.614   1.626   1.182
 2959SOL    HW139371   1.611   1.670   1.097
 2959SOL    HW239372   1.698   1.579   1.182
 2960SOL     OW39373   1.619   3.524   1.157
 2960SOL    HW139374   1.576   3.528   1.072
 2960SOL    HW239375   1.669   3.443   1.155
 2961SOL     OW39376   1.605   5.343   1.181
 2961SOL    HW139377   1.609   5.387   1.096
 2961SOL    HW239378   1.690   5.300   1.189
 2962SOL     OW39379   3.497   1.616   1.185
 2962SOL    HW139380   3.474   1.669   1.110
 2962SOL    HW239381   3.576   1.568   1.158
 2963SOL     OW39382   3.491   3.403   1.220
 2963SOL    HW139383   3.501   3.446   1.135
 2963SOL    HW239384   3.575   3.360   1.235
 2964SOL     OW39385   3.488   5.352   1.186
 2964SOL    HW139386   3.485   5.390   1.099
 2964SOL    HW239387   3.568   5.300   1.187
 2965SOL     OW39388   5.349   1.622   1.182
 2965SOL    HW139389   5.342   1.665   1.097
 2965SOL    HW239390   5.429   1.569   1.176
 2966SOL     OW39391   5.405   3.567   1.163
 2966SOL    HW139392   5.358   3.561   1.079
 2966SOL    HW239393   5.447   3.483   1.174
 2967SOL     OW39394   5.335   5.351   1.200
 2967SOL    HW139395   5.326   5.385   1.110
 2967SOL    HW239396   5.416   5.300   1.198
 2968SOL     OW39397   1.474   1.175   1.141
 2968SOL    HW139398   1.443   1.185   1.231
 2968SOL    HW239399   1.563   1.210   1.142
 2969SOL     OW39400   1.472   3.050   1.152
 2969SOL    HW139401   1.454   3.115   1.220
 2969SOL    HW239402   1.566   3.055   1.138
 2970SOL     OW39403   1.501   4.908   1.168
 2970SOL    HW139404   1.461   4.926   1.254
 2970SOL    HW239405   1.595   4.915   1.183
 2971SOL     OW39406   3.342   1.202   1.140
 2971SOL    HW139407   3.318   1.277   1.194
 2971SOL    HW239408   3.435   1.216   1.121
 2972SOL     OW39409   3.377   3.020   1.120
 2972SOL    HW139410   3.369   3.055   1.209
 2972SOL    HW239411   3.464   3.048   1.091
 2973SOL     OW39412   3.347   4.943   1.141
 2973SOL    HW139413   3.333   4.950   1.236
 2973SOL    HW239414   3.442   4.954   1.131
 2974SOL     OW39415   5.202   1.189   1.145
 2974SOL    HW139416   5.192   1.205   1.239
 2974SOL    HW239417   5.293   1.209   1.126
 2975SOL     OW39418   5.202   3.052   1.143
 2975SOL    HW139419   5.188   3.080   1.233
 2975SOL    HW239420   5.294   3.072   1.125
 2976SOL     OW39421   5.205   4.915   1.164
 2976SOL    HW139422   5.208   4.926   1.259
 2976SOL    HW239423   5.294   4.937   1.135
 2977SOL     OW39424   1.029   0.249  11.703
 2977SOL    HW139425   1.006   0.209  11.619
 2977SOL    HW239426   1.022   0.177  11.765
 2978SOL     OW39427   1.048   2.116  11.681
 2978SOL    HW139428   1.025   2.073  11.598
 2978SOL    HW239429   1.048   2.045  11.745
 2979SOL     OW39430   1.043   3.973  11.677
 2979SOL    HW139431   1.049   3.929  11.592
 2979SOL    HW239432   1.039   3.902  11.741
 2980SOL     OW39433   1.031   5.839  11.683
 2980SOL    HW139434   1.002   5.799  11.601
 2980SOL    HW239435   1.033   5.767  11.746
 2981SOL     OW39436   2.893   0.250  11.680
 2981SOL    HW139437   2.874   0.208  11.596
 2981SOL    HW239438   2.891   0.178  11.743
 2982SOL     OW39439   2.898   2.110  11.675
 2982SOL    HW139440   2.897   2.066  11.589
 2982SOL    HW239441   2.895   2.038  11.738
 2983SOL     OW39442   2.863   4.123  11.548
 2983SOL    HW139443   2.842   4.069  11.472
 2983SOL    HW239444   2.812   4.084  11.619
 2984SOL     OW39445   2.907   5.836  11.685
 2984SOL    HW139446   2.890   5.790  11.603
 2984SOL    HW239447   2.911   5.766  11.751
 2985SOL     OW39448   4.749   0.248  11.717
 2985SOL    HW139449   4.721   0.213  11.632
 2985SOL    HW239450   4.762   0.170  11.771
 2986SOL     OW39451   4.804   2.110  11.662
 2986SOL    HW139452   4.790   2.044  11.594
 2986SOL    HW239453   4.764   2.072  11.741
 2987SOL     OW39454   4.767   3.983  11.679
 2987SOL    HW139455   4.762   3.939  11.594
 2987SOL    HW239456   4.765   3.912  11.743
 2988SOL     OW39457   4.762   5.835  11.694
 2988SOL    HW139458   4.762   5.799  11.605
 2988SOL    HW239459   4.730   5.763  11.748
 2989SOL     OW39460   1.759   0.353   1.197
 2989SOL    HW139461   1.755   0.391   1.109
 2989SOL    HW239462   1.827   0.286   1.192
 2990SOL     OW39463   1.759   2.186   1.187
 2990SOL    HW139464   1.755   2.212   1.095
 2990SOL    HW239465   1.681   2.133   1.201
 2991SOL     OW39466   1.691   4.128   1.141
 2991SOL    HW139467   1.687   4.136   1.045
 2991SOL    HW239468   1.633   4.054   1.161
 2992SOL     OW39469   1.725   5.939   1.204
 2992SOL    HW139470   1.731   5.947   1.109
 2992SOL    HW239471   1.654   5.876   1.219
 2993SOL     OW39472   3.645   0.360   1.188
 2993SOL    HW139473   3.640   0.389   1.097
 2993SOL    HW239474   3.620   0.268   1.186
 2994SOL     OW39475   3.632   2.219   1.190
 2994SOL    HW139476   3.620   2.235   1.097
 2994SOL    HW239477   3.558   2.162   1.215
 2995SOL     OW39478   3.632   4.121   1.159
 2995SOL    HW139479   3.604   4.137   1.069
 2995SOL    HW239480   3.581   4.044   1.186
 2996SOL     OW39481   3.619   5.958   1.174
 2996SOL    HW139482   3.611   5.967   1.080
 2996SOL    HW239483   3.559   5.887   1.197
 2997SOL     OW39484   5.474   0.372   1.204
 2997SOL    HW139485   5.469   0.381   1.108
 2997SOL    HW239486   5.448   0.282   1.221
 2998SOL     OW39487   5.478   2.220   1.187
 2998SOL    HW139488   5.472   2.233   1.093
 2998SOL    HW239489   5.408   2.159   1.209
 2999SOL     OW39490   5.468   4.086   1.182
 2999SOL    HW139491   5.474   4.093   1.087
 2999SOL    HW239492   5.398   4.022   1.197
 3000SOL     OW39493   5.459   5.959   1.191
 3000SOL    HW139494   5.460   5.964   1.096
 3000SOL    HW239495   5.397   5.889   1.212
 3001SOL     OW39496   1.032   0.761  11.663
 3001SOL    HW139497   1.013   0.773  11.756
 3001SOL    HW239498   0.998   0.674  11.642
 3002SOL     OW39499   1.049   2.612  11.684
 3002SOL    HW139500   1.030   2.625  11.777
 3002SOL    HW239501   1.026   2.520  11.668
 3003SOL     OW39502   1.047   4.499  11.678
 3003SOL    HW139503   1.020   4.496  11.769
 3003SOL    HW239504   1.034   4.410  11.646
 3004SOL     OW39505   2.929   0.747  11.694
 3004SOL    HW139506   2.894   0.760  11.783
 3004SOL    HW239507   2.894   0.662  11.667
 3005SOL     OW39508   2.947   2.595  11.668
 3005SOL    HW139509   2.917   2.617  11.757
 3005SOL    HW239510   2.905   2.511  11.649
 3006SOL     OW39511   2.951   4.516  11.657
 3006SOL    HW139512   2.913   4.530  11.743
 3006SOL    HW239513   2.889   4.458  11.612
 3007SOL     OW39514   4.771   0.779  11.689
 3007SOL    HW139515   4.745   0.788  11.781
 3007SOL    HW239516   4.749   0.689  11.667
 3008SOL     OW39517   4.783   2.646  11.693
 3008SOL    HW139518   4.756   2.661  11.784
 3008SOL    HW239519   4.764   2.554  11.677
 3009SOL     OW39520   4.789   4.493  11.683
 3009SOL    HW139521   4.761   4.506  11.774
 3009SOL    HW239522   4.766   4.402  11.664
 3010SOL     OW39523   1.877   0.117  11.697
 3010SOL    HW139524   1.931   0.044  11.668
 3010SOL    HW239525   1.800   0.115  11.641
 3011SOL     OW39526   1.850   2.020  11.679
 3011SOL    HW139527   1.878   1.934  11.648
 3011SOL    HW239528   1.767   2.036  11.635
 3012SOL     OW39529   1.851   3.880  11.668
 3012SOL    HW139530   1.883   3.793  11.644
 3012SOL    HW239531   1.762   3.884  11.631
 3013SOL     OW39532   1.850   5.749  11.677
 3013SOL    HW139533   1.874   5.661  11.650
 3013SOL    HW239534   1.765   5.764  11.638
 3014SOL     OW39535   3.723   0.128  11.685
 3014SOL    HW139536   3.769   0.062  11.633
 3014SOL    HW239537   3.644   0.148  11.634
 3015SOL     OW39538   3.713   2.017  11.680
 3015SOL    HW139539   3.747   1.932  11.652
 3015SOL    HW239540   3.632   2.027  11.631
 3016SOL     OW39541   3.687   3.883  11.664
 3016SOL    HW139542   3.732   3.801  11.642
 3016SOL    HW239543   3.645   3.910  11.582
 3017SOL     OW39544   3.703   5.746  11.688
 3017SOL    HW139545   3.744   5.664  11.661
 3017SOL    HW239546   3.623   5.750  11.636
 3018SOL     OW39547   5.586   0.119  11.677
 3018SOL    HW139548   5.616   0.047  11.621
 3018SOL    HW239549   5.503   0.146  11.638
 3019SOL     OW39550   5.566   2.024  11.702
 3019SOL    HW139551   5.605   1.942  11.671
 3019SOL    HW239552   5.485   2.032  11.651
 3020SOL     OW39553   5.594   3.885  11.665
 3020SOL    HW139554   5.623   3.797  11.642
 3020SOL    HW239555   5.505   3.891  11.630
 3021SOL     OW39556   5.584   5.756  11.668
 3021SOL    HW139557   5.608   5.666  11.644
 3021SOL    HW239558   5.494   5.766  11.636
 3022SOL     OW39559   1.505   1.799  11.689
 3022SOL    HW139560   1.521   1.879  11.639
 3022SOL    HW239561   1.592   1.764  11.707
 3023SOL     OW39562   1.498   3.660  11.710
 3023SOL    HW139563   1.527   3.733  11.655
 3023SOL    HW239564   1.578   3.629  11.752
 3024SOL     OW39565   1.518   5.534  11.701
 3024SOL    HW139566   1.540   5.605  11.641
 3024SOL    HW239567   1.590   5.471  11.692
 3025SOL     OW39568   3.381   1.807  11.706
 3025SOL    HW139569   3.404   1.879  11.647
 3025SOL    HW239570   3.446   1.740  11.688
 3026SOL     OW39571   3.411   3.599  11.661
 3026SOL    HW139572   3.434   3.630  11.573
 3026SOL    HW239573   3.495   3.593  11.707
 3027SOL     OW39574   3.367   5.519  11.709
 3027SOL    HW139575   3.392   5.592  11.652
 3027SOL    HW239576   3.446   5.467  11.719
 3028SOL     OW39577   5.229   1.804  11.724
 3028SOL    HW139578   5.250   1.871  11.659
 3028SOL    HW239579   5.313   1.764  11.745
 3029SOL     OW39580   5.223   3.671  11.703
 3029SOL    HW139581   5.258   3.745  11.652
 3029SOL    HW239582   5.299   3.614  11.717
 3030SOL     OW39583   5.259   5.527  11.720
 3030SOL    HW139584   5.277   5.597  11.658
 3030SOL    HW239585   5.345   5.504  11.757
 3031SOL     OW39586   1.503   1.392  11.673
 3031SOL    HW139587   1.434   1.421  11.732
 3031SOL    HW239588   1.479   1.303  11.648
 3032SOL     OW39589   0.693   1.794  11.650
 3032SOL    HW139590   0.653   1.878  11.630
 3032SOL    HW239591   0.783   1.802  11.618
 3033SOL     OW39592   1.453   3.300  11.640
 3033SOL    HW139593   1.406   3.307  11.723
 3033SOL    HW239594   1.434   3.211  11.610
 3034SOL     OW39595   0.702   3.641  11.650
 3034SOL    HW139596   0.680   3.731  11.624
 3034SOL    HW239597   0.796   3.634  11.634
 3035SOL     OW39598   1.493   5.131  11.671
 3035SOL    HW139599   1.419   5.154  11.727
 3035SOL    HW239600   1.474   5.042  11.641
 3036SOL     OW39601   0.702   5.506  11.579
 3036SOL    HW139602   0.673   5.596  11.597
 3036SOL    HW239603   0.759   5.485  11.653
 3037SOL     OW39604   3.355   1.400  11.652
 3037SOL    HW139605   3.286   1.429  11.713
 3037SOL    HW239606   3.330   1.310  11.629
 3038SOL     OW39607   2.529   1.777  11.640
 3038SOL    HW139608   2.520   1.869  11.616
 3038SOL    HW239609   2.623   1.763  11.652
 3039SOL     OW39610   3.324   3.248  11.637
 3039SOL    HW139611   3.258   3.238  11.706
 3039SOL    HW239612   3.338   3.160  11.603
 3040SOL     OW39613   2.376   3.620  11.828
 3040SOL    HW139614   2.351   3.695  11.773
 3040SOL    HW239615   2.363   3.651  11.917
 3041SOL     OW39616   3.328   5.127  11.699
 3041SOL    HW139617   3.258   5.146  11.761
 3041SOL    HW239618   3.309   5.039  11.666
 3042SOL     OW39619   2.524   5.508  11.645
 3042SOL    HW139620   2.500   5.597  11.619
 3042SOL    HW239621   2.619   5.504  11.631
 3043SOL     OW39622   5.223   1.398  11.673
 3043SOL    HW139623   5.153   1.422  11.734
 3043SOL    HW239624   5.201   1.310  11.645
 3044SOL     OW39625   4.392   1.773  11.615
 3044SOL    HW139626   4.365   1.864  11.610
 3044SOL    HW239627   4.488   1.776  11.616
 3045SOL     OW39628   5.202   3.268  11.635
 3045SOL    HW139629   5.144   3.290  11.708
 3045SOL    HW239630   5.185   3.175  11.619
 3046SOL     OW39631   4.402   3.635  11.638
 3046SOL    HW139632   4.380   3.726  11.622
 3046SOL    HW239633   4.497   3.632  11.634
 3047SOL     OW39634   5.211   5.125  11.676
 3047SOL    HW139635   5.141   5.149  11.738
 3047SOL    HW239636   5.191   5.034  11.652
 3048SOL     OW39637   4.395   5.499  11.603
 3048SOL    HW139638   4.360   5.588  11.592
 3048SOL    HW239639   4.465   5.509  11.667
 3049SOL     OW39640   6.265   1.795  11.646
 3049SOL    HW139641   6.236   1.885  11.634
 3049SOL    HW239642   6.359   1.802  11.659
 3050SOL     OW39643   6.273   3.661  11.622
 3050SOL    HW139644   6.242   3.752  11.620
 3050SOL    HW239645   6.360   3.667  11.660
 3051SOL     OW39646   6.273   5.505  11.623
 3051SOL    HW139647   6.233   5.592  11.614
 3051SOL    HW239648   6.361   5.523  11.656
 3052SOL     OW39649   1.404   0.909   1.174
 3052SOL    HW139650   1.415   1.004   1.171
 3052SOL    HW239651   1.391   0.884   1.083
 3053SOL     OW39652   1.425   2.779   1.184
 3053SOL    HW139653   1.429   2.875   1.185
 3053SOL    HW239654   1.404   2.757   1.093
 3054SOL     OW39655   1.403   4.646   1.183
 3054SOL    HW139656   1.430   4.738   1.178
 3054SOL    HW239657   1.399   4.618   1.092
 3055SOL     OW39658   3.274   0.937   1.182
 3055SOL    HW139659   3.288   1.031   1.174
 3055SOL    HW239660   3.261   0.907   1.092
 3056SOL     OW39661   3.267   2.777   1.175
 3056SOL    HW139662   3.300   2.866   1.161
 3056SOL    HW239663   3.264   2.739   1.088
 3057SOL     OW39664   3.258   4.664   1.219
 3057SOL    HW139665   3.263   4.755   1.249
 3057SOL    HW239666   3.256   4.670   1.124
 3058SOL     OW39667   5.132   0.922   1.183
 3058SOL    HW139668   5.142   1.017   1.174
 3058SOL    HW239669   5.118   0.891   1.093
 3059SOL     OW39670   5.127   2.788   1.195
 3059SOL    HW139671   5.144   2.882   1.186
 3059SOL    HW239672   5.112   2.758   1.106
 3060SOL     OW39673   5.123   4.652   1.196
 3060SOL    HW139674   5.143   4.744   1.183
 3060SOL    HW239675   5.108   4.618   1.108
 3061SOL     OW39676   0.343   0.803  11.665
 3061SOL    HW139677   0.438   0.815  11.674
 3061SOL    HW239678   0.329   0.711  11.685
 3062SOL     OW39679   0.311   2.662  11.653
 3062SOL    HW139680   0.407   2.664  11.649
 3062SOL    HW239681   0.290   2.573  11.680
 3063SOL     OW39682   0.350   6.364  11.644
 3063SOL    HW139683   0.397   6.409  11.714
 3063SOL    HW239684   0.352   6.272  11.669
 3064SOL     OW39685   2.160   0.815  11.664
 3064SOL    HW139686   2.252   0.838  11.655
 3064SOL    HW239687   2.160   0.721  11.680
 3065SOL     OW39688   2.180   2.659  11.645
 3065SOL    HW139689   2.272   2.679  11.661
 3065SOL    HW239690   2.169   2.569  11.675
 3066SOL     OW39691   2.190   4.528  11.640
 3066SOL    HW139692   2.283   4.543  11.655
 3066SOL    HW239693   2.171   4.446  11.686
 3067SOL     OW39694   2.105   6.400  11.660
 3067SOL    HW139695   2.170   6.438  11.601
 3067SOL    HW239696   2.128   6.307  11.664
 3068SOL     OW39697   4.032   0.817  11.656
 3068SOL    HW139698   4.127   0.832  11.660
 3068SOL    HW239699   4.022   0.725  11.677
 3069SOL     OW39700   4.085   2.674  11.665
 3069SOL    HW139701   4.179   2.689  11.671
 3069SOL    HW239702   4.074   2.581  11.683
 3070SOL     OW39703   4.059   4.539  11.654
 3070SOL    HW139704   4.153   4.559  11.652
 3070SOL    HW239705   4.054   4.449  11.685
 3071SOL     OW39706   4.003   6.395  11.585
 3071SOL    HW139707   4.060   6.440  11.648
 3071SOL    HW239708   4.008   6.303  11.610
 3072SOL     OW39709   5.910   0.811  11.632
 3072SOL    HW139710   5.994   0.844  11.664
 3072SOL    HW239711   5.904   0.722  11.667
 3073SOL     OW39712   5.924   2.688  11.620
 3073SOL    HW139713   6.009   2.705  11.660
 3073SOL    HW239714   5.911   2.594  11.630
 3074SOL     OW39715   5.929   4.554  11.645
 3074SOL    HW139716   6.012   4.585  11.679
 3074SOL    HW239717   5.926   4.461  11.669
 3075SOL     OW39718   5.923   6.407  11.593
 3075SOL    HW139719   5.986   0.020  11.627
 3075SOL    HW239720   5.931   6.331  11.651
 3076SOL     OW39721   1.284   0.353  11.633
 3076SOL    HW139722   1.194   0.329  11.655
 3076SOL    HW239723   1.338   0.304  11.694
 3077SOL     OW39724   1.306   2.260  11.664
 3077SOL    HW139725   1.218   2.225  11.650
 3077SOL    HW239726   1.349   2.195  11.720
 3078SOL     OW39727   1.292   4.109  11.653
 3078SOL    HW139728   1.205   4.068  11.662
 3078SOL    HW239729   1.350   4.055  11.707
 3079SOL     OW39730   1.281   5.967  11.652
 3079SOL    HW139731   1.193   5.929  11.655
 3079SOL    HW239732   1.335   5.907  11.704
 3080SOL     OW39733   3.148   0.396  11.656
 3080SOL    HW139734   3.061   0.355  11.657
 3080SOL    HW239735   3.205   0.334  11.701
 3081SOL     OW39736   3.146   2.241  11.656
 3081SOL    HW139737   3.059   2.202  11.661
 3081SOL    HW239738   3.202   2.181  11.706
 3082SOL     OW39739   3.109   4.212  11.617
 3082SOL    HW139740   3.023   4.184  11.586
 3082SOL    HW239741   3.107   4.197  11.712
 3083SOL     OW39742   3.155   5.965  11.639
 3083SOL    HW139743   3.068   5.928  11.651
 3083SOL    HW239744   3.212   5.908  11.691
 3084SOL     OW39745   5.001   0.391  11.665
 3084SOL    HW139746   4.922   0.338  11.660
 3084SOL    HW239747   5.067   0.333  11.701
 3085SOL     OW39748   5.027   2.261  11.656
 3085SOL    HW139749   4.940   2.221  11.659
 3085SOL    HW239750   5.082   2.202  11.707
 3086SOL     OW39751   5.023   4.117  11.661
 3086SOL    HW139752   4.935   4.078  11.660
 3086SOL    HW239753   5.076   4.055  11.712
 3087SOL     OW39754   5.015   5.965  11.658
 3087SOL    HW139755   4.926   5.930  11.669
 3087SOL    HW239756   5.070   5.906  11.709
 3088SOL     OW39757   1.621   0.762   1.248
 3088SOL    HW139758   1.540   0.810   1.233
 3088SOL    HW239759   1.675   0.782   1.171
 3089SOL     OW39760   1.623   2.589   1.173
 3089SOL    HW139761   1.550   2.649   1.188
 3089SOL    HW239762   1.688   2.641   1.127
 3090SOL     OW39763   1.637   4.520   1.251
 3090SOL    HW139764   1.549   4.554   1.233
 3090SOL    HW239765   1.689   4.546   1.174
 3091SOL     OW39766   1.601   6.378   1.196
 3091SOL    HW139767   1.517   6.397   1.237
 3091SOL    HW239768   1.611   6.446   1.129
 3092SOL     OW39769   3.504   0.792   1.209
 3092SOL    HW139770   3.420   0.838   1.205
 3092SOL    HW239771   3.556   0.831   1.139
 3093SOL     OW39772   3.502   2.650   1.249
 3093SOL    HW139773   3.414   2.683   1.232
 3093SOL    HW239774   3.555   2.684   1.177
 3094SOL     OW39775   3.493   4.519   1.235
 3094SOL    HW139776   3.404   4.555   1.239
 3094SOL    HW239777   3.534   4.563   1.161
 3095SOL     OW39778   3.471   6.369   1.173
 3095SOL    HW139779   3.394   6.353   1.119
 3095SOL    HW239780   3.514   6.445   1.133
 3096SOL     OW39781   5.367   0.789   1.232
 3096SOL    HW139782   5.279   0.826   1.221
 3096SOL    HW239783   5.418   0.824   1.159
 3097SOL     OW39784   5.345   2.621   1.211
 3097SOL    HW139785   5.262   2.668   1.207
 3097SOL    HW239786   5.397   2.656   1.138
 3098SOL     OW39787   5.367   4.516   1.217
 3098SOL    HW139788   5.275   4.545   1.218
 3098SOL    HW239789   5.405   4.559   1.140
 3099SOL     OW39790   5.333   6.366   1.194
 3099SOL    HW139791   5.261   6.314   1.159
 3099SOL    HW239792   5.344   6.438   1.132
 3100SOL     OW39793   1.405   0.473   1.208
 3100SOL    HW139794   1.404   0.530   1.285
 3100SOL    HW239795   1.450   0.394   1.236
 3101SOL     OW39796   1.401   2.311   1.197
 3101SOL    HW139797   1.403   2.360   1.279
 3101SOL    HW239798   1.454   2.233   1.214
 3102SOL     OW39799   1.419   4.219   1.229
 3102SOL    HW139800   1.484   4.244   1.294
 3102SOL    HW239801   1.435   4.126   1.213
 3103SOL     OW39802   1.410   6.056   1.236
 3103SOL    HW139803   1.419   6.111   1.314
 3103SOL    HW239804   1.456   5.975   1.259
 3104SOL     OW39805   3.268   0.473   1.224
 3104SOL    HW139806   3.336   0.523   1.269
 3104SOL    HW239807   3.293   0.381   1.236
 3105SOL     OW39808   3.280   2.337   1.202
 3105SOL    HW139809   3.278   2.385   1.285
 3105SOL    HW239810   3.328   2.257   1.222
 3106SOL     OW39811   3.369   4.208   1.286
 3106SOL    HW139812   3.441   4.259   1.322
 3106SOL    HW239813   3.399   4.117   1.289
 3107SOL     OW39814   3.282   6.055   1.231
 3107SOL    HW139815   3.351   6.102   1.278
 3107SOL    HW239816   3.315   5.966   1.222
 3108SOL     OW39817   5.120   0.493   1.198
 3108SOL    HW139818   5.121   0.536   1.284
 3108SOL    HW239819   5.169   0.412   1.213
 3109SOL     OW39820   5.127   2.332   1.188
 3109SOL    HW139821   5.130   2.378   1.272
 3109SOL    HW239822   5.180   2.253   1.203
 3110SOL     OW39823   5.137   4.194   1.203
 3110SOL    HW139824   5.151   4.247   1.281
 3110SOL    HW239825   5.189   4.115   1.217
 3111SOL     OW39826   5.148   6.049   1.224
 3111SOL    HW139827   5.151   6.052   1.320
 3111SOL    HW239828   5.190   5.966   1.202
 3112SOL     OW39829   1.157   0.360   1.220
 3112SOL    HW139830   1.107   0.417   1.279
 3112SOL    HW239831   1.242   0.403   1.212
 3113SOL     OW39832   1.144   2.224   1.200
 3113SOL    HW139833   1.094   2.282   1.258
 3113SOL    HW239834   1.231   2.262   1.197
 3114SOL     OW39835   1.164   4.114   1.214
 3114SOL    HW139836   1.108   4.164   1.274
 3114SOL    HW239837   1.249   4.158   1.219
 3115SOL     OW39838   1.158   5.947   1.221
 3115SOL    HW139839   1.105   6.006   1.276
 3115SOL    HW239840   1.246   5.985   1.224
 3116SOL     OW39841   3.015   0.362   1.208
 3116SOL    HW139842   2.950   0.426   1.236
 3116SOL    HW239843   3.099   0.407   1.217
 3117SOL     OW39844   3.026   2.228   1.207
 3117SOL    HW139845   2.980   2.283   1.271
 3117SOL    HW239846   3.113   2.267   1.199
 3118SOL     OW39847   3.099   4.210   1.284
 3118SOL    HW139848   3.046   4.250   1.353
 3118SOL    HW239849   3.190   4.225   1.313
 3119SOL     OW39850   3.020   5.951   1.237
 3119SOL    HW139851   2.964   6.012   1.285
 3119SOL    HW239852   3.105   5.995   1.232
 3120SOL     OW39853   4.878   0.362   1.228
 3120SOL    HW139854   4.826   0.413   1.289
 3120SOL    HW239855   4.957   0.415   1.212
 3121SOL     OW39856   4.874   2.230   1.210
 3121SOL    HW139857   4.831   2.297   1.264
 3121SOL    HW239858   4.961   2.267   1.193
 3122SOL     OW39859   4.894   4.071   1.217
 3122SOL    HW139860   4.838   4.132   1.265
 3122SOL    HW239861   4.974   4.120   1.201
 3123SOL     OW39862   4.888   5.948   1.205
 3123SOL    HW139863   4.838   6.023   1.235
 3123SOL    HW239864   4.980   5.976   1.210
 3124SOL     OW39865   0.109   1.778  11.632
 3124SOL    HW139866   0.068   1.715  11.573
 3124SOL    HW239867   0.194   1.796  11.593
 3125SOL     OW39868   0.111   3.638  11.651
 3125SOL    HW139869   0.074   3.574  11.590
 3125SOL    HW239870   0.200   3.654  11.618
 3126SOL     OW39871   0.113   5.497  11.650
 3126SOL    HW139872   0.077   5.448  11.576
 3126SOL    HW239873   0.203   5.518  11.624
 3127SOL     OW39874   1.964   1.766  11.664
 3127SOL    HW139875   1.935   1.688  11.617
 3127SOL    HW239876   2.051   1.784  11.628
 3128SOL     OW39877   1.960   3.629  11.638
 3128SOL    HW139878   1.920   3.548  11.609
 3128SOL    HW239879   2.028   3.647  11.573
 3129SOL     OW39880   1.935   5.496  11.642
 3129SOL    HW139881   1.908   5.419  11.592
 3129SOL    HW239882   2.028   5.506  11.622
 3130SOL     OW39883   3.808   1.766  11.646
 3130SOL    HW139884   3.782   1.690  11.593
 3130SOL    HW239885   3.899   1.782  11.622
 3131SOL     OW39886   3.823   3.656  11.602
 3131SOL    HW139887   3.801   3.574  11.558
 3131SOL    HW239888   3.915   3.671  11.581
 3132SOL     OW39889   3.808   5.500  11.644
 3132SOL    HW139890   3.793   5.413  11.609
 3132SOL    HW239891   3.901   5.517  11.629
 3133SOL     OW39892   5.683   1.785  11.642
 3133SOL    HW139893   5.662   1.702  11.599
 3133SOL    HW239894   5.772   1.805  11.612
 3134SOL     OW39895   5.721   3.633  11.666
 3134SOL    HW139896   5.686   3.559  11.616
 3134SOL    HW239897   5.803   3.655  11.622
 3135SOL     OW39898   5.660   5.500  11.633
 3135SOL    HW139899   5.645   5.416  11.589
 3135SOL    HW239900   5.756   5.510  11.632
 3136SOL     OW39901   0.842   1.391  11.666
 3136SOL    HW139902   0.922   1.377  11.616
 3136SOL    HW239903   0.773   1.393  11.601
 3137SOL     OW39904   0.841   3.237  11.682
 3137SOL    HW139905   0.926   3.235  11.637
 3137SOL    HW239906   0.777   3.246  11.611
 3138SOL     OW39907   0.828   5.053  11.619
 3138SOL    HW139908   0.919   5.056  11.592
 3138SOL    HW239909   0.814   5.134  11.667
 3139SOL     OW39910   2.698   1.310  11.627
 3139SOL    HW139911   2.790   1.329  11.610
 3139SOL    HW239912   2.653   1.393  11.613
 3140SOL     OW39913   2.545   3.173  11.631
 3140SOL    HW139914   2.550   3.257  11.677
 3140SOL    HW239915   2.466   3.179  11.577
 3141SOL     OW39916   2.710   5.114  11.660
 3141SOL    HW139917   2.796   5.098  11.620
 3141SOL    HW239918   2.651   5.127  11.586
 3142SOL     OW39919   4.577   1.441  11.653
 3142SOL    HW139920   4.657   1.403  11.616
 3142SOL    HW239921   4.509   1.420  11.589
 3143SOL     OW39922   4.568   3.241  11.682
 3143SOL    HW139923   4.653   3.231  11.639
 3143SOL    HW239924   4.505   3.244  11.610
 3144SOL     OW39925   4.562   5.097  11.607
 3144SOL    HW139926   4.655   5.078  11.597
 3144SOL    HW239927   4.538   5.142  11.527
 3145SOL     OW39928   6.415   1.327  11.577
 3145SOL    HW139929   0.005   1.411  11.599
 3145SOL    HW239930   6.321   1.347  11.570
 3146SOL     OW39931   6.387   3.274  11.585
 3146SOL    HW139932   0.024   3.241  11.608
 3146SOL    HW239933   6.403   3.342  11.520
 3147SOL     OW39934   6.429   5.080  11.612
 3147SOL    HW139935   0.045   5.150  11.611
 3147SOL    HW239936   6.355   5.116  11.562
 3148SOL     OW39937   1.149   1.336   1.208
 3148SOL    HW139938   1.194   1.337   1.292
 3148SOL    HW239939   1.099   1.255   1.208
 3149SOL     OW39940   1.163   3.214   1.224
 3149SOL    HW139941   1.169   3.220   1.319
 3149SOL    HW239942   1.115   3.133   1.207
 3150SOL     OW39943   1.166   5.049   1.197
 3150SOL    HW139944   1.215   5.053   1.279
 3150SOL    HW239945   1.108   4.973   1.207
 3151SOL     OW39946   3.039   1.333   1.212
 3151SOL    HW139947   3.049   1.340   1.307
 3151SOL    HW239948   2.987   1.254   1.199
 3152SOL     OW39949   3.127   3.168   1.187
 3152SOL    HW139950   3.193   3.138   1.249
 3152SOL    HW239951   3.059   3.101   1.191
 3153SOL     OW39952   3.019   5.079   1.213
 3153SOL    HW139953   3.081   5.069   1.284
 3153SOL    HW239954   2.969   4.997   1.213
 3154SOL     OW39955   4.896   1.351   1.191
 3154SOL    HW139956   4.969   1.319   1.245
 3154SOL    HW239957   4.834   1.278   1.190
 3155SOL     OW39958   4.895   3.203   1.221
 3155SOL    HW139959   4.971   3.166   1.267
 3155SOL    HW239960   4.830   3.133   1.223
 3156SOL     OW39961   4.882   5.062   1.213
 3156SOL    HW139962   4.952   5.013   1.171
 3156SOL    HW239963   4.820   4.995   1.242
 3157SOL     OW39964   0.514   1.597  11.602
 3157SOL    HW139965   0.586   1.656  11.627
 3157SOL    HW239966   0.557   1.521  11.564
 3158SOL     OW39967   0.521   3.445  11.610
 3158SOL    HW139968   0.593   3.505  11.631
 3158SOL    HW239969   0.564   3.373  11.563
 3159SOL     OW39970   0.517   5.310  11.605
 3159SOL    HW139971   0.589   5.372  11.616
 3159SOL    HW239972   0.545   5.253  11.534
 3160SOL     OW39973   2.358   1.570  11.623
 3160SOL    HW139974   2.428   1.633  11.641
 3160SOL    HW239975   2.391   1.519  11.548
 3161SOL     OW39976   2.278   3.425  11.570
 3161SOL    HW139977   2.355   3.436  11.626
 3161SOL    HW239978   2.298   3.348  11.516
 3162SOL     OW39979   2.352   5.299  11.603
 3162SOL    HW139980   2.422   5.360  11.628
 3162SOL    HW239981   2.391   5.245  11.535
 3163SOL     OW39982   4.223   1.566  11.603
 3163SOL    HW139983   4.287   1.636  11.619
 3163SOL    HW239984   4.271   1.501  11.552
 3164SOL     OW39985   4.231   3.431  11.596
 3164SOL    HW139986   4.297   3.494  11.623
 3164SOL    HW239987   4.279   3.366  11.544
 3165SOL     OW39988   4.234   5.279  11.618
 3165SOL    HW139989   4.299   5.349  11.623
 3165SOL    HW239990   4.284   5.202  11.593
 3166SOL     OW39991   6.080   1.599  11.611
 3166SOL    HW139992   6.151   1.656  11.641
 3166SOL    HW239993   6.124   1.535  11.555
 3167SOL     OW39994   6.126   3.434  11.601
 3167SOL    HW139995   6.181   3.510  11.618
 3167SOL    HW239996   6.183   3.358  11.614
 3168SOL     OW39997   6.085   5.313  11.602
 3168SOL    HW139998   6.155   5.374  11.621
 3168SOL    HW239999   6.124   5.248  11.544
 3169SOL     OW40000   1.007   1.571   1.260
 3169SOL    HW140001   0.975   1.614   1.181
 3169SOL    HW240002   1.028   1.482   1.234
 3170SOL     OW40003   1.003   3.439   1.255
 3170SOL    HW140004   0.971   3.474   1.172
 3170SOL    HW240005   1.043   3.356   1.232
 3171SOL     OW40006   1.006   5.278   1.246
 3171SOL    HW140007   0.967   5.331   1.177
 3171SOL    HW240008   1.043   5.202   1.201
 3172SOL     OW40009   2.847   1.534   1.238
 3172SOL    HW140010   2.824   1.595   1.167
 3172SOL    HW240011   2.916   1.479   1.201
 3173SOL     OW40012   3.186   3.435   1.251
 3173SOL    HW140013   3.118   3.497   1.224
 3173SOL    HW240014   3.167   3.356   1.201
 3174SOL     OW40015   2.850   5.287   1.247
 3174SOL    HW140016   2.836   5.332   1.163
 3174SOL    HW240017   2.907   5.213   1.226
 3175SOL     OW40018   4.715   1.549   1.243
 3175SOL    HW140019   4.692   1.593   1.161
 3175SOL    HW240020   4.778   1.482   1.217
 3176SOL     OW40021   4.720   3.411   1.264
 3176SOL    HW140022   4.693   3.451   1.182
 3176SOL    HW240023   4.777   3.338   1.237
 3177SOL     OW40024   4.701   5.276   1.220
 3177SOL    HW140025   4.687   5.320   1.136
 3177SOL    HW240026   4.756   5.201   1.199
 3178SOL     OW40027   0.962   1.687  11.601
 3178SOL    HW140028   0.956   1.622  11.672
 3178SOL    HW240029   0.913   1.648  11.529
 3179SOL     OW40030   0.984   3.559  11.614
 3179SOL    HW140031   1.071   3.520  11.615
 3179SOL    HW240032   0.936   3.509  11.547
 3180SOL     OW40033   1.021   5.419  11.538
 3180SOL    HW140034   0.994   5.397  11.627
 3180SOL    HW240035   0.961   5.370  11.482
 3181SOL     OW40036   2.819   1.715  11.568
 3181SOL    HW140037   2.819   1.672  11.654
 3181SOL    HW240038   2.781   1.650  11.509
 3182SOL     OW40039   2.546   3.462  11.681
 3182SOL    HW140040   2.507   3.524  11.743
 3182SOL    HW240041   2.569   3.515  11.605
 3183SOL     OW40042   2.802   5.438  11.602
 3183SOL    HW140043   2.870   5.378  11.634
 3183SOL    HW240044   2.758   5.390  11.532
 3184SOL     OW40045   4.668   1.704  11.606
 3184SOL    HW140046   4.763   1.690  11.605
 3184SOL    HW240047   4.631   1.617  11.620
 3185SOL     OW40048   4.688   3.586  11.605
 3185SOL    HW140049   4.766   3.537  11.630
 3185SOL    HW240050   4.646   3.531  11.538
 3186SOL     OW40051   4.722   5.438  11.514
 3186SOL    HW140052   4.716   5.460  11.607
 3186SOL    HW240053   4.648   5.381  11.497
 3187SOL     OW40054   0.711   0.566   1.227
 3187SOL    HW140055   0.766   0.625   1.278
 3187SOL    HW240056   0.734   0.478   1.259
 3188SOL     OW40057   0.700   2.430   1.219
 3188SOL    HW140058   0.758   2.486   1.272
 3188SOL    HW240059   0.725   2.341   1.244
 3189SOL     OW40060   0.735   4.295   1.219
 3189SOL    HW140061   0.774   4.338   1.295
 3189SOL    HW240062   0.745   4.202   1.236
 3190SOL     OW40063   0.776   6.111   1.235
 3190SOL    HW140064   0.743   6.129   1.323
 3190SOL    HW240065   0.783   6.015   1.232
 3191SOL     OW40066   2.563   0.574   1.231
 3191SOL    HW140067   2.611   0.641   1.281
 3191SOL    HW240068   2.574   0.494   1.283
 3192SOL     OW40069   2.581   2.420   1.226
 3192SOL    HW140070   2.636   2.474   1.282
 3192SOL    HW240071   2.612   2.331   1.239
 3193SOL     OW40072   2.585   4.330   1.441
 3193SOL    HW140073   2.643   4.398   1.407
 3193SOL    HW240074   2.615   4.249   1.400
 3194SOL     OW40075   2.593   6.122   1.205
 3194SOL    HW140076   2.640   6.175   1.270
 3194SOL    HW240077   2.608   6.031   1.233
 3195SOL     OW40078   4.448   0.545   1.205
 3195SOL    HW140079   4.490   0.601   1.270
 3195SOL    HW240080   4.462   0.456   1.235
 3196SOL     OW40081   4.453   2.399   1.208
 3196SOL    HW140082   4.494   2.458   1.271
 3196SOL    HW240083   4.472   2.311   1.241
 3197SOL     OW40084   4.400   4.273   1.232
 3197SOL    HW140085   4.465   4.323   1.282
 3197SOL    HW240086   4.422   4.181   1.248
 3198SOL     OW40087   4.502   6.129   1.217
 3198SOL    HW140088   4.491   6.179   1.298
 3198SOL    HW240089   4.494   6.038   1.245
 3199SOL     OW40090   6.270   0.614   1.266
 3199SOL    HW140091   6.335   0.668   1.311
 3199SOL    HW240092   6.308   0.526   1.266
 3200SOL     OW40093   6.373   2.383   1.248
 3200SOL    HW140094   6.371   2.465   1.297
 3200SOL    HW240095   0.016   2.370   1.228
 3201SOL     OW40096   6.277   4.322   1.217
 3201SOL    HW140097   6.324   4.380   1.276
 3201SOL    HW240098   6.339   4.251   1.199
 3202SOL     OW40099   6.368   6.120   1.292
 3202SOL    HW140100   6.381   6.213   1.310
 3202SOL    HW240101   6.274   6.107   1.302
 3203SOL     OW40102   0.935   0.514  11.611
 3203SOL    HW140103   0.888   0.494  11.530
 3203SOL    HW240104   0.962   0.429  11.645
 3204SOL     OW40105   0.951   2.371  11.630
 3204SOL    HW140106   0.912   2.367  11.542
 3204SOL    HW240107   0.983   2.282  11.646
 3205SOL     OW40108   0.954   4.243  11.609
 3205SOL    HW140109   0.925   4.233  11.518
 3205SOL    HW240110   0.993   4.158  11.631
 3206SOL     OW40111   0.944   6.098  11.592
 3206SOL    HW140112   0.937   6.090  11.497
 3206SOL    HW240113   0.971   6.010  11.621
 3207SOL     OW40114   2.813   0.518  11.603
 3207SOL    HW140115   2.825   0.525  11.509
 3207SOL    HW240116   2.825   0.425  11.622
 3208SOL     OW40117   2.809   2.369  11.600
 3208SOL    HW140118   2.767   2.355  11.515
 3208SOL    HW240119   2.834   2.282  11.630
 3209SOL     OW40120   2.764   4.371  11.513
 3209SOL    HW140121   2.721   4.374  11.428
 3209SOL    HW240122   2.802   4.284  11.518
 3210SOL     OW40123   2.799   6.079  11.613
 3210SOL    HW140124   2.823   6.095  11.522
 3210SOL    HW240125   2.837   5.994  11.634
 3211SOL     OW40126   4.687   0.534  11.602
 3211SOL    HW140127   4.726   0.561  11.519
 3211SOL    HW240128   4.703   0.440  11.607
 3212SOL     OW40129   4.702   2.397  11.648
 3212SOL    HW140130   4.688   2.349  11.567
 3212SOL    HW240131   4.719   2.329  11.714
 3213SOL     OW40132   4.685   4.249  11.612
 3213SOL    HW140133   4.685   4.245  11.517
 3213SOL    HW240134   4.708   4.160  11.639
 3214SOL     OW40135   4.688   6.097  11.613
 3214SOL    HW140136   4.682   6.090  11.518
 3214SOL    HW240137   4.712   6.009  11.642
 3215SOL     OW40138   0.081   0.577  11.594
 3215SOL    HW140139   0.055   0.549  11.507
 3215SOL    HW240140   0.076   0.498  11.648
 3216SOL     OW40141   0.080   2.348  11.550
 3216SOL    HW140142   0.018   2.311  11.487
 3216SOL    HW240143   0.025   2.402  11.608
 3217SOL     OW40144   0.107   4.323  11.567
 3217SOL    HW140145   0.069   4.256  11.511
 3217SOL    HW240146   0.087   4.294  11.656
 3218SOL     OW40147   0.127   6.089  11.577
 3218SOL    HW140148   0.109   6.143  11.500
 3218SOL    HW240149   0.060   6.020  11.573
 3219SOL     OW40150   0.691   1.687   1.244
 3219SOL    HW140151   0.618   1.742   1.273
 3219SOL    HW240152   0.760   1.749   1.219
 3220SOL     OW40153   0.692   3.548   1.232
 3220SOL    HW140154   0.627   3.614   1.257
 3220SOL    HW240155   0.742   3.589   1.162
 3221SOL     OW40156   0.691   5.357   1.194
 3221SOL    HW140157   0.647   5.434   1.229
 3221SOL    HW240158   0.749   5.390   1.126
 3222SOL     OW40159   2.565   1.685   1.226
 3222SOL    HW140160   2.517   1.767   1.234
 3222SOL    HW240161   2.631   1.702   1.158
 3223SOL     OW40162   2.381   3.527   1.500
 3223SOL    HW140163   2.465   3.504   1.460
 3223SOL    HW240164   2.331   3.445   1.500
 3224SOL     OW40165   2.556   5.394   1.262
 3224SOL    HW140166   2.497   5.469   1.258
 3224SOL    HW240167   2.630   5.418   1.207
 3225SOL     OW40168   4.404   1.675   1.231
 3225SOL    HW140169   4.338   1.744   1.239
 3225SOL    HW240170   4.477   1.718   1.187
 3226SOL     OW40171   4.418   3.545   1.239
 3226SOL    HW140172   4.360   3.620   1.241
 3226SOL    HW240173   4.485   3.568   1.174
 3227SOL     OW40174   4.418   5.398   1.267
 3227SOL    HW140175   4.366   5.477   1.254
 3227SOL    HW240176   4.499   5.413   1.218
 3228SOL     OW40177   6.271   1.689   1.237
 3228SOL    HW140178   6.222   1.765   1.268
 3228SOL    HW240179   6.283   1.705   1.143
 3229SOL     OW40180   6.295   3.543   1.236
 3229SOL    HW140181   6.232   3.604   1.274
 3229SOL    HW240182   6.293   3.563   1.142
 3230SOL     OW40183   6.280   5.405   1.214
 3230SOL    HW140184   6.237   5.482   1.251
 3230SOL    HW240185   6.258   5.409   1.121
 3231SOL     OW40186   1.011   1.101   1.254
 3231SOL    HW140187   0.921   1.124   1.277
 3231SOL    HW240188   1.003   1.021   1.203
 3232SOL     OW40189   1.011   2.993   1.224
 3232SOL    HW140190   0.921   3.003   1.255
 3232SOL    HW240191   1.014   2.903   1.190
 3233SOL     OW40192   1.006   4.833   1.244
 3233SOL    HW140193   0.920   4.852   1.281
 3233SOL    HW240194   0.993   4.754   1.192
 3234SOL     OW40195   2.865   1.112   1.265
 3234SOL    HW140196   2.775   1.133   1.291
 3234SOL    HW240197   2.857   1.030   1.215
 3235SOL     OW40198   2.865   2.949   1.259
 3235SOL    HW140199   2.773   2.966   1.278
 3235SOL    HW240200   2.865   2.871   1.204
 3236SOL     OW40201   2.872   4.853   1.261
 3236SOL    HW140202   2.781   4.866   1.288
 3236SOL    HW240203   2.868   4.777   1.203
 3237SOL     OW40204   4.720   1.149   1.195
 3237SOL    HW140205   4.634   1.162   1.237
 3237SOL    HW240206   4.724   1.055   1.178
 3238SOL     OW40207   4.711   2.998   1.250
 3238SOL    HW140208   4.620   3.015   1.274
 3238SOL    HW240209   4.707   2.917   1.199
 3239SOL     OW40210   4.723   4.844   1.275
 3239SOL    HW140211   4.631   4.865   1.293
 3239SOL    HW240212   4.720   4.765   1.222
 3240SOL     OW40213   0.244   0.518   1.230
 3240SOL    HW140214   0.326   0.538   1.184
 3240SOL    HW240215   0.185   0.588   1.204
 3241SOL     OW40216   0.205   2.380   1.259
 3241SOL    HW140217   0.279   2.329   1.227
 3241SOL    HW240218   0.206   2.460   1.207
 3242SOL     OW40219   0.179   4.260   1.277
 3242SOL    HW140220   0.255   4.223   1.233
 3242SOL    HW240221   0.155   4.336   1.223
 3243SOL     OW40222   0.268   6.141   1.273
 3243SOL    HW140223   0.331   6.143   1.201
 3243SOL    HW240224   0.192   6.190   1.239
 3244SOL     OW40225   2.048   0.525   1.263
 3244SOL    HW140226   2.142   0.506   1.258
 3244SOL    HW240227   2.036   0.600   1.206
 3245SOL     OW40228   2.099   2.362   1.220
 3245SOL    HW140229   2.180   2.354   1.169
 3245SOL    HW240230   2.065   2.448   1.197
 3246SOL     OW40231   2.074   4.296   1.339
 3246SOL    HW140232   2.157   4.344   1.341
 3246SOL    HW240233   2.020   4.343   1.275
 3247SOL     OW40234   2.087   6.148   1.268
 3247SOL    HW140235   2.182   6.131   1.266
 3247SOL    HW240236   2.073   6.215   1.202
 3248SOL     OW40237   3.968   0.538   1.231
 3248SOL    HW140238   3.979   0.489   1.150
 3248SOL    HW240239   3.925   0.619   1.205
 3249SOL     OW40240   3.953   4.249   1.239
 3249SOL    HW140241   4.034   4.219   1.199
 3249SOL    HW240242   3.929   4.327   1.188
 3250SOL     OW40243   3.980   6.069   1.257
 3250SOL    HW140244   4.039   6.045   1.185
 3250SOL    HW240245   3.926   6.139   1.221
 3251SOL     OW40246   5.817   0.552   1.250
 3251SOL    HW140247   5.891   0.516   1.202
 3251SOL    HW240248   5.787   0.626   1.197
 3252SOL     OW40249   5.800   2.361   1.247
 3252SOL    HW140250   5.873   2.350   1.187
 3252SOL    HW240251   5.751   2.436   1.211
 3253SOL     OW40252   5.797   4.220   1.195
 3253SOL    HW140253   5.891   4.242   1.190
 3253SOL    HW240254   5.753   4.304   1.186
 3254SOL     OW40255   5.839   6.108   1.183
 3254SOL    HW140256   5.914   6.074   1.134
 3254SOL    HW240257   5.813   6.187   1.135
 3255SOL     OW40258   0.255   1.043  11.576
 3255SOL    HW140259   0.288   0.963  11.617
 3255SOL    HW240260   0.208   1.088  11.646
 3256SOL     OW40261   0.253   2.939  11.636
 3256SOL    HW140262   0.262   2.845  11.650
 3256SOL    HW240263   0.175   2.963  11.685
 3257SOL     OW40264   0.266   4.710  11.649
 3257SOL    HW140265   0.346   4.763  11.656
 3257SOL    HW240266   0.196   4.768  11.680
 3258SOL     OW40267   2.178   1.099  11.635
 3258SOL    HW140268   2.147   1.009  11.647
 3258SOL    HW240269   2.101   1.153  11.651
 3259SOL     OW40270   2.164   2.938  11.601
 3259SOL    HW140271   2.150   2.847  11.629
 3259SOL    HW240272   2.099   2.989  11.649
 3260SOL     OW40273   2.187   4.810  11.612
 3260SOL    HW140274   2.173   4.718  11.634
 3260SOL    HW240275   2.119   4.857  11.660
 3261SOL     OW40276   3.996   1.083  11.584
 3261SOL    HW140277   4.000   0.992  11.614
 3261SOL    HW240278   3.952   1.130  11.655
 3262SOL     OW40279   4.011   2.936  11.602
 3262SOL    HW140280   4.038   2.853  11.642
 3262SOL    HW240281   3.969   2.985  11.672
 3263SOL     OW40282   3.978   4.797  11.561
 3263SOL    HW140283   4.003   4.713  11.600
 3263SOL    HW240284   3.937   4.845  11.632
 3264SOL     OW40285   5.879   1.092  11.573
 3264SOL    HW140286   5.877   1.003  11.607
 3264SOL    HW240287   5.835   1.145  11.640
 3265SOL     OW40288   5.861   2.953  11.547
 3265SOL    HW140289   5.891   2.867  11.578
 3265SOL    HW240290   5.833   2.999  11.626
 3266SOL     OW40291   5.877   4.829  11.548
 3266SOL    HW140292   5.892   4.741  11.582
 3266SOL    HW240293   5.830   4.874  11.618
 3267SOL     OW40294   0.579   0.235  11.607
 3267SOL    HW140295   0.579   0.232  11.702
 3267SOL    HW240296   0.568   0.328  11.587
 3268SOL     OW40297   0.553   2.028  11.607
 3268SOL    HW140298   0.562   2.054  11.699
 3268SOL    HW240299   0.541   2.111  11.560
 3269SOL     OW40300   0.573   3.888  11.601
 3269SOL    HW140301   0.578   3.917  11.692
 3269SOL    HW240302   0.547   3.966  11.552
 3270SOL     OW40303   0.560   5.745  11.622
 3270SOL    HW140304   0.574   5.768  11.714
 3270SOL    HW240305   0.548   5.829  11.578
 3271SOL     OW40306   2.440   0.225  11.620
 3271SOL    HW140307   2.442   0.222  11.716
 3271SOL    HW240308   2.411   0.314  11.600
 3272SOL     OW40309   2.423   2.033  11.605
 3272SOL    HW140310   2.423   2.080  11.688
 3272SOL    HW240311   2.412   2.102  11.539
 3273SOL     OW40312   2.336   4.038  11.538
 3273SOL    HW140313   2.375   4.000  11.459
 3273SOL    HW240314   2.378   4.124  11.545
 3274SOL     OW40315   2.392   5.761  11.591
 3274SOL    HW140316   2.417   5.841  11.638
 3274SOL    HW240317   2.334   5.791  11.521
 3275SOL     OW40318   4.296   0.217  11.612
 3275SOL    HW140319   4.303   0.213  11.708
 3275SOL    HW240320   4.267   0.306  11.594
 3276SOL     OW40321   4.263   2.020  11.597
 3276SOL    HW140322   4.273   2.033  11.692
 3276SOL    HW240323   4.251   2.108  11.562
 3277SOL     OW40324   4.275   3.885  11.602
 3277SOL    HW140325   4.293   3.918  11.690
 3277SOL    HW240326   4.246   3.963  11.554
 3278SOL     OW40327   4.262   5.750  11.613
 3278SOL    HW140328   4.284   5.780  11.701
 3278SOL    HW240329   4.254   5.831  11.562
 3279SOL     OW40330   6.118   0.174  11.635
 3279SOL    HW140331   6.139   0.205  11.724
 3279SOL    HW240332   6.117   0.254  11.582
 3280SOL     OW40333   6.142   2.046  11.626
 3280SOL    HW140334   6.147   2.057  11.721
 3280SOL    HW240335   6.139   2.135  11.592
 3281SOL     OW40336   6.150   3.907  11.616
 3281SOL    HW140337   6.149   3.931  11.709
 3281SOL    HW240338   6.128   3.987  11.570
 3282SOL     OW40339   6.133   5.745  11.619
 3282SOL    HW140340   6.141   5.768  11.711
 3282SOL    HW240341   6.129   5.829  11.573
 3283SOL     OW40342   0.111   0.997   1.222
 3283SOL    HW140343   0.054   1.058   1.268
 3283SOL    HW240344   0.195   1.003   1.269
 3284SOL     OW40345   0.103   2.826   1.268
 3284SOL    HW140346   0.052   2.906   1.280
 3284SOL    HW240347   0.194   2.853   1.282
 3285SOL     OW40348   0.125   4.712   1.245
 3285SOL    HW140349   0.062   4.770   1.288
 3285SOL    HW240350   0.204   4.719   1.298
 3286SOL     OW40351   0.133   0.157   1.250
 3286SOL    HW140352   0.090   0.102   1.316
 3286SOL    HW240353   0.209   0.194   1.295
 3287SOL     OW40354   2.026   1.020   1.256
 3287SOL    HW140355   1.953   0.994   1.312
 3287SOL    HW240356   2.104   0.984   1.300
 3288SOL     OW40357   1.991   2.839   1.278
 3288SOL    HW140358   1.924   2.772   1.287
 3288SOL    HW240359   2.071   2.797   1.307
 3289SOL     OW40360   1.991   4.759   1.268
 3289SOL    HW140361   1.914   4.738   1.320
 3289SOL    HW240362   2.064   4.717   1.313
 3290SOL     OW40363   1.985   0.127   1.235
 3290SOL    HW140364   1.919   0.116   1.303
 3290SOL    HW240365   2.065   0.149   1.283
 3291SOL     OW40366   3.876   1.047   1.272
 3291SOL    HW140367   3.803   1.001   1.314
 3291SOL    HW240368   3.954   1.005   1.306
 3292SOL     OW40369   3.869   2.898   1.249
 3292SOL    HW140370   3.786   2.883   1.294
 3292SOL    HW240371   3.927   2.828   1.281
 3293SOL     OW40372   3.851   4.724   1.248
 3293SOL    HW140373   3.777   4.724   1.310
 3293SOL    HW240374   3.928   4.716   1.303
 3294SOL     OW40375   3.848   0.095   1.241
 3294SOL    HW140376   3.764   0.114   1.282
 3294SOL    HW240377   3.909   0.081   1.313
 3295SOL     OW40378   5.724   1.059   1.274
 3295SOL    HW140379   5.644   1.026   1.314
 3295SOL    HW240380   5.794   1.004   1.310
 3296SOL     OW40381   5.719   2.942   1.236
 3296SOL    HW140382   5.643   2.899   1.276
 3296SOL    HW240383   5.794   2.893   1.269
 3297SOL     OW40384   5.729   4.763   1.269
 3297SOL    HW140385   5.650   4.734   1.316
 3297SOL    HW240386   5.800   4.713   1.308
 3298SOL     OW40387   5.729   0.109   1.228
 3298SOL    HW140388   5.644   0.108   1.271
 3298SOL    HW240389   5.788   0.146   1.294
 3299SOL     OW40390   0.488   1.242   1.275
 3299SOL    HW140391   0.466   1.263   1.184
 3299SOL    HW240392   0.409   1.265   1.324
 3300SOL     OW40393   0.478   3.065   1.259
 3300SOL    HW140394   0.466   3.095   1.169
 3300SOL    HW240395   0.401   3.099   1.306
 3301SOL     OW40396   2.368   1.269   1.258
 3301SOL    HW140397   2.334   1.280   1.169
 3301SOL    HW240398   2.290   1.271   1.314
 3302SOL     OW40399   2.335   3.037   1.264
 3302SOL    HW140400   2.301   3.064   1.178
 3302SOL    HW240401   2.257   3.030   1.319
 3303SOL     OW40402   2.362   4.965   1.207
 3303SOL    HW140403   2.329   4.954   1.118
 3303SOL    HW240404   2.285   4.962   1.263
 3304SOL     OW40405   4.198   1.282   1.266
 3304SOL    HW140406   4.182   1.273   1.172
 3304SOL    HW240407   4.112   1.276   1.307
 3305SOL     OW40408   4.204   3.126   1.274
 3305SOL    HW140409   4.179   3.133   1.182
 3305SOL    HW240410   4.121   3.117   1.321
 3306SOL     OW40411   4.189   4.955   1.283
 3306SOL    HW140412   4.146   4.983   1.202
 3306SOL    HW240413   4.160   4.864   1.296
 3307SOL     OW40414   6.049   1.207   1.308
 3307SOL    HW140415   6.050   1.238   1.217
 3307SOL    HW240416   5.965   1.239   1.343
 3308SOL     OW40417   6.102   3.104   1.241
 3308SOL    HW140418   6.070   3.136   1.157
 3308SOL    HW240419   6.035   3.043   1.271
 3309SOL     OW40420   6.056   5.008   1.278
 3309SOL    HW140421   6.035   5.011   1.185
 3309SOL    HW240422   5.970   4.998   1.321
 3310SOL     OW40423   1.617   0.162  11.597
 3310SOL    HW140424   1.561   0.189  11.670
 3310SOL    HW240425   1.626   0.240  11.543
 3311SOL     OW40426   1.590   2.058  11.598
 3311SOL    HW140427   1.538   2.086  11.674
 3311SOL    HW240428   1.589   2.133  11.540
 3312SOL     OW40429   1.585   3.903  11.596
 3312SOL    HW140430   1.537   3.936  11.672
 3312SOL    HW240431   1.584   3.975  11.533
 3313SOL     OW40432   1.597   5.785  11.593
 3313SOL    HW140433   1.539   5.812  11.664
 3313SOL    HW240434   1.597   5.859  11.533
 3314SOL     OW40435   3.473   0.201  11.584
 3314SOL    HW140436   3.418   0.217  11.661
 3314SOL    HW240437   3.474   0.285  11.537
 3315SOL     OW40438   3.459   2.044  11.583
 3315SOL    HW140439   3.408   2.082  11.654
 3315SOL    HW240440   3.463   2.113  11.517
 3316SOL     OW40441   3.329   3.947  11.439
 3316SOL    HW140442   3.237   3.926  11.451
 3316SOL    HW240443   3.329   4.032  11.395
 3317SOL     OW40444   3.443   5.760  11.593
 3317SOL    HW140445   3.395   5.791  11.670
 3317SOL    HW240446   3.458   5.838  11.541
 3318SOL     OW40447   5.339   0.192  11.586
 3318SOL    HW140448   5.275   0.206  11.656
 3318SOL    HW240449   5.352   0.279  11.548
 3319SOL     OW40450   5.317   2.041  11.595
 3319SOL    HW140451   5.269   2.072  11.671
 3319SOL    HW240452   5.311   2.113  11.532
 3320SOL     OW40453   5.327   3.921  11.610
 3320SOL    HW140454   5.273   3.941  11.686
 3320SOL    HW240455   5.336   4.004  11.564
 3321SOL     OW40456   5.321   5.775  11.602
 3321SOL    HW140457   5.269   5.795  11.679
 3321SOL    HW240458   5.314   5.853  11.547
 3322SOL     OW40459   1.502   0.224   1.286
 3322SOL    HW140460   1.588   0.218   1.328
 3322SOL    HW240461   1.450   0.155   1.328
 3323SOL     OW40462   1.520   2.048   1.250
 3323SOL    HW140463   1.557   2.030   1.336
 3323SOL    HW240464   1.441   1.993   1.245
 3324SOL     OW40465   1.467   3.946   1.202
 3324SOL    HW140466   1.485   3.950   1.296
 3324SOL    HW240467   1.396   3.883   1.193
 3325SOL     OW40468   1.495   5.784   1.268
 3325SOL    HW140469   1.510   5.761   1.360
 3325SOL    HW240470   1.413   5.739   1.246
 3326SOL     OW40471   3.358   0.226   1.281
 3326SOL    HW140472   3.447   0.218   1.314
 3326SOL    HW240473   3.309   0.158   1.327
 3327SOL     OW40474   3.391   2.079   1.255
 3327SOL    HW140475   3.399   2.099   1.348
 3327SOL    HW240476   3.325   2.009   1.251
 3328SOL     OW40477   3.460   3.929   1.282
 3328SOL    HW140478   3.496   3.879   1.356
 3328SOL    HW240479   3.372   3.894   1.271
 3329SOL     OW40480   3.393   5.802   1.247
 3329SOL    HW140481   3.408   5.819   1.340
 3329SOL    HW240482   3.345   5.719   1.245
 3330SOL     OW40483   5.207   0.236   1.257
 3330SOL    HW140484   5.247   0.245   1.343
 3330SOL    HW240485   5.127   0.187   1.273
 3331SOL     OW40486   5.244   2.085   1.267
 3331SOL    HW140487   5.241   2.118   1.357
 3331SOL    HW240488   5.199   2.001   1.271
 3332SOL     OW40489   5.243   3.925   1.231
 3332SOL    HW140490   5.279   3.927   1.320
 3332SOL    HW240491   5.172   3.861   1.235
 3333SOL     OW40492   5.247   5.783   1.231
 3333SOL    HW140493   5.229   5.811   1.321
 3333SOL    HW240494   5.211   5.694   1.226
 3334SOL     OW40495   1.801   1.078  11.596
 3334SOL    HW140496   1.753   1.125  11.529
 3334SOL    HW240497   1.739   1.069  11.669
 3335SOL     OW40498   1.823   2.904  11.566
 3335SOL    HW140499   1.775   2.868  11.491
 3335SOL    HW240500   1.758   2.909  11.636
 3336SOL     OW40501   1.811   4.787  11.593
 3336SOL    HW140502   1.757   4.755  11.520
 3336SOL    HW240503   1.752   4.786  11.668
 3337SOL     OW40504   3.670   1.095  11.609
 3337SOL    HW140505   3.629   1.133  11.530
 3337SOL    HW240506   3.597   1.083  11.670
 3338SOL     OW40507   3.671   2.958  11.559
 3338SOL    HW140508   3.685   2.875  11.512
 3338SOL    HW240509   3.614   2.934  11.632
 3339SOL     OW40510   3.673   4.746  11.626
 3339SOL    HW140511   3.635   4.731  11.539
 3339SOL    HW240512   3.598   4.767  11.681
 3340SOL     OW40513   5.537   1.049  11.610
 3340SOL    HW140514   5.481   1.023  11.537
 3340SOL    HW240515   5.479   1.052  11.686
 3341SOL     OW40516   5.527   2.939  11.607
 3341SOL    HW140517   5.482   2.888  11.540
 3341SOL    HW240518   5.469   2.935  11.683
 3342SOL     OW40519   5.545   4.764  11.602
 3342SOL    HW140520   5.501   4.817  11.534
 3342SOL    HW240521   5.483   4.764  11.675
 3343SOL     OW40522   0.505   0.087   1.237
 3343SOL    HW140523   0.463   0.059   1.156
 3343SOL    HW240524   0.450   0.158   1.270
 3344SOL     OW40525   0.494   1.889   1.300
 3344SOL    HW140526   0.468   1.866   1.211
 3344SOL    HW240527   0.447   1.969   1.320
 3345SOL     OW40528   0.513   3.768   1.266
 3345SOL    HW140529   0.464   3.718   1.201
 3345SOL    HW240530   0.455   3.841   1.287
 3346SOL     OW40531   0.530   5.624   1.250
 3346SOL    HW140532   0.481   5.567   1.190
 3346SOL    HW240533   0.466   5.691   1.277
 3347SOL     OW40534   2.292   0.056   1.216
 3347SOL    HW140535   2.378   0.075   1.178
 3347SOL    HW240536   2.280   0.122   1.284
 3348SOL     OW40537   2.370   1.883   1.291
 3348SOL    HW140538   2.321   1.830   1.229
 3348SOL    HW240539   2.308   1.951   1.318
 3349SOL     OW40540   2.341   3.779   1.374
 3349SOL    HW140541   2.323   3.704   1.318
 3349SOL    HW240542   2.291   3.851   1.334
 3350SOL     OW40543   2.380   5.600   1.273
 3350SOL    HW140544   2.314   5.556   1.219
 3350SOL    HW240545   2.339   5.683   1.298
 3351SOL     OW40546   4.223   0.068   1.235
 3351SOL    HW140547   4.226   0.084   1.140
 3351SOL    HW240548   4.172   0.141   1.270
 3352SOL     OW40549   4.199   1.858   1.264
 3352SOL    HW140550   4.145   1.814   1.198
 3352SOL    HW240551   4.150   1.936   1.287
 3353SOL     OW40552   4.231   3.746   1.273
 3353SOL    HW140553   4.181   3.695   1.209
 3353SOL    HW240554   4.177   3.823   1.290
 3354SOL     OW40555   4.241   5.612   1.271
 3354SOL    HW140556   4.183   5.561   1.214
 3354SOL    HW240557   4.189   5.690   1.294
 3355SOL     OW40558   6.117   0.083   1.290
 3355SOL    HW140559   6.064   0.004   1.281
 3355SOL    HW240560   6.058   0.149   1.324
 3356SOL     OW40561   6.088   1.898   1.288
 3356SOL    HW140562   6.039   1.848   1.223
 3356SOL    HW240563   6.039   1.980   1.299
 3357SOL     OW40564   6.089   3.731   1.285
 3357SOL    HW140565   6.048   3.689   1.209
 3357SOL    HW240566   6.030   3.803   1.308
 3358SOL     OW40567   6.125   5.642   1.241
 3358SOL    HW140568   6.062   5.583   1.201
 3358SOL    HW240569   6.072   5.706   1.288
 3359SOL     OW40570   1.463   1.138  11.576
 3359SOL    HW140571   1.395   1.081  11.540
 3359SOL    HW240572   1.522   1.155  11.502
 3360SOL     OW40573   1.398   3.055  11.551
 3360SOL    HW140574   1.452   2.999  11.607
 3360SOL    HW240575   1.409   3.019  11.463
 3361SOL     OW40576   1.466   4.875  11.577
 3361SOL    HW140577   1.393   4.815  11.562
 3361SOL    HW240578   1.508   4.885  11.492
 3362SOL     OW40579   3.299   1.139  11.584
 3362SOL    HW140580   3.227   1.077  11.598
 3362SOL    HW240581   3.307   1.145  11.488
 3363SOL     OW40582   3.277   2.963  11.604
 3363SOL    HW140583   3.251   2.871  11.605
 3363SOL    HW240584   3.230   3.001  11.530
 3364SOL     OW40585   3.291   4.881  11.582
 3364SOL    HW140586   3.226   4.844  11.523
 3364SOL    HW240587   3.367   4.900  11.526
 3365SOL     OW40588   5.188   1.147  11.572
 3365SOL    HW140589   5.128   1.074  11.560
 3365SOL    HW240590   5.245   1.144  11.496
 3366SOL     OW40591   5.152   2.993  11.590
 3366SOL    HW140592   5.108   2.912  11.616
 3366SOL    HW240593   5.151   2.992  11.495
 3367SOL     OW40594   5.190   4.862  11.592
 3367SOL    HW140595   5.124   4.793  11.585
 3367SOL    HW240596   5.235   4.861  11.508
 3368SOL     OW40597   0.319   1.554   1.265
 3368SOL    HW140598   0.267   1.622   1.308
 3368SOL    HW240599   0.290   1.472   1.306
 3369SOL     OW40600   0.345   3.402   1.262
 3369SOL    HW140601   0.282   3.460   1.305
 3369SOL    HW240602   0.312   3.314   1.279
 3370SOL     OW40603   0.298   5.239   1.189
 3370SOL    HW140604   0.264   5.309   1.246
 3370SOL    HW240605   0.256   5.159   1.221
 3371SOL     OW40606   2.092   1.544   1.260
 3371SOL    HW140607   2.063   1.577   1.346
 3371SOL    HW240608   2.118   1.453   1.277
 3372SOL     OW40609   2.022   3.336   1.300
 3372SOL    HW140610   1.983   3.338   1.387
 3372SOL    HW240611   2.075   3.256   1.299
 3373SOL     OW40612   2.105   5.258   1.255
 3373SOL    HW140613   2.079   5.299   1.338
 3373SOL    HW240614   2.119   5.166   1.277
 3374SOL     OW40615   3.956   1.551   1.246
 3374SOL    HW140616   3.931   1.616   1.311
 3374SOL    HW240617   3.959   1.469   1.295
 3375SOL     OW40618   4.002   3.394   1.270
 3375SOL    HW140619   4.054   3.425   1.344
 3375SOL    HW240620   3.997   3.299   1.282
 3376SOL     OW40621   3.972   5.275   1.273
 3376SOL    HW140622   3.927   5.347   1.319
 3376SOL    HW240623   4.027   5.235   1.340
 3377SOL     OW40624   5.824   1.531   1.244
 3377SOL    HW140625   5.808   1.604   1.304
 3377SOL    HW240626   5.837   1.455   1.301
 3378SOL     OW40627   5.820   3.480   1.265
 3378SOL    HW140628   5.851   3.499   1.354
 3378SOL    HW240629   5.817   3.384   1.261
 3379SOL     OW40630   5.837   5.258   1.253
 3379SOL    HW140631   5.799   5.331   1.303
 3379SOL    HW240632   5.836   5.184   1.313
 3380SOL     OW40633   0.564   0.509  11.579
 3380SOL    HW140634   0.578   0.569  11.506
 3380SOL    HW240635   0.622   0.542  11.648
 3381SOL     OW40636   0.548   2.369  11.581
 3381SOL    HW140637   0.568   2.419  11.502
 3381SOL    HW240638   0.615   2.397  11.644
 3382SOL     OW40639   0.564   4.241  11.565
 3382SOL    HW140640   0.590   4.271  11.478
 3382SOL    HW240641   0.637   4.267  11.622
 3383SOL     OW40642   0.576   6.032  11.572
 3383SOL    HW140643   0.586   6.067  11.483
 3383SOL    HW240644   0.630   6.090  11.626
 3384SOL     OW40645   2.399   0.491  11.562
 3384SOL    HW140646   2.408   0.505  11.468
 3384SOL    HW240647   2.469   0.543  11.602
 3385SOL     OW40648   2.428   2.366  11.571
 3385SOL    HW140649   2.429   2.427  11.497
 3385SOL    HW240650   2.489   2.404  11.635
 3386SOL     OW40651   2.446   4.278  11.580
 3386SOL    HW140652   2.451   4.327  11.498
 3386SOL    HW240653   2.526   4.304  11.627
 3387SOL     OW40654   2.423   6.098  11.622
 3387SOL    HW140655   2.428   6.121  11.529
 3387SOL    HW240656   2.492   6.151  11.663
 3388SOL     OW40657   4.248   0.486  11.564
 3388SOL    HW140658   4.255   0.478  11.469
 3388SOL    HW240659   4.327   0.533  11.590
 3389SOL     OW40660   4.287   2.373  11.559
 3389SOL    HW140661   4.293   2.445  11.495
 3389SOL    HW240662   4.349   2.397  11.627
 3390SOL     OW40663   4.269   4.286  11.588
 3390SOL    HW140664   4.277   4.352  11.520
 3390SOL    HW240665   4.342   4.302  11.647
 3391SOL     OW40666   4.289   6.068  11.594
 3391SOL    HW140667   4.300   6.134  11.526
 3391SOL    HW240668   4.351   6.093  11.663
 3392SOL     OW40669   6.159   0.493  11.582
 3392SOL    HW140670   6.173   0.516  11.490
 3392SOL    HW240671   6.208   0.560  11.631
 3393SOL     OW40672   6.155   2.333  11.556
 3393SOL    HW140673   6.193   2.347  11.470
 3393SOL    HW240674   6.202   2.393  11.614
 3394SOL     OW40675   6.185   4.233  11.535
 3394SOL    HW140676   6.186   4.297  11.463
 3394SOL    HW240677   6.219   4.281  11.610
 3395SOL     OW40678   6.164   6.079  11.523
 3395SOL    HW140679   6.135   6.143  11.458
 3395SOL    HW240680   6.217   6.130  11.585
 3396SOL     OW40681   0.910   0.991  11.547
 3396SOL    HW140682   0.946   0.912  11.588
 3396SOL    HW240683   0.865   1.037  11.618
 3397SOL     OW40684   0.912   2.835  11.608
 3397SOL    HW140685   0.961   2.755  11.630
 3397SOL    HW240686   0.858   2.851  11.685
 3398SOL     OW40687   0.894   4.702  11.571
 3398SOL    HW140688   0.952   4.634  11.605
 3398SOL    HW240689   0.857   4.744  11.648
 3399SOL     OW40690   2.763   0.961  11.610
 3399SOL    HW140691   2.826   0.900  11.648
 3399SOL    HW240692   2.727   1.008  11.685
 3400SOL     OW40693   2.707   2.768  11.623
 3400SOL    HW140694   2.799   2.743  11.638
 3400SOL    HW240695   2.683   2.818  11.701
 3401SOL     OW40696   2.778   4.738  11.594
 3401SOL    HW140697   2.837   4.672  11.630
 3401SOL    HW240698   2.732   4.772  11.670
 3402SOL     OW40699   4.611   0.976  11.568
 3402SOL    HW140700   4.667   0.909  11.607
 3402SOL    HW240701   4.561   1.012  11.642
 3403SOL     OW40702   4.629   2.844  11.580
 3403SOL    HW140703   4.683   2.773  11.614
 3403SOL    HW240704   4.580   2.875  11.656
 3404SOL     OW40705   4.624   4.696  11.570
 3404SOL    HW140706   4.677   4.636  11.622
 3404SOL    HW240707   4.573   4.745  11.634
 3405SOL     OW40708   0.781   0.295   1.291
 3405SOL    HW140709   0.860   0.241   1.296
 3405SOL    HW240710   0.725   0.261   1.362
 3406SOL     OW40711   0.809   2.179   1.287
 3406SOL    HW140712   0.875   2.113   1.267
 3406SOL    HW240713   0.745   2.134   1.341
 3407SOL     OW40714   0.807   4.031   1.261
 3407SOL    HW140715   0.886   3.976   1.260
 3407SOL    HW240716   0.749   3.987   1.323
 3408SOL     OW40717   0.781   5.827   1.247
 3408SOL    HW140718   0.866   5.786   1.263
 3408SOL    HW240719   0.719   5.770   1.292
 3409SOL     OW40720   2.667   0.214   1.284
 3409SOL    HW140721   2.752   0.173   1.268
 3409SOL    HW240722   2.686   0.287   1.343
 3410SOL     OW40723   2.662   2.157   1.247
 3410SOL    HW140724   2.746   2.111   1.247
 3410SOL    HW240725   2.617   2.125   1.325
 3411SOL     OW40726   2.870   4.037   1.260
 3411SOL    HW140727   2.915   3.980   1.323
 3411SOL    HW240728   2.905   4.124   1.278
 3412SOL     OW40729   2.629   5.848   1.260
 3412SOL    HW140730   2.714   5.807   1.274
 3412SOL    HW240731   2.580   5.829   1.341
 3413SOL     OW40732   4.520   0.287   1.277
 3413SOL    HW140733   4.589   0.222   1.261
 3413SOL    HW240734   4.515   0.293   1.373
 3414SOL     OW40735   4.498   2.124   1.262
 3414SOL    HW140736   4.584   2.085   1.274
 3414SOL    HW240737   4.445   2.090   1.333
 3415SOL     OW40738   4.491   3.978   1.257
 3415SOL    HW140739   4.569   3.922   1.254
 3415SOL    HW240740   4.484   4.004   1.349
 3416SOL     OW40741   4.501   5.861   1.287
 3416SOL    HW140742   4.585   5.816   1.280
 3416SOL    HW240743   4.458   5.820   1.362
 3417SOL     OW40744   0.365   1.821  11.529
 3417SOL    HW140745   0.411   1.739  11.551
 3417SOL    HW240746   0.424   1.890  11.560
 3418SOL     OW40747   0.376   3.679  11.575
 3418SOL    HW140748   0.417   3.594  11.586
 3418SOL    HW240749   0.446   3.742  11.592
 3419SOL     OW40750   0.370   5.543  11.571
 3419SOL    HW140751   0.420   5.462  11.584
 3419SOL    HW240752   0.433   5.613  11.588
 3420SOL     OW40753   2.225   1.814  11.600
 3420SOL    HW140754   2.271   1.730  11.603
 3420SOL    HW240755   2.295   1.880  11.607
 3421SOL     OW40756   2.151   3.634  11.445
 3421SOL    HW140757   2.192   3.556  11.483
 3421SOL    HW240758   2.198   3.649  11.363
 3422SOL     OW40759   2.204   5.530  11.625
 3422SOL    HW140760   2.252   5.449  11.606
 3422SOL    HW240761   2.265   5.600  11.604
 3423SOL     OW40762   4.072   1.810  11.611
 3423SOL    HW140763   4.127   1.735  11.591
 3423SOL    HW240764   4.128   1.886  11.594
 3424SOL     OW40765   4.092   3.674  11.561
 3424SOL    HW140766   4.141   3.594  11.576
 3424SOL    HW240767   4.156   3.744  11.575
 3425SOL     OW40768   4.077   5.533  11.633
 3425SOL    HW140769   4.137   5.462  11.610
 3425SOL    HW240770   4.128   5.613  11.616
 3426SOL     OW40771   5.943   1.833  11.576
 3426SOL    HW140772   5.994   1.752  11.586
 3426SOL    HW240773   6.005   1.903  11.598
 3427SOL     OW40774   5.964   3.676  11.545
 3427SOL    HW140775   6.010   3.592  11.552
 3427SOL    HW240776   6.029   3.742  11.568
 3428SOL     OW40777   5.932   5.535  11.650
 3428SOL    HW140778   5.984   5.458  11.626
 3428SOL    HW240779   5.988   5.609  11.631
 3429SOL     OW40780   1.868   1.535  11.560
 3429SOL    HW140781   1.786   1.514  11.516
 3429SOL    HW240782   1.895   1.453  11.602
 3430SOL     OW40783   1.839   3.403  11.567
 3430SOL    HW140784   1.766   3.391  11.506
 3430SOL    HW240785   1.812   3.356  11.646
 3431SOL     OW40786   1.834   5.269  11.534
 3431SOL    HW140787   1.751   5.267  11.487
 3431SOL    HW240788   1.816   5.223  11.616
 3432SOL     OW40789   3.714   1.538  11.532
 3432SOL    HW140790   3.629   1.527  11.490
 3432SOL    HW240791   3.724   1.460  11.588
 3433SOL     OW40792   3.746   3.401  11.546
 3433SOL    HW140793   3.775   3.334  11.484
 3433SOL    HW240794   3.691   3.354  11.608
 3434SOL     OW40795   3.750   5.242  11.582
 3434SOL    HW140796   3.745   5.169  11.519
 3434SOL    HW240797   3.695   5.214  11.655
 3435SOL     OW40798   5.595   1.544  11.551
 3435SOL    HW140799   5.515   1.541  11.499
 3435SOL    HW240800   5.575   1.493  11.630
 3436SOL     OW40801   5.606   3.432  11.532
 3436SOL    HW140802   5.538   3.463  11.473
 3436SOL    HW240803   5.560   3.377  11.595
 3437SOL     OW40804   5.591   5.255  11.537
 3437SOL    HW140805   5.507   5.244  11.494
 3437SOL    HW240806   5.583   5.206  11.619
 3438SOL     OW40807   1.096   1.351  11.564
 3438SOL    HW140808   1.106   1.280  11.500
 3438SOL    HW240809   1.160   1.417  11.536
 3439SOL     OW40810   1.093   3.216  11.588
 3439SOL    HW140811   1.109   3.139  11.532
 3439SOL    HW240812   1.146   3.285  11.549
 3440SOL     OW40813   1.104   5.065  11.564
 3440SOL    HW140814   1.108   4.992  11.503
 3440SOL    HW240815   1.164   5.130  11.528
 3441SOL     OW40816   2.968   1.340  11.568
 3441SOL    HW140817   2.966   1.266  11.506
 3441SOL    HW240818   3.015   1.408  11.520
 3442SOL     OW40819   3.141   3.117  11.425
 3442SOL    HW140820   3.141   3.089  11.334
 3442SOL    HW240821   3.143   3.213  11.422
 3443SOL     OW40822   2.958   5.072  11.561
 3443SOL    HW140823   2.977   4.998  11.504
 3443SOL    HW240824   3.014   5.142  11.529
 3444SOL     OW40825   4.819   1.354  11.571
 3444SOL    HW140826   4.824   1.278  11.513
 3444SOL    HW240827   4.880   1.417  11.533
 3445SOL     OW40828   4.806   3.203  11.568
 3445SOL    HW140829   4.818   3.128  11.510
 3445SOL    HW240830   4.864   3.271  11.533
 3446SOL     OW40831   4.826   5.053  11.569
 3446SOL    HW140832   4.841   4.981  11.507
 3446SOL    HW240833   4.883   5.123  11.538
 3447SOL     OW40834   0.270   1.383  11.490
 3447SOL    HW140835   0.217   1.319  11.443
 3447SOL    HW240836   0.239   1.468  11.460
 3448SOL     OW40837   0.220   3.201  11.549
 3448SOL    HW140838   0.223   3.107  11.566
 3448SOL    HW240839   0.200   3.207  11.455
 3449SOL     OW40840   0.267   5.048  11.525
 3449SOL    HW140841   0.191   4.999  11.496
 3449SOL    HW240842   0.274   5.121  11.464
 3450SOL     OW40843   1.014   0.129   1.265
 3450SOL    HW140844   1.064   0.211   1.264
 3450SOL    HW240845   1.048   0.080   1.190
 3451SOL     OW40846   1.017   1.990   1.267
 3451SOL    HW140847   1.068   2.070   1.252
 3451SOL    HW240848   1.079   1.919   1.252
 3452SOL     OW40849   1.037   3.880   1.298
 3452SOL    HW140850   1.095   3.949   1.266
 3452SOL    HW240851   1.074   3.799   1.263
 3453SOL     OW40852   1.024   5.710   1.281
 3453SOL    HW140853   1.078   5.788   1.274
 3453SOL    HW240854   1.083   5.637   1.261
 3454SOL     OW40855   2.906   0.091   1.246
 3454SOL    HW140856   2.961   0.167   1.229
 3454SOL    HW240857   2.928   0.029   1.176
 3455SOL     OW40858   2.888   2.000   1.274
 3455SOL    HW140859   2.944   2.076   1.259
 3455SOL    HW240860   2.946   1.924   1.267
 3456SOL     OW40861   3.025   3.904   1.428
 3456SOL    HW140862   3.097   3.890   1.366
 3456SOL    HW240863   3.017   3.821   1.475
 3457SOL     OW40864   2.878   5.726   1.301
 3457SOL    HW140865   2.935   5.799   1.276
 3457SOL    HW240866   2.923   5.648   1.268
 3458SOL     OW40867   4.740   0.118   1.234
 3458SOL    HW140868   4.793   0.198   1.237
 3458SOL    HW240869   4.756   0.081   1.147
 3459SOL     OW40870   4.742   2.011   1.308
 3459SOL    HW140871   4.797   2.083   1.278
 3459SOL    HW240872   4.787   1.932   1.277
 3460SOL     OW40873   4.741   3.857   1.297
 3460SOL    HW140874   4.802   3.927   1.272
 3460SOL    HW240875   4.785   3.776   1.272
 3461SOL     OW40876   4.734   5.725   1.273
 3461SOL    HW140877   4.798   5.796   1.259
 3461SOL    HW240878   4.784   5.645   1.257
 3462SOL     OW40879   0.355   0.293   1.336
 3462SOL    HW140880   0.405   0.329   1.410
 3462SOL    HW240881   0.309   0.369   1.300
 3463SOL     OW40882   0.347   2.097   1.394
 3463SOL    HW140883   0.387   2.176   1.431
 3463SOL    HW240884   0.253   2.114   1.398
 3464SOL     OW40885   0.367   3.976   1.379
 3464SOL    HW140886   0.406   4.061   1.397
 3464SOL    HW240887   0.274   3.994   1.368
 3465SOL     OW40888   0.326   5.829   1.282
 3465SOL    HW140889   0.366   5.909   1.314
 3465SOL    HW240890   0.234   5.836   1.307
 3466SOL     OW40891   2.194   0.262   1.379
 3466SOL    HW140892   2.254   0.334   1.396
 3466SOL    HW240893   2.117   0.281   1.432
 3467SOL     OW40894   2.197   2.078   1.367
 3467SOL    HW140895   2.254   2.155   1.362
 3467SOL    HW240896   2.108   2.114   1.371
 3468SOL     OW40897   2.237   4.070   1.376
 3468SOL    HW140898   2.268   4.082   1.465
 3468SOL    HW240899   2.169   4.136   1.365
 3469SOL     OW40900   2.233   5.817   1.350
 3469SOL    HW140901   2.268   5.893   1.398
 3469SOL    HW240902   2.139   5.837   1.342
 3470SOL     OW40903   4.099   0.293   1.326
 3470SOL    HW140904   4.104   0.388   1.313
 3470SOL    HW240905   4.012   0.278   1.362
 3471SOL     OW40906   4.066   2.082   1.334
 3471SOL    HW140907   4.124   2.144   1.381
 3471SOL    HW240908   4.010   2.138   1.281
 3472SOL     OW40909   4.075   3.956   1.349
 3472SOL    HW140910   4.128   3.991   1.421
 3472SOL    HW240911   3.985   3.980   1.371
 3473SOL     OW40912   4.104   5.834   1.367
 3473SOL    HW140913   4.174   5.894   1.393
 3473SOL    HW240914   4.034   5.891   1.334
 3474SOL     OW40915   5.941   0.265   1.391
 3474SOL    HW140916   5.994   0.338   1.423
 3474SOL    HW240917   5.851   0.293   1.407
 3475SOL     OW40918   5.959   2.134   1.326
 3475SOL    HW140919   6.028   2.201   1.329
 3475SOL    HW240920   5.878   2.184   1.312
 3476SOL     OW40921   5.942   3.948   1.343
 3476SOL    HW140922   5.995   4.006   1.397
 3476SOL    HW240923   5.851   3.972   1.364
 3477SOL     OW40924   5.956   5.828   1.364
 3477SOL    HW140925   5.990   5.913   1.392
 3477SOL    HW240926   5.864   5.845   1.344
 3478SOL     OW40927   0.752   1.151   1.326
 3478SOL    HW140928   0.793   1.224   1.373
 3478SOL    HW240929   0.663   1.182   1.309
 3479SOL     OW40930   0.756   3.023   1.319
 3479SOL    HW140931   0.780   3.108   1.356
 3479SOL    HW240932   0.664   3.034   1.295
 3480SOL     OW40933   0.761   4.900   1.352
 3480SOL    HW140934   0.805   4.966   1.404
 3480SOL    HW240935   0.712   4.949   1.286
 3481SOL     OW40936   2.598   1.156   1.366
 3481SOL    HW140937   2.646   1.232   1.398
 3481SOL    HW240938   2.522   1.192   1.321
 3482SOL     OW40939   2.601   2.992   1.339
 3482SOL    HW140940   2.606   3.085   1.361
 3482SOL    HW240941   2.518   2.983   1.293
 3483SOL     OW40942   2.606   4.878   1.334
 3483SOL    HW140943   2.633   4.961   1.374
 3483SOL    HW240944   2.529   4.900   1.283
 3484SOL     OW40945   4.477   1.173   1.329
 3484SOL    HW140946   4.517   1.247   1.375
 3484SOL    HW240947   4.400   1.211   1.286
 3485SOL     OW40948   4.449   3.018   1.349
 3485SOL    HW140949   4.481   3.104   1.378
 3485SOL    HW240950   4.364   3.037   1.309
 3486SOL     OW40951   4.459   4.900   1.340
 3486SOL    HW140952   4.494   4.985   1.366
 3486SOL    HW240953   4.375   4.921   1.298
 3487SOL     OW40954   6.374   1.170   1.336
 3487SOL    HW140955   6.359   1.256   1.297
 3487SOL    HW240956   6.288   1.129   1.340
 3488SOL     OW40957   6.364   3.020   1.350
 3488SOL    HW140958   6.369   3.113   1.329
 3488SOL    HW240959   6.282   2.990   1.310
 3489SOL     OW40960   6.337   4.841   1.344
 3489SOL    HW140961   6.375   4.905   1.404
 3489SOL    HW240962   6.287   4.894   1.281
 3490SOL     OW40963   0.373   0.961   1.302
 3490SOL    HW140964   0.441   1.029   1.299
 3490SOL    HW240965   0.417   0.882   1.270
 3491SOL     OW40966   0.380   2.819   1.337
 3491SOL    HW140967   0.426   2.897   1.306
 3491SOL    HW240968   0.412   2.749   1.281
 3492SOL     OW40969   0.385   4.664   1.337
 3492SOL    HW140970   0.461   4.676   1.394
 3492SOL    HW240971   0.415   4.600   1.273
 3493SOL     OW40972   2.260   0.913   1.331
 3493SOL    HW140973   2.336   0.937   1.385
 3493SOL    HW240974   2.293   0.844   1.273
 3494SOL     OW40975   2.226   2.738   1.363
 3494SOL    HW140976   2.306   2.770   1.404
 3494SOL    HW240977   2.256   2.682   1.292
 3495SOL     OW40978   2.220   4.663   1.381
 3495SOL    HW140979   2.303   4.662   1.429
 3495SOL    HW240980   2.238   4.616   1.300
 3496SOL     OW40981   4.111   0.941   1.356
 3496SOL    HW140982   4.192   0.946   1.407
 3496SOL    HW240983   4.129   0.876   1.289
 3497SOL     OW40984   4.128   4.688   1.324
 3497SOL    HW140985   4.200   4.683   1.386
 3497SOL    HW240986   4.141   4.612   1.267
 3498SOL     OW40987   5.958   0.941   1.359
 3498SOL    HW140988   6.010   1.018   1.337
 3498SOL    HW240989   5.985   0.875   1.296
 3499SOL     OW40990   5.931   2.802   1.319
 3499SOL    HW140991   5.912   2.748   1.396
 3499SOL    HW240992   5.966   2.740   1.255
 3500SOL     OW40993   5.951   4.626   1.361
 3500SOL    HW140994   6.031   4.652   1.406
 3500SOL    HW240995   5.979   4.560   1.298
 3501SOL     OW40996   1.274   1.571  11.526
 3501SOL    HW140997   1.210   1.638  11.503
 3501SOL    HW240998   1.303   1.594  11.615
 3502SOL     OW40999   1.233   3.448  11.532
 3502SOL    HW141000   1.261   3.517  11.472
 3502SOL    HW241001   1.315   3.414  11.569
 3503SOL     OW41002   1.270   5.300  11.513
 3503SOL    HW141003   1.192   5.350  11.489
 3503SOL    HW241004   1.284   5.321  11.605
 3504SOL     OW41005   3.124   1.554  11.460
 3504SOL    HW141006   3.116   1.638  11.416
 3504SOL    HW241007   3.128   1.575  11.553
 3505SOL     OW41008   3.175   3.391  11.454
 3505SOL    HW141009   3.212   3.472  11.419
 3505SOL    HW241010   3.240   3.360  11.517
 3506SOL     OW41011   3.091   5.313  11.507
 3506SOL    HW141012   3.097   5.388  11.448
 3506SOL    HW241013   3.110   5.349  11.594
 3507SOL     OW41014   4.978   1.573  11.494
 3507SOL    HW141015   4.982   1.646  11.432
 3507SOL    HW241016   4.986   1.613  11.580
 3508SOL     OW41017   4.962   3.405  11.475
 3508SOL    HW141018   4.967   3.486  11.424
 3508SOL    HW241019   5.047   3.398  11.517
 3509SOL     OW41020   4.957   5.283  11.494
 3509SOL    HW141021   4.884   5.339  11.468
 3509SOL    HW241022   4.988   5.321  11.576
 3510SOL     OW41023   0.026   0.851  11.570
 3510SOL    HW141024   0.069   0.766  11.568
 3510SOL    HW241025   0.099   0.914  11.569
 3511SOL     OW41026   0.111   2.687  11.455
 3511SOL    HW141027   0.181   2.675  11.519
 3511SOL    HW241028   0.045   2.738  11.500
 3512SOL     OW41029   0.090   4.575  11.479
 3512SOL    HW141030   0.086   4.487  11.518
 3512SOL    HW241031   0.147   4.625  11.537
 3513SOL     OW41032   0.116   0.027  11.569
 3513SOL    HW141033   0.198   6.427  11.577
 3513SOL    HW241034   0.094   0.021  11.476
 3514SOL     OW41035   1.913   0.828  11.527
 3514SOL    HW141036   1.998   0.827  11.571
 3514SOL    HW241037   1.878   0.915  11.544
 3515SOL     OW41038   1.992   2.711  11.447
 3515SOL    HW141039   2.057   2.680  11.510
 3515SOL    HW241040   1.940   2.775  11.496
 3516SOL     OW41041   1.972   4.583  11.483
 3516SOL    HW141042   2.046   4.561  11.539
 3516SOL    HW241043   1.920   4.643  11.536
 3517SOL     OW41044   3.742   0.831  11.555
 3517SOL    HW141045   3.835   0.816  11.569
 3517SOL    HW241046   3.730   0.925  11.569
 3518SOL     OW41047   3.827   2.722  11.573
 3518SOL    HW141048   3.903   2.671  11.600
 3518SOL    HW241049   3.859   2.811  11.567
 3519SOL     OW41050   3.825   4.523  11.509
 3519SOL    HW141051   3.912   4.527  11.548
 3519SOL    HW241052   3.777   4.596  11.548
 3520SOL     OW41053   5.692   0.862  11.465
 3520SOL    HW141054   5.769   0.829  11.512
 3520SOL    HW241055   5.649   0.920  11.527
 3521SOL     OW41056   5.687   2.728  11.464
 3521SOL    HW141057   5.767   2.686  11.496
 3521SOL    HW241058   5.682   2.811  11.511
 3522SOL     OW41059   5.700   4.550  11.494
 3522SOL    HW141060   5.779   4.555  11.548
 3522SOL    HW241061   5.642   4.617  11.529
 3523SOL     OW41062   0.891   0.748   1.338
 3523SOL    HW141063   0.924   0.808   1.405
 3523SOL    HW241064   0.903   0.795   1.256
 3524SOL     OW41065   0.875   2.616   1.327
 3524SOL    HW141066   0.842   2.685   1.384
 3524SOL    HW241067   0.911   2.662   1.251
 3525SOL     OW41068   0.881   4.487   1.366
 3525SOL    HW141069   0.854   4.542   1.439
 3525SOL    HW241070   0.907   4.548   1.298
 3526SOL     OW41071   0.869   6.363   1.365
 3526SOL    HW141072   0.921   6.439   1.338
 3526SOL    HW241073   0.862   6.309   1.286
 3527SOL     OW41074   2.728   0.746   1.366
 3527SOL    HW141075   2.746   0.797   1.445
 3527SOL    HW241076   2.763   0.799   1.294
 3528SOL     OW41077   2.751   2.607   1.360
 3528SOL    HW141078   2.736   2.683   1.416
 3528SOL    HW241079   2.778   2.644   1.276
 3529SOL     OW41080   2.771   4.501   1.348
 3529SOL    HW141081   2.764   4.570   1.414
 3529SOL    HW241082   2.787   4.548   1.266
 3530SOL     OW41083   2.737   6.330   1.352
 3530SOL    HW141084   2.670   6.397   1.369
 3530SOL    HW241085   2.802   6.375   1.298
 3531SOL     OW41086   4.598   0.730   1.353
 3531SOL    HW141087   4.540   0.783   1.408
 3531SOL    HW241088   4.624   0.789   1.282
 3532SOL     OW41089   4.589   2.606   1.345
 3532SOL    HW141090   4.532   2.661   1.400
 3532SOL    HW241091   4.615   2.664   1.274
 3533SOL     OW41092   4.592   4.442   1.346
 3533SOL    HW141093   4.582   4.497   1.423
 3533SOL    HW241094   4.617   4.503   1.276
 3534SOL     OW41095   4.618   6.372   1.382
 3534SOL    HW141096   4.638   6.406   1.469
 3534SOL    HW241097   4.654   6.438   1.322
 3535SOL     OW41098   0.031   0.762   1.377
 3535SOL    HW141099   0.074   0.809   1.449
 3535SOL    HW241100   0.048   0.816   1.300
 3536SOL     OW41101   6.421   2.625   1.382
 3536SOL    HW141102   6.343   2.673   1.409
 3536SOL    HW241103   0.024   2.689   1.334
 3537SOL     OW41104   6.412   4.501   1.371
 3537SOL    HW141105   6.371   4.552   1.441
 3537SOL    HW241106   0.018   4.564   1.326
 3538SOL     OW41107   1.669   0.535   1.388
 3538SOL    HW141108   1.653   0.617   1.342
 3538SOL    HW241109   1.696   0.474   1.320
 3539SOL     OW41110   1.662   2.389   1.350
 3539SOL    HW141111   1.654   2.463   1.289
 3539SOL    HW241112   1.716   2.326   1.304
 3540SOL     OW41113   1.664   4.278   1.370
 3540SOL    HW141114   1.663   4.368   1.337
 3540SOL    HW241115   1.692   4.225   1.295
 3541SOL     OW41116   1.728   6.177   1.338
 3541SOL    HW141117   1.687   6.236   1.275
 3541SOL    HW241118   1.734   6.093   1.292
 3542SOL     OW41119   3.510   0.552   1.328
 3542SOL    HW141120   3.519   0.633   1.277
 3542SOL    HW241121   3.563   0.488   1.282
 3543SOL     OW41122   3.544   2.412   1.375
 3543SOL    HW141123   3.532   2.494   1.326
 3543SOL    HW241124   3.588   2.354   1.314
 3544SOL     OW41125   3.621   4.309   1.355
 3544SOL    HW141126   3.587   4.388   1.313
 3544SOL    HW241127   3.641   4.251   1.281
 3545SOL     OW41128   3.527   6.160   1.331
 3545SOL    HW141129   3.518   6.235   1.272
 3545SOL    HW241130   3.573   6.094   1.279
 3546SOL     OW41131   5.398   0.565   1.382
 3546SOL    HW141132   5.385   0.645   1.331
 3546SOL    HW241133   5.426   0.499   1.319
 3547SOL     OW41134   5.407   2.413   1.370
 3547SOL    HW141135   5.392   2.486   1.311
 3547SOL    HW241136   5.448   2.346   1.315
 3548SOL     OW41137   5.502   4.309   1.334
 3548SOL    HW141138   5.455   4.378   1.287
 3548SOL    HW241139   5.492   4.231   1.278
 3549SOL     OW41140   5.522   6.204   1.318
 3549SOL    HW141141   5.455   6.260   1.280
 3549SOL    HW241142   5.501   6.116   1.288
 3550SOL     OW41143   0.248   1.317   1.397
 3550SOL    HW141144   0.155   1.300   1.378
 3550SOL    HW241145   0.251   1.330   1.492
 3551SOL     OW41146   0.247   3.167   1.374
 3551SOL    HW141147   0.155   3.174   1.351
 3551SOL    HW241148   0.248   3.156   1.469
 3552SOL     OW41149   0.145   5.043   1.294
 3552SOL    HW141150   0.062   5.048   1.247
 3552SOL    HW241151   0.119   5.027   1.385
 3553SOL     OW41152   2.109   1.282   1.350
 3553SOL    HW141153   2.071   1.198   1.324
 3553SOL    HW241154   2.068   1.301   1.435
 3554SOL     OW41155   2.085   3.073   1.377
 3554SOL    HW141156   2.043   2.994   1.343
 3554SOL    HW241157   2.030   3.099   1.451
 3555SOL     OW41158   2.102   4.999   1.334
 3555SOL    HW141159   2.067   4.915   1.304
 3555SOL    HW241160   2.057   5.017   1.416
 3556SOL     OW41161   3.935   1.300   1.355
 3556SOL    HW141162   3.910   1.214   1.321
 3556SOL    HW241163   3.871   1.319   1.424
 3557SOL     OW41164   3.949   3.138   1.359
 3557SOL    HW141165   3.913   3.061   1.316
 3557SOL    HW241166   3.891   3.152   1.434
 3558SOL     OW41167   5.803   1.294   1.396
 3558SOL    HW141168   5.763   1.221   1.348
 3558SOL    HW241169   5.747   1.304   1.473
 3559SOL     OW41170   5.788   3.213   1.285
 3559SOL    HW141171   5.761   3.124   1.265
 3559SOL    HW241172   5.849   3.205   1.357
 3560SOL     OW41173   5.797   5.009   1.387
 3560SOL    HW141174   5.769   4.931   1.339
 3560SOL    HW241175   5.726   5.026   1.448
 3561SOL     OW41176   0.184   1.783   1.363
 3561SOL    HW141177   0.114   1.806   1.424
 3561SOL    HW241178   0.252   1.849   1.378
 3562SOL     OW41179   0.172   3.580   1.375
 3562SOL    HW141180   0.089   3.610   1.410
 3562SOL    HW241181   0.238   3.631   1.421
 3563SOL     OW41182   0.168   5.418   1.348
 3563SOL    HW141183   0.099   5.362   1.383
 3563SOL    HW241184   0.177   5.489   1.412
 3564SOL     OW41185   2.008   1.849   1.361
 3564SOL    HW141186   1.995   1.773   1.418
 3564SOL    HW241187   2.071   1.903   1.408
 3565SOL     OW41188   1.778   3.589   1.473
 3565SOL    HW141189   1.800   3.506   1.516
 3565SOL    HW241190   1.683   3.597   1.483
 3566SOL     OW41191   2.013   5.534   1.377
 3566SOL    HW141192   1.984   5.455   1.423
 3566SOL    HW241193   2.076   5.575   1.435
 3567SOL     OW41194   3.846   1.808   1.351
 3567SOL    HW141195   3.799   1.751   1.411
 3567SOL    HW241196   3.874   1.882   1.405
 3568SOL     OW41197   3.832   5.488   1.374
 3568SOL    HW141198   3.759   5.481   1.436
 3568SOL    HW241199   3.901   5.531   1.424
 3569SOL     OW41200   5.761   1.755   1.383
 3569SOL    HW141201   5.689   1.763   1.445
 3569SOL    HW241202   5.836   1.795   1.428
 3570SOL     OW41203   5.712   5.477   1.358
 3570SOL    HW141204   5.647   5.430   1.411
 3570SOL    HW241205   5.763   5.527   1.422
 3571SOL     OW41206   1.802   0.948   1.385
 3571SOL    HW141207   1.725   0.891   1.377
 3571SOL    HW241208   1.792   0.990   1.471
 3572SOL     OW41209   1.767   4.697   1.417
 3572SOL    HW141210   1.728   4.623   1.369
 3572SOL    HW241211   1.698   4.726   1.476
 3573SOL     OW41212   1.755   0.085   1.383
 3573SOL    HW141213   1.719   0.010   1.336
 3573SOL    HW241214   1.761   0.055   1.474
 3574SOL     OW41215   3.675   0.907   1.396
 3574SOL    HW141216   3.615   0.875   1.328
 3574SOL    HW241217   3.662   0.847   1.469
 3575SOL     OW41218   3.649   2.838   1.394
 3575SOL    HW141219   3.595   2.765   1.364
 3575SOL    HW241220   3.641   2.838   1.489
 3576SOL     OW41221   3.614   4.709   1.400
 3576SOL    HW141222   3.577   4.633   1.354
 3576SOL    HW241223   3.548   4.730   1.467
 3577SOL     OW41224   3.599   0.104   1.366
 3577SOL    HW141225   3.550   0.027   1.337
 3577SOL    HW241226   3.618   0.086   1.458
 3578SOL     OW41227   5.501   0.968   1.397
 3578SOL    HW141228   5.457   0.898   1.349
 3578SOL    HW241229   5.438   0.993   1.465
 3579SOL     OW41230   5.505   2.809   1.344
 3579SOL    HW141231   5.475   2.727   1.305
 3579SOL    HW241232   5.431   2.840   1.396
 3580SOL     OW41233   5.500   4.679   1.398
 3580SOL    HW141234   5.456   4.615   1.343
 3580SOL    HW241235   5.438   4.697   1.469
 3581SOL     OW41236   5.482   0.109   1.339
 3581SOL    HW141237   5.435   0.027   1.323
 3581SOL    HW241238   5.436   0.149   1.413
 3582SOL     OW41239   0.992   0.107  11.476
 3582SOL    HW141240   0.978   0.147  11.390
 3582SOL    HW241241   1.075   0.061  11.469
 3583SOL     OW41242   0.977   1.937  11.484
 3583SOL    HW141243   0.924   1.921  11.407
 3583SOL    HW241244   0.989   1.851  11.524
 3584SOL     OW41245   1.054   3.783  11.467
 3584SOL    HW141246   0.985   3.782  11.402
 3584SOL    HW241247   1.038   3.705  11.521
 3585SOL     OW41248   0.956   5.683  11.471
 3585SOL    HW141249   0.897   5.659  11.400
 3585SOL    HW241250   0.991   5.600  11.504
 3586SOL     OW41251   2.848   0.102  11.450
 3586SOL    HW141252   2.833   0.126  11.358
 3586SOL    HW241253   2.939   0.070  11.452
 3587SOL     OW41254   2.889   1.948  11.455
 3587SOL    HW141255   2.830   1.946  11.379
 3587SOL    HW241256   2.871   1.866  11.501
 3588SOL     OW41257   2.780   3.960  11.353
 3588SOL    HW141258   2.696   3.920  11.329
 3588SOL    HW241259   2.846   3.899  11.321
 3589SOL     OW41260   2.850   5.677  11.476
 3589SOL    HW141261   2.833   5.663  11.383
 3589SOL    HW241262   2.838   5.591  11.516
 3590SOL     OW41263   4.706   0.091  11.502
 3590SOL    HW141264   4.710   0.120  11.410
 3590SOL    HW241265   4.779   0.030  11.511
 3591SOL     OW41266   4.768   1.934  11.444
 3591SOL    HW141267   4.730   1.982  11.370
 3591SOL    HW241268   4.704   1.866  11.464
 3592SOL     OW41269   4.747   3.814  11.463
 3592SOL    HW141270   4.706   3.796  11.378
 3592SOL    HW241271   4.733   3.734  11.514
 3593SOL     OW41272   4.749   5.709  11.459
 3593SOL    HW141273   4.721   5.724  11.369
 3593SOL    HW241274   4.742   5.615  11.471
 3594SOL     OW41275   0.472   1.138  11.433
 3594SOL    HW141276   0.403   1.110  11.493
 3594SOL    HW241277   0.425   1.176  11.358
 3595SOL     OW41278   0.501   2.981  11.520
 3595SOL    HW141279   0.424   2.977  11.578
 3595SOL    HW241280   0.473   2.934  11.442
 3596SOL     OW41281   0.472   4.884  11.422
 3596SOL    HW141282   0.410   4.933  11.475
 3596SOL    HW241283   0.427   4.868  11.339
 3597SOL     OW41284   2.377   1.161  11.458
 3597SOL    HW141285   2.313   1.140  11.526
 3597SOL    HW241286   2.332   1.142  11.376
 3598SOL     OW41287   2.325   2.936  11.387
 3598SOL    HW141288   2.267   2.933  11.463
 3598SOL    HW241289   2.272   2.901  11.316
 3599SOL     OW41290   2.370   4.888  11.432
 3599SOL    HW141291   2.307   4.866  11.500
 3599SOL    HW241292   2.331   4.854  11.351
 3600SOL     OW41293   4.213   1.162  11.438
 3600SOL    HW141294   4.146   1.136  11.502
 3600SOL    HW241295   4.170   1.151  11.353
 3601SOL     OW41296   4.218   3.022  11.454
 3601SOL    HW141297   4.147   2.997  11.513
 3601SOL    HW241298   4.205   2.967  11.377
 3602SOL     OW41299   4.179   4.957  11.473
 3602SOL    HW141300   4.115   4.893  11.504
 3602SOL    HW241301   4.166   4.959  11.378
 3603SOL     OW41302   6.096   1.147  11.420
 3603SOL    HW141303   6.033   1.127  11.489
 3603SOL    HW241304   6.043   1.168  11.343
 3604SOL     OW41305   1.630   0.420  11.466
 3604SOL    HW141306   1.541   0.435  11.434
 3604SOL    HW241307   1.645   0.488  11.531
 3605SOL     OW41308   1.652   2.336  11.461
 3605SOL    HW141309   1.644   2.388  11.381
 3605SOL    HW241310   1.603   2.385  11.527
 3606SOL     OW41311   1.581   4.124  11.432
 3606SOL    HW141312   1.492   4.147  11.406
 3606SOL    HW241313   1.637   4.187  11.386
 3607SOL     OW41314   1.628   6.022  11.436
 3607SOL    HW141315   1.535   6.027  11.414
 3607SOL    HW241316   1.656   6.113  11.443
 3608SOL     OW41317   3.471   0.461  11.469
 3608SOL    HW141318   3.447   0.496  11.384
 3608SOL    HW241319   3.440   0.526  11.532
 3609SOL     OW41320   3.453   2.300  11.458
 3609SOL    HW141321   3.370   2.297  11.410
 3609SOL    HW241322   3.437   2.361  11.530
 3610SOL     OW41323   3.478   6.007  11.487
 3610SOL    HW141324   3.404   6.024  11.428
 3610SOL    HW241325   3.499   6.092  11.525
 3611SOL     OW41326   5.383   0.450  11.496
 3611SOL    HW141327   5.314   0.507  11.462
 3611SOL    HW241328   5.416   0.495  11.574
 3612SOL     OW41329   5.295   2.272  11.451
 3612SOL    HW141330   5.207   2.291  11.419
 3612SOL    HW241331   5.339   2.357  11.453
 3613SOL     OW41332   5.337   4.180  11.513
 3613SOL    HW141333   5.272   4.199  11.446
 3613SOL    HW241334   5.325   4.250  11.578
 3614SOL     OW41335   5.316   6.012  11.465
 3614SOL    HW141336   5.229   6.019  11.426
 3614SOL    HW241337   5.337   6.102  11.492
 3615SOL     OW41338   1.056   0.535   1.401
 3615SOL    HW141339   0.998   0.609   1.382
 3615SOL    HW241340   1.103   0.561   1.480
 3616SOL     OW41341   0.918   1.351   1.447
 3616SOL    HW141342   0.869   1.340   1.528
 3616SOL    HW241343   0.895   1.439   1.416
 3617SOL     OW41344   1.049   2.409   1.381
 3617SOL    HW141345   0.981   2.473   1.360
 3617SOL    HW241346   1.118   2.460   1.423
 3618SOL     OW41347   0.855   3.272   1.436
 3618SOL    HW141348   0.769   3.293   1.472
 3618SOL    HW241349   0.871   3.341   1.371
 3619SOL     OW41350   1.051   4.275   1.403
 3619SOL    HW141351   0.990   4.346   1.382
 3619SOL    HW241352   1.054   4.273   1.499
 3620SOL     OW41353   0.910   5.120   1.446
 3620SOL    HW141354   0.847   5.166   1.502
 3620SOL    HW241355   0.927   5.181   1.375
 3621SOL     OW41356   1.073   6.138   1.403
 3621SOL    HW141357   1.005   6.202   1.426
 3621SOL    HW241358   1.120   6.123   1.485
 3622SOL     OW41359   2.744   1.378   1.434
 3622SOL    HW141360   2.678   1.436   1.472
 3622SOL    HW241361   2.780   1.427   1.360
 3623SOL     OW41362   2.919   2.387   1.396
 3623SOL    HW141363   2.867   2.468   1.391
 3623SOL    HW241364   2.971   2.397   1.476
 3624SOL     OW41365   2.921   4.304   1.462
 3624SOL    HW141366   2.870   4.371   1.416
 3624SOL    HW241367   2.962   4.351   1.534
 3625SOL     OW41368   2.766   5.120   1.448
 3625SOL    HW141369   2.729   5.176   1.516
 3625SOL    HW241370   2.781   5.179   1.374
 3626SOL     OW41371   2.869   6.101   1.426
 3626SOL    HW141372   2.821   6.178   1.394
 3626SOL    HW241373   2.923   6.135   1.498
 3627SOL     OW41374   4.772   0.528   1.423
 3627SOL    HW141375   4.716   0.602   1.399
 3627SOL    HW241376   4.832   0.563   1.488
 3628SOL     OW41377   4.599   1.396   1.437
 3628SOL    HW141378   4.545   1.463   1.478
 3628SOL    HW241379   4.643   1.441   1.365
 3629SOL     OW41380   4.783   2.418   1.385
 3629SOL    HW141381   4.715   2.485   1.376
 3629SOL    HW241382   4.853   2.462   1.435
 3630SOL     OW41383   4.537   3.266   1.418
 3630SOL    HW141384   4.494   3.338   1.465
 3630SOL    HW241385   4.597   3.309   1.358
 3631SOL     OW41386   4.784   4.256   1.395
 3631SOL    HW141387   4.711   4.314   1.370
 3631SOL    HW241388   4.854   4.316   1.421
 3632SOL     OW41389   4.552   5.141   1.399
 3632SOL    HW141390   4.531   5.203   1.470
 3632SOL    HW241391   4.600   5.194   1.335
 3633SOL     OW41392   4.817   6.180   1.345
 3633SOL    HW141393   4.742   6.238   1.332
 3633SOL    HW241394   4.800   6.135   1.427
 3634SOL     OW41395   1.534   0.796  11.453
 3634SOL    HW141396   1.510   0.728  11.516
 3634SOL    HW241397   1.629   0.801  11.459
 3635SOL     OW41398   1.496   2.634  11.435
 3635SOL    HW141399   1.495   2.583  11.516
 3635SOL    HW241400   1.572   2.692  11.444
 3636SOL     OW41401   1.502   4.458  11.439
 3636SOL    HW141402   1.492   4.428  11.530
 3636SOL    HW241403   1.551   4.539  11.446
 3637SOL     OW41404   1.509   6.367  11.495
 3637SOL    HW141405   1.497   6.308  11.569
 3637SOL    HW241406   1.564   6.438  11.529
 3638SOL     OW41407   3.381   0.787  11.452
 3638SOL    HW141408   3.356   0.735  11.528
 3638SOL    HW241409   3.469   0.821  11.473
 3639SOL     OW41410   3.293   2.601  11.421
 3639SOL    HW141411   3.310   2.560  11.506
 3639SOL    HW241412   3.361   2.566  11.364
 3640SOL     OW41413   3.375   4.505  11.528
 3640SOL    HW141414   3.345   4.457  11.451
 3640SOL    HW241415   3.447   4.559  11.496
 3641SOL     OW41416   3.316   6.324  11.470
 3641SOL    HW141417   3.318   6.285  11.557
 3641SOL    HW241418   3.391   6.384  11.469
 3642SOL     OW41419   5.181   0.791  11.450
 3642SOL    HW141420   5.189   0.728  11.522
 3642SOL    HW241421   5.263   0.841  11.453
 3643SOL     OW41422   5.207   2.612  11.445
 3643SOL    HW141423   5.206   2.570  11.531
 3643SOL    HW241424   5.289   2.661  11.443
 3644SOL     OW41425   5.214   6.315  11.467
 3644SOL    HW141426   5.208   6.281  11.556
 3644SOL    HW241427   5.303   6.348  11.460
 3645SOL     OW41428   0.633   1.368  11.488
 3645SOL    HW141429   0.572   1.293  11.491
 3645SOL    HW241430   0.640   1.389  11.395
 3646SOL     OW41431   0.641   3.222  11.490
 3646SOL    HW141432   0.589   3.144  11.512
 3646SOL    HW241433   0.669   3.208  11.400
 3647SOL     OW41434   0.603   5.151  11.403
 3647SOL    HW141435   0.621   5.065  11.442
 3647SOL    HW241436   0.550   5.132  11.325
 3648SOL     OW41437   2.451   1.422  11.413
 3648SOL    HW141438   2.442   1.329  11.434
 3648SOL    HW241439   2.387   1.438  11.344
 3649SOL     OW41440   2.365   3.206  11.439
 3649SOL    HW141441   2.343   3.118  11.407
 3649SOL    HW241442   2.425   3.241  11.374
 3650SOL     OW41443   2.466   5.143  11.404
 3650SOL    HW141444   2.445   5.052  11.426
 3650SOL    HW241445   2.417   5.160  11.323
 3651SOL     OW41446   4.374   1.379  11.468
 3651SOL    HW141447   4.319   1.301  11.466
 3651SOL    HW241448   4.396   1.396  11.376
 3652SOL     OW41449   4.391   3.231  11.458
 3652SOL    HW141450   4.323   3.165  11.474
 3652SOL    HW241451   4.436   3.201  11.379
 3653SOL     OW41452   6.171   1.411  11.432
 3653SOL    HW141453   6.166   1.315  11.437
 3653SOL    HW241454   6.090   1.437  11.388
 3654SOL     OW41455   6.206   5.129  11.440
 3654SOL    HW141456   6.200   5.039  11.470
 3654SOL    HW241457   6.161   5.129  11.355
 3655SOL     OW41458   0.268   0.356  11.410
 3655SOL    HW141459   0.186   0.399  11.386
 3655SOL    HW241460   0.258   0.335  11.503
 3656SOL     OW41461   0.278   2.170  11.432
 3656SOL    HW141462   0.235   2.256  11.435
 3656SOL    HW241463   0.269   2.137  11.522
 3657SOL     OW41464   0.283   4.041  11.433
 3657SOL    HW141465   0.212   4.099  11.407
 3657SOL    HW241466   0.266   4.023  11.525
 3658SOL     OW41467   0.297   5.888  11.453
 3658SOL    HW141468   0.255   5.974  11.444
 3658SOL    HW241469   0.270   5.857  11.540
 3659SOL     OW41470   2.161   0.318  11.425
 3659SOL    HW141471   2.075   0.355  11.403
 3659SOL    HW241472   2.156   0.301  11.519
 3660SOL     OW41473   2.116   2.143  11.457
 3660SOL    HW141474   2.028   2.165  11.427
 3660SOL    HW241475   2.110   2.148  11.552
 3661SOL     OW41476   2.164   5.879  11.453
 3661SOL    HW141477   2.084   5.892  11.401
 3661SOL    HW241478   2.134   5.878  11.544
 3662SOL     OW41479   3.983   0.307  11.455
 3662SOL    HW141480   3.897   0.344  11.437
 3662SOL    HW241481   3.986   0.298  11.551
 3663SOL     OW41482   3.960   2.179  11.469
 3663SOL    HW141483   3.870   2.193  11.439
 3663SOL    HW241484   3.953   2.174  11.565
 3664SOL     OW41485   4.055   4.060  11.464
 3664SOL    HW141486   4.003   4.020  11.394
 3664SOL    HW241487   4.013   4.033  11.545
 3665SOL     OW41488   3.970   5.852  11.422
 3665SOL    HW141489   3.889   5.897  11.398
 3665SOL    HW241490   3.979   5.867  11.516
 3666SOL     OW41491   5.858   0.323  11.433
 3666SOL    HW141492   5.768   0.334  11.402
 3666SOL    HW241493   5.850   0.313  11.528
 3667SOL     OW41494   5.878   2.184  11.432
 3667SOL    HW141495   5.830   2.267  11.430
 3667SOL    HW241496   5.873   2.156  11.523
 3668SOL     OW41497   5.850   4.054  11.419
 3668SOL    HW141498   5.808   4.138  11.402
 3668SOL    HW241499   5.842   4.042  11.513
 3669SOL     OW41500   1.239   0.703  11.490
 3669SOL    HW141501   1.248   0.785  11.441
 3669SOL    HW241502   1.158   0.714  11.540
 3670SOL     OW41503   1.093   2.592  11.391
 3670SOL    HW141504   1.158   2.662  11.382
 3670SOL    HW241505   1.078   2.586  11.485
 3671SOL     OW41506   3.019   0.692  11.433
 3671SOL    HW141507   3.054   0.768  11.387
 3671SOL    HW241508   2.987   0.725  11.516
 3672SOL     OW41509   3.026   2.554  11.401
 3672SOL    HW141510   3.115   2.589  11.404
 3672SOL    HW241511   2.987   2.581  11.484
 3673SOL     OW41512   3.049   4.469  11.403
 3673SOL    HW141513   3.093   4.550  11.375
 3673SOL    HW241514   3.024   4.486  11.494
 3674SOL     OW41515   4.823   0.702  11.421
 3674SOL    HW141516   4.875   0.755  11.361
 3674SOL    HW241517   4.819   0.754  11.502
 3675SOL     OW41518   4.859   2.548  11.391
 3675SOL    HW141519   4.904   2.632  11.397
 3675SOL    HW241520   4.811   2.541  11.474
 3676SOL     OW41521   4.861   4.466  11.408
 3676SOL    HW141522   4.956   4.476  11.420
 3676SOL    HW241523   4.824   4.494  11.492
 3677SOL     OW41524   1.228   1.592   1.427
 3677SOL    HW141525   1.222   1.498   1.448
 3677SOL    HW241526   1.157   1.608   1.365
 3678SOL     OW41527   1.241   3.478   1.419
 3678SOL    HW141528   1.206   3.400   1.461
 3678SOL    HW241529   1.175   3.503   1.355
 3679SOL     OW41530   1.213   5.306   1.433
 3679SOL    HW141531   1.204   5.217   1.467
 3679SOL    HW241532   1.144   5.313   1.366
 3680SOL     OW41533   3.049   1.604   1.490
 3680SOL    HW141534   3.043   1.510   1.473
 3680SOL    HW241535   3.056   1.644   1.404
 3681SOL     OW41536   3.143   3.413   1.510
 3681SOL    HW141537   3.124   3.321   1.529
 3681SOL    HW241538   3.156   3.415   1.415
 3682SOL     OW41539   3.091   5.325   1.413
 3682SOL    HW141540   3.066   5.240   1.450
 3682SOL    HW241541   3.016   5.350   1.358
 3683SOL     OW41542   4.946   1.624   1.413
 3683SOL    HW141543   4.880   1.572   1.458
 3683SOL    HW241544   4.900   1.665   1.341
 3684SOL     OW41545   4.979   3.532   1.391
 3684SOL    HW141546   4.913   3.463   1.397
 3684SOL    HW241547   4.957   3.578   1.310
 3685SOL     OW41548   4.938   5.337   1.383
 3685SOL    HW141549   4.882   5.261   1.366
 3685SOL    HW241550   4.914   5.399   1.314
 3686SOL     OW41551   0.077   2.137   1.412
 3686SOL    HW141552   6.442   2.095   1.422
 3686SOL    HW241553   0.058   2.221   1.370
 3687SOL     OW41554   0.090   4.017   1.361
 3687SOL    HW141555   6.444   4.010   1.360
 3687SOL    HW241556   0.108   4.107   1.334
 3688SOL     OW41557   0.064   5.893   1.339
 3688SOL    HW141558   0.075   5.909   1.432
 3688SOL    HW241559   0.016   5.969   1.306
 3689SOL     OW41560   1.931   0.351   1.441
 3689SOL    HW141561   1.843   0.336   1.407
 3689SOL    HW241562   1.970   0.415   1.382
 3690SOL     OW41563   1.951   2.200   1.379
 3690SOL    HW141564   1.881   2.183   1.316
 3690SOL    HW241565   2.001   2.272   1.341
 3691SOL     OW41566   1.814   4.186   1.591
 3691SOL    HW141567   1.754   4.217   1.523
 3691SOL    HW241568   1.893   4.239   1.579
 3692SOL     OW41569   1.977   5.903   1.309
 3692SOL    HW141570   1.883   5.905   1.290
 3692SOL    HW241571   2.003   5.995   1.313
 3693SOL     OW41572   3.829   0.365   1.392
 3693SOL    HW141573   3.754   0.352   1.333
 3693SOL    HW241574   3.876   0.439   1.354
 3694SOL     OW41575   3.829   4.073   1.399
 3694SOL    HW141576   3.744   4.110   1.424
 3694SOL    HW241577   3.868   4.138   1.341
 3695SOL     OW41578   5.687   0.361   1.382
 3695SOL    HW141579   5.602   0.354   1.339
 3695SOL    HW241580   5.731   0.434   1.338
 3696SOL     OW41581   5.692   4.047   1.384
 3696SOL    HW141582   5.598   4.038   1.373
 3696SOL    HW241583   5.715   4.125   1.333
 3697SOL     OW41584   5.705   5.908   1.308
 3697SOL    HW141585   5.611   5.911   1.292
 3697SOL    HW241586   5.739   5.990   1.274
 3698SOL     OW41587   1.373   1.149   1.393
 3698SOL    HW141588   1.356   1.065   1.437
 3698SOL    HW241589   1.316   1.211   1.438
 3699SOL     OW41590   1.414   4.938   1.421
 3699SOL    HW141591   1.451   4.869   1.475
 3699SOL    HW241592   1.331   4.960   1.463
 3700SOL     OW41593   3.310   3.073   1.383
 3700SOL    HW141594   3.345   2.994   1.423
 3700SOL    HW241595   3.238   3.099   1.440
 3701SOL     OW41596   3.267   4.916   1.405
 3701SOL    HW141597   3.312   4.860   1.468
 3701SOL    HW241598   3.188   4.945   1.451
 3702SOL     OW41599   5.155   1.198   1.413
 3702SOL    HW141600   5.216   1.144   1.463
 3702SOL    HW241601   5.080   1.210   1.471
 3703SOL     OW41602   5.102   3.060   1.404
 3703SOL    HW141603   5.166   2.995   1.432
 3703SOL    HW241604   5.025   3.042   1.457
 3704SOL     OW41605   5.194   4.911   1.445
 3704SOL    HW141606   5.236   4.843   1.496
 3704SOL    HW241607   5.105   4.916   1.480
 3705SOL     OW41608   1.315   0.864   1.428
 3705SOL    HW141609   1.344   0.774   1.442
 3705SOL    HW241610   1.337   0.883   1.337
 3706SOL     OW41611   1.308   2.676   1.413
 3706SOL    HW141612   1.351   2.590   1.415
 3706SOL    HW241613   1.343   2.717   1.333
 3707SOL     OW41614   1.309   4.544   1.419
 3707SOL    HW141615   1.344   4.455   1.426
 3707SOL    HW241616   1.340   4.575   1.334
 3708SOL     OW41617   3.156   0.836   1.406
 3708SOL    HW141618   3.221   0.774   1.439
 3708SOL    HW241619   3.192   0.868   1.324
 3709SOL     OW41620   3.127   2.691   1.393
 3709SOL    HW141621   3.170   2.607   1.412
 3709SOL    HW241622   3.169   2.721   1.312
 3710SOL     OW41623   3.135   4.526   1.416
 3710SOL    HW141624   3.209   4.509   1.474
 3710SOL    HW241625   3.173   4.566   1.338
 3711SOL     OW41626   5.126   0.855   1.450
 3711SOL    HW141627   5.113   0.760   1.449
 3711SOL    HW241628   5.111   0.882   1.359
 3712SOL     OW41629   5.017   4.545   1.420
 3712SOL    HW141630   5.065   4.462   1.422
 3712SOL    HW241631   5.047   4.586   1.339
 3713SOL     OW41632   1.496   1.677   1.430
 3713SOL    HW141633   1.404   1.653   1.422
 3713SOL    HW241634   1.534   1.656   1.345
 3714SOL     OW41635   1.516   3.426   1.398
 3714SOL    HW141636   1.423   3.449   1.407
 3714SOL    HW241637   1.545   3.475   1.320
 3715SOL     OW41638   1.476   5.411   1.414
 3715SOL    HW141639   1.388   5.373   1.410
 3715SOL    HW241640   1.516   5.386   1.330
 3716SOL     OW41641   3.348   1.567   1.404
 3716SOL    HW141642   3.272   1.626   1.407
 3716SOL    HW241643   3.395   1.593   1.325
 3717SOL     OW41644   3.415   3.490   1.463
 3717SOL    HW141645   3.322   3.479   1.480
 3717SOL    HW241646   3.427   3.467   1.371
 3718SOL     OW41647   3.359   5.365   1.424
 3718SOL    HW141648   3.266   5.350   1.407
 3718SOL    HW241649   3.400   5.364   1.337
 3719SOL     OW41650   5.215   1.694   1.412
 3719SOL    HW141651   5.129   1.652   1.406
 3719SOL    HW241652   5.261   1.665   1.333
 3720SOL     OW41653   5.202   5.360   1.432
 3720SOL    HW141654   5.110   5.343   1.411
 3720SOL    HW241655   5.246   5.364   1.347
 3721SOL     OW41656   1.561   1.504  11.435
 3721SOL    HW141657   1.549   1.474  11.525
 3721SOL    HW241658   1.476   1.540  11.409
 3722SOL     OW41659   1.603   3.373  11.425
 3722SOL    HW141660   1.554   3.351  11.504
 3722SOL    HW241661   1.535   3.394  11.360
 3723SOL     OW41662   1.564   5.252  11.438
 3723SOL    HW141663   1.532   5.219  11.522
 3723SOL    HW241664   1.486   5.257  11.383
 3724SOL     OW41665   3.455   1.505  11.424
 3724SOL    HW141666   3.421   1.470  11.506
 3724SOL    HW241667   3.377   1.523  11.372
 3725SOL     OW41668   3.344   5.195  11.433
 3725SOL    HW141669   3.356   5.181  11.527
 3725SOL    HW241670   3.254   5.228  11.425
 3726SOL     OW41671   5.273   1.508  11.433
 3726SOL    HW141672   5.265   1.478  11.523
 3726SOL    HW241673   5.186   1.543  11.411
 3727SOL     OW41674   5.333   5.202  11.447
 3727SOL    HW141675   5.288   5.184  11.530
 3727SOL    HW241676   5.266   5.243  11.392
 3728SOL     OW41677   1.114   1.126  11.410
 3728SOL    HW141678   1.037   1.082  11.446
 3728SOL    HW241679   1.178   1.056  11.396
 3729SOL     OW41680   1.095   2.977  11.461
 3729SOL    HW141681   1.027   2.922  11.500
 3729SOL    HW241682   1.161   2.915  11.431
 3730SOL     OW41683   1.081   4.837  11.421
 3730SOL    HW141684   1.012   4.791  11.470
 3730SOL    HW241685   1.095   4.783  11.343
 3731SOL     OW41686   2.947   1.121  11.408
 3731SOL    HW141687   2.857   1.092  11.422
 3731SOL    HW241688   2.994   1.041  11.386
 3732SOL     OW41689   2.913   2.858  11.315
 3732SOL    HW141690   2.888   2.787  11.256
 3732SOL    HW241691   3.009   2.854  11.317
 3733SOL     OW41692   2.974   4.833  11.425
 3733SOL    HW141693   2.904   4.797  11.480
 3733SOL    HW241694   2.951   4.807  11.336
 3734SOL     OW41695   4.806   1.123  11.432
 3734SOL    HW141696   4.731   1.073  11.465
 3734SOL    HW241697   4.868   1.057  11.402
 3735SOL     OW41698   4.813   2.975  11.423
 3735SOL    HW141699   4.742   2.931  11.469
 3735SOL    HW241700   4.876   2.905  11.405
 3736SOL     OW41701   4.819   4.822  11.421
 3736SOL    HW141702   4.748   4.780  11.470
 3736SOL    HW241703   4.808   4.790  11.331
 3737SOL     OW41704   1.373   0.473  11.409
 3737SOL    HW141705   1.330   0.559  11.413
 3737SOL    HW241706   1.333   0.423  11.480
 3738SOL     OW41707   1.321   4.217  11.399
 3738SOL    HW141708   1.341   4.310  11.414
 3738SOL    HW241709   1.303   4.182  11.486
 3739SOL     OW41710   1.360   6.045  11.402
 3739SOL    HW141711   1.286   6.084  11.356
 3739SOL    HW241712   1.324   6.015  11.485
 3740SOL     OW41713   3.121   0.444  11.384
 3740SOL    HW141714   3.089   0.534  11.385
 3740SOL    HW241715   3.150   0.428  11.474
 3741SOL     OW41716   3.179   2.316  11.394
 3741SOL    HW141717   3.121   2.392  11.388
 3741SOL    HW241718   3.163   2.281  11.482
 3742SOL     OW41719   3.225   4.196  11.371
 3742SOL    HW141720   3.166   4.235  11.308
 3742SOL    HW241721   3.182   4.208  11.456
 3743SOL     OW41722   3.224   6.063  11.383
 3743SOL    HW141723   3.232   6.157  11.397
 3743SOL    HW241724   3.192   6.029  11.466
 3744SOL     OW41725   5.031   2.329  11.393
 3744SOL    HW141726   4.977   2.408  11.386
 3744SOL    HW241727   5.023   2.303  11.485
 3745SOL     OW41728   5.055   6.066  11.406
 3745SOL    HW141729   5.064   6.161  11.415
 3745SOL    HW241730   5.028   6.036  11.492
 3746SOL     OW41731   0.819   1.605  11.387
 3746SOL    HW141732   0.814   1.688  11.340
 3746SOL    HW241733   0.767   1.545  11.333
 3747SOL     OW41734   0.865   3.446  11.399
 3747SOL    HW141735   0.922   3.470  11.326
 3747SOL    HW241736   0.783   3.419  11.358
 3748SOL     OW41737   0.837   5.306  11.362
 3748SOL    HW141738   0.806   5.397  11.357
 3748SOL    HW241739   0.760   5.257  11.391
 3749SOL     OW41740   2.690   1.554  11.391
 3749SOL    HW141741   2.684   1.585  11.301
 3749SOL    HW241742   2.611   1.502  11.404
 3750SOL     OW41743   2.556   3.320  11.286
 3750SOL    HW141744   2.629   3.377  11.311
 3750SOL    HW241745   2.512   3.367  11.215
 3751SOL     OW41746   2.679   5.316  11.396
 3751SOL    HW141747   2.709   5.310  11.305
 3751SOL    HW241748   2.602   5.260  11.400
 3752SOL     OW41749   4.562   3.446  11.413
 3752SOL    HW141750   4.608   3.402  11.342
 3752SOL    HW241751   4.489   3.388  11.434
 3753SOL     OW41752   4.523   5.276  11.375
 3753SOL    HW141753   4.540   5.285  11.281
 3753SOL    HW241754   4.456   5.342  11.394
 3754SOL     OW41755   6.433   1.606  11.440
 3754SOL    HW141756   6.411   1.678  11.380
 3754SOL    HW241757   6.365   1.541  11.425
 3755SOL     OW41758   6.444   3.467  11.404
 3755SOL    HW141759   0.056   3.494  11.336
 3755SOL    HW241760   6.358   3.490  11.369
 3756SOL     OW41761   6.448   5.327  11.399
 3756SOL    HW141762   6.441   5.408  11.350
 3756SOL    HW241763   6.358   5.296  11.407
 3757SOL     OW41764   1.323   0.943  11.366
 3757SOL    HW141765   1.401   0.894  11.394
 3757SOL    HW241766   1.337   0.957  11.272
 3758SOL     OW41767   1.280   2.785  11.376
 3758SOL    HW141768   1.351   2.726  11.400
 3758SOL    HW241769   1.323   2.857  11.330
 3759SOL     OW41770   1.269   0.046  11.474
 3759SOL    HW141771   1.345   6.439  11.459
 3759SOL    HW241772   1.290   0.128  11.430
 3760SOL     OW41773   3.156   0.914  11.348
 3760SOL    HW141774   3.231   0.867  11.385
 3760SOL    HW241775   3.191   1.001  11.326
 3761SOL     OW41776   3.184   2.828  11.305
 3761SOL    HW141777   3.236   2.760  11.348
 3761SOL    HW241778   3.187   2.806  11.212
 3762SOL     OW41779   3.111   0.050  11.426
 3762SOL    HW141780   3.184   6.439  11.421
 3762SOL    HW241781   3.124   0.110  11.352
 3763SOL     OW41782   4.985   0.934  11.351
 3763SOL    HW141783   5.051   0.879  11.392
 3763SOL    HW241784   5.030   0.973  11.276
 3764SOL     OW41785   5.004   2.775  11.381
 3764SOL    HW141786   5.073   2.713  11.405
 3764SOL    HW241787   5.051   2.852  11.348
 3765SOL     OW41788   5.002   0.039  11.493
 3765SOL    HW141789   5.073   6.430  11.468
 3765SOL    HW241790   5.011   0.114  11.435
 3766SOL     OW41791   1.398   0.599   1.453
 3766SOL    HW141792   1.348   0.574   1.531
 3766SOL    HW241793   1.488   0.576   1.475
 3767SOL     OW41794   1.414   2.422   1.446
 3767SOL    HW141795   1.404   2.406   1.540
 3767SOL    HW241796   1.508   2.414   1.430
 3768SOL     OW41797   1.429   6.202   1.473
 3768SOL    HW141798   1.360   6.166   1.529
 3768SOL    HW241799   1.508   6.200   1.527
 3769SOL     OW41800   3.258   2.455   1.449
 3769SOL    HW141801   3.202   2.421   1.519
 3769SOL    HW241802   3.347   2.429   1.475
 3770SOL     OW41803   5.119   0.580   1.455
 3770SOL    HW141804   5.070   0.559   1.534
 3770SOL    HW241805   5.211   0.568   1.480
 3771SOL     OW41806   5.143   2.418   1.446
 3771SOL    HW141807   5.135   2.332   1.486
 3771SOL    HW241808   5.238   2.431   1.436
 3772SOL     OW41809   5.154   4.314   1.452
 3772SOL    HW141810   5.121   4.245   1.509
 3772SOL    HW241811   5.238   4.339   1.490
 3773SOL     OW41812   1.598   3.166   1.426
 3773SOL    HW141813   1.582   3.259   1.415
 3773SOL    HW241814   1.522   3.134   1.474
 3774SOL     OW41815   1.667   5.059   1.468
 3774SOL    HW141816   1.661   5.143   1.513
 3774SOL    HW241817   1.576   5.031   1.456
 3775SOL     OW41818   3.481   1.361   1.507
 3775SOL    HW141819   3.437   1.438   1.471
 3775SOL    HW241820   3.410   1.301   1.530
 3776SOL     OW41821   3.514   3.237   1.504
 3776SOL    HW141822   3.490   3.330   1.502
 3776SOL    HW241823   3.449   3.195   1.448
 3777SOL     OW41824   3.445   5.111   1.508
 3777SOL    HW141825   3.424   5.202   1.487
 3777SOL    HW241826   3.383   5.060   1.456
 3778SOL     OW41827   5.367   5.126   1.449
 3778SOL    HW141828   5.303   5.196   1.439
 3778SOL    HW241829   5.315   5.045   1.448
 3779SOL     OW41830   0.691   0.981  11.369
 3779SOL    HW141831   0.764   0.993  11.430
 3779SOL    HW241832   0.620   1.034  11.405
 3780SOL     OW41833   0.707   2.816  11.424
 3780SOL    HW141834   0.791   2.819  11.469
 3780SOL    HW241835   0.650   2.873  11.476
 3781SOL     OW41836   0.688   4.701  11.383
 3781SOL    HW141837   0.764   4.710  11.441
 3781SOL    HW241838   0.632   4.775  11.405
 3782SOL     OW41839   0.714   0.121  11.403
 3782SOL    HW141840   0.796   0.107  11.451
 3782SOL    HW241841   0.655   0.160  11.467
 3783SOL     OW41842   2.619   1.034  11.394
 3783SOL    HW141843   2.658   1.004  11.475
 3783SOL    HW241844   2.538   1.077  11.421
 3784SOL     OW41845   2.576   2.823  11.387
 3784SOL    HW141846   2.602   2.796  11.475
 3784SOL    HW241847   2.489   2.860  11.398
 3785SOL     OW41848   2.550   4.673  11.451
 3785SOL    HW141849   2.632   4.698  11.494
 3785SOL    HW241850   2.496   4.752  11.454
 3786SOL     OW41851   2.603   0.218  11.406
 3786SOL    HW141852   2.678   0.170  11.440
 3786SOL    HW241853   2.538   0.215  11.476
 3787SOL     OW41854   4.442   1.027  11.345
 3787SOL    HW141855   4.500   1.001  11.417
 3787SOL    HW241856   4.367   1.067  11.389
 3788SOL     OW41857   4.425   2.844  11.394
 3788SOL    HW141858   4.507   2.835  11.443
 3788SOL    HW241859   4.374   2.908  11.444
 3789SOL     OW41860   4.437   0.083  11.420
 3789SOL    HW141861   4.523   0.090  11.462
 3789SOL    HW241862   4.378   0.133  11.476
 3790SOL     OW41863   6.281   0.935  11.388
 3790SOL    HW141864   6.339   0.925  11.463
 3790SOL    HW241865   6.226   1.011  11.410
 3791SOL     OW41866   6.335   4.739  11.410
 3791SOL    HW141867   6.402   4.672  11.428
 3791SOL    HW241868   6.277   4.736  11.485
 3792SOL     OW41869   6.368   0.211  11.447
 3792SOL    HW141870   6.366   0.159  11.527
 3792SOL    HW241871   6.299   0.173  11.392
 3793SOL     OW41872   1.051   0.923   1.476
 3793SOL    HW141873   1.038   1.006   1.429
 3793SOL    HW241874   1.145   0.907   1.471
 3794SOL     OW41875   1.105   4.707   1.483
 3794SOL    HW141876   1.083   4.754   1.402
 3794SOL    HW241877   1.175   4.647   1.457
 3795SOL     OW41878   2.998   1.039   1.494
 3795SOL    HW141879   2.955   1.065   1.412
 3795SOL    HW241880   3.058   0.969   1.468
 3796SOL     OW41881   2.974   2.886   1.497
 3796SOL    HW141882   2.935   2.915   1.415
 3796SOL    HW241883   3.032   2.814   1.471
 3797SOL     OW41884   2.958   4.726   1.491
 3797SOL    HW141885   2.945   4.778   1.411
 3797SOL    HW241886   3.020   4.657   1.465
 3798SOL     OW41887   4.852   2.869   1.444
 3798SOL    HW141888   4.795   2.923   1.390
 3798SOL    HW241889   4.900   2.815   1.381
 3799SOL     OW41890   4.821   4.717   1.500
 3799SOL    HW141891   4.794   4.772   1.427
 3799SOL    HW241892   4.887   4.658   1.463
 3800SOL     OW41893   1.665   1.236  11.405
 3800SOL    HW141894   1.718   1.230  11.326
 3800SOL    HW241895   1.632   1.326  11.405
 3801SOL     OW41896   1.719   3.158  11.292
 3801SOL    HW141897   1.805   3.143  11.331
 3801SOL    HW241898   1.679   3.227  11.345
 3802SOL     OW41899   1.666   5.000  11.376
 3802SOL    HW141900   1.760   5.002  11.390
 3802SOL    HW241901   1.637   5.091  11.389
 3803SOL     OW41902   3.580   1.237  11.390
 3803SOL    HW141903   3.672   1.234  11.365
 3803SOL    HW241904   3.554   1.327  11.373
 3804SOL     OW41905   3.508   4.964  11.448
 3804SOL    HW141906   3.600   4.955  11.425
 3804SOL    HW241907   3.482   5.049  11.411
 3805SOL     OW41908   5.383   1.261  11.352
 3805SOL    HW141909   5.476   1.268  11.377
 3805SOL    HW241910   5.345   1.345  11.376
 3806SOL     OW41911   5.454   3.107  11.354
 3806SOL    HW141912   5.549   3.113  11.359
 3806SOL    HW241913   5.424   3.135  11.441
 3807SOL     OW41914   5.440   4.947  11.426
 3807SOL    HW141915   5.529   4.961  11.393
 3807SOL    HW241916   5.402   5.035  11.426
 3808SOL     OW41917   0.092   1.228  11.355
 3808SOL    HW141918   0.037   1.257  11.428
 3808SOL    HW241919   0.066   1.138  11.340
 3809SOL     OW41920   0.095   4.920  11.344
 3809SOL    HW141921   0.018   4.864  11.358
 3809SOL    HW241922   0.154   4.867  11.290
 3810SOL     OW41923   1.954   3.083  11.404
 3810SOL    HW141924   1.912   3.019  11.463
 3810SOL    HW241925   2.040   3.099  11.443
 3811SOL     OW41926   1.946   4.947  11.384
 3811SOL    HW141927   1.953   4.932  11.478
 3811SOL    HW241928   1.946   4.859  11.346
 3812SOL     OW41929   3.853   1.203  11.368
 3812SOL    HW141930   3.886   1.163  11.449
 3812SOL    HW241931   3.917   1.177  11.301
 3813SOL     OW41932   3.805   3.155  11.426
 3813SOL    HW141933   3.750   3.088  11.466
 3813SOL    HW241934   3.891   3.114  11.419
 3814SOL     OW41935   3.775   4.947  11.399
 3814SOL    HW141936   3.829   4.879  11.438
 3814SOL    HW241937   3.835   4.996  11.342
 3815SOL     OW41938   5.659   1.237  11.394
 3815SOL    HW141939   5.676   1.216  11.485
 3815SOL    HW241940   5.698   1.165  11.345
 3816SOL     OW41941   5.729   3.105  11.354
 3816SOL    HW141942   5.758   3.077  11.441
 3816SOL    HW241943   5.780   3.052  11.293
 3817SOL     OW41944   5.711   4.934  11.352
 3817SOL    HW141945   5.768   4.909  11.425
 3817SOL    HW241946   5.706   4.855  11.298
 3818SOL     OW41947   0.626   0.712  11.408
 3818SOL    HW141948   0.653   0.803  11.402
 3818SOL    HW241949   0.586   0.693  11.323
 3819SOL     OW41950   0.627   2.556  11.387
 3819SOL    HW141951   0.658   2.646  11.394
 3819SOL    HW241952   0.543   2.563  11.340
 3820SOL     OW41953   0.542   4.476  11.402
 3820SOL    HW141954   0.603   4.549  11.388
 3820SOL    HW241955   0.517   4.448  11.313
 3821SOL     OW41956   2.436   2.573  11.387
 3821SOL    HW141957   2.493   2.648  11.372
 3821SOL    HW241958   2.361   2.588  11.330
 3822SOL     OW41959   2.477   4.427  11.362
 3822SOL    HW141960   2.503   4.516  11.385
 3822SOL    HW241961   2.400   4.437  11.307
 3823SOL     OW41962   4.308   2.594  11.399
 3823SOL    HW141963   4.353   2.678  11.391
 3823SOL    HW241964   4.249   2.591  11.323
 3824SOL     OW41965   4.297   4.503  11.427
 3824SOL    HW141966   4.353   4.575  11.455
 3824SOL    HW241967   4.264   4.531  11.341
 3825SOL     OW41968   4.325   6.278  11.432
 3825SOL    HW141969   4.352   6.369  11.421
 3825SOL    HW241970   4.250   6.267  11.373
 3826SOL     OW41971   6.238   0.664  11.361
 3826SOL    HW141972   6.261   0.756  11.368
 3826SOL    HW241973   6.148   0.664  11.329
 3827SOL     OW41974   6.205   4.431  11.341
 3827SOL    HW141975   6.204   4.527  11.335
 3827SOL    HW241976   6.124   4.403  11.299
 3828SOL     OW41977   6.448   0.456  11.364
 3828SOL    HW141978   6.369   0.509  11.350
 3828SOL    HW241979   6.415   0.369  11.387
 3829SOL     OW41980   6.389   2.249  11.329
 3829SOL    HW141981   6.297   2.231  11.312
 3829SOL    HW241982   6.435   2.170  11.302
 3830SOL     OW41983   6.443   4.125  11.413
 3830SOL    HW141984   6.352   4.141  11.439
 3830SOL    HW241985   6.436   4.071  11.334
 3831SOL     OW41986   6.387   5.909  11.318
 3831SOL    HW141987   6.325   5.959  11.370
 3831SOL    HW241988   6.405   5.965  11.242
 3832SOL     OW41989   1.891   0.401  11.364
 3832SOL    HW141990   1.803   0.403  11.402
 3832SOL    HW241991   1.879   0.360  11.278
 3833SOL     OW41992   1.865   2.184  11.381
 3833SOL    HW141993   1.794   2.240  11.412
 3833SOL    HW241994   1.822   2.119  11.326
 3834SOL     OW41995   1.881   5.916  11.357
 3834SOL    HW141996   1.800   5.948  11.398
 3834SOL    HW241997   1.853   5.845  11.300
 3835SOL     OW41998   3.736   0.397  11.406
 3835SOL    HW141999   3.654   0.425  11.447
 3835SOL    HW242000   3.717   0.394  11.312
 3836SOL     OW42001   3.710   2.232  11.363
 3836SOL    HW142002   3.631   2.273  11.398
 3836SOL    HW242003   3.678   2.153  11.318
 3837SOL     OW42004   3.721   5.966  11.352
 3837SOL    HW142005   3.653   5.969  11.418
 3837SOL    HW242006   3.675   5.944  11.271
 3838SOL     OW42007   5.593   0.319  11.368
 3838SOL    HW142008   5.527   0.372  11.414
 3838SOL    HW242009   5.544   0.274  11.300
 3839SOL     OW42010   5.573   5.984  11.388
 3839SOL    HW142011   5.484   5.981  11.424
 3839SOL    HW242012   5.582   5.902  11.340
 3840SOL     OW42013   0.807   0.419  11.393
 3840SOL    HW142014   0.714   0.423  11.367
 3840SOL    HW242015   0.844   0.349  11.340
 3841SOL     OW42016   0.832   2.371  11.393
 3841SOL    HW142017   0.760   2.432  11.381
 3841SOL    HW242018   0.871   2.361  11.306
 3842SOL     OW42019   0.863   4.185  11.360
 3842SOL    HW142020   0.833   4.240  11.288
 3842SOL    HW242021   0.903   4.109  11.318
 3843SOL     OW42022   0.916   6.040  11.327
 3843SOL    HW142023   0.896   6.073  11.239
 3843SOL    HW242024   0.910   5.945  11.318
 3844SOL     OW42025   2.709   4.217  11.277
 3844SOL    HW142026   2.617   4.218  11.251
 3844SOL    HW242027   2.729   4.124  11.292
 3845SOL     OW42028   4.642   2.292  11.407
 3845SOL    HW142029   4.550   2.304  11.384
 3845SOL    HW242030   4.675   2.229  11.342
 3846SOL     OW42031   4.641   6.054  11.347
 3846SOL    HW142032   4.545   6.060  11.348
 3846SOL    HW242033   4.658   5.967  11.311
 3847SOL     OW42034   0.221   0.568   1.504
 3847SOL    HW142035   0.167   0.646   1.518
 3847SOL    HW242036   0.214   0.551   1.410
 3848SOL     OW42037   0.202   2.515   1.503
 3848SOL    HW142038   0.116   2.555   1.491
 3848SOL    HW242039   0.214   2.461   1.425
 3849SOL     OW42040   0.226   4.390   1.525
 3849SOL    HW142041   0.155   4.373   1.586
 3849SOL    HW242042   0.195   4.355   1.441
 3850SOL     OW42043   0.264   6.139   1.551
 3850SOL    HW142044   0.222   6.056   1.574
 3850SOL    HW242045   0.265   6.140   1.455
 3851SOL     OW42046   2.057   0.674   1.498
 3851SOL    HW142047   1.973   0.665   1.543
 3851SOL    HW242048   2.044   0.631   1.414
 3852SOL     OW42049   2.070   6.205   1.542
 3852SOL    HW142050   2.027   6.287   1.562
 3852SOL    HW242051   2.060   6.195   1.447
 3853SOL     OW42052   3.857   4.417   1.459
 3853SOL    HW142053   3.767   4.385   1.447
 3853SOL    HW242054   3.910   4.362   1.402
 3854SOL     OW42055   3.948   6.221   1.496
 3854SOL    HW142056   3.856   6.202   1.514
 3854SOL    HW242057   3.970   6.164   1.423
 3855SOL     OW42058   5.783   0.651   1.509
 3855SOL    HW142059   5.695   0.633   1.541
 3855SOL    HW242060   5.783   0.621   1.418
 3856SOL     OW42061   5.784   2.503   1.493
 3856SOL    HW142062   5.699   2.494   1.537
 3856SOL    HW242063   5.779   2.441   1.420
 3857SOL     OW42064   5.827   6.249   1.415
 3857SOL    HW142065   5.735   6.262   1.438
 3857SOL    HW242066   5.824   6.196   1.335
 3858SOL     OW42067   0.615   6.429   1.458
 3858SOL    HW142068   0.706   6.406   1.438
 3858SOL    HW242069   0.581   0.015   1.376
 3859SOL     OW42070   0.676   2.023   1.463
 3859SOL    HW142071   0.637   2.008   1.549
 3859SOL    HW242072   0.622   1.972   1.403
 3860SOL     OW42073   0.686   3.874   1.444
 3860SOL    HW142074   0.697   3.800   1.504
 3860SOL    HW242075   0.624   3.842   1.378
 3861SOL     OW42076   1.982   1.612   1.506
 3861SOL    HW142077   1.969   1.523   1.538
 3861SOL    HW242078   1.933   1.667   1.567
 3862SOL     OW42079   1.938   3.386   1.559
 3862SOL    HW142080   1.913   3.296   1.576
 3862SOL    HW242081   1.933   3.429   1.645
 3863SOL     OW42082   2.544   2.028   1.449
 3863SOL    HW142083   2.600   1.967   1.497
 3863SOL    HW242084   2.486   1.972   1.398
 3864SOL     OW42085   1.962   5.298   1.503
 3864SOL    HW142086   1.951   5.205   1.523
 3864SOL    HW242087   1.908   5.343   1.568
 3865SOL     OW42088   2.418   3.839   1.616
 3865SOL    HW142089   2.487   3.778   1.643
 3865SOL    HW242090   2.393   3.810   1.529
 3866SOL     OW42091   2.507   5.743   1.489
 3866SOL    HW142092   2.588   5.729   1.539
 3866SOL    HW242093   2.491   5.660   1.445
 3867SOL     OW42094   3.737   1.619   1.514
 3867SOL    HW142095   3.751   1.527   1.533
 3867SOL    HW242096   3.644   1.634   1.530
 3868SOL     OW42097   4.378   0.056   1.455
 3868SOL    HW142098   4.450   0.002   1.423
 3868SOL    HW242099   4.318   0.062   1.381
 3869SOL     OW42100   4.359   1.988   1.450
 3869SOL    HW142101   4.374   1.938   1.530
 3869SOL    HW242102   4.305   1.930   1.395
 3870SOL     OW42103   4.340   3.780   1.532
 3870SOL    HW142104   4.371   3.690   1.546
 3870SOL    HW242105   4.308   3.781   1.442
 3871SOL     OW42106   4.394   5.706   1.483
 3871SOL    HW142107   4.446   5.638   1.526
 3871SOL    HW242108   4.339   5.659   1.421
 3872SOL     OW42109   6.290   2.002   1.446
 3872SOL    HW142110   6.256   1.977   1.532
 3872SOL    HW242111   6.225   1.970   1.384
 3873SOL     OW42112   5.546   5.324   1.502
 3873SOL    HW142113   5.500   5.246   1.472
 3873SOL    HW242114   5.491   5.359   1.573
 3874SOL     OW42115   6.271   3.911   1.394
 3874SOL    HW142116   6.328   3.861   1.453
 3874SOL    HW242117   6.209   3.847   1.360
 3875SOL     OW42118   1.186   1.325   1.501
 3875SOL    HW142119   1.092   1.322   1.485
 3875SOL    HW242120   1.194   1.330   1.596
 3876SOL     OW42121   1.125   3.239   1.497
 3876SOL    HW142122   1.031   3.249   1.481
 3876SOL    HW242123   1.131   3.171   1.564
 3877SOL     OW42124   1.163   5.036   1.508
 3877SOL    HW142125   1.071   5.053   1.484
 3877SOL    HW242126   1.157   4.984   1.588
 3878SOL     OW42127   3.008   1.322   1.484
 3878SOL    HW142128   2.914   1.338   1.484
 3878SOL    HW242129   3.018   1.231   1.513
 3879SOL     OW42130   3.097   3.132   1.534
 3879SOL    HW142131   3.045   3.052   1.530
 3879SOL    HW242132   3.093   3.158   1.626
 3880SOL     OW42133   3.033   5.059   1.506
 3880SOL    HW142134   2.941   5.055   1.481
 3880SOL    HW242135   3.032   5.045   1.601
 3881SOL     OW42136   0.619   4.688   1.488
 3881SOL    HW142137   0.666   4.759   1.446
 3881SOL    HW242138   0.636   4.699   1.582
 3882SOL     OW42139   2.459   0.973   1.521
 3882SOL    HW142140   2.511   1.030   1.464
 3882SOL    HW242141   2.497   0.984   1.608
 3883SOL     OW42142   2.435   2.860   1.525
 3883SOL    HW142143   2.503   2.897   1.469
 3883SOL    HW242144   2.478   2.849   1.610
 3884SOL     OW42145   2.486   4.663   1.474
 3884SOL    HW142146   2.528   4.733   1.424
 3884SOL    HW242147   2.553   4.634   1.536
 3885SOL     OW42148   4.377   0.978   1.490
 3885SOL    HW142149   4.413   1.032   1.419
 3885SOL    HW242150   4.397   1.026   1.570
 3886SOL     OW42151   4.421   2.778   1.491
 3886SOL    HW142152   4.424   2.852   1.430
 3886SOL    HW242153   4.427   2.819   1.578
 3887SOL     OW42154   4.355   4.692   1.480
 3887SOL    HW142155   4.394   4.765   1.432
 3887SOL    HW242156   4.430   4.647   1.519
 3888SOL     OW42157   6.186   4.699   1.524
 3888SOL    HW142158   6.230   4.747   1.454
 3888SOL    HW242159   6.245   4.706   1.599
 3889SOL     OW42160   1.516   3.998   1.466
 3889SOL    HW142161   1.497   3.935   1.535
 3889SOL    HW242162   1.574   4.062   1.506
 3890SOL     OW42163   3.388   2.139   1.525
 3890SOL    HW142164   3.318   2.074   1.540
 3890SOL    HW242165   3.417   2.162   1.613
 3891SOL     OW42166   3.406   5.833   1.515
 3891SOL    HW142167   3.353   5.754   1.522
 3891SOL    HW242168   3.426   5.856   1.606
 3892SOL     OW42169   5.320   0.258   1.506
 3892SOL    HW142170   5.272   0.217   1.578
 3892SOL    HW242171   5.364   0.333   1.545
 3893SOL     OW42172   5.165   2.160   1.534
 3893SOL    HW142173   5.132   2.071   1.523
 3893SOL    HW242174   5.153   2.179   1.627
 3894SOL     OW42175   5.309   3.920   1.491
 3894SOL    HW142176   5.237   3.858   1.502
 3894SOL    HW242177   5.355   3.918   1.575
 3895SOL     OW42178   5.176   5.872   1.474
 3895SOL    HW142179   5.151   5.785   1.505
 3895SOL    HW242180   5.195   5.921   1.554
 3896SOL     OW42181   0.285   0.118  11.281
 3896SOL    HW142182   0.279   0.200  11.330
 3896SOL    HW242183   0.337   0.060  11.337
 3897SOL     OW42184   0.326   1.950  11.282
 3897SOL    HW142185   0.316   2.035  11.324
 3897SOL    HW242186   0.333   1.887  11.354
 3898SOL     OW42187   0.278   3.779  11.339
 3898SOL    HW142188   0.283   3.873  11.355
 3898SOL    HW242189   0.310   3.739  11.420
 3899SOL     OW42190   0.218   5.641  11.367
 3899SOL    HW142191   0.239   5.734  11.375
 3899SOL    HW242192   0.275   5.597  11.430
 3900SOL     OW42193   2.143   1.883  11.351
 3900SOL    HW142194   2.115   1.974  11.363
 3900SOL    HW242195   2.166   1.852  11.438
 3901SOL     OW42196   4.041   0.070  11.337
 3901SOL    HW142197   4.023   0.156  11.375
 3901SOL    HW242198   4.035   0.009  11.411
 3902SOL     OW42199   5.929   0.074  11.349
 3902SOL    HW142200   5.896   0.161  11.370
 3902SOL    HW242201   5.919   0.024  11.431
 3903SOL     OW42202   5.883   1.928  11.324
 3903SOL    HW142203   5.867   2.018  11.350
 3903SOL    HW242204   5.897   1.881  11.407
 3904SOL     OW42205   5.799   3.784  11.333
 3904SOL    HW142206   5.814   3.877  11.351
 3904SOL    HW242207   5.854   3.738  11.396
 3905SOL     OW42208   0.067   6.412   1.431
 3905SOL    HW142209   0.159   6.412   1.456
 3905SOL    HW242210   0.019   6.394   1.512
 3906SOL     OW42211   0.039   3.791   1.512
 3906SOL    HW142212   0.073   3.861   1.456
 3906SOL    HW242213   0.112   3.768   1.570
 3907SOL     OW42214   0.065   5.644   1.481
 3907SOL    HW142215   0.041   5.694   1.403
 3907SOL    HW242216   6.436   5.594   1.502
 3908SOL     OW42217   1.718   2.783  11.353
 3908SOL    HW142218   1.789   2.723  11.332
 3908SOL    HW242219   1.701   2.830  11.271
 3909SOL     OW42220   1.691   4.662  11.376
 3909SOL    HW142221   1.756   4.595  11.353
 3909SOL    HW242222   1.682   4.714  11.296
 3910SOL     OW42223   3.579   4.646  11.386
 3910SOL    HW142224   3.650   4.590  11.355
 3910SOL    HW242225   3.566   4.710  11.316
 3911SOL     OW42226   5.382   0.968  11.400
 3911SOL    HW142227   5.428   0.899  11.353
 3911SOL    HW242228   5.385   1.044  11.341
 3912SOL     OW42229   5.426   2.770  11.407
 3912SOL    HW142230   5.516   2.739  11.412
 3912SOL    HW242231   5.418   2.807  11.319
 3913SOL     OW42232   2.556   1.565   1.469
 3913SOL    HW142233   2.573   1.608   1.385
 3913SOL    HW242234   2.468   1.595   1.494
 3914SOL     OW42235   2.546   5.373   1.535
 3914SOL    HW142236   2.567   5.384   1.442
 3914SOL    HW242237   2.463   5.326   1.535
 3915SOL     OW42238   4.422   1.593   1.493
 3915SOL    HW142239   4.413   1.622   1.402
 3915SOL    HW242240   4.356   1.525   1.503
 3916SOL     OW42241   4.397   3.507   1.508
 3916SOL    HW142242   4.408   3.520   1.414
 3916SOL    HW242243   4.329   3.440   1.515
 3917SOL     OW42244   4.375   5.334   1.528
 3917SOL    HW142245   4.390   5.359   1.437
 3917SOL    HW242246   4.310   5.264   1.524
 3918SOL     OW42247   6.180   1.609   1.484
 3918SOL    HW142248   6.220   1.632   1.400
 3918SOL    HW242249   6.194   1.515   1.492
 3919SOL     OW42250   6.274   5.332   1.482
 3919SOL    HW142251   6.267   5.337   1.387
 3919SOL    HW242252   6.218   5.258   1.506
 3920SOL     OW42253   1.303   3.666  11.376
 3920SOL    HW142254   1.375   3.728  11.379
 3920SOL    HW242255   1.225   3.718  11.397
 3921SOL     OW42256   3.112   1.800  11.353
 3921SOL    HW142257   3.168   1.852  11.295
 3921SOL    HW242258   3.050   1.864  11.389
 3922SOL     OW42259   5.000   1.802  11.353
 3922SOL    HW142260   5.050   1.857  11.293
 3922SOL    HW242261   4.931   1.860  11.386
 3923SOL     OW42262   4.972   3.637  11.326
 3923SOL    HW142263   4.994   3.661  11.236
 3923SOL    HW242264   4.954   3.720  11.369
 3924SOL     OW42265   1.374   0.005   1.389
 3924SOL    HW142266   1.392   6.365   1.417
 3924SOL    HW242267   1.297   0.031   1.439
 3925SOL     OW42268   1.334   3.716   1.520
 3925SOL    HW142269   1.310   3.630   1.486
 3925SOL    HW242270   1.265   3.774   1.490
 3926SOL     OW42271   1.396   5.652   1.511
 3926SOL    HW142272   1.440   5.573   1.481
 3926SOL    HW242273   1.310   5.622   1.539
 3927SOL     OW42274   3.263   0.023   1.436
 3927SOL    HW142275   3.256   6.382   1.407
 3927SOL    HW242276   3.200   0.030   1.508
 3928SOL     OW42277   3.190   1.957   1.561
 3928SOL    HW142278   3.191   1.923   1.471
 3928SOL    HW242279   3.127   1.902   1.607
 3929SOL     OW42280   3.263   5.606   1.517
 3929SOL    HW142281   3.312   5.526   1.498
 3929SOL    HW242282   3.171   5.579   1.514
 3930SOL     OW42283   5.030   6.449   1.514
 3930SOL    HW142284   5.050   6.371   1.464
 3930SOL    HW242285   4.935   0.007   1.511
 3931SOL     OW42286   5.079   1.909   1.503
 3931SOL    HW142287   5.139   1.837   1.482
 3931SOL    HW242288   4.992   1.867   1.506
 3932SOL     OW42289   5.093   3.756   1.496
 3932SOL    HW142290   5.079   3.669   1.459
 3932SOL    HW242291   5.012   3.774   1.545
 3933SOL     OW42292   5.128   5.613   1.551
 3933SOL    HW142293   5.153   5.534   1.504
 3933SOL    HW242294   5.040   5.594   1.584
 3934SOL     OW42295   0.329   6.407   1.501
 3934SOL    HW142296   0.422   6.428   1.495
 3934SOL    HW242297   0.328   6.315   1.528
 3935SOL     OW42298   0.326   3.744   1.525
 3935SOL    HW142299   0.362   3.826   1.491
 3935SOL    HW242300   0.329   3.754   1.620
 3936SOL     OW42301   2.128   3.808   1.619
 3936SOL    HW142302   2.216   3.846   1.626
 3936SOL    HW242303   2.130   3.733   1.678
 3937SOL     OW42304   2.202   5.631   1.551
 3937SOL    HW142305   2.230   5.702   1.494
 3937SOL    HW242306   2.280   5.608   1.601
 3938SOL     OW42307   3.992   0.036   1.461
 3938SOL    HW142308   4.034   0.072   1.539
 3938SOL    HW242309   3.987   6.391   1.478
 3939SOL     OW42310   4.031   5.598   1.510
 3939SOL    HW142311   4.065   5.682   1.478
 3939SOL    HW242312   4.095   5.569   1.574
 3940SOL     OW42313   5.876   5.614   1.523
 3940SOL    HW142314   5.905   5.690   1.472
 3940SOL    HW242315   5.942   5.606   1.593
 3941SOL     OW42316   0.514   1.348   1.599
 3941SOL    HW142317   0.424   1.351   1.632
 3941SOL    HW242318   0.507   1.381   1.510
 3942SOL     OW42319   0.537   3.264   1.537
 3942SOL    HW142320   0.464   3.220   1.581
 3942SOL    HW242321   0.501   3.291   1.452
 3943SOL     OW42322   2.248   3.304   1.503
 3943SOL    HW142323   2.198   3.257   1.569
 3943SOL    HW242324   2.314   3.241   1.474
 3944SOL     OW42325   4.276   1.356   1.522
 3944SOL    HW142326   4.197   1.338   1.572
 3944SOL    HW242327   4.256   1.323   1.434
 3945SOL     OW42328   4.241   3.285   1.505
 3945SOL    HW142329   4.268   3.232   1.580
 3945SOL    HW242330   4.236   3.224   1.432
 3946SOL     OW42331   4.188   5.136   1.488
 3946SOL    HW142332   4.158   5.084   1.562
 3946SOL    HW242333   4.197   5.073   1.416
 3947SOL     OW42334   6.165   1.338   1.532
 3947SOL    HW142335   6.088   1.341   1.589
 3947SOL    HW242336   6.135   1.295   1.452
 3948SOL     OW42337   5.981   3.215   1.486
 3948SOL    HW142338   6.009   3.209   1.578
 3948SOL    HW242339   6.063   3.209   1.436
 3949SOL     OW42340   6.119   5.111   1.524
 3949SOL    HW142341   6.046   5.077   1.576
 3949SOL    HW242342   6.106   5.072   1.437
 3950SOL     OW42343   1.655   1.733  11.269
 3950SOL    HW142344   1.673   1.677  11.193
 3950SOL    HW242345   1.635   1.671  11.340
 3951SOL     OW42346   1.739   3.551  11.247
 3951SOL    HW142347   1.678   3.520  11.180
 3951SOL    HW242348   1.723   3.495  11.322
 3952SOL     OW42349   1.659   5.484  11.309
 3952SOL    HW142350   1.658   5.433  11.228
 3952SOL    HW242351   1.624   5.425  11.375
 3953SOL     OW42352   3.528   1.746  11.274
 3953SOL    HW142353   3.589   1.718  11.206
 3953SOL    HW242354   3.517   1.669  11.330
 3954SOL     OW42355   5.428   1.651  11.256
 3954SOL    HW142356   5.449   1.587  11.189
 3954SOL    HW242357   5.372   1.604  11.318
 3955SOL     OW42358   5.444   3.545  11.347
 3955SOL    HW142359   5.498   3.567  11.271
 3955SOL    HW242360   5.355   3.569  11.321
 3956SOL     OW42361   0.136   2.479  11.279
 3956SOL    HW142362   0.072   2.411  11.298
 3956SOL    HW242363   0.115   2.549  11.340
 3957SOL     OW42364   0.184   4.400  11.271
 3957SOL    HW142365   0.116   4.353  11.221
 3957SOL    HW242366   0.135   4.456  11.331
 3958SOL     OW42367   0.084   6.208  11.340
 3958SOL    HW142368   0.072   6.148  11.266
 3958SOL    HW242369   0.050   6.292  11.309
 3959SOL     OW42370   2.031   0.641  11.359
 3959SOL    HW142371   1.978   0.562  11.364
 3959SOL    HW242372   1.983   0.707  11.408
 3960SOL     OW42373   2.086   4.374  11.341
 3960SOL    HW142374   2.016   4.311  11.324
 3960SOL    HW242375   2.042   4.448  11.384
 3961SOL     OW42376   1.971   6.177  11.403
 3961SOL    HW142377   1.943   6.089  11.375
 3961SOL    HW242378   2.044   6.198  11.345
 3962SOL     OW42379   3.918   2.424  11.282
 3962SOL    HW142380   3.861   2.347  11.285
 3962SOL    HW242381   3.931   2.448  11.373
 3963SOL     OW42382   3.833   4.357  11.293
 3963SOL    HW142383   3.910   4.303  11.308
 3963SOL    HW242384   3.827   4.413  11.370
 3964SOL     OW42385   3.849   6.203  11.299
 3964SOL    HW142386   3.811   6.117  11.313
 3964SOL    HW242387   3.857   6.240  11.387
 3965SOL     OW42388   5.733   4.316  11.354
 3965SOL    HW142389   5.644   4.295  11.323
 3965SOL    HW242390   5.722   4.397  11.404
 3966SOL     OW42391   5.570   6.256  11.432
 3966SOL    HW142392   5.581   6.162  11.417
 3966SOL    HW242393   5.659   6.291  11.427
 3967SOL     OW42394   1.543   4.759   1.587
 3967SOL    HW142395   1.474   4.702   1.622
 3967SOL    HW242396   1.593   4.786   1.663
 3968SOL     OW42397   3.390   4.748   1.591
 3968SOL    HW142398   3.314   4.701   1.625
 3968SOL    HW242399   3.437   4.778   1.669
 3969SOL     OW42400   5.294   1.019   1.576
 3969SOL    HW142401   5.234   0.954   1.541
 3969SOL    HW242402   5.285   1.011   1.671
 3970SOL     OW42403   5.255   2.837   1.470
 3970SOL    HW142404   5.206   2.778   1.413
 3970SOL    HW242405   5.266   2.787   1.551
 3971SOL     OW42406   5.304   4.712   1.606
 3971SOL    HW142407   5.226   4.659   1.624
 3971SOL    HW242408   5.360   4.700   1.682
 3972SOL     OW42409   0.473   0.473   1.512
 3972SOL    HW142410   0.530   0.548   1.526
 3972SOL    HW242411   0.384   0.508   1.524
 3973SOL     OW42412   0.425   2.336   1.532
 3973SOL    HW142413   0.501   2.389   1.555
 3973SOL    HW242414   0.351   2.394   1.542
 3974SOL     OW42415   0.447   4.229   1.471
 3974SOL    HW142416   0.524   4.271   1.511
 3974SOL    HW242417   0.374   4.285   1.496
 3975SOL     OW42418   2.285   0.511   1.457
 3975SOL    HW142419   2.365   0.556   1.485
 3975SOL    HW242420   2.214   0.564   1.495
 3976SOL     OW42421   2.287   6.041   1.496
 3976SOL    HW142422   2.364   6.065   1.548
 3976SOL    HW242423   2.217   6.097   1.529
 3977SOL     OW42424   6.033   0.551   1.564
 3977SOL    HW142425   6.090   0.616   1.522
 3977SOL    HW242426   5.945   0.585   1.551
 3978SOL     OW42427   6.067   6.114   1.454
 3978SOL    HW142428   6.118   6.170   1.513
 3978SOL    HW242429   5.982   6.157   1.449
 3979SOL     OW42430   0.889   2.251   1.569
 3979SOL    HW142431   0.942   2.294   1.503
 3979SOL    HW242432   0.843   2.181   1.521
 3980SOL     OW42433   0.892   4.078   1.555
 3980SOL    HW142434   0.938   4.090   1.472
 3980SOL    HW242435   0.829   4.008   1.538
 3981SOL     OW42436   2.723   0.430   1.451
 3981SOL    HW142437   2.724   0.525   1.458
 3981SOL    HW242438   2.754   0.399   1.536
 3982SOL     OW42439   2.781   4.090   1.585
 3982SOL    HW142440   2.851   4.133   1.536
 3982SOL    HW242441   2.786   3.998   1.558
 3983SOL     OW42442   2.785   5.847   1.529
 3983SOL    HW142443   2.804   5.936   1.500
 3983SOL    HW242444   2.827   5.791   1.463
 3984SOL     OW42445   4.605   0.348   1.538
 3984SOL    HW142446   4.666   0.407   1.495
 3984SOL    HW242447   4.660   0.282   1.581
 3985SOL     OW42448   4.646   2.233   1.531
 3985SOL    HW142449   4.697   2.292   1.475
 3985SOL    HW242450   4.654   2.147   1.490
 3986SOL     OW42451   4.605   4.062   1.484
 3986SOL    HW142452   4.671   4.128   1.463
 3986SOL    HW242453   4.651   3.978   1.476
 3987SOL     OW42454   6.438   1.286   1.584
 3987SOL    HW142455   6.352   1.326   1.594
 3987SOL    HW242456   6.428   1.222   1.514
 3988SOL     OW42457   0.041   3.066   1.592
 3988SOL    HW142458   6.443   3.053   1.510
 3988SOL    HW242459   0.004   3.000   1.651
 3989SOL     OW42460   0.011   4.998   1.529
 3989SOL    HW142461   6.407   5.060   1.578
 3989SOL    HW242462   0.016   4.921   1.585
 3990SOL     OW42463   1.854   3.130   1.536
 3990SOL    HW142464   1.766   3.130   1.496
 3990SOL    HW242465   1.851   3.058   1.599
 3991SOL     OW42466   1.924   5.026   1.542
 3991SOL    HW142467   1.834   5.030   1.512
 3991SOL    HW242468   1.926   4.951   1.602
 3992SOL     OW42469   3.744   1.342   1.547
 3992SOL    HW142470   3.651   1.347   1.525
 3992SOL    HW242471   3.749   1.277   1.617
 3993SOL     OW42472   3.767   3.156   1.555
 3993SOL    HW142473   3.679   3.190   1.540
 3993SOL    HW242474   3.754   3.077   1.607
 3994SOL     OW42475   1.424   2.985  11.274
 3994SOL    HW142476   1.506   2.964  11.230
 3994SOL    HW242477   1.392   3.064  11.229
 3995SOL     OW42478   3.278   1.149  11.304
 3995SOL    HW142479   3.353   1.148  11.244
 3995SOL    HW242480   3.227   1.226  11.276
 3996SOL     OW42481   5.137   2.993  11.306
 3996SOL    HW142482   5.217   2.968  11.259
 3996SOL    HW242483   5.104   3.069  11.258
 3997SOL     OW42484   0.192   5.171  11.282
 3997SOL    HW142485   0.132   5.239  11.315
 3997SOL    HW242486   0.145   5.089  11.296
 3998SOL     OW42487   2.070   5.153  11.257
 3998SOL    HW142488   2.036   5.230  11.303
 3998SOL    HW242489   2.031   5.078  11.303
 3999SOL     OW42490   3.953   1.454  11.230
 3999SOL    HW142491   3.958   1.549  11.231
 3999SOL    HW242492   3.912   1.431  11.313
 4000SOL     OW42493   3.961   5.115  11.299
 4000SOL    HW142494   3.972   5.188  11.238
 4000SOL    HW242495   3.989   5.150  11.383
 4001SOL     OW42496   5.889   1.415  11.357
 4001SOL    HW142497   5.856   1.505  11.353
 4001SOL    HW242498   5.812   1.362  11.378
 4002SOL     OW42499   5.723   3.382  11.275
 4002SOL    HW142500   5.704   3.414  11.363
 4002SOL    HW242501   5.727   3.287  11.284
 4003SOL     OW42502   5.799   5.165  11.234
 4003SOL    HW142503   5.781   5.234  11.298
 4003SOL    HW242504   5.770   5.085  11.277
 4004SOL     OW42505   1.762   1.984  11.228
 4004SOL    HW142506   1.813   1.956  11.152
 4004SOL    HW242507   1.713   1.906  11.255
 4005SOL     OW42508   1.664   3.814  11.261
 4005SOL    HW142509   1.726   3.865  11.313
 4005SOL    HW242510   1.698   3.724  11.265
 4006SOL     OW42511   1.753   5.721  11.205
 4006SOL    HW142512   1.767   5.680  11.120
 4006SOL    HW242513   1.717   5.651  11.260
 4007SOL     OW42514   3.589   2.013  11.250
 4007SOL    HW142515   3.629   2.003  11.164
 4007SOL    HW242516   3.565   1.924  11.276
 4008SOL     OW42517   5.391   1.919  11.265
 4008SOL    HW142518   5.463   1.959  11.315
 4008SOL    HW242519   5.411   1.826  11.263
 4009SOL     OW42520   5.517   5.757  11.241
 4009SOL    HW142521   5.548   5.709  11.164
 4009SOL    HW242522   5.478   5.689  11.296
 4010SOL     OW42523   0.528   0.395  11.288
 4010SOL    HW142524   0.515   0.314  11.238
 4010SOL    HW242525   0.448   0.404  11.340
 4011SOL     OW42526   2.357   0.442  11.275
 4011SOL    HW142527   2.393   0.374  11.218
 4011SOL    HW242528   2.287   0.399  11.323
 4012SOL     OW42529   2.334   2.173  11.305
 4012SOL    HW142530   2.305   2.235  11.238
 4012SOL    HW242531   2.259   2.166  11.364
 4013SOL     OW42532   4.192   0.392  11.306
 4013SOL    HW142533   4.177   0.357  11.218
 4013SOL    HW242534   4.119   0.360  11.358
 4014SOL     OW42535   6.094   0.389  11.300
 4014SOL    HW142536   6.122   0.299  11.283
 4014SOL    HW242537   6.010   0.381  11.344
 4015SOL     OW42538   6.116   2.206  11.284
 4015SOL    HW142539   6.072   2.255  11.215
 4015SOL    HW242540   6.048   2.192  11.350
 4016SOL     OW42541   1.810   0.622   1.606
 4016SOL    HW142542   1.758   0.586   1.533
 4016SOL    HW242543   1.821   0.548   1.666
 4017SOL     OW42544   1.737   6.251   1.594
 4017SOL    HW142545   1.741   6.222   1.503
 4017SOL    HW242546   1.763   6.173   1.644
 4018SOL     OW42547   3.594   0.688   1.546
 4018SOL    HW142548   3.558   0.638   1.473
 4018SOL    HW242549   3.622   0.622   1.609
 4019SOL     OW42550   3.548   2.442   1.642
 4019SOL    HW142551   3.555   2.434   1.546
 4019SOL    HW242552   3.533   2.353   1.672
 4020SOL     OW42553   3.642   6.189   1.573
 4020SOL    HW142554   3.598   6.186   1.487
 4020SOL    HW242555   3.618   6.107   1.615
 4021SOL     OW42556   5.522   0.631   1.611
 4021SOL    HW142557   5.484   0.609   1.526
 4021SOL    HW242558   5.449   0.626   1.673
 4022SOL     OW42559   5.536   2.465   1.607
 4022SOL    HW142560   5.483   2.442   1.531
 4022SOL    HW242561   5.503   2.408   1.677
 4023SOL     OW42562   5.387   4.355   1.574
 4023SOL    HW142563   5.443   4.337   1.498
 4023SOL    HW242564   5.449   4.367   1.646
 4024SOL     OW42565   0.582   1.907  11.169
 4024SOL    HW142566   0.493   1.924  11.200
 4024SOL    HW242567   0.582   1.936  11.078
 4025SOL     OW42568   2.330   0.036  11.331
 4025SOL    HW142569   2.279   0.115  11.350
 4025SOL    HW242570   2.391   0.063  11.262
 4026SOL     OW42571   2.380   1.916  11.215
 4026SOL    HW142572   2.302   1.887  11.262
 4026SOL    HW242573   2.391   2.007  11.241
 4027SOL     OW42574   4.234   0.034  11.146
 4027SOL    HW142575   4.169   0.029  11.217
 4027SOL    HW242576   4.213   0.116  11.100
 4028SOL     OW42577   6.186   0.105  11.278
 4028SOL    HW142578   6.097   0.080  11.303
 4028SOL    HW242579   6.177   0.134  11.187
 4029SOL     OW42580   6.127   1.939  11.198
 4029SOL    HW142581   6.039   1.916  11.228
 4029SOL    HW242582   6.138   2.030  11.224
 4030SOL     OW42583   1.154   1.659   1.682
 4030SOL    HW142584   1.070   1.701   1.667
 4030SOL    HW242585   1.190   1.645   1.594
 4031SOL     OW42586   1.170   5.527   1.593
 4031SOL    HW142587   1.082   5.519   1.630
 4031SOL    HW242588   1.183   5.448   1.542
 4032SOL     OW42589   3.002   1.795   1.668
 4032SOL    HW142590   2.915   1.770   1.699
 4032SOL    HW242591   3.025   1.727   1.605
 4033SOL     OW42592   3.024   3.664   1.553
 4033SOL    HW142593   2.998   3.652   1.644
 4033SOL    HW242594   3.068   3.582   1.530
 4034SOL     OW42595   4.878   5.502   1.594
 4034SOL    HW142596   4.785   5.490   1.614
 4034SOL    HW242597   4.898   5.437   1.527
 4035SOL     OW42598   0.203   0.882   1.556
 4035SOL    HW142599   0.262   0.954   1.533
 4035SOL    HW242600   0.243   0.841   1.632
 4036SOL     OW42601   0.337   2.742   1.598
 4036SOL    HW142602   0.353   2.783   1.513
 4036SOL    HW242603   0.292   2.660   1.576
 4037SOL     OW42604   0.252   4.651   1.630
 4037SOL    HW142605   0.342   4.683   1.618
 4037SOL    HW242606   0.253   4.564   1.590
 4038SOL     OW42607   2.144   0.912   1.603
 4038SOL    HW142608   2.232   0.934   1.573
 4038SOL    HW242609   2.123   0.830   1.558
 4039SOL     OW42610   2.173   2.863   1.610
 4039SOL    HW142611   2.265   2.884   1.596
 4039SOL    HW242612   2.151   2.801   1.540
 4040SOL     OW42613   4.164   4.671   1.674
 4040SOL    HW142614   4.233   4.682   1.608
 4040SOL    HW242615   4.100   4.614   1.632
 4041SOL     OW42616   5.886   0.862   1.638
 4041SOL    HW142617   5.920   0.915   1.566
 4041SOL    HW242618   5.843   0.788   1.596
 4042SOL     OW42619   5.943   4.688   1.661
 4042SOL    HW142620   6.026   4.691   1.614
 4042SOL    HW242621   5.883   4.645   1.601
 4043SOL     OW42622   0.827   1.851  11.264
 4043SOL    HW142623   0.872   1.870  11.182
 4043SOL    HW242624   0.735   1.872  11.246
 4044SOL     OW42625   0.839   3.789  11.296
 4044SOL    HW142626   0.875   3.864  11.247
 4044SOL    HW242627   0.749   3.814  11.315
 4045SOL     OW42628   0.803   5.587  11.258
 4045SOL    HW142629   0.828   5.597  11.167
 4045SOL    HW242630   0.708   5.603  11.260
 4046SOL     OW42631   4.484   6.387  11.189
 4046SOL    HW142632   4.486   6.432  11.273
 4046SOL    HW242633   4.394   6.397  11.158
 4047SOL     OW42634   6.422   6.421  11.223
 4047SOL    HW142635   0.018   0.035  11.168
 4047SOL    HW242636   6.340   0.014  11.246
 4048SOL     OW42637   6.352   1.796  11.258
 4048SOL    HW142638   6.416   1.858  11.223
 4048SOL    HW242639   6.267   1.836  11.241
 4049SOL     OW42640   6.435   5.561  11.262
 4049SOL    HW142641   0.073   5.588  11.291
 4049SOL    HW242642   6.385   5.643  11.258
 4050SOL     OW42643   0.329   4.863  11.182
 4050SOL    HW142644   0.311   4.939  11.127
 4050SOL    HW242645   0.363   4.797  11.121
 4051SOL     OW42646   2.243   1.127  11.227
 4051SOL    HW142647   2.205   1.196  11.173
 4051SOL    HW242648   2.228   1.047  11.178
 4052SOL     OW42649   4.068   1.110  11.210
 4052SOL    HW142650   4.058   1.171  11.138
 4052SOL    HW242651   4.104   1.031  11.170
 4053SOL     OW42652   0.657   1.427  11.219
 4053SOL    HW142653   0.675   1.341  11.181
 4053SOL    HW242654   0.592   1.466  11.161
 4054SOL     OW42655   0.688   3.393  11.176
 4054SOL    HW142656   0.717   3.325  11.115
 4054SOL    HW242657   0.594   3.402  11.160
 4055SOL     OW42658   0.163   3.565  11.219
 4055SOL    HW142659   0.204   3.642  11.258
 4055SOL    HW242660   0.180   3.574  11.125
 4056SOL     OW42661   2.198   1.633  11.232
 4056SOL    HW142662   2.160   1.712  11.271
 4056SOL    HW242663   2.227   1.661  11.145
 4057SOL     OW42664   3.971   1.727  11.203
 4057SOL    HW142665   3.984   1.797  11.267
 4057SOL    HW242666   4.047   1.733  11.145
 4058SOL     OW42667   3.959   3.566  11.328
 4058SOL    HW142668   4.021   3.607  11.388
 4058SOL    HW242669   4.008   3.552  11.247
 4059SOL     OW42670   3.995   5.355  11.177
 4059SOL    HW142671   4.002   5.430  11.236
 4059SOL    HW242672   4.000   5.394  11.089
 4060SOL     OW42673   0.932   0.220  11.234
 4060SOL    HW142674   0.848   0.176  11.220
 4060SOL    HW242675   0.960   0.247  11.147
 4061SOL     OW42676   0.389   2.582  11.257
 4061SOL    HW142677   0.389   2.587  11.162
 4061SOL    HW242678   0.304   2.545  11.279
 4062SOL     OW42679   0.429   4.377  11.172
 4062SOL    HW142680   0.432   4.282  11.160
 4062SOL    HW242681   0.340   4.394  11.205
 4063SOL     OW42682   0.956   3.999  11.173
 4063SOL    HW142683   0.932   4.040  11.090
 4063SOL    HW242684   1.052   3.995  11.171
 4064SOL     OW42685   2.235   0.681  11.183
 4064SOL    HW142686   2.292   0.607  11.204
 4064SOL    HW242687   2.162   0.672  11.244
 4065SOL     OW42688   2.840   0.198  11.193
 4065SOL    HW142689   2.806   0.286  11.178
 4065SOL    HW242690   2.935   0.208  11.187
 4066SOL     OW42691   4.704   0.172  11.251
 4066SOL    HW142692   4.627   0.224  11.230
 4066SOL    HW242693   4.728   0.129  11.169
 4067SOL     OW42694   4.138   2.560  11.187
 4067SOL    HW142695   4.167   2.507  11.113
 4067SOL    HW242696   4.057   2.517  11.216
 4068SOL     OW42697   4.720   2.114  11.211
 4068SOL    HW142698   4.686   2.125  11.122
 4068SOL    HW242699   4.814   2.132  11.203
 4069SOL     OW42700   4.116   6.227  11.270
 4069SOL    HW142701   4.135   6.210  11.178
 4069SOL    HW242702   4.021   6.221  11.277
 4070SOL     OW42703   4.711   5.821  11.209
 4070SOL    HW142704   4.689   5.831  11.116
 4070SOL    HW242705   4.804   5.842  11.214
 4071SOL     OW42706   5.983   4.318  11.237
 4071SOL    HW142707   5.983   4.224  11.220
 4071SOL    HW242708   5.896   4.335  11.274
 4072SOL     OW42709   0.575   2.562   1.655
 4072SOL    HW142710   0.551   2.642   1.609
 4072SOL    HW242711   0.525   2.566   1.737
 4073SOL     OW42712   0.622   4.426   1.598
 4073SOL    HW142713   0.617   4.502   1.541
 4073SOL    HW242714   0.603   4.459   1.685
 4074SOL     OW42715   0.641   6.273   1.683
 4074SOL    HW142716   0.627   6.334   1.611
 4074SOL    HW242717   0.562   6.282   1.738
 4075SOL     OW42718   2.449   0.697   1.576
 4075SOL    HW142719   2.464   0.790   1.559
 4075SOL    HW242720   2.388   0.696   1.651
 4076SOL     OW42721   4.363   0.727   1.598
 4076SOL    HW142722   4.358   0.814   1.557
 4076SOL    HW242723   4.294   0.729   1.665
 4077SOL     OW42724   4.338   2.566   1.668
 4077SOL    HW142725   4.368   2.630   1.604
 4077SOL    HW242726   4.242   2.576   1.669
 4078SOL     OW42727   4.343   6.331   1.674
 4078SOL    HW142728   4.322   6.385   1.598
 4078SOL    HW242729   4.259   6.316   1.717
 4079SOL     OW42730   6.165   6.355   1.580
 4079SOL    HW142731   6.176   6.426   1.517
 4079SOL    HW242732   6.093   6.384   1.636
 4080SOL     OW42733   1.419   3.454  11.238
 4080SOL    HW142734   1.464   3.484  11.160
 4080SOL    HW242735   1.371   3.530  11.270
 4081SOL     OW42736   0.986   5.163  11.176
 4081SOL    HW142737   0.993   5.238  11.118
 4081SOL    HW242738   0.940   5.196  11.254
 4082SOL     OW42739   4.692   3.317  11.210
 4082SOL    HW142740   4.699   3.392  11.151
 4082SOL    HW242741   4.782   3.301  11.239
 4083SOL     OW42742   4.771   5.150  11.220
 4083SOL    HW142743   4.708   5.200  11.169
 4083SOL    HW242744   4.743   5.159  11.311
 4084SOL     OW42745   1.232   0.549   1.667
 4084SOL    HW142746   1.224   0.478   1.730
 4084SOL    HW242747   1.212   0.628   1.717
 4085SOL     OW42748   1.236   6.098   1.632
 4085SOL    HW142749   1.263   6.009   1.657
 4085SOL    HW242750   1.180   6.126   1.704
 4086SOL     OW42751   3.072   2.381   1.638
 4086SOL    HW142752   3.084   2.302   1.691
 4086SOL    HW242753   3.015   2.437   1.691
 4087SOL     OW42754   4.954   0.535   1.669
 4087SOL    HW142755   4.954   0.455   1.721
 4087SOL    HW242756   4.941   0.606   1.732
 4088SOL     OW42757   1.626   2.534  11.217
 4088SOL    HW142758   1.574   2.575  11.286
 4088SOL    HW242759   1.581   2.556  11.136
 4089SOL     OW42760   1.651   4.372  11.231
 4089SOL    HW142761   1.594   4.401  11.302
 4089SOL    HW242762   1.603   4.395  11.151
 4090SOL     OW42763   3.413   0.612  11.242
 4090SOL    HW142764   3.394   0.682  11.305
 4090SOL    HW242765   3.420   0.656  11.158
 4091SOL     OW42766   0.242   1.355   1.668
 4091SOL    HW142767   0.149   1.333   1.656
 4091SOL    HW242768   0.248   1.384   1.759
 4092SOL     OW42769   0.282   3.165   1.662
 4092SOL    HW142770   0.192   3.135   1.647
 4092SOL    HW242771   0.276   3.223   1.738
 4093SOL     OW42772   1.999   1.340   1.590
 4093SOL    HW142773   1.957   1.256   1.607
 4093SOL    HW242774   2.055   1.354   1.666
 4094SOL     OW42775   2.113   3.176   1.693
 4094SOL    HW142776   2.037   3.118   1.698
 4094SOL    HW242777   2.101   3.238   1.765
 4095SOL     OW42778   0.917   4.609   1.658
 4095SOL    HW142779   0.993   4.641   1.610
 4095SOL    HW242780   0.930   4.515   1.665
 4096SOL     OW42781   2.821   0.873   1.621
 4096SOL    HW142782   2.887   0.934   1.590
 4096SOL    HW242783   2.869   0.813   1.678
 4097SOL     OW42784   2.826   2.788   1.706
 4097SOL    HW142785   2.877   2.831   1.637
 4097SOL    HW242786   2.864   2.701   1.713
 4098SOL     OW42787   2.738   4.620   1.607
 4098SOL    HW142788   2.811   4.676   1.579
 4098SOL    HW242789   2.775   4.566   1.677
 4099SOL     OW42790   4.688   2.777   1.658
 4099SOL    HW142791   4.747   2.805   1.587
 4099SOL    HW242792   4.677   2.683   1.644
 4100SOL     OW42793   4.593   4.597   1.579
 4100SOL    HW142794   4.671   4.647   1.557
 4100SOL    HW242795   4.602   4.576   1.672
 4101SOL     OW42796   4.679   0.013   1.630
 4101SOL    HW142797   4.611   0.058   1.680
 4101SOL    HW242798   4.694   6.381   1.679
 4102SOL     OW42799   3.111   0.241  11.212
 4102SOL    HW142800   3.172   0.263  11.141
 4102SOL    HW242801   3.116   0.315  11.272
 4103SOL     OW42802   3.142   2.201  11.148
 4103SOL    HW142803   3.179   2.113  11.155
 4103SOL    HW242804   3.159   2.241  11.234
 4104SOL     OW42805   4.982   2.185  11.171
 4104SOL    HW142806   5.041   2.110  11.171
 4104SOL    HW242807   5.006   2.235  11.249
 4105SOL     OW42808   4.970   5.909  11.204
 4105SOL    HW142809   5.053   5.870  11.176
 4105SOL    HW242810   4.994   5.965  11.278
 4106SOL     OW42811   0.005   4.766   1.668
 4106SOL    HW142812   0.090   4.723   1.666
 4106SOL    HW242813   6.418   4.744   1.753
 4107SOL     OW42814   1.928   1.075   1.634
 4107SOL    HW142815   2.011   1.030   1.620
 4107SOL    HW242816   1.879   1.018   1.694
 4108SOL     OW42817   1.945   2.950   1.723
 4108SOL    HW142818   2.026   2.918   1.684
 4108SOL    HW242819   1.923   2.886   1.790
 4109SOL     OW42820   1.923   4.798   1.700
 4109SOL    HW142821   1.995   4.800   1.763
 4109SOL    HW242822   1.944   4.725   1.642
 4110SOL     OW42823   3.731   2.930   1.705
 4110SOL    HW142824   3.769   2.959   1.788
 4110SOL    HW242825   3.705   2.839   1.722
 4111SOL     OW42826   0.771   1.291   1.662
 4111SOL    HW142827   0.678   1.310   1.645
 4111SOL    HW242828   0.771   1.254   1.750
 4112SOL     OW42829   4.474   1.224   1.664
 4112SOL    HW142830   4.409   1.278   1.618
 4112SOL    HW242831   4.555   1.275   1.661
 4113SOL     OW42832   4.391   3.145   1.704
 4113SOL    HW142833   4.400   3.050   1.716
 4113SOL    HW242834   4.470   3.171   1.657
 4114SOL     OW42835   1.656   5.298   1.590
 4114SOL    HW142836   1.708   5.365   1.635
 4114SOL    HW242837   1.593   5.348   1.539
 4115SOL     OW42838   5.331   5.407   1.666
 4115SOL    HW142839   5.298   5.496   1.680
 4115SOL    HW242840   5.284   5.376   1.588
 4116SOL     OW42841   1.333   4.638   1.712
 4116SOL    HW142842   1.294   4.611   1.795
 4116SOL    HW242843   1.278   4.599   1.645
 4117SOL     OW42844   3.174   4.630   1.712
 4117SOL    HW142845   3.218   4.559   1.760
 4117SOL    HW242846   3.083   4.601   1.704
 4118SOL     OW42847   5.072   4.576   1.687
 4118SOL    HW142848   4.994   4.609   1.733
 4118SOL    HW242849   5.043   4.563   1.597
 4119SOL     OW42850   1.666   2.950  11.137
 4119SOL    HW142851   1.675   2.985  11.048
 4119SOL    HW242852   1.688   3.024  11.194
 4120SOL     OW42853   1.686   4.837  11.163
 4120SOL    HW142854   1.717   4.888  11.088
 4120SOL    HW242855   1.666   4.903  11.230
 4121SOL     OW42856   3.625   2.943  10.982
 4121SOL    HW142857   3.665   2.874  11.035
 4121SOL    HW242858   3.554   2.977  11.037
 4122SOL     OW42859   3.580   4.820  11.175
 4122SOL    HW142860   3.656   4.802  11.121
 4122SOL    HW242861   3.581   4.915  11.187
 4123SOL     OW42862   5.474   1.091  11.153
 4123SOL    HW142863   5.532   1.133  11.090
 4123SOL    HW242864   5.434   1.163  11.202
 4124SOL     OW42865   5.368   2.936  11.169
 4124SOL    HW142866   5.444   2.911  11.116
 4124SOL    HW242867   5.401   3.004  11.228
 4125SOL     OW42868   0.143   5.877   1.604
 4125SOL    HW142869   0.125   5.789   1.572
 4125SOL    HW242870   0.155   5.866   1.699
 4126SOL     OW42871   1.996   0.269   1.695
 4126SOL    HW142872   1.972   0.297   1.606
 4126SOL    HW242873   1.962   0.180   1.702
 4127SOL     OW42874   1.879   2.071   1.609
 4127SOL    HW142875   1.895   2.113   1.524
 4127SOL    HW242876   1.934   2.119   1.670
 4128SOL     OW42877   1.863   3.927   1.700
 4128SOL    HW142878   1.844   4.013   1.663
 4128SOL    HW242879   1.948   3.903   1.663
 4129SOL     OW42880   1.067   2.535  11.126
 4129SOL    HW142881   1.088   2.537  11.219
 4129SOL    HW242882   1.007   2.609  11.113
 4130SOL     OW42883   2.954   2.568  11.141
 4130SOL    HW142884   2.979   2.559  11.233
 4130SOL    HW242885   2.863   2.539  11.138
 4131SOL     OW42886   2.926   4.360  11.184
 4131SOL    HW142887   2.960   4.395  11.266
 4131SOL    HW242888   2.848   4.311  11.209
 4132SOL     OW42889   4.769   2.557  11.135
 4132SOL    HW142890   4.809   2.557  11.221
 4132SOL    HW242891   4.682   2.518  11.149
 4133SOL     OW42892   4.747   4.440  11.160
 4133SOL    HW142893   4.782   4.462  11.247
 4133SOL    HW242894   4.768   4.347  11.150
 4134SOL     OW42895   4.711   6.248  11.157
 4134SOL    HW142896   4.712   6.187  11.230
 4134SOL    HW242897   4.627   6.294  11.165
 4135SOL     OW42898   3.259   1.952  11.176
 4135SOL    HW142899   3.237   1.926  11.086
 4135SOL    HW242900   3.355   1.944  11.180
 4136SOL     OW42901   5.143   1.963  11.172
 4136SOL    HW142902   5.162   1.938  11.081
 4136SOL    HW242903   5.228   1.958  11.216
 4137SOL     OW42904   2.252   3.592   1.741
 4137SOL    HW142905   2.308   3.650   1.792
 4137SOL    HW242906   2.307   3.562   1.669
 4138SOL     OW42907   2.393   5.540   1.722
 4138SOL    HW142908   2.427   5.574   1.805
 4138SOL    HW242909   2.469   5.497   1.682
 4139SOL     OW42910   4.221   5.509   1.683
 4139SOL    HW142911   4.270   5.536   1.761
 4139SOL    HW242912   4.277   5.444   1.641
 4140SOL     OW42913   5.999   1.662   1.673
 4140SOL    HW142914   6.052   1.697   1.745
 4140SOL    HW242915   6.062   1.649   1.602
 4141SOL     OW42916   0.741   2.371   1.771
 4141SOL    HW142917   0.797   2.328   1.707
 4141SOL    HW242918   0.695   2.439   1.721
 4142SOL     OW42919   0.885   4.335   1.650
 4142SOL    HW142920   0.889   4.240   1.637
 4142SOL    HW242921   0.794   4.357   1.633
 4143SOL     OW42922   2.671   4.290   1.719
 4143SOL    HW142923   2.711   4.217   1.672
 4143SOL    HW242924   2.624   4.338   1.651
 4144SOL     OW42925   4.450   0.497   1.709
 4144SOL    HW142926   4.512   0.456   1.649
 4144SOL    HW242927   4.428   0.581   1.668
 4145SOL     OW42928   4.599   2.486   1.644
 4145SOL    HW142929   4.605   2.393   1.619
 4145SOL    HW242930   4.505   2.500   1.659
 4146SOL     OW42931   2.477   4.010   1.816
 4146SOL    HW142932   2.459   3.964   1.735
 4146SOL    HW242933   2.526   4.088   1.790
 4147SOL     OW42934   4.332   0.242   1.667
 4147SOL    HW142935   4.344   0.209   1.578
 4147SOL    HW242936   4.361   0.333   1.664
 4148SOL     OW42937   2.678   5.340   1.772
 4148SOL    HW142938   2.640   5.344   1.684
 4148SOL    HW242939   2.690   5.431   1.797
 4149SOL     OW42940   4.610   5.435   1.633
 4149SOL    HW142941   4.530   5.393   1.604
 4149SOL    HW242942   4.597   5.449   1.727
 4150SOL     OW42943   1.859   1.803   1.661
 4150SOL    HW142944   1.792   1.803   1.729
 4150SOL    HW242945   1.864   1.894   1.633
 4151SOL     OW42946   1.901   3.562   1.764
 4151SOL    HW142947   1.959   3.570   1.840
 4151SOL    HW242948   1.828   3.621   1.783
 4152SOL     OW42949   1.833   5.488   1.677
 4152SOL    HW142950   1.916   5.490   1.724
 4152SOL    HW242951   1.810   5.580   1.665
 4153SOL     OW42952   1.246   1.271  11.072
 4153SOL    HW142953   1.277   1.362  11.070
 4153SOL    HW242954   1.192   1.266  11.152
 4154SOL     OW42955   1.355   3.208  11.137
 4154SOL    HW142956   1.378   3.290  11.179
 4154SOL    HW242957   1.302   3.233  11.062
 4155SOL     OW42958   1.248   5.077  11.245
 4155SOL    HW142959   1.274   5.044  11.159
 4155SOL    HW242960   1.156   5.101  11.235
 4156SOL     OW42961   3.124   1.364  11.242
 4156SOL    HW142962   3.121   1.444  11.296
 4156SOL    HW242963   3.035   1.328  11.248
 4157SOL     OW42964   0.678   4.683   1.757
 4157SOL    HW142965   0.677   4.702   1.851
 4157SOL    HW242966   0.769   4.663   1.737
 4158SOL     OW42967   2.607   0.975   1.754
 4158SOL    HW142968   2.636   0.970   1.845
 4158SOL    HW242969   2.681   0.944   1.702
 4159SOL     OW42970   2.566   2.845   1.761
 4159SOL    HW142971   2.562   2.850   1.857
 4159SOL    HW242972   2.658   2.829   1.742
 4160SOL     OW42973   4.454   2.882   1.744
 4160SOL    HW142974   4.443   2.873   1.839
 4160SOL    HW242975   4.542   2.848   1.727
 4161SOL     OW42976   4.477   0.069   1.808
 4161SOL    HW142977   4.426   0.144   1.779
 4161SOL    HW242978   4.435   6.444   1.766
 4162SOL     OW42979   3.715   4.517  11.109
 4162SOL    HW142980   3.762   4.457  11.167
 4162SOL    HW242981   3.644   4.465  11.072
 4163SOL     OW42982   5.539   0.816  11.243
 4163SOL    HW142983   5.606   0.817  11.311
 4163SOL    HW242984   5.551   0.898  11.195
 4164SOL     OW42985   1.595   0.377  11.119
 4164SOL    HW142986   1.569   0.373  11.211
 4164SOL    HW242987   1.596   0.471  11.099
 4165SOL     OW42988   1.610   5.925  11.066
 4165SOL    HW142989   1.653   5.864  11.127
 4165SOL    HW242990   1.592   6.002  11.120
 4166SOL     OW42991   3.509   5.935  11.176
 4166SOL    HW142992   3.436   5.875  11.194
 4166SOL    HW242993   3.471   6.002  11.120
 4167SOL     OW42994   5.371   5.970  11.131
 4167SOL    HW142995   5.422   5.900  11.172
 4167SOL    HW242996   5.403   6.050  11.171
 4168SOL     OW42997   3.448   2.223   1.787
 4168SOL    HW142998   3.476   2.186   1.870
 4168SOL    HW242999   3.396   2.299   1.811
 4169SOL     OW43000   5.225   5.975   1.718
 4169SOL    HW143001   5.272   5.906   1.764
 4169SOL    HW243002   5.190   6.030   1.788
 4170SOL     OW43003   1.832   0.849   1.763
 4170SOL    HW143004   1.884   0.799   1.826
 4170SOL    HW243005   1.810   0.786   1.695
 4171SOL     OW43006   1.889   0.000   1.707
 4171SOL    HW143007   1.916   6.413   1.790
 4171SOL    HW243008   1.824   6.388   1.673
 4172SOL     OW43009   3.663   2.664   1.749
 4172SOL    HW143010   3.723   2.617   1.807
 4172SOL    HW243011   3.614   2.595   1.704
 4173SOL     OW43012   3.746   6.395   1.712
 4173SOL    HW143013   3.825   6.352   1.744
 4173SOL    HW243014   3.703   6.329   1.658
 4174SOL     OW43015   5.564   0.823   1.811
 4174SOL    HW143016   5.653   0.856   1.818
 4174SOL    HW243017   5.566   0.763   1.736
 4175SOL     OW43018   0.711   1.149  11.147
 4175SOL    HW143019   0.708   1.091  11.222
 4175SOL    HW243020   0.691   1.093  11.072
 4176SOL     OW43021   2.518   0.167  11.158
 4176SOL    HW143022   2.554   0.191  11.244
 4176SOL    HW243023   2.595   0.145  11.106
 4177SOL     OW43024   4.473   0.224  11.111
 4177SOL    HW143025   4.421   0.163  11.163
 4177SOL    HW243026   4.525   0.167  11.054
 4178SOL     OW43027   1.202   1.349   1.778
 4178SOL    HW143028   1.249   1.427   1.806
 4178SOL    HW243029   1.164   1.313   1.858
 4179SOL     OW43030   3.093   3.227   1.782
 4179SOL    HW143031   3.161   3.275   1.829
 4179SOL    HW243032   3.016   3.232   1.838
 4180SOL     OW43033   1.867   3.622  11.012
 4180SOL    HW143034   1.839   3.599  11.101
 4180SOL    HW243035   1.930   3.693  11.024
 4181SOL     OW43036   1.886   5.490  11.029
 4181SOL    HW143037   1.959   5.532  11.073
 4181SOL    HW243038   1.900   5.507  10.936
 4182SOL     OW43039   3.723   1.703  11.086
 4182SOL    HW143040   3.810   1.700  11.126
 4182SOL    HW243041   3.715   1.792  11.053
 4183SOL     OW43042   5.627   3.615  11.145
 4183SOL    HW143043   5.671   3.533  11.168
 4183SOL    HW243044   5.676   3.683  11.190
 4184SOL     OW43045   0.898   3.570  11.146
 4184SOL    HW143046   0.817   3.519  11.145
 4184SOL    HW243047   0.877   3.649  11.194
 4185SOL     OW43048   4.613   3.494  11.008
 4185SOL    HW143049   4.578   3.410  10.979
 4185SOL    HW243050   4.539   3.555  11.000
 4186SOL     OW43051   4.588   5.312  11.087
 4186SOL    HW143052   4.524   5.293  11.018
 4186SOL    HW243053   4.655   5.364  11.045
 4187SOL     OW43054   4.212   0.286  11.030
 4187SOL    HW143055   4.232   0.244  10.946
 4187SOL    HW243056   4.297   0.313  11.064
 4188SOL     OW43057   6.171   0.222  11.037
 4188SOL    HW143058   6.208   0.208  10.950
 4188SOL    HW243059   6.158   0.316  11.044
 4189SOL     OW43060   0.794   4.279  11.116
 4189SOL    HW143061   0.828   4.227  11.043
 4189SOL    HW243062   0.740   4.346  11.074
 4190SOL     OW43063   0.843   6.096  11.065
 4190SOL    HW143064   0.848   6.041  10.987
 4190SOL    HW243065   0.772   6.157  11.046
 4191SOL     OW43066   6.424   0.559  11.006
 4191SOL    HW143067   6.429   0.541  11.100
 4191SOL    HW243068   6.341   0.604  10.994
 4192SOL     OW43069  -0.001   4.281  11.112
 4192SOL    HW143070   0.003   4.263  11.018
 4192SOL    HW243071   6.360   4.313  11.127
 4193SOL     OW43072   6.434   6.090  11.107
 4193SOL    HW143073   0.025   6.069  11.024
 4193SOL    HW243074   6.391   6.175  11.092
 4194SOL     OW43075   2.299   1.762  11.009
 4194SOL    HW143076   2.338   1.819  11.074
 4194SOL    HW243077   2.339   1.789  10.926
 4195SOL     OW43078   4.194   1.756  11.051
 4195SOL    HW143079   4.262   1.820  11.073
 4195SOL    HW243080   4.230   1.705  10.980
 4196SOL     OW43081   1.505   3.844   1.691
 4196SOL    HW143082   1.448   3.779   1.650
 4196SOL    HW243083   1.565   3.792   1.745
 4197SOL     OW43084   1.324   5.846   1.695
 4197SOL    HW143085   1.355   5.783   1.629
 4197SOL    HW243086   1.326   5.798   1.777
 4198SOL     OW43087   5.179   0.136   1.700
 4198SOL    HW143088   5.124   0.085   1.641
 4198SOL    HW243089   5.169   0.094   1.785
 4199SOL     OW43090   1.057   6.177   1.825
 4199SOL    HW143091   1.061   6.171   1.921
 4199SOL    HW243092   0.964   6.192   1.806
 4200SOL     OW43093   2.890   0.692   1.826
 4200SOL    HW143094   2.937   0.688   1.909
 4200SOL    HW243095   2.798   0.692   1.850
 4201SOL     OW43096   2.893   2.526   1.789
 4201SOL    HW143097   2.906   2.544   1.882
 4201SOL    HW243098   2.805   2.488   1.784
 4202SOL     OW43099   2.893   4.466   1.777
 4202SOL    HW143100   2.905   4.488   1.869
 4202SOL    HW243101   2.831   4.393   1.778
 4203SOL     OW43102   0.098   0.148  11.060
 4203SOL    HW143103   0.104   0.219  10.996
 4203SOL    HW243104   0.171   0.163  11.120
 4204SOL     OW43105   0.080   1.979  11.160
 4204SOL    HW143106   0.101   2.022  11.077
 4204SOL    HW243107   0.165   1.961  11.200
 4205SOL     OW43108   3.862   0.113  10.984
 4205SOL    HW143109   3.908   0.194  11.005
 4205SOL    HW243110   3.896   0.049  11.047
 4206SOL     OW43111   3.710   1.968  11.011
 4206SOL    HW143112   3.660   1.959  10.930
 4206SOL    HW243113   3.796   2.001  10.983
 4207SOL     OW43114   1.684   4.846   1.816
 4207SOL    HW143115   1.767   4.827   1.772
 4207SOL    HW243116   1.696   4.934   1.852
 4208SOL     OW43117   3.513   4.863   1.832
 4208SOL    HW143118   3.567   4.903   1.763
 4208SOL    HW243119   3.518   4.924   1.905
 4209SOL     OW43120   5.356   1.093   1.851
 4209SOL    HW143121   5.436   1.090   1.799
 4209SOL    HW243122   5.343   1.186   1.871
 4210SOL     OW43123   3.240   0.944  11.038
 4210SOL    HW143124   3.182   0.919  11.109
 4210SOL    HW243125   3.206   0.896  10.962
 4211SOL     OW43126   3.160   2.738  11.052
 4211SOL    HW143127   3.086   2.678  11.063
 4211SOL    HW243128   3.186   2.726  10.960
 4212SOL     OW43129   5.001   2.782  10.964
 4212SOL    HW143130   4.941   2.796  11.037
 4212SOL    HW243131   5.007   2.687  10.954
 4213SOL     OW43132   1.582   3.499  11.024
 4213SOL    HW143133   1.637   3.559  10.974
 4213SOL    HW243134   1.577   3.420  10.969
 4214SOL     OW43135   1.670   5.330  11.086
 4214SOL    HW143136   1.743   5.384  11.058
 4214SOL    HW243137   1.646   5.278  11.009
 4215SOL     OW43138   0.863   4.999  10.979
 4215SOL    HW143139   0.795   4.951  11.026
 4215SOL    HW243140   0.913   5.043  11.048
 4216SOL     OW43141   4.563   3.209  10.984
 4216SOL    HW143142   4.536   3.118  10.986
 4216SOL    HW243143   4.607   3.224  11.068
 4217SOL     OW43144   3.808   4.762  11.039
 4217SOL    HW143145   3.894   4.747  11.000
 4217SOL    HW243146   3.777   4.674  11.062
 4218SOL     OW43147   5.577   2.856  11.022
 4218SOL    HW143148   5.670   2.842  11.042
 4218SOL    HW243149   5.560   2.801  10.946
 4219SOL     OW43150   3.128   2.150   1.792
 4219SOL    HW143151   3.160   2.093   1.722
 4219SOL    HW243152   3.176   2.123   1.870
 4220SOL     OW43153   5.042   2.196   1.793
 4220SOL    HW143154   4.948   2.202   1.780
 4220SOL    HW243155   5.056   2.233   1.880
 4221SOL     OW43156   4.679   0.903  10.935
 4221SOL    HW143157   4.728   0.984  10.946
 4221SOL    HW243158   4.630   0.892  11.016
 4222SOL     OW43159   4.661   2.790  11.004
 4222SOL    HW143160   4.695   2.786  10.914
 4222SOL    HW243161   4.694   2.711  11.046
 4223SOL     OW43162   4.651   4.530  10.921
 4223SOL    HW143163   4.652   4.624  10.937
 4223SOL    HW243164   4.682   4.491  11.003
 4224SOL     OW43165   4.712   0.049  11.007
 4224SOL    HW143166   4.753   0.032  10.922
 4224SOL    HW243167   4.708   6.413  11.049
 4225SOL     OW43168   0.272   5.099  11.034
 4225SOL    HW143169   0.210   5.144  10.975
 4225SOL    HW243170   0.255   5.136  11.120
 4226SOL     OW43171   2.051   5.045  11.001
 4226SOL    HW143172   1.963   5.010  11.015
 4226SOL    HW243173   2.074   5.086  11.085
 4227SOL     OW43174   4.010   1.296  11.024
 4227SOL    HW143175   3.930   1.307  10.972
 4227SOL    HW243176   3.999   1.357  11.097
 4228SOL     OW43177   5.755   5.095  10.969
 4228SOL    HW143178   5.660   5.103  10.980
 4228SOL    HW243179   5.791   5.121  11.053
 4229SOL     OW43180   3.340   4.460   1.845
 4229SOL    HW143181   3.323   4.437   1.936
 4229SOL    HW243182   3.432   4.485   1.844
 4230SOL     OW43183   5.319   0.680   1.789
 4230SOL    HW143184   5.268   0.667   1.869
 4230SOL    HW243185   5.383   0.746   1.812
 4231SOL     OW43186   5.283   4.541   1.865
 4231SOL    HW143187   5.252   4.502   1.946
 4231SOL    HW243188   5.211   4.529   1.803
 4232SOL     OW43189   3.053   2.380  10.961
 4232SOL    HW143190   3.088   2.309  11.014
 4232SOL    HW243191   3.030   2.448  11.025
 4233SOL     OW43192   3.128   6.118  11.018
 4233SOL    HW143193   3.114   6.060  11.093
 4233SOL    HW243194   3.056   6.180  11.022
 4234SOL     OW43195   4.893   2.363  10.978
 4234SOL    HW143196   4.937   2.306  11.042
 4234SOL    HW243197   4.861   2.437  11.030
 4235SOL     OW43198   4.821   6.033  11.008
 4235SOL    HW143199   4.882   5.999  11.074
 4235SOL    HW243200   4.788   6.114  11.047
 4236SOL     OW43201   1.335   1.594   1.873
 4236SOL    HW143202   1.414   1.621   1.827
 4236SOL    HW243203   1.263   1.624   1.817
 4237SOL     OW43204   2.878   3.227   1.938
 4237SOL    HW143205   2.788   3.230   1.906
 4237SOL    HW243206   2.880   3.153   1.998
 4238SOL     OW43207   0.622   4.450  10.997
 4238SOL    HW143208   0.598   4.527  10.945
 4238SOL    HW243209   0.547   4.437  11.055
 4239SOL     OW43210   6.190   0.691  10.975
 4239SOL    HW143211   6.181   0.756  10.906
 4239SOL    HW243212   6.111   0.701  11.028
 4240SOL     OW43213   0.301   0.741   1.777
 4240SOL    HW143214   0.356   0.665   1.794
 4240SOL    HW243215   0.237   0.741   1.848
 4241SOL     OW43216   0.416   2.565   1.883
 4241SOL    HW143217   0.397   2.474   1.902
 4241SOL    HW243218   0.331   2.605   1.864
 4242SOL     OW43219   0.388   6.276   1.815
 4242SOL    HW143220   0.355   6.215   1.749
 4242SOL    HW243221   0.309   6.316   1.852
 4243SOL     OW43222   2.242   0.670   1.758
 4243SOL    HW143223   2.194   0.596   1.796
 4243SOL    HW243224   2.180   0.742   1.758
 4244SOL     OW43225   2.870   2.051   1.811
 4244SOL    HW143226   2.855   2.028   1.719
 4244SOL    HW243227   2.957   2.090   1.812
 4245SOL     OW43228   4.182   0.686   1.802
 4245SOL    HW143229   4.190   0.591   1.802
 4245SOL    HW243230   4.088   0.702   1.807
 4246SOL     OW43231   4.140   6.282   1.857
 4246SOL    HW143232   4.160   6.193   1.884
 4246SOL    HW243233   4.049   6.295   1.885
 4247SOL     OW43234   5.987   0.677   1.866
 4247SOL    HW143235   6.004   0.602   1.809
 4247SOL    HW243236   5.957   0.746   1.807
 4248SOL     OW43237   0.255   3.712   1.785
 4248SOL    HW143238   0.234   3.742   1.873
 4248SOL    HW243239   0.245   3.617   1.789
 4249SOL     OW43240   2.094   3.586   1.964
 4249SOL    HW143241   2.156   3.614   2.031
 4249SOL    HW243242   2.146   3.584   1.883
 4250SOL     OW43243   2.082   5.524   1.768
 4250SOL    HW143244   2.158   5.499   1.821
 4250SOL    HW243245   2.119   5.565   1.690
 4251SOL     OW43246   0.323   2.926   1.806
 4251SOL    HW143247   0.325   3.005   1.752
 4251SOL    HW243248   0.331   2.854   1.743
 4252SOL     OW43249   2.213   3.003   1.876
 4252SOL    HW143250   2.199   3.071   1.810
 4252SOL    HW243251   2.237   2.925   1.825
 4253SOL     OW43252   2.124   4.814   1.881
 4253SOL    HW143253   2.164   4.894   1.915
 4253SOL    HW243254   2.186   4.745   1.905
 4254SOL     OW43255   6.042   4.779   1.898
 4254SOL    HW143256   5.977   4.842   1.930
 4254SOL    HW243257   6.002   4.741   1.820
 4255SOL     OW43258   2.675   5.603   1.835
 4255SOL    HW143259   2.739   5.674   1.835
 4255SOL    HW243260   2.607   5.631   1.895
 4256SOL     OW43261   4.573   5.521   1.889
 4256SOL    HW143262   4.642   5.588   1.883
 4256SOL    HW243263   4.492   5.571   1.897
 4257SOL     OW43264   2.186   0.920  11.060
 4257SOL    HW143265   2.211   0.902  10.969
 4257SOL    HW243266   2.202   0.838  11.106
 4258SOL     OW43267   2.275   2.808  11.048
 4258SOL    HW143268   2.307   2.860  10.974
 4258SOL    HW243269   2.194   2.769  11.016
 4259SOL     OW43270   4.031   4.632  10.935
 4259SOL    HW143271   4.122   4.626  10.904
 4259SOL    HW243272   3.990   4.552  10.902
 4260SOL     OW43273   4.854   3.623  10.964
 4260SOL    HW143274   4.770   3.585  10.990
 4260SOL    HW243275   4.871   3.587  10.877
 4261SOL     OW43276   4.788   5.428  10.933
 4261SOL    HW143277   4.863   5.371  10.950
 4261SOL    HW243278   4.827   5.512  10.908
 4262SOL     OW43279   2.361   3.774   1.910
 4262SOL    HW143280   2.348   3.776   2.005
 4262SOL    HW243281   2.400   3.859   1.890
 4263SOL     OW43282   2.450   5.681   1.972
 4263SOL    HW143283   2.455   5.687   2.068
 4263SOL    HW243284   2.397   5.757   1.947
 4264SOL     OW43285   4.366   3.750   1.918
 4264SOL    HW143286   4.274   3.763   1.937
 4264SOL    HW243287   4.376   3.779   1.827
 4265SOL     OW43288   4.335   5.649   1.903
 4265SOL    HW143289   4.298   5.645   1.991
 4265SOL    HW243290   4.303   5.731   1.867
 4266SOL     OW43291   0.393   2.299   1.938
 4266SOL    HW143292   0.453   2.265   1.872
 4266SOL    HW243293   0.423   2.262   2.020
 4267SOL     OW43294   2.105   0.449   1.873
 4267SOL    HW143295   2.065   0.391   1.808
 4267SOL    HW243296   2.164   0.393   1.923
 4268SOL     OW43297   1.724   3.756   1.850
 4268SOL    HW143298   1.770   3.819   1.794
 4268SOL    HW243299   1.716   3.801   1.934
 4269SOL     OW43300   3.706   0.030   1.966
 4269SOL    HW143301   3.707   0.018   1.871
 4269SOL    HW243302   3.656   0.111   1.979
 4270SOL     OW43303   0.248   1.432   1.930
 4270SOL    HW143304   0.269   1.520   1.963
 4270SOL    HW243305   0.214   1.386   2.007
 4271SOL     OW43306   2.078   3.317   1.912
 4271SOL    HW143307   2.074   3.405   1.950
 4271SOL    HW243308   2.064   3.259   1.987
 4272SOL     OW43309   1.427   4.847   1.925
 4272SOL    HW143310   1.513   4.833   1.885
 4272SOL    HW243311   1.369   4.867   1.851
 4273SOL     OW43312   3.253   4.813   1.933
 4273SOL    HW143313   3.339   4.834   1.896
 4273SOL    HW243314   3.201   4.786   1.857
 4274SOL     OW43315   1.791   4.964  10.938
 4274SOL    HW143316   1.718   5.007  10.893
 4274SOL    HW243317   1.813   4.890  10.882
 4275SOL     OW43318   5.625   1.213  10.967
 4275SOL    HW143319   5.571   1.288  10.941
 4275SOL    HW243320   5.627   1.157  10.890
 4276SOL     OW43321   0.901   4.108  10.921
 4276SOL    HW143322   0.961   4.146  10.857
 4276SOL    HW243323   0.847   4.047  10.870
 4277SOL     OW43324   4.691   2.187  10.944
 4277SOL    HW143325   4.762   2.251  10.947
 4277SOL    HW243326   4.676   2.173  10.850
 4278SOL     OW43327   5.254   2.893  10.909
 4278SOL    HW143328   5.165   2.862  10.922
 4278SOL    HW243329   5.286   2.913  10.997
 4279SOL     OW43330   0.090   4.421   1.944
 4279SOL    HW143331   0.080   4.336   1.986
 4279SOL    HW243332   0.110   4.481   2.015
 4280SOL     OW43333   1.962   0.682   1.928
 4280SOL    HW143334   2.010   0.599   1.928
 4280SOL    HW243335   1.962   0.710   2.019
 4281SOL     OW43336   1.994   2.473   1.980
 4281SOL    HW143337   1.909   2.429   1.972
 4281SOL    HW243338   1.996   2.504   2.071
 4282SOL     OW43339   1.949   6.298   1.933
 4282SOL    HW143340   1.960   6.203   1.938
 4282SOL    HW243341   1.983   6.331   2.016
 4283SOL     OW43342   3.883   6.276   1.950
 4283SOL    HW143343   3.859   6.213   2.018
 4283SOL    HW243344   3.827   6.351   1.967
 4284SOL     OW43345   5.294   5.331   1.929
 4284SOL    HW143346   5.309   5.349   1.836
 4284SOL    HW243347   5.357   5.263   1.950
 4285SOL     OW43348   0.471   1.284  10.938
 4285SOL    HW143349   0.380   1.314  10.943
 4285SOL    HW243350   0.490   1.279  10.844
 4286SOL     OW43351   0.499   5.022  10.897
 4286SOL    HW143352   0.418   5.043  10.943
 4286SOL    HW243353   0.527   5.106  10.860
 4287SOL     OW43354   4.201   1.378  10.847
 4287SOL    HW143355   4.145   1.350  10.919
 4287SOL    HW243356   4.189   1.312  10.779
 4288SOL     OW43357   3.170   1.908  10.919
 4288SOL    HW143358   3.184   1.834  10.860
 4288SOL    HW243359   3.083   1.941  10.894
 4289SOL     OW43360   5.089   3.760  10.941
 4289SOL    HW143361   5.092   3.768  10.845
 4289SOL    HW243362   5.005   3.718  10.959
 4290SOL     OW43363   5.004   1.813   1.994
 4290SOL    HW143364   5.037   1.865   1.921
 4290SOL    HW243365   4.925   1.858   2.022
 4291SOL     OW43366   4.959   5.608   1.962
 4291SOL    HW143367   5.027   5.542   1.949
 4291SOL    HW243368   4.947   5.612   2.056
 4292SOL     OW43369   4.319   1.621  10.853
 4292SOL    HW143370   4.400   1.611  10.803
 4292SOL    HW243371   4.278   1.535  10.850
 4293SOL     OW43372   4.422   5.276  10.859
 4293SOL    HW143373   4.422   5.317  10.772
 4293SOL    HW243374   4.332   5.249  10.873
 4294SOL     OW43375   6.304   1.681  10.832
 4294SOL    HW143376   6.218   1.658  10.796
 4294SOL    HW243377   6.291   1.681  10.927
 4295SOL     OW43378   6.277   5.374  10.861
 4295SOL    HW143379   6.236   5.420  10.788
 4295SOL    HW243380   6.205   5.355  10.921
 4296SOL     OW43381   1.796   0.994   2.002
 4296SOL    HW143382   1.856   0.929   2.038
 4296SOL    HW243383   1.783   0.967   1.911
 4297SOL     OW43384   1.684   4.633   2.006
 4297SOL    HW143385   1.777   4.627   2.031
 4297SOL    HW243386   1.683   4.700   1.937
 4298SOL     OW43387   3.556   4.627   1.981
 4298SOL    HW143388   3.649   4.635   2.003
 4298SOL    HW243389   3.536   4.706   1.930
 4299SOL     OW43390   5.405   0.897   2.040
 4299SOL    HW143391   5.475   0.855   1.989
 4299SOL    HW243392   5.375   0.969   1.984
 4300SOL     OW43393   0.068   0.009  10.806
 4300SOL    HW143394   0.068   0.104  10.810
 4300SOL    HW243395   0.078   6.431  10.898
 4301SOL     OW43396   1.569   0.211  10.899
 4301SOL    HW143397   1.476   0.228  10.883
 4301SOL    HW243398   1.591   0.264  10.975
 4302SOL     OW43399   1.538   5.874  10.798
 4302SOL    HW143400   1.493   5.793  10.821
 4302SOL    HW243401   1.573   5.907  10.881
 4303SOL     OW43402   3.423   2.001  10.881
 4303SOL    HW143403   3.331   1.978  10.894
 4303SOL    HW243404   3.422   2.095  10.861
 4304SOL     OW43405   2.468   4.867  10.857
 4304SOL    HW143406   2.423   4.888  10.775
 4304SOL    HW243407   2.500   4.778  10.844
 4305SOL     OW43408   1.166   1.239  10.811
 4305SOL    HW143409   1.078   1.205  10.825
 4305SOL    HW243410   1.206   1.239  10.898
 4306SOL     OW43411   6.389   3.458  10.885
 4306SOL    HW143412   6.345   3.375  10.871
 4306SOL    HW243413   6.319   3.523  10.883
 4307SOL     OW43414   0.636   1.984  10.903
 4307SOL    HW143415   0.726   1.987  10.870
 4307SOL    HW243416   0.586   2.036  10.839
 4308SOL     OW43417   0.090   5.274  10.906
 4308SOL    HW143418   0.000   5.279  10.872
 4308SOL    HW243419   0.101   5.354  10.957
 4309SOL     OW43420   0.698   5.726  10.796
 4309SOL    HW143421   0.770   5.675  10.757
 4309SOL    HW243422   0.622   5.706  10.742
 4310SOL     OW43423   1.817   3.434  10.823
 4310SOL    HW143424   1.902   3.392  10.811
 4310SOL    HW243425   1.834   3.506  10.884
 4311SOL     OW43426   1.855   5.240  10.865
 4311SOL    HW143427   1.857   5.148  10.890
 4311SOL    HW243428   1.893   5.287  10.939
 4312SOL     OW43429   4.316   0.167  10.808
 4312SOL    HW143430   4.388   0.120  10.766
 4312SOL    HW243431   4.272   0.212  10.736
 4313SOL     OW43432   6.241   3.718  10.742
 4313SOL    HW143433   6.241   3.798  10.795
 4313SOL    HW243434   6.170   3.733  10.679
 4314SOL     OW43435   0.109   0.557  10.775
 4314SOL    HW143436   0.063   0.564  10.859
 4314SOL    HW243437   0.181   0.620  10.783
 4315SOL     OW43438   0.260   2.512  10.730
 4315SOL    HW143439   0.208   2.531  10.808
 4315SOL    HW243440   0.208   2.448  10.681
 4316SOL     OW43441   2.118   4.293  10.842
 4316SOL    HW143442   2.045   4.320  10.898
 4316SOL    HW243443   2.082   4.295  10.753
 4317SOL     OW43444   3.933   4.400  10.824
 4317SOL    HW143445   3.855   4.351  10.852
 4317SOL    HW243446   3.964   4.353  10.746
 4318SOL     OW43447   5.761   2.503  10.742
 4318SOL    HW143448   5.676   2.514  10.701
 4318SOL    HW243449   5.822   2.490  10.669
 4319SOL     OW43450   0.908   0.448   2.053
 4319SOL    HW143451   0.993   0.492   2.051
 4319SOL    HW243452   0.910   0.389   1.978
 4320SOL     OW43453   2.736   4.213   1.973
 4320SOL    HW143454   2.702   4.248   1.891
 4320SOL    HW243455   2.763   4.124   1.952
 4321SOL     OW43456   6.446   2.243   2.069
 4321SOL    HW143457   6.361   2.257   2.027
 4321SOL    HW243458   0.057   2.232   1.996
 4322SOL     OW43459   5.554   2.310   1.924
 4322SOL    HW143460   5.554   2.337   2.016
 4322SOL    HW243461   5.607   2.230   1.922
 4323SOL     OW43462   0.608   2.623   2.071
 4323SOL    HW143463   0.682   2.651   2.017
 4323SOL    HW243464   0.537   2.607   2.008
 4324SOL     OW43465   0.579   6.278   2.021
 4324SOL    HW143466   0.557   6.365   2.056
 4324SOL    HW243467   0.518   6.265   1.948
 4325SOL     OW43468   2.421   6.349   2.103
 4325SOL    HW143469   2.475   6.420   2.137
 4325SOL    HW243470   2.415   6.366   2.009
 4326SOL     OW43471   4.301   0.708   2.049
 4326SOL    HW143472   4.395   0.708   2.029
 4326SOL    HW243473   4.259   0.711   1.963
 4327SOL     OW43474   4.361   2.552   1.986
 4327SOL    HW143475   4.389   2.644   1.984
 4327SOL    HW243476   4.357   2.527   1.894
 4328SOL     OW43477   4.284   4.525   2.105
 4328SOL    HW143478   4.350   4.574   2.057
 4328SOL    HW243479   4.228   4.486   2.038
 4329SOL     OW43480   4.352   6.380   2.014
 4329SOL    HW143481   4.408   6.439   1.964
 4329SOL    HW243482   4.277   6.364   1.957
 4330SOL     OW43483   6.153   0.803   2.105
 4330SOL    HW143484   6.233   0.797   2.053
 4330SOL    HW243485   6.087   0.758   2.052
 4331SOL     OW43486   6.168   6.385   2.053
 4331SOL    HW143487   6.209   6.445   1.991
 4331SOL    HW243488   6.081   6.369   2.017
 4332SOL     OW43489   2.054   3.099   2.073
 4332SOL    HW143490   2.000   3.025   2.101
 4332SOL    HW243491   2.115   3.062   2.009
 4333SOL     OW43492   3.821   3.052   2.018
 4333SOL    HW143493   3.787   2.991   2.083
 4333SOL    HW243494   3.811   3.138   2.058
 4334SOL     OW43495   5.804   3.045   2.074
 4334SOL    HW143496   5.788   2.997   2.156
 4334SOL    HW243497   5.732   3.020   2.017
 4335SOL     OW43498   3.523   5.030   2.041
 4335SOL    HW143499   3.571   5.099   2.087
 4335SOL    HW243500   3.456   5.003   2.102
 4336SOL     OW43501   2.908   0.923  10.801
 4336SOL    HW143502   2.911   0.959  10.712
 4336SOL    HW243503   2.998   0.895  10.818
 4337SOL     OW43504   4.829   0.965  10.704
 4337SOL    HW143505   4.758   0.926  10.755
 4337SOL    HW243506   4.898   0.898  10.704
 4338SOL     OW43507   4.793   2.799  10.764
 4338SOL    HW143508   4.785   2.863  10.693
 4338SOL    HW243509   4.879   2.815  10.801
 4339SOL     OW43510   0.686   4.740   2.030
 4339SOL    HW143511   0.761   4.731   2.089
 4339SOL    HW243512   0.637   4.815   2.065
 4340SOL     OW43513   2.671   0.918   2.029
 4340SOL    HW143514   2.706   0.929   2.118
 4340SOL    HW243515   2.576   0.922   2.040
 4341SOL     OW43516   2.564   2.864   2.037
 4341SOL    HW143517   2.620   2.858   2.114
 4341SOL    HW243518   2.489   2.915   2.065
 4342SOL     OW43519   2.577   0.112   2.165
 4342SOL    HW143520   2.667   0.104   2.197
 4342SOL    HW243521   2.563   0.206   2.155
 4343SOL     OW43522   4.448   2.873   2.015
 4343SOL    HW143523   4.542   2.883   2.027
 4343SOL    HW243524   4.409   2.915   2.092
 4344SOL     OW43525   6.319   3.010   2.073
 4344SOL    HW143526   6.364   2.928   2.094
 4344SOL    HW243527   6.228   2.995   2.099
 4345SOL     OW43528   6.307   4.709   1.890
 4345SOL    HW143529   6.313   4.632   1.946
 4345SOL    HW243530   6.216   4.737   1.898
 4346SOL     OW43531   1.597   3.281  10.841
 4346SOL    HW143532   1.677   3.330  10.823
 4346SOL    HW243533   1.602   3.204  10.784
 4347SOL     OW43534   1.614   5.094  10.784
 4347SOL    HW143535   1.647   5.174  10.745
 4347SOL    HW243536   1.577   5.045  10.711
 4348SOL     OW43537   5.437   1.350  10.828
 4348SOL    HW143538   5.392   1.412  10.771
 4348SOL    HW243539   5.437   1.267  10.780
 4349SOL     OW43540   3.272   6.116  10.785
 4349SOL    HW143541   3.212   6.106  10.859
 4349SOL    HW243542   3.345   6.167  10.820
 4350SOL     OW43543   5.033   0.694  10.719
 4350SOL    HW143544   5.001   0.638  10.789
 4350SOL    HW243545   5.114   0.652  10.689
 4351SOL     OW43546   1.260   4.642   2.000
 4351SOL    HW143547   1.309   4.593   2.065
 4351SOL    HW243548   1.314   4.719   1.982
 4352SOL     OW43549   3.152   4.637   2.121
 4352SOL    HW143550   3.225   4.576   2.131
 4352SOL    HW243551   3.183   4.700   2.055
 4353SOL     OW43552   5.037   0.916   2.035
 4353SOL    HW143553   5.104   0.854   2.008
 4353SOL    HW243554   5.065   1.000   1.998
 4354SOL     OW43555   5.070   4.712   2.010
 4354SOL    HW143556   5.094   4.633   2.060
 4354SOL    HW243557   5.145   4.727   1.953
 4355SOL     OW43558   2.684   5.278   2.039
 4355SOL    HW143559   2.698   5.297   1.947
 4355SOL    HW243560   2.607   5.221   2.041
 4356SOL     OW43561   4.542   3.474   2.057
 4356SOL    HW143562   4.498   3.535   1.998
 4356SOL    HW243563   4.493   3.392   2.048
 4357SOL     OW43564   4.591   5.310   2.058
 4357SOL    HW143565   4.587   5.381   1.994
 4357SOL    HW243566   4.520   5.251   2.032
 4358SOL     OW43567   3.095   0.511   2.140
 4358SOL    HW143568   3.053   0.594   2.119
 4358SOL    HW243569   3.144   0.528   2.220
 4359SOL     OW43570   5.049   2.315   2.049
 4359SOL    HW143571   5.017   2.406   2.049
 4359SOL    HW243572   5.077   2.299   2.139
 4360SOL     OW43573   1.100   2.941   2.093
 4360SOL    HW143574   1.031   2.912   2.154
 4360SOL    HW243575   1.091   2.883   2.018
 4361SOL     OW43576   1.029   4.793   1.983
 4361SOL    HW143577   0.977   4.774   2.062
 4361SOL    HW243578   1.101   4.730   1.986
 4362SOL     OW43579   2.877   2.995   2.076
 4362SOL    HW143580   2.828   2.940   2.136
 4362SOL    HW243581   2.904   2.936   2.006
 4363SOL     OW43582   4.705   2.914   2.043
 4363SOL    HW143583   4.738   2.979   2.105
 4363SOL    HW243584   4.774   2.907   1.977
 4364SOL     OW43585   1.474   1.435   2.095
 4364SOL    HW143586   1.397   1.462   2.144
 4364SOL    HW243587   1.465   1.478   2.010
 4365SOL     OW43588   3.333   1.475   2.111
 4365SOL    HW143589   3.346   1.554   2.164
 4365SOL    HW243590   3.305   1.508   2.025
 4366SOL     OW43591   5.161   3.344   2.195
 4366SOL    HW143592   5.144   3.253   2.167
 4366SOL    HW243593   5.243   3.367   2.151
 4367SOL     OW43594   3.342   3.542  10.741
 4367SOL    HW143595   3.251   3.510  10.747
 4367SOL    HW243596   3.388   3.474  10.693
 4368SOL     OW43597   1.363   4.597  10.654
 4368SOL    HW143598   1.365   4.546  10.735
 4368SOL    HW243599   1.290   4.559  10.604
 4369SOL     OW43600   3.169   0.853  10.790
 4369SOL    HW143601   3.180   0.782  10.727
 4369SOL    HW243602   3.216   0.927  10.751
 4370SOL     OW43603   3.215   2.667  10.789
 4370SOL    HW143604   3.189   2.576  10.775
 4370SOL    HW243605   3.271   2.687  10.713
 4371SOL     OW43606   3.287   1.111  10.787
 4371SOL    HW143607   3.305   1.077  10.874
 4371SOL    HW243608   3.223   1.181  10.800
 4372SOL     OW43609   0.090   0.284  10.798
 4372SOL    HW143610   0.095   0.258  10.706
 4372SOL    HW243611   0.096   0.379  10.797
 4373SOL     OW43612   0.076   5.969  10.675
 4373SOL    HW143613   6.442   5.925  10.685
 4373SOL    HW243614   0.054   6.061  10.659
 4374SOL     OW43615   1.895   0.423  10.689
 4374SOL    HW143616   1.909   0.348  10.631
 4374SOL    HW243617   1.978   0.434  10.735
 4375SOL     OW43618   1.884   2.141  10.671
 4375SOL    HW143619   1.800   2.138  10.716
 4375SOL    HW243620   1.923   2.225  10.698
 4376SOL     OW43621   3.821   5.953  10.656
 4376SOL    HW143622   3.762   5.939  10.729
 4376SOL    HW243623   3.869   6.033  10.677
 4377SOL     OW43624   1.246   1.475  10.694
 4377SOL    HW143625   1.215   1.392  10.729
 4377SOL    HW243626   1.166   1.522  10.670
 4378SOL     OW43627   4.898   3.508  10.723
 4378SOL    HW143628   4.968   3.444  10.715
 4378SOL    HW243629   4.833   3.481  10.658
 4379SOL     OW43630   1.149   0.557   2.111
 4379SOL    HW143631   1.210   0.629   2.127
 4379SOL    HW243632   1.107   0.542   2.196
 4380SOL     OW43633   2.981   0.756   2.090
 4380SOL    HW143634   3.048   0.821   2.068
 4380SOL    HW243635   2.906   0.809   2.118
 4381SOL     OW43636   2.917   4.522   2.042
 4381SOL    HW143637   2.994   4.567   2.077
 4381SOL    HW243638   2.890   4.463   2.111
 4382SOL     OW43639   4.963   0.687   2.173
 4382SOL    HW143640   4.962   0.776   2.136
 4382SOL    HW243641   4.875   0.676   2.209
 4383SOL     OW43642   5.858   0.294   2.170
 4383SOL    HW143643   5.820   0.379   2.149
 4383SOL    HW243644   5.863   0.293   2.266
 4384SOL     OW43645   4.401   3.231   2.058
 4384SOL    HW143646   4.313   3.225   2.096
 4384SOL    HW243647   4.392   3.193   1.970
 4385SOL     OW43648   6.193   3.253   2.123
 4385SOL    HW143649   6.124   3.188   2.134
 4385SOL    HW243650   6.269   3.203   2.092
 4386SOL     OW43651   1.472   4.568   2.161
 4386SOL    HW143652   1.490   4.480   2.195
 4386SOL    HW243653   1.546   4.587   2.104
 4387SOL     OW43654   3.376   4.477   2.124
 4387SOL    HW143655   3.422   4.427   2.192
 4387SOL    HW243656   3.443   4.532   2.084
 4388SOL     OW43657   5.203   0.689   2.035
 4388SOL    HW143658   5.133   0.666   2.096
 4388SOL    HW243659   5.268   0.735   2.089
 4389SOL     OW43660   5.177   4.473   2.120
 4389SOL    HW143661   5.116   4.410   2.158
 4389SOL    HW243662   5.249   4.476   2.183
 4390SOL     OW43663   1.120   2.424  10.724
 4390SOL    HW143664   1.031   2.459  10.715
 4390SOL    HW243665   1.135   2.421  10.818
 4391SOL     OW43666   2.691   1.501  10.631
 4391SOL    HW143667   2.631   1.461  10.695
 4391SOL    HW243668   2.778   1.481  10.665
 4392SOL     OW43669   2.969   2.418  10.708
 4392SOL    HW143670   2.910   2.492  10.722
 4392SOL    HW243671   3.000   2.395  10.796
 4393SOL     OW43672   4.622   3.201  10.710
 4393SOL    HW143673   4.600   3.206  10.803
 4393SOL    HW243674   4.644   3.291  10.686
 4394SOL     OW43675   4.623   5.166  10.690
 4394SOL    HW143676   4.569   5.173  10.768
 4394SOL    HW243677   4.653   5.256  10.674
 4395SOL     OW43678   3.441   2.237   2.075
 4395SOL    HW143679   3.389   2.303   2.122
 4395SOL    HW243680   3.521   2.228   2.127
 4396SOL     OW43681   0.360   3.050   2.053
 4396SOL    HW143682   0.349   2.980   2.117
 4396SOL    HW243683   0.351   3.006   1.968
 4397SOL     OW43684   6.050   1.147   2.180
 4397SOL    HW143685   5.981   1.129   2.243
 4397SOL    HW243686   6.079   1.061   2.150
 4398SOL     OW43687   6.057   3.004   2.155
 4398SOL    HW143688   6.023   2.969   2.237
 4398SOL    HW243689   5.980   3.024   2.103
 4399SOL     OW43690   1.100   3.761   2.173
 4399SOL    HW143691   1.064   3.792   2.090
 4399SOL    HW243692   1.070   3.671   2.180
 4400SOL     OW43693   2.868   1.812   2.134
 4400SOL    HW143694   2.840   1.871   2.065
 4400SOL    HW243695   2.792   1.807   2.193
 4401SOL     OW43696   4.824   5.633   2.209
 4401SOL    HW143697   4.761   5.660   2.142
 4401SOL    HW243698   4.782   5.558   2.252
 4402SOL     OW43699   1.731   2.860  10.717
 4402SOL    HW143700   1.692   2.799  10.654
 4402SOL    HW243701   1.696   2.832  10.802
 4403SOL     OW43702   1.730   0.132  10.690
 4403SOL    HW143703   1.680   0.175  10.621
 4403SOL    HW243704   1.682   0.152  10.770
 4404SOL     OW43705   5.491   1.078  10.751
 4404SOL    HW143706   5.506   1.018  10.678
 4404SOL    HW243707   5.441   1.027  10.815
 4405SOL     OW43708   5.429   2.784  10.728
 4405SOL    HW143709   5.419   2.847  10.657
 4405SOL    HW243710   5.367   2.814  10.795
 4406SOL     OW43711   0.071   1.749  10.685
 4406SOL    HW143712   6.440   1.720  10.727
 4406SOL    HW243713   0.121   1.790  10.756
 4407SOL     OW43714   0.114   3.522  10.693
 4407SOL    HW143715   0.061   3.496  10.768
 4407SOL    HW243716   0.134   3.614  10.708
 4408SOL     OW43717   1.920   5.485  10.762
 4408SOL    HW143718   1.892   5.393  10.766
 4408SOL    HW243719   1.969   5.491  10.680
 4409SOL     OW43720   3.806   1.800  10.785
 4409SOL    HW143721   3.793   1.719  10.833
 4409SOL    HW243722   3.895   1.794  10.751
 4410SOL     OW43723   5.676   3.719  10.720
 4410SOL    HW143724   5.586   3.688  10.730
 4410SOL    HW243725   5.713   3.715  10.808
 4411SOL     OW43726   0.268   3.189  10.688
 4411SOL    HW143727   0.197   3.127  10.674
 4411SOL    HW243728   0.226   3.262  10.734
 4412SOL     OW43729   2.072   4.923  10.751
 4412SOL    HW143730   2.033   5.004  10.716
 4412SOL    HW243731   2.091   4.943  10.842
 4413SOL     OW43732   3.946   3.162  10.686
 4413SOL    HW143733   3.880   3.095  10.672
 4413SOL    HW243734   3.952   3.170  10.781
 4414SOL     OW43735   5.784   3.168  10.722
 4414SOL    HW143736   5.721   3.097  10.733
 4414SOL    HW243737   5.780   3.217  10.804
 4415SOL     OW43738   5.824   5.017  10.713
 4415SOL    HW143739   5.776   4.934  10.715
 4415SOL    HW243740   5.812   5.053  10.801
 4416SOL     OW43741   1.652   0.514  10.620
 4416SOL    HW143742   1.664   0.609  10.616
 4416SOL    HW243743   1.735   0.481  10.654
 4417SOL     OW43744   5.521   2.544  10.621
 4417SOL    HW143745   5.492   2.626  10.659
 4417SOL    HW243746   5.443   2.488  10.623
 4418SOL     OW43747   5.405   4.402  10.695
 4418SOL    HW143748   5.401   4.443  10.609
 4418SOL    HW243749   5.402   4.308  10.677
 4419SOL     OW43750   2.766   0.758  10.628
 4419SOL    HW143751   2.786   0.790  10.716
 4419SOL    HW243752   2.805   0.823  10.569
 4420SOL     OW43753   4.621   4.443  10.661
 4420SOL    HW143754   4.628   4.457  10.756
 4420SOL    HW243755   4.635   4.529  10.623
 4421SOL     OW43756   0.127   4.570   2.169
 4421SOL    HW143757   0.188   4.554   2.241
 4421SOL    HW243758   0.092   4.657   2.186
 4422SOL     OW43759   1.935   0.820   2.167
 4422SOL    HW143760   2.008   0.870   2.202
 4422SOL    HW243761   1.861   0.844   2.222
 4423SOL     OW43762   1.236   1.536   2.176
 4423SOL    HW143763   1.233   1.587   2.095
 4423SOL    HW243764   1.232   1.601   2.245
 4424SOL     OW43765   1.274   5.369   2.261
 4424SOL    HW143766   1.271   5.342   2.169
 4424SOL    HW243767   1.300   5.290   2.308
 4425SOL     OW43768   4.926   3.484   2.259
 4425SOL    HW143769   4.937   3.538   2.181
 4425SOL    HW243770   5.007   3.432   2.262
 4426SOL     OW43771   0.730   3.032  10.737
 4426SOL    HW143772   0.820   3.040  10.707
 4426SOL    HW243773   0.677   3.060  10.662
 4427SOL     OW43774   0.654   4.883  10.716
 4427SOL    HW143775   0.739   4.915  10.746
 4427SOL    HW243776   0.591   4.920  10.778
 4428SOL     OW43777   0.318   5.843  10.599
 4428SOL    HW143778   0.375   5.920  10.602
 4428SOL    HW243779   0.232   5.875  10.627
 4429SOL     OW43780   4.165   0.315  10.641
 4429SOL    HW143781   4.159   0.405  10.675
 4429SOL    HW243782   4.074   0.286  10.636
 4430SOL     OW43783   1.143   1.283   2.126
 4430SOL    HW143784   1.132   1.244   2.213
 4430SOL    HW243785   1.173   1.372   2.143
 4431SOL     OW43786   4.732   5.038   2.187
 4431SOL    HW143787   4.781   4.957   2.169
 4431SOL    HW243788   4.766   5.101   2.124
 4432SOL     OW43789   3.733   3.300   2.199
 4432SOL    HW143790   3.699   3.372   2.147
 4432SOL    HW243791   3.764   3.340   2.280
 4433SOL     OW43792   3.647   5.222   2.205
 4433SOL    HW143793   3.612   5.308   2.228
 4433SOL    HW243794   3.717   5.207   2.268
 4434SOL     OW43795   2.260   3.632   2.176
 4434SOL    HW143796   2.308   3.553   2.200
 4434SOL    HW243797   2.226   3.666   2.258
 4435SOL     OW43798   0.898   2.839   2.250
 4435SOL    HW143799   0.900   2.769   2.316
 4435SOL    HW243800   0.813   2.880   2.261
 4436SOL     OW43801   0.894   4.729   2.222
 4436SOL    HW143802   0.925   4.642   2.249
 4436SOL    HW243803   0.913   4.786   2.296
 4437SOL     OW43804   2.765   0.935   2.287
 4437SOL    HW143805   2.765   0.874   2.360
 4437SOL    HW243806   2.774   1.021   2.327
 4438SOL     OW43807   2.731   2.841   2.259
 4438SOL    HW143808   2.741   2.751   2.289
 4438SOL    HW243809   2.734   2.894   2.338
 4439SOL     OW43810   0.580   2.459   2.284
 4439SOL    HW143811   0.586   2.516   2.207
 4439SOL    HW243812   0.637   2.501   2.349
 4440SOL     OW43813   0.675   6.176   2.255
 4440SOL    HW143814   0.649   6.197   2.165
 4440SOL    HW243815   0.603   6.209   2.308
 4441SOL     OW43816   4.300   2.493   2.250
 4441SOL    HW143817   4.308   2.505   2.156
 4441SOL    HW243818   4.385   2.519   2.285
 4442SOL     OW43819   4.315   6.192   2.202
 4442SOL    HW143820   4.329   6.258   2.134
 4442SOL    HW243821   4.363   6.224   2.278
 4443SOL     OW43822   0.355   5.330  10.642
 4443SOL    HW143823   0.286   5.329  10.707
 4443SOL    HW243824   0.336   5.255  10.585
 4444SOL     OW43825   4.092   5.294  10.659
 4444SOL    HW143826   4.006   5.333  10.647
 4444SOL    HW243827   4.085   5.207  10.620
 4445SOL     OW43828   1.508   1.154   2.226
 4445SOL    HW143829   1.439   1.107   2.179
 4445SOL    HW243830   1.511   1.241   2.186
 4446SOL     OW43831   1.486   4.856   2.198
 4446SOL    HW143832   1.480   4.762   2.215
 4446SOL    HW243833   1.461   4.865   2.106
 4447SOL     OW43834   3.318   4.920   2.183
 4447SOL    HW143835   3.270   4.871   2.250
 4447SOL    HW243836   3.282   4.889   2.100
 4448SOL     OW43837   0.492   3.855  10.518
 4448SOL    HW143838   0.456   3.773  10.484
 4448SOL    HW243839   0.417   3.914  10.525
 4449SOL     OW43840   0.507   5.640  10.616
 4449SOL    HW143841   0.465   5.555  10.604
 4449SOL    HW243842   0.437   5.704  10.603
 4450SOL     OW43843   2.395   3.776  10.555
 4450SOL    HW143844   2.331   3.705  10.567
 4450SOL    HW243845   2.393   3.825  10.637
 4451SOL     OW43846   4.231   3.817  10.614
 4451SOL    HW143847   4.222   3.758  10.539
 4451SOL    HW243848   4.167   3.887  10.598
 4452SOL     OW43849   6.046   3.752  10.560
 4452SOL    HW143850   6.057   3.678  10.501
 4452SOL    HW243851   5.951   3.765  10.564
 4453SOL     OW43852   1.775   1.047   2.270
 4453SOL    HW143853   1.777   1.049   2.174
 4453SOL    HW243854   1.690   1.083   2.293
 4454SOL     OW43855   3.588   0.999   2.252
 4454SOL    HW143856   3.590   1.061   2.179
 4454SOL    HW243857   3.636   1.043   2.323
 4455SOL     OW43858   3.676   2.920   2.213
 4455SOL    HW143859   3.589   2.945   2.182
 4455SOL    HW243860   3.675   2.941   2.306
 4456SOL     OW43861   5.495   1.025   2.272
 4456SOL    HW143862   5.465   0.976   2.195
 4456SOL    HW243863   5.417   1.034   2.326
 4457SOL     OW43864   1.611   0.275  10.497
 4457SOL    HW143865   1.626   0.361  10.536
 4457SOL    HW243866   1.541   0.289  10.433
 4458SOL     OW43867   1.422   3.922  10.540
 4458SOL    HW143868   1.492   3.953  10.597
 4458SOL    HW243869   1.445   3.831  10.522
 4459SOL     OW43870   1.494   5.866   2.245
 4459SOL    HW143871   1.450   5.809   2.309
 4459SOL    HW243872   1.472   5.955   2.273
 4460SOL     OW43873   2.327   4.907  10.629
 4460SOL    HW143874   2.314   4.949  10.544
 4460SOL    HW243875   2.239   4.902  10.667
 4461SOL     OW43876   4.153   1.188  10.655
 4461SOL    HW143877   4.226   1.183  10.593
 4461SOL    HW243878   4.081   1.142  10.612
 4462SOL     OW43879   5.996   3.112  10.563
 4462SOL    HW143880   5.991   3.182  10.497
 4462SOL    HW243881   5.922   3.129  10.622
 4463SOL     OW43882   0.102   0.144  10.561
 4463SOL    HW143883   0.086   0.072  10.622
 4463SOL    HW243884   0.162   0.107  10.496
 4464SOL     OW43885   1.950   4.750  10.578
 4464SOL    HW143886   1.973   4.661  10.602
 4464SOL    HW243887   1.998   4.806  10.640
 4465SOL     OW43888   1.941   0.201  10.540
 4465SOL    HW143889   1.869   0.165  10.591
 4465SOL    HW243890   1.979   0.125  10.496
 4466SOL     OW43891   0.511   0.175   2.283
 4466SOL    HW143892   0.484   0.252   2.332
 4466SOL    HW243893   0.575   0.207   2.219
 4467SOL     OW43894   0.506   2.215   2.190
 4467SOL    HW143895   0.572   2.151   2.219
 4467SOL    HW243896   0.540   2.299   2.220
 4468SOL     OW43897   2.462   5.770   2.248
 4468SOL    HW143898   2.478   5.715   2.325
 4468SOL    HW243899   2.464   5.860   2.282
 4469SOL     OW43900   2.051   1.017   2.325
 4469SOL    HW143901   2.079   1.056   2.408
 4469SOL    HW243902   1.961   1.046   2.313
 4470SOL     OW43903   5.802   2.907   2.310
 4470SOL    HW143904   5.853   2.829   2.328
 4470SOL    HW243905   5.774   2.938   2.396
 4471SOL     OW43906   0.199   4.190  10.508
 4471SOL    HW143907   0.267   4.255  10.490
 4471SOL    HW243908   0.122   4.242  10.528
 4472SOL     OW43909   2.027   4.295  10.581
 4472SOL    HW143910   2.100   4.255  10.534
 4472SOL    HW243911   1.961   4.312  10.513
 4473SOL     OW43912   3.899   2.320  10.595
 4473SOL    HW143913   3.961   2.285  10.531
 4473SOL    HW243914   3.908   2.415  10.588
 4474SOL     OW43915   2.915   0.990  10.536
 4474SOL    HW143916   2.856   1.064  10.521
 4474SOL    HW243917   2.976   0.993  10.461
 4475SOL     OW43918   2.838   4.848  10.615
 4475SOL    HW143919   2.749   4.860  10.582
 4475SOL    HW243920   2.871   4.772  10.566
 4476SOL     OW43921   4.724   2.989  10.572
 4476SOL    HW143922   4.690   3.062  10.624
 4476SOL    HW243923   4.646   2.950  10.532
 4477SOL     OW43924   0.755   1.664  10.466
 4477SOL    HW143925   0.676   1.679  10.518
 4477SOL    HW243926   0.725   1.676  10.375
 4478SOL     OW43927   2.444   5.390  10.526
 4478SOL    HW143928   2.483   5.476  10.518
 4478SOL    HW243929   2.516   5.329  10.512
 4479SOL     OW43930   4.401   5.369  10.598
 4479SOL    HW143931   4.308   5.388  10.589
 4479SOL    HW243932   4.443   5.416  10.526
 4480SOL     OW43933   6.313   3.507  10.569
 4480SOL    HW143934   6.290   3.578  10.629
 4480SOL    HW243935   6.407   3.495  10.582
 4481SOL     OW43936   0.972   0.498   2.315
 4481SOL    HW143937   0.922   0.478   2.235
 4481SOL    HW243938   0.940   0.434   2.379
 4482SOL     OW43939   0.945   6.125   2.216
 4482SOL    HW143940   0.853   6.150   2.226
 4482SOL    HW243941   0.959   6.059   2.283
 4483SOL     OW43942   0.035   2.383   2.306
 4483SOL    HW143943   0.024   2.329   2.228
 4483SOL    HW243944   0.129   2.379   2.325
 4484SOL     OW43945   0.742   0.573  10.555
 4484SOL    HW143946   0.773   0.659  10.581
 4484SOL    HW243947   0.816   0.533  10.509
 4485SOL     OW43948   0.685   6.112  10.544
 4485SOL    HW143949   0.736   6.188  10.517
 4485SOL    HW243950   0.743   6.038  10.528
 4486SOL     OW43951   2.647   0.531  10.531
 4486SOL    HW143952   2.686   0.615  10.556
 4486SOL    HW243953   2.628   0.487  10.613
 4487SOL     OW43954   2.649   4.290  10.463
 4487SOL    HW143955   2.620   4.323  10.548
 4487SOL    HW243956   2.671   4.198  10.479
 4488SOL     OW43957   6.342   0.531  10.606
 4488SOL    HW143958   6.415   0.548  10.666
 4488SOL    HW243959   6.376   0.465  10.545
 4489SOL     OW43960   6.424   4.340  10.547
 4489SOL    HW143961   6.378   4.423  10.558
 4489SOL    HW243962   6.356   4.279  10.517
 4490SOL     OW43963   2.770   1.659   2.350
 4490SOL    HW143964   2.863   1.677   2.336
 4490SOL    HW243965   2.751   1.587   2.290
 4491SOL     OW43966   2.743   5.339   2.298
 4491SOL    HW143967   2.837   5.321   2.304
 4491SOL    HW243968   2.721   5.323   2.207
 4492SOL     OW43969   4.652   3.465   2.304
 4492SOL    HW143970   4.748   3.472   2.302
 4492SOL    HW243971   4.625   3.473   2.213
 4493SOL     OW43972   4.670   5.420   2.292
 4493SOL    HW143973   4.667   5.346   2.352
 4493SOL    HW243974   4.648   5.382   2.207
 4494SOL     OW43975   1.014   1.591  10.573
 4494SOL    HW143976   0.926   1.621  10.552
 4494SOL    HW243977   1.051   1.563  10.490
 4495SOL     OW43978   4.693   1.532  10.541
 4495SOL    HW143979   4.730   1.581  10.468
 4495SOL    HW243980   4.752   1.457  10.551
 4496SOL     OW43981   4.721   3.408  10.539
 4496SOL    HW143982   4.681   3.469  10.476
 4496SOL    HW243983   4.725   3.325  10.492
 4497SOL     OW43984   6.174   3.409   2.344
 4497SOL    HW143985   6.219   3.488   2.315
 4497SOL    HW243986   6.178   3.350   2.269
 4498SOL     OW43987   4.860   1.313  10.562
 4498SOL    HW143988   4.883   1.288  10.652
 4498SOL    HW243989   4.844   1.230  10.517
 4499SOL     OW43990   4.566   3.196   2.287
 4499SOL    HW143991   4.594   3.283   2.316
 4499SOL    HW243992   4.513   3.212   2.209
 4500SOL     OW43993   4.617   5.172   2.394
 4500SOL    HW143994   4.662   5.121   2.327
 4500SOL    HW243995   4.532   5.129   2.404
 4501SOL     OW43996   1.986   3.621   2.289
 4501SOL    HW143997   1.902   3.577   2.283
 4501SOL    HW243998   2.020   3.621   2.199
 4502SOL     OW43999   5.661   3.667   2.262
 4502SOL    HW144000   5.654   3.572   2.275
 4502SOL    HW244001   5.754   3.686   2.272
 4503SOL     OW44002   3.016   2.199  10.550
 4503SOL    HW144003   2.990   2.271  10.608
 4503SOL    HW244004   3.071   2.241  10.484
 4504SOL     OW44005   2.989   5.966  10.537
 4504SOL    HW144006   2.930   6.041  10.533
 4504SOL    HW244007   3.076   6.004  10.522
 4505SOL     OW44008   1.415   5.957  10.533
 4505SOL    HW144009   1.413   6.047  10.565
 4505SOL    HW244010   1.470   5.910  10.596
 4506SOL     OW44011   3.298   4.222  10.547
 4506SOL    HW144012   3.216   4.249  10.588
 4506SOL    HW244013   3.297   4.127  10.552
 4507SOL     OW44014   3.225   6.106  10.519
 4507SOL    HW144015   3.239   6.110  10.614
 4507SOL    HW244016   3.313   6.092  10.483
 4508SOL     OW44017   1.601   2.668  10.566
 4508SOL    HW144018   1.516   2.625  10.576
 4508SOL    HW244019   1.634   2.635  10.482
 4509SOL     OW44020   3.373   2.662  10.554
 4509SOL    HW144021   3.349   2.646  10.463
 4509SOL    HW244022   3.469   2.656  10.554
 4510SOL     OW44023   5.371   4.513  10.448
 4510SOL    HW144024   5.277   4.533  10.450
 4510SOL    HW244025   5.409   4.581  10.394
 4511SOL     OW44026   5.289   6.388  10.416
 4511SOL    HW144027   5.231   6.399  10.491
 4511SOL    HW244028   5.369   6.433  10.441
 4512SOL     OW44029   1.234   3.977   2.341
 4512SOL    HW144030   1.186   3.913   2.288
 4512SOL    HW244031   1.318   3.936   2.359
 4513SOL     OW44032   4.955   4.174   2.342
 4513SOL    HW144033   4.876   4.125   2.321
 4513SOL    HW244034   4.999   4.122   2.408
 4514SOL     OW44035   4.996   5.834   2.283
 4514SOL    HW144036   4.935   5.768   2.251
 4514SOL    HW244037   5.016   5.807   2.373
 4515SOL     OW44038   0.305   4.535   2.373
 4515SOL    HW144039   0.398   4.545   2.352
 4515SOL    HW244040   0.303   4.470   2.443
 4516SOL     OW44041   0.438   6.362   2.320
 4516SOL    HW144042   0.466   0.003   2.308
 4516SOL    HW244043   0.363   6.368   2.378
 4517SOL     OW44044   2.156   4.565   2.354
 4517SOL    HW144045   2.249   4.579   2.374
 4517SOL    HW244046   2.132   4.488   2.406
 4518SOL     OW44047   5.962   2.700   2.378
 4518SOL    HW144048   6.057   2.692   2.371
 4518SOL    HW244049   5.932   2.611   2.398
 4519SOL     OW44050   4.466   1.814   2.279
 4519SOL    HW144051   4.384   1.856   2.307
 4519SOL    HW244052   4.500   1.772   2.358
 4520SOL     OW44053   4.429   3.629   2.364
 4520SOL    HW144054   4.448   3.688   2.290
 4520SOL    HW244055   4.500   3.565   2.362
 4521SOL     OW44056   4.438   5.570   2.315
 4521SOL    HW144057   4.452   5.620   2.395
 4521SOL    HW244058   4.515   5.513   2.309
 4522SOL     OW44059   1.453   1.246  10.454
 4522SOL    HW144060   1.408   1.293  10.525
 4522SOL    HW244061   1.545   1.248  10.478
 4523SOL     OW44062   1.535   4.937  10.574
 4523SOL    HW144063   1.479   4.863  10.592
 4523SOL    HW244064   1.579   4.915  10.492
 4524SOL     OW44065   3.357   1.205  10.527
 4524SOL    HW144066   3.342   1.169  10.614
 4524SOL    HW244067   3.452   1.220  10.523
 4525SOL     OW44068   0.598   3.136  10.520
 4525SOL    HW144069   0.508   3.139  10.551
 4525SOL    HW244070   0.603   3.207  10.455
 4526SOL     OW44071   4.336   5.136  10.452
 4526SOL    HW144072   4.397   5.063  10.454
 4526SOL    HW244073   4.372   5.199  10.515
 4527SOL     OW44074   0.440   0.411   2.401
 4527SOL    HW144075   0.350   0.421   2.434
 4527SOL    HW244076   0.478   0.499   2.410
 4528SOL     OW44077   0.310   2.359   2.333
 4528SOL    HW144078   0.345   2.282   2.287
 4528SOL    HW244079   0.383   2.421   2.334
 4529SOL     OW44080   4.086   2.435   2.420
 4529SOL    HW144081   4.093   2.340   2.410
 4529SOL    HW244082   4.154   2.471   2.363
 4530NA      NA44083   4.222   0.741  12.751
 4531NA      NA44084   5.994   0.021  12.648
 4532NA      NA44085   1.164   5.547   0.022
 4533NA      NA44086   2.817   4.915  12.694
 4534NA      NA44087   4.431   3.740  12.582
 4535NA      NA44088   4.269   6.422   0.032
 4536NA      NA44089   1.117   1.008  12.581
 4537NA      NA44090   1.415   2.928  12.573
 4538NA      NA44091   1.377   4.788  12.563
 4539NA      NA44092   2.003   0.898   0.327
 4540NA      NA44093   3.110   1.316   0.365
 4541NA      NA44094   4.976   3.172   0.262
 4542NA      NA44095   6.078   1.834   0.325
 4543NA      NA44096   3.240   5.754  12.511
 4544NA      NA44097   0.300   3.015  12.394
 4545NA      NA44098   0.086   4.137   0.394
 4546NA      NA44099   6.019   0.754   0.394
 4547NA      NA44100   1.718   1.824   0.435
 4548NA      NA44101   1.113   0.647   0.540
 4549NA      NA44102   1.293   2.644   0.442
 4550NA      NA44103   4.112   5.436  12.284
 4551NA      NA44104   2.160   5.080   0.422
 4552NA      NA44105   4.009   5.081   0.379
 4553NA      NA44106   6.380   2.622   0.521
 4554NA      NA44107   0.478   3.980  12.295
 4555NA      NA44108   2.321   5.816  12.153
 4556NA      NA44109   5.084   3.858   0.821
 4557NA      NA44110   2.111   6.288   0.671
 4558NA      NA44111   2.600   2.026  12.210
 4559NA      NA44112   5.433   2.046  12.194
 4560NA      NA44113   2.969   0.284  12.182
 4561NA      NA44114   5.040   1.386   0.741
 4562NA      NA44115   1.025   6.190  12.204
 4563NA      NA44116   3.439   2.465  12.236
 4564NA      NA44117   5.289   4.547   0.549
 4565NA      NA44118   5.300   6.441   0.703
 4566NA      NA44119   6.184   6.080   0.707
 4567NA      NA44120   1.038   3.083  12.071
 4568NA      NA44121   3.888   1.604  12.013
 4569NA      NA44122   5.999   4.119   0.768
 4570NA      NA44123   1.553   5.006   0.949
 4571NA      NA44124   4.109   1.546   0.779
 4572NA      NA44125   0.319   0.475  11.985
 4573NA      NA44126   4.717   0.361  11.928
 4574NA      NA44127   0.796   4.726   0.822
 4575NA      NA44128   1.403   0.088   0.879
 4576NA      NA44129   1.820   1.080   0.888
 4577NA      NA44130   0.414   4.474  11.600
 4578CL      CL44131   2.093   1.890   0.182
 4579CL      CL44132   5.276   0.200  12.766
 4580CL      CL44133   0.663   2.052  12.782
 4581CL      CL44134   0.791   6.321   0.276
 4582CL      CL44135   2.445   6.239   0.109
 4583CL      CL44136   4.335   4.379   0.066
 4584CL      CL44137   4.391   0.948   0.150
 4585CL      CL44138   3.184   0.543  12.630
 4586CL      CL44139   1.362   4.277   0.088
 4587CL      CL44140   5.021   4.525  12.797
 4588CL      CL44141   6.197   3.276   0.229
 4589CL      CL44142   0.501   3.005   0.177
 4590CL      CL44143   1.964   4.638   0.255
 4591CL      CL44144   0.853   4.799  12.646
 4592CL      CL44145   0.558   5.678  12.496
 4593CL      CL44146   6.125   1.834  12.522
 4594CL      CL44147   3.474   1.904   0.282
 4595CL      CL44148   5.285   2.021   0.412
 4596CL      CL44149   4.339   3.872   0.421
 4597CL      CL44150   4.325   6.172  12.478
 4598CL      CL44151   6.217   0.365  12.534
 4599CL      CL44152   4.664   5.389  12.514
 4600CL      CL44153   1.447   2.403  12.386
 4601CL      CL44154   5.144   3.101  12.403
 4602CL      CL44155   3.337   0.586   0.511
 4603CL      CL44156   0.237   6.379  12.273
 4604CL      CL44157   2.470   2.789   0.518
 4605CL      CL44158   2.156   1.260   0.668
 4606CL      CL44159   3.363   5.747   0.658
 4607CL      CL44160   5.988   1.280  12.200
 4608CL      CL44161   6.175   3.219  12.156
 4609CL      CL44162   1.610   3.800  12.248
 4610CL      CL44163   2.012   4.881  12.226
 4611CL      CL44164   0.898   3.807   0.657
 4612CL      CL44165   4.291   3.033   0.752
 4613CL      CL44166   3.700   2.427  12.190
 4614CL      CL44167   4.821   4.586   0.774
 4615CL      CL44168   2.526   0.410   0.811
 4616CL      CL44169   6.424   3.169   0.874
 4617CL      CL44170   5.933   2.406  11.958
 4618CL      CL44171   5.628   5.362   0.893
 4619CL      CL44172   3.952   6.395  11.987
 4620CL      CL44173   4.702   2.265  11.975
 4621CL      CL44174   5.281   0.539  11.932
 4622CL      CL44175   0.870   5.345  11.810
 4623CL      CL44176   2.755   1.617  11.865
 4624CL      CL44177   0.580   1.069  11.990
 4625CL      CL44178   4.620   5.565  11.818
 4626CL      CL44179   0.457   2.204   1.007
 4627CL      CL44180   0.386   4.192   1.038
 4628CL      CL44181   1.593   2.925  11.771
 4629CL      CL44182   3.168   1.813   1.264
   6.44980   6.44980  12.86200
