%VERSION  VERSION_STAMP = V0001.000  DATE = 05/08/26  22:45:19                  
%FLAG TITLE                                                                     
%FORMAT(20a4)                                                                   
2FM6_single.pdb                                                                 
%FLAG POINTERS                                                                  
%FORMAT(10I8)                                                                   
     239       7     156      84     387      92     632     104       0       0
    1416       1      84      92     104      11      20      22       8       0
       0       0       0       0       0       0       0       0     239       0
       0
%FLAG ATOM_NAME                                                                 
%FORMAT(20a4)                                                                   
HH15C80 H100H101C79 H102H103C78 HH14H104C77 H106H107C76 H108H109C75 H110H111C74 
H112H113C73 HH13H114C72 H115H116C71 H117H118C70 H119H120C69 H121H122C68 HH12H123
C67 H124H125C66 H126H127C65 H128H129C64 H130H131C63 HH11H132C62 H133H134C61 H135
H136C60 H137C58 H138C59 H139H140C57 HH10H141C56 H142H143C55 H144H145C54 H146H147
C53 H148H149C52 H99 H150C51 H97 H98 C50 H95 H96 C49 H93 H94 C48 H91 H92 C47 H89 
H90 C46 H87 H88 C45 H85 H86 C44 H83 H84 C18 H31 C17 H30 C19 H32 H33 C16 H28 H29 
C15 H26 H27 C14 H24 H25 C13 H22 H23 C12 H20 H21 C11 H18 H19 C10 H16 H17 C9  H14 
H15 C8  H12 H13 C7  H10 H11 C6  H8  H9  C5  H6  H7  C4  H4  H5  C2  H2  O3  H3  
C1  H1  C81 O82 O83 H105C20 H34 H35 C21 H36 H37 C22 H38 H39 C23 H40 H41 C24 H42 
H43 C25 H44 H45 C26 H46 H47 C27 H48 H49 C28 H50 H51 C29 H52 H53 C30 H54 H55 C31 
H56 H57 C32 H58 H59 C33 H60 H61 C34 H62 H63 C35 H64 H65 C36 H66 H67 C37 H68 H69 
C38 H70 H71 C39 H72 H73 C40 H74 H75 C41 H76 H77 C42 H78 H79 C43 H80 H81 H82 
%FLAG CHARGE                                                                    
%FORMAT(5E16.8)                                                                 
  4.19732458E-01 -1.19139220E+00  4.19732458E-01  4.19732458E-01 -1.02351015E+00
  4.80503829E-01  4.80503829E-01 -9.76077500E-01  4.85460294E-01  4.85460294E-01
 -9.71467258E-01  4.85642517E-01  4.85642517E-01 -9.71285035E-01  4.85642517E-01
  4.85642517E-01 -9.71285035E-01  4.85642517E-01  4.85642517E-01 -9.71285035E-01
  4.85642517E-01  4.85642517E-01 -9.71285035E-01  4.85642517E-01  4.85642517E-01
 -9.71285035E-01  4.85642517E-01  4.85642517E-01 -9.71285035E-01  4.85642517E-01
  4.85642517E-01 -9.71285035E-01  4.85642517E-01  4.85642517E-01 -9.71285035E-01
  4.85642517E-01  4.85642517E-01 -9.71285035E-01  4.85642517E-01  4.85642517E-01
 -9.71285035E-01  4.85642517E-01  4.85642517E-01 -9.71285035E-01  4.85642517E-01
  4.85642517E-01 -9.71285035E-01  4.85642517E-01  4.85642517E-01 -9.71285035E-01
  4.85642517E-01  4.85642517E-01 -9.71102812E-01  4.85642517E-01  4.85642517E-01
 -9.66292124E-01  4.85824740E-01  4.85824740E-01 -9.14194569E-01  4.90999874E-01
  4.90999874E-01 -6.97822979E-01  5.56873488E-01 -6.97822979E-01  5.56873488E-01
 -8.57504993E-01  4.96339007E-01  4.96339007E-01 -9.14194569E-01  4.90999874E-01
  4.90999874E-01 -9.66292124E-01  4.85824740E-01  4.85824740E-01 -9.71102812E-01
  4.85642517E-01  4.85642517E-01 -9.71285035E-01  4.85642517E-01  4.85642517E-01
 -9.71285035E-01  4.85642517E-01  4.85642517E-01 -9.71285035E-01  4.85642517E-01
  4.85642517E-01 -9.71285035E-01  4.85642517E-01  4.85642517E-01 -9.71285035E-01
  4.85642517E-01  4.85642517E-01 -9.71285035E-01  4.85642517E-01  4.85642517E-01
 -9.71285035E-01  4.85642517E-01  4.85642517E-01 -9.71285035E-01  4.85642517E-01
  4.85642517E-01 -9.71102812E-01  4.85642517E-01  4.85642517E-01 -9.66292124E-01
  4.85824740E-01  4.85824740E-01 -9.14194569E-01  4.90999874E-01  4.90999874E-01
 -6.97822979E-01  5.56873488E-01 -6.97822979E-01  5.56873488E-01 -8.57504993E-01
  4.96339007E-01  4.96339007E-01 -9.14194569E-01  4.90999874E-01  4.90999874E-01
 -9.66292124E-01  4.85824740E-01  4.85824740E-01 -9.71102812E-01  4.85642517E-01
  4.85642517E-01 -9.71285035E-01  4.85642517E-01  4.85642517E-01 -9.71285035E-01
  4.85642517E-01  4.85642517E-01 -9.71285035E-01  4.85642517E-01  4.85642517E-01
 -9.71285035E-01  4.85642517E-01  4.85642517E-01 -9.71285035E-01  4.85642517E-01
  4.85642517E-01 -9.71285035E-01  4.85642517E-01  4.85642517E-01 -9.71248590E-01
  4.85642517E-01  4.85642517E-01 -9.69553916E-01  4.85678962E-01  4.85678962E-01
 -9.26039064E-01  4.87373636E-01  4.87373636E-01 -4.77278482E-01  5.34241391E-01
  5.34241391E-01  1.20573315E+00  1.10941007E+00 -7.14787940E+00  3.83524748E+00
  1.29075840E+00  7.95202950E-01  4.80932053E+00 -4.85403805E+00 -6.03994534E+00
  4.03403455E+00 -7.01850107E-01  5.02407033E-01  5.02407033E-01 -9.55285855E-01
  4.86116297E-01  4.86116297E-01 -9.70811255E-01  4.85642517E-01  4.85642517E-01
 -9.71285035E-01  4.85642517E-01  4.85642517E-01 -9.71285035E-01  4.85642517E-01
  4.85642517E-01 -9.71285035E-01  4.85642517E-01  4.85642517E-01 -9.71285035E-01
  4.85642517E-01  4.85642517E-01 -9.71285035E-01  4.85642517E-01  4.85642517E-01
 -9.71285035E-01  4.85642517E-01  4.85642517E-01 -9.71285035E-01  4.85642517E-01
  4.85642517E-01 -9.71285035E-01  4.85642517E-01  4.85642517E-01 -9.71285035E-01
  4.85642517E-01  4.85642517E-01 -9.71285035E-01  4.85642517E-01  4.85642517E-01
 -9.71285035E-01  4.85642517E-01  4.85642517E-01 -9.71285035E-01  4.85642517E-01
  4.85642517E-01 -9.71285035E-01  4.85642517E-01  4.85642517E-01 -9.71285035E-01
  4.85642517E-01  4.85642517E-01 -9.71285035E-01  4.85642517E-01  4.85642517E-01
 -9.71285035E-01  4.85642517E-01  4.85642517E-01 -9.71285035E-01  4.85642517E-01
  4.85642517E-01 -9.71467258E-01  4.85642517E-01  4.85642517E-01 -9.76077500E-01
  4.85460294E-01  4.85460294E-01 -1.02351015E+00  4.80503829E-01  4.80503829E-01
 -1.19139220E+00  4.19732458E-01  4.19732458E-01  4.19732458E-01
%FLAG ATOMIC_NUMBER                                                             
%FORMAT(10I8)                                                                   
       1       6       1       1       6       1       1       6       1       1
       6       1       1       6       1       1       6       1       1       6
       1       1       6       1       1       6       1       1       6       1
       1       6       1       1       6       1       1       6       1       1
       6       1       1       6       1       1       6       1       1       6
       1       1       6       1       1       6       1       1       6       1
       1       6       1       6       1       6       1       1       6       1
       1       6       1       1       6       1       1       6       1       1
       6       1       1       6       1       1       6       1       1       6
       1       1       6       1       1       6       1       1       6       1
       1       6       1       1       6       1       1       6       1       1
       6       1       6       1       6       1       1       6       1       1
       6       1       1       6       1       1       6       1       1       6
       1       1       6       1       1       6       1       1       6       1
       1       6       1       1       6       1       1       6       1       1
       6       1       1       6       1       1       6       1       8       1
       6       1       6       8       8       1       6       1       1       6
       1       1       6       1       1       6       1       1       6       1
       1       6       1       1       6       1       1       6       1       1
       6       1       1       6       1       1       6       1       1       6
       1       1       6       1       1       6       1       1       6       1
       1       6       1       1       6       1       1       6       1       1
       6       1       1       6       1       1       6       1       1       6
       1       1       6       1       1       6       1       1       1
%FLAG MASS                                                                      
%FORMAT(5E16.8)                                                                 
  1.00800000E+00  1.20100000E+01  1.00800000E+00  1.00800000E+00  1.20100000E+01
  1.00800000E+00  1.00800000E+00  1.20100000E+01  1.00800000E+00  1.00800000E+00
  1.20100000E+01  1.00800000E+00  1.00800000E+00  1.20100000E+01  1.00800000E+00
  1.00800000E+00  1.20100000E+01  1.00800000E+00  1.00800000E+00  1.20100000E+01
  1.00800000E+00  1.00800000E+00  1.20100000E+01  1.00800000E+00  1.00800000E+00
  1.20100000E+01  1.00800000E+00  1.00800000E+00  1.20100000E+01  1.00800000E+00
  1.00800000E+00  1.20100000E+01  1.00800000E+00  1.00800000E+00  1.20100000E+01
  1.00800000E+00  1.00800000E+00  1.20100000E+01  1.00800000E+00  1.00800000E+00
  1.20100000E+01  1.00800000E+00  1.00800000E+00  1.20100000E+01  1.00800000E+00
  1.00800000E+00  1.20100000E+01  1.00800000E+00  1.00800000E+00  1.20100000E+01
  1.00800000E+00  1.00800000E+00  1.20100000E+01  1.00800000E+00  1.00800000E+00
  1.20100000E+01  1.00800000E+00  1.00800000E+00  1.20100000E+01  1.00800000E+00
  1.00800000E+00  1.20100000E+01  1.00800000E+00  1.20100000E+01  1.00800000E+00
  1.20100000E+01  1.00800000E+00  1.00800000E+00  1.20100000E+01  1.00800000E+00
  1.00800000E+00  1.20100000E+01  1.00800000E+00  1.00800000E+00  1.20100000E+01
  1.00800000E+00  1.00800000E+00  1.20100000E+01  1.00800000E+00  1.00800000E+00
  1.20100000E+01  1.00800000E+00  1.00800000E+00  1.20100000E+01  1.00800000E+00
  1.00800000E+00  1.20100000E+01  1.00800000E+00  1.00800000E+00  1.20100000E+01
  1.00800000E+00  1.00800000E+00  1.20100000E+01  1.00800000E+00  1.00800000E+00
  1.20100000E+01  1.00800000E+00  1.00800000E+00  1.20100000E+01  1.00800000E+00
  1.00800000E+00  1.20100000E+01  1.00800000E+00  1.00800000E+00  1.20100000E+01
  1.00800000E+00  1.00800000E+00  1.20100000E+01  1.00800000E+00  1.00800000E+00
  1.20100000E+01  1.00800000E+00  1.20100000E+01  1.00800000E+00  1.20100000E+01
  1.00800000E+00  1.00800000E+00  1.20100000E+01  1.00800000E+00  1.00800000E+00
  1.20100000E+01  1.00800000E+00  1.00800000E+00  1.20100000E+01  1.00800000E+00
  1.00800000E+00  1.20100000E+01  1.00800000E+00  1.00800000E+00  1.20100000E+01
  1.00800000E+00  1.00800000E+00  1.20100000E+01  1.00800000E+00  1.00800000E+00
  1.20100000E+01  1.00800000E+00  1.00800000E+00  1.20100000E+01  1.00800000E+00
  1.00800000E+00  1.20100000E+01  1.00800000E+00  1.00800000E+00  1.20100000E+01
  1.00800000E+00  1.00800000E+00  1.20100000E+01  1.00800000E+00  1.00800000E+00
  1.20100000E+01  1.00800000E+00  1.00800000E+00  1.20100000E+01  1.00800000E+00
  1.00800000E+00  1.20100000E+01  1.00800000E+00  1.60000000E+01  1.00800000E+00
  1.20100000E+01  1.00800000E+00  1.20100000E+01  1.60000000E+01  1.60000000E+01
  1.00800000E+00  1.20100000E+01  1.00800000E+00  1.00800000E+00  1.20100000E+01
  1.00800000E+00  1.00800000E+00  1.20100000E+01  1.00800000E+00  1.00800000E+00
  1.20100000E+01  1.00800000E+00  1.00800000E+00  1.20100000E+01  1.00800000E+00
  1.00800000E+00  1.20100000E+01  1.00800000E+00  1.00800000E+00  1.20100000E+01
  1.00800000E+00  1.00800000E+00  1.20100000E+01  1.00800000E+00  1.00800000E+00
  1.20100000E+01  1.00800000E+00  1.00800000E+00  1.20100000E+01  1.00800000E+00
  1.00800000E+00  1.20100000E+01  1.00800000E+00  1.00800000E+00  1.20100000E+01
  1.00800000E+00  1.00800000E+00  1.20100000E+01  1.00800000E+00  1.00800000E+00
  1.20100000E+01  1.00800000E+00  1.00800000E+00  1.20100000E+01  1.00800000E+00
  1.00800000E+00  1.20100000E+01  1.00800000E+00  1.00800000E+00  1.20100000E+01
  1.00800000E+00  1.00800000E+00  1.20100000E+01  1.00800000E+00  1.00800000E+00
  1.20100000E+01  1.00800000E+00  1.00800000E+00  1.20100000E+01  1.00800000E+00
  1.00800000E+00  1.20100000E+01  1.00800000E+00  1.00800000E+00  1.20100000E+01
  1.00800000E+00  1.00800000E+00  1.20100000E+01  1.00800000E+00  1.00800000E+00
  1.20100000E+01  1.00800000E+00  1.00800000E+00  1.00800000E+00
%FLAG ATOM_TYPE_INDEX                                                           
%FORMAT(10I8)                                                                   
       1       2       1       1       2       1       1       2       1       1
       2       1       1       2       1       1       2       1       1       2
       1       1       2       1       1       2       1       1       2       1
       1       2       1       1       2       1       1       2       1       1
       2       1       1       2       1       1       2       1       1       2
       1       1       2       1       1       2       1       1       2       1
       1       2       1       2       1       2       1       1       2       1
       1       2       1       1       2       1       1       2       1       1
       2       1       1       2       1       1       2       1       1       2
       1       1       2       1       1       2       1       1       2       1
       1       2       1       1       2       1       1       2       1       1
       2       1       2       1       2       1       1       2       1       1
       2       1       1       2       1       1       2       1       1       2
       1       1       2       1       1       2       1       1       2       1
       1       2       1       1       2       1       1       2       1       1
       2       1       1       2       1       1       2       3       4       5
       2       1       6       7       4       5       2       1       1       2
       1       1       2       1       1       2       1       1       2       1
       1       2       1       1       2       1       1       2       1       1
       2       1       1       2       1       1       2       1       1       2
       1       1       2       1       1       2       1       1       2       1
       1       2       1       1       2       1       1       2       1       1
       2       1       1       2       1       1       2       1       1       2
       1       1       2       1       1       2       1       1       1
%FLAG NUMBER_EXCLUDED_ATOMS                                                     
%FORMAT(10I8)                                                                   
       7       9       5       4       9       5       4       9       5       4
       9       5       4       9       5       4       9       5       4       9
       5       4       9       5       4       9       5       4       9       5
       4       9       5       4       9       5       4       9       5       4
       9       5       4       9       5       4       9       5       4       9
       5       4       9       5       4       9       5       4      10       5
       4      10       6      11       7       6       2       1       9       5
       4       9       5       4       9       5       4       9       5       4
       9       5       4       9       5       4       9       5       4       9
       5       4       9       5       4       9       5       4       9       5
       4       9       5       4       9       5       4      10       5       4
      10       6      11       7       6       2       1       9       5       4
       9       5       4       9       5       4       9       5       4       9
       5       4       9       5       4       9       5       4       9       5
       4       9       5       4       9       5       4       9       5       4
       9       5       4      10       5       4      12       6       5       1
      12       7       7       3       2       1       9       5       4       9
       5       4       9       5       4       9       5       4       9       5
       4       9       5       4       9       5       4       9       5       4
       9       5       4       9       5       4       9       5       4       9
       5       4       9       5       4       9       5       4       9       5
       4       9       5       4       9       5       4       9       5       4
       9       5       4       9       5       4       9       5       4       9
       5       4       6       5       4       3       2       1       1
%FLAG NONBONDED_PARM_INDEX                                                      
%FORMAT(10I8)                                                                   
       1       2       4       7      11      16      22       2       3       5
       8      12      17      23       4       5       6       9      13      18
      24       7       8       9      10      14      19      25      11      12
      13      14      15      20      26      16      17      18      19      20
      21      27      22      23      24      25      26      27      28
%FLAG RESIDUE_LABEL                                                             
%FORMAT(20a4)                                                                   
MYC 
%FLAG RESIDUE_POINTER                                                           
%FORMAT(10I8)                                                                   
       1
%FLAG BOND_FORCE_CONSTANT                                                       
%FORMAT(5E16.8)                                                                 
  3.45250000E+02  2.28890000E+02  2.41880000E+02  3.59910000E+02  2.48860000E+02
  3.44220000E+02  2.85150000E+02  5.35510000E+02  2.34850000E+02  5.90600000E+02
  3.59270000E+02
%FLAG BOND_EQUIL_VALUE                                                          
%FORMAT(5E16.8)                                                                 
  1.09620000E+00  1.53540000E+00  1.51740000E+00  1.08650000E+00  1.50820000E+00
  1.09690000E+00  1.42420000E+00  9.72500000E-01  1.52700000E+00  1.21900000E+00
  1.35560000E+00
%FLAG ANGLE_FORCE_CONSTANT                                                      
%FORMAT(5E16.8)                                                                 
  3.58000000E+01  4.32700000E+01  5.98700000E+01  6.01900000E+01  4.29900000E+01
  5.86900000E+01  4.36000000E+01  4.24900000E+01  8.35100000E+01  3.50500000E+01
  4.32800000E+01  7.67900000E+01  6.03600000E+01  6.51300000E+01  5.62900000E+01
  7.64500000E+01  7.74200000E+01  4.36300000E+01  6.84600000E+01  1.02030000E+02
%FLAG ANGLE_EQUIL_VALUE                                                         
%FORMAT(5E16.8)                                                                 
  1.88024401E+00  1.91427794E+00  1.96576518E+00  1.96820864E+00  1.98478928E+00
  2.10766051E+00  1.92579712E+00  2.05407888E+00  1.04719800E+00  1.99718112E+00
  1.91270715E+00  1.91392888E+00  1.94482122E+00  1.87430989E+00  1.92649525E+00
  2.14501057E+00  1.96768504E+00  1.90153704E+00  1.85947458E+00  2.13087340E+00
%FLAG DIHEDRAL_FORCE_CONSTANT                                                   
%FORMAT(5E16.8)                                                                 
  1.20000000E-01  1.30000000E-01  5.20000000E-01  1.55555556E-01  1.80000000E-01
  4.60000000E-01  4.00000000E-02  0.00000000E+00  6.00000000E-02  9.00000000E-02
  6.80000000E-01  2.00000000E-01  4.40000000E-01  0.00000000E+00  1.23000000E-01
  4.70000000E-01  1.80000000E+00  4.03000000E+00  3.66000000E+00  1.90000000E+00
  2.30000000E+00  1.10000000E+00
%FLAG DIHEDRAL_PERIODICITY                                                      
%FORMAT(5E16.8)                                                                 
  3.00000000E+00  3.00000000E+00  3.00000000E+00  3.00000000E+00  3.00000000E+00
  1.00000000E+00  2.00000000E+00  3.00000000E+00  3.00000000E+00  3.00000000E+00
  1.00000000E+00  2.00000000E+00  3.00000000E+00  2.00000000E+00  3.00000000E+00
  1.00000000E+00  2.00000000E+00  1.00000000E+00  2.00000000E+00  1.00000000E+00
  2.00000000E+00  2.00000000E+00
%FLAG DIHEDRAL_PHASE                                                            
%FORMAT(5E16.8)                                                                 
  0.00000000E+00  0.00000000E+00  0.00000000E+00  0.00000000E+00  0.00000000E+00
  3.14159400E+00  0.00000000E+00  0.00000000E+00  0.00000000E+00  0.00000000E+00
  0.00000000E+00  3.14159400E+00  3.14159400E+00  3.14159400E+00  0.00000000E+00
  3.14159400E+00  3.14159400E+00  0.00000000E+00  3.14159400E+00  0.00000000E+00
  3.14159400E+00  3.14159400E+00
%FLAG SCEE_SCALE_FACTOR                                                         
%FORMAT(5E16.8)                                                                 
  1.20000000E+00  1.20000000E+00  1.20000000E+00  1.20000000E+00  1.20000000E+00
  1.20000000E+00  1.20000000E+00  1.20000000E+00  1.20000000E+00  1.20000000E+00
  1.20000000E+00  1.20000000E+00  1.20000000E+00  1.20000000E+00  1.20000000E+00
  1.20000000E+00  1.20000000E+00  1.20000000E+00  1.20000000E+00  1.20000000E+00
  1.20000000E+00  0.00000000E+00
%FLAG SCNB_SCALE_FACTOR                                                         
%FORMAT(5E16.8)                                                                 
  2.00000000E+00  2.00000000E+00  2.00000000E+00  2.00000000E+00  2.00000000E+00
  2.00000000E+00  2.00000000E+00  2.00000000E+00  2.00000000E+00  2.00000000E+00
  2.00000000E+00  2.00000000E+00  2.00000000E+00  2.00000000E+00  2.00000000E+00
  2.00000000E+00  2.00000000E+00  2.00000000E+00  2.00000000E+00  2.00000000E+00
  2.00000000E+00  0.00000000E+00
%FLAG SOLTY                                                                     
%FORMAT(5E16.8)                                                                 
  0.00000000E+00  0.00000000E+00  0.00000000E+00  0.00000000E+00  0.00000000E+00
  0.00000000E+00  0.00000000E+00  0.00000000E+00
%FLAG LENNARD_JONES_ACOEF                                                       
%FORMAT(5E16.8)                                                                 
  7.94617769E+03  1.00235148E+05  1.02073671E+06  5.22955465E+03  6.97998263E+04
  3.39005767E+03  6.80216136E+04  7.18991463E+05  4.69084694E+04  5.03152404E+05
  8.80612241E+00  3.03553352E+02  4.36660257E+00  1.74176419E+02  1.10360882E-05
  8.12662403E+04  8.43969952E+05  5.63013422E+04  5.92438683E+05  2.25372434E+02
  6.96551276E+05  5.68021765E+04  6.30925504E+05  3.86646725E+04  4.37717034E+05
  1.15813907E+02  5.17507491E+05  3.76435470E+05
%FLAG LENNARD_JONES_BCOEF                                                       
%FORMAT(5E16.8)                                                                 
  2.57122925E+01  1.37787728E+02  6.63431737E+02  2.08590256E+01  1.14981426E+02
  1.67944276E+01  1.09393126E+02  5.36620538E+02  9.08431526E+01  4.32634597E+02
  5.90150328E-01  5.22789272E+00  4.15568027E-01  3.81654050E+00  4.55498033E-04
  1.21392023E+02  5.90251928E+02  1.01040256E+02  4.76608379E+02  4.40751799E+00
  5.24668528E+02  1.11953944E+02  5.62969425E+02  9.23664132E+01  4.51916854E+02
  3.48534600E+00  4.98871431E+02  4.69350655E+02
%FLAG BONDS_INC_HYDROGEN                                                        
%FORMAT(10I8)                                                                   
       0       3       1       3       9       1       3       6       1      12
      18       1      12      15       1      21      24       1      21      27
       1      30      36       1      30      33       1      39      42       1
      39      45       1      48      54       1      48      51       1      57
      60       1      57      63       1      66      69       1      66      72
       1      75      81       1      75      78       1      84      87       1
      84      90       1      93      99       1      93      96       1     102
     108       1     102     105       1     111     117       1     111     114
       1     120     126       1     120     123       1     129     132       1
     129     135       1     138     144       1     138     141       1     147
     150       1     147     153       1     156     159       1     156     162
       1     165     168       1     165     171       1     174     177       1
     174     180       1     183     186       4     189     192       4     195
     201       4     195     198       4     204     210       1     204     207
       1     213     219       1     213     216       1     222     228       1
     222     225       1     231     234       1     231     237       1     240
     243       1     240     246       1     249     252       1     249     255
       1     258     261       1     258     264       1     267     273       1
     267     270       1     276     279       1     276     282       1     285
     291       1     285     288       1     294     300       1     294     297
       1     303     306       1     303     309       1     312     318       1
     312     315       1     321     327       1     321     324       1     330
     333       4     336     339       4     342     345       4     342     348
       4     351     354       1     351     357       1     360     363       1
     360     366       1     369     375       1     369     372       1     378
     381       1     378     384       1     387     393       1     387     390
       1     396     399       1     396     402       1     405     408       1
     405     411       1     414     420       1     414     417       1     423
     429       1     423     426       1     432     435       1     432     438
       1     441     444       1     441     447       1     450     453       1
     450     456       1     459     462       1     459     465       1     468
     471       6     474     477       8     480     483       1     492     495
       8     498     504       1     498     501       1     507     510       1
     507     513       1     516     522       1     516     519       1     525
     528       1     525     531       1     534     540       1     534     537
       1     543     549       1     543     546       1     552     555       1
     552     558       1     561     567       1     561     564       1     570
     573       1     570     576       1     579     582       1     579     585
       1     588     594       1     588     591       1     597     600       1
     597     603       1     606     609       1     606     612       1     615
     621       1     615     618       1     624     630       1     624     627
       1     633     636       1     633     639       1     642     648       1
     642     645       1     651     654       1     651     657       1     660
     663       1     660     666       1     669     675       1     669     672
       1     678     684       1     678     681       1     687     690       1
     687     693       1     696     702       1     696     699       1     705
     708       1     705     714       1     705     711       1
%FLAG BONDS_WITHOUT_HYDROGEN                                                    
%FORMAT(10I8)                                                                   
       3      12       2      12      21       2      21      30       2      30
      39       2      39      48       2      48      57       2      57      66
       2      66      75       2      75      84       2      84      93       2
      93     102       2     102     111       2     111     120       2     120
     129       2     129     138       2     138     147       2     147     156
       2     156     165       2     165     174       2     174     183       3
     183     195       5     183     189       5     189     195       5     189
     204       3     204     213       2     213     222       2     222     231
       2     231     240       2     240     249       2     249     258       2
     258     267       2     267     276       2     276     285       2     285
     294       2     294     303       2     303     312       2     312     321
       2     321     330       3     330     336       5     330     342       5
     336     351       3     336     342       5     351     360       2     360
     369       2     369     378       2     378     387       2     387     396
       2     396     405       2     405     414       2     414     423       2
     423     432       2     432     441       2     441     450       2     450
     459       2     459     468       2     468     480       2     468     474
       7     480     498       2     480     486       9     486     489      10
     486     492      11     498     507       2     507     516       2     516
     525       2     525     534       2     534     543       2     543     552
       2     552     561       2     561     570       2     570     579       2
     579     588       2     588     597       2     597     606       2     606
     615       2     615     624       2     624     633       2     633     642
       2     642     651       2     651     660       2     660     669       2
     669     678       2     678     687       2     687     696       2     696
     705       2
%FLAG ANGLES_INC_HYDROGEN                                                       
%FORMAT(10I8)                                                                   
       0       3       9       1       0       3       6       1       0       3
      12       2       3      12      18       2       3      12      15       2
       6       3       9       1       6       3      12       2       9       3
      12       2      12      21      24       2      12      21      27       2
      15      12      18       1      15      12      21       2      18      12
      21       2      21      30      36       2      21      30      33       2
      24      21      27       1      24      21      30       2      27      21
      30       2      30      39      42       2      30      39      45       2
      33      30      36       1      33      30      39       2      36      30
      39       2      39      48      54       2      39      48      51       2
      42      39      45       1      42      39      48       2      45      39
      48       2      48      57      60       2      48      57      63       2
      51      48      54       1      51      48      57       2      54      48
      57       2      57      66      69       2      57      66      72       2
      60      57      63       1      60      57      66       2      63      57
      66       2      66      75      81       2      66      75      78       2
      69      66      72       1      69      66      75       2      72      66
      75       2      75      84      87       2      75      84      90       2
      78      75      81       1      78      75      84       2      81      75
      84       2      84      93      99       2      84      93      96       2
      87      84      90       1      87      84      93       2      90      84
      93       2      93     102     108       2      93     102     105       2
      96      93      99       1      96      93     102       2      99      93
     102       2     102     111     117       2     102     111     114       2
     105     102     108       1     105     102     111       2     108     102
     111       2     111     120     126       2     111     120     123       2
     114     111     117       1     114     111     120       2     117     111
     120       2     120     129     132       2     120     129     135       2
     123     120     126       1     123     120     129       2     126     120
     129       2     129     138     144       2     129     138     141       2
     132     129     135       1     132     129     138       2     135     129
     138       2     138     147     150       2     138     147     153       2
     141     138     144       1     141     138     147       2     144     138
     147       2     147     156     159       2     147     156     162       2
     150     147     153       1     150     147     156       2     153     147
     156       2     156     165     168       2     156     165     171       2
     159     156     162       1     159     156     165       2     162     156
     165       2     165     174     177       2     165     174     180       2
     168     165     171       1     168     165     174       2     171     165
     174       2     174     183     186       5     177     174     180       1
     177     174     183       7     180     174     183       7     183     195
     201       8     183     195     198       8     183     189     192       8
     186     183     195       8     186     183     189       8     189     195
     201       8     189     195     198       8     189     204     210       7
     189     204     207       7     192     189     195       8     192     189
     204       5     198     195     201      10     204     213     219       2
     204     213     216       2     207     204     210       1     207     204
     213       2     210     204     213       2     213     222     228       2
     213     222     225       2     216     213     219       1     216     213
     222       2     219     213     222       2     222     231     234       2
     222     231     237       2     225     222     228       1     225     222
     231       2     228     222     231       2     231     240     243       2
     231     240     246       2     234     231     237       1     234     231
     240       2     237     231     240       2     240     249     252       2
     240     249     255       2     243     240     246       1     243     240
     249       2     246     240     249       2     249     258     261       2
     249     258     264       2     252     249     255       1     252     249
     258       2     255     249     258       2     258     267     273       2
     258     267     270       2     261     258     264       1     261     258
     267       2     264     258     267       2     267     276     279       2
     267     276     282       2     270     267     273       1     270     267
     276       2     273     267     276       2     276     285     291       2
     276     285     288       2     279     276     282       1     279     276
     285       2     282     276     285       2     285     294     300       2
     285     294     297       2     288     285     291       1     288     285
     294       2     291     285     294       2     294     303     306       2
     294     303     309       2     297     294     300       1     297     294
     303       2     300     294     303       2     303     312     318       2
     303     312     315       2     306     303     309       1     306     303
     312       2     309     303     312       2     312     321     327       2
     312     321     324       2     315     312     318       1     315     312
     321       2     318     312     321       2     321     330     333       5
     324     321     327       1     324     321     330       7     327     321
     330       7     330     336     339       8     330     342     345       8
     330     342     348       8     333     330     336       8     333     330
     342       8     336     351     354       7     336     351     357       7
     336     342     345       8     336     342     348       8     339     336
     351       5     339     336     342       8     345     342     348      10
     351     360     363       2     351     360     366       2     354     351
     360       2     354     351     357       1     357     351     360       2
     360     369     375       2     360     369     372       2     363     360
     369       2     363     360     366       1     366     360     369       2
     369     378     381       2     369     378     384       2     372     369
     375       1     372     369     378       2     375     369     378       2
     378     387     393       2     378     387     390       2     381     378
     387       2     381     378     384       1     384     378     387       2
     387     396     399       2     387     396     402       2     390     387
     393       1     390     387     396       2     393     387     396       2
     396     405     408       2     396     405     411       2     399     396
     405       2     399     396     402       1     402     396     405       2
     405     414     420       2     405     414     417       2     408     405
     414       2     408     405     411       1     411     405     414       2
     414     423     429       2     414     423     426       2     417     414
     423       2     417     414     420       1     420     414     423       2
     423     432     435       2     423     432     438       2     426     423
     432       2     426     423     429       1     429     423     432       2
     432     441     444       2     432     441     447       2     435     432
     441       2     435     432     438       1     438     432     441       2
     441     450     453       2     441     450     456       2     444     441
     450       2     444     441     447       1     447     441     450       2
     450     459     462       2     450     459     465       2     453     450
     459       2     453     450     456       1     456     450     459       2
     459     468     471      11     462     459     468       2     462     459
     465       1     465     459     468       2     468     480     483       2
     468     474     477      14     471     468     480      11     471     468
     474      15     480     498     504       2     480     498     501       2
     483     480     498       2     483     480     486      18     486     492
     495      19     498     507     510       2     498     507     513       2
     501     498     507       2     501     498     504       1     504     498
     507       2     507     516     522       2     507     516     519       2
     510     507     516       2     510     507     513       1     513     507
     516       2     516     525     528       2     516     525     531       2
     519     516     525       2     519     516     522       1     522     516
     525       2     525     534     540       2     525     534     537       2
     528     525     534       2     528     525     531       1     531     525
     534       2     534     543     549       2     534     543     546       2
     537     534     543       2     537     534     540       1     540     534
     543       2     543     552     555       2     543     552     558       2
     546     543     552       2     546     543     549       1     549     543
     552       2     552     561     567       2     552     561     564       2
     555     552     561       2     555     552     558       1     558     552
     561       2     561     570     573       2     561     570     576       2
     564     561     570       2     564     561     567       1     567     561
     570       2     570     579     582       2     570     579     585       2
     573     570     579       2     573     570     576       1     576     570
     579       2     579     588     594       2     579     588     591       2
     582     579     588       2     582     579     585       1     585     579
     588       2     588     597     600       2     588     597     603       2
     591     588     597       2     591     588     594       1     594     588
     597       2     597     606     609       2     597     606     612       2
     600     597     606       2     600     597     603       1     603     597
     606       2     606     615     621       2     606     615     618       2
     609     606     615       2     609     606     612       1     612     606
     615       2     615     624     630       2     615     624     627       2
     618     615     624       2     618     615     621       1     621     615
     624       2     624     633     636       2     624     633     639       2
     627     624     633       2     627     624     630       1     630     624
     633       2     633     642     648       2     633     642     645       2
     636     633     642       2     636     633     639       1     639     633
     642       2     642     651     654       2     642     651     657       2
     645     642     651       2     645     642     648       1     648     642
     651       2     651     660     663       2     651     660     666       2
     654     651     660       2     654     651     657       1     657     651
     660       2     660     669     675       2     660     669     672       2
     663     660     669       2     663     660     666       1     666     660
     669       2     669     678     684       2     669     678     681       2
     672     669     678       2     672     669     675       1     675     669
     678       2     678     687     690       2     678     687     693       2
     681     678     687       2     681     678     684       1     684     678
     687       2     687     696     702       2     687     696     699       2
     690     687     696       2     690     687     693       1     693     687
     696       2     696     705     708       2     696     705     714       2
     696     705     711       2     699     696     705       2     699     696
     702       1     702     696     705       2     708     705     714       1
     708     705     711       1     711     705     714       1
%FLAG ANGLES_WITHOUT_HYDROGEN                                                   
%FORMAT(10I8)                                                                   
       3      12      21       3      12      21      30       3      21      30
      39       3      30      39      48       3      39      48      57       3
      48      57      66       3      57      66      75       3      66      75
      84       3      75      84      93       3      84      93     102       3
      93     102     111       3     102     111     120       3     111     120
     129       3     120     129     138       3     129     138     147       3
     138     147     156       3     147     156     165       3     156     165
     174       3     165     174     183       4     174     183     195       6
     174     183     189       6     183     195     189       9     183     189
     195       9     183     189     204       6     189     183     195       9
     189     204     213       4     195     189     204       6     204     213
     222       3     213     222     231       3     222     231     240       3
     231     240     249       3     240     249     258       3     249     258
     267       3     258     267     276       3     267     276     285       3
     276     285     294       3     285     294     303       3     294     303
     312       3     303     312     321       3     312     321     330       4
     321     330     336       6     321     330     342       6     330     336
     351       6     330     336     342       9     330     342     336       9
     336     351     360       4     336     330     342       9     342     336
     351       6     351     360     369       3     360     369     378       3
     369     378     387       3     378     387     396       3     387     396
     405       3     396     405     414       3     405     414     423       3
     414     423     432       3     423     432     441       3     432     441
     450       3     441     450     459       3     450     459     468       3
     459     468     480       3     459     468     474      12     468     480
     498       3     468     480     486      13     474     468     480      12
     480     498     507       3     480     486     489      16     480     486
     492      17     486     480     498      13     489     486     492      20
     498     507     516       3     507     516     525       3     516     525
     534       3     525     534     543       3     534     543     552       3
     543     552     561       3     552     561     570       3     561     570
     579       3     570     579     588       3     579     588     597       3
     588     597     606       3     597     606     615       3     606     615
     624       3     615     624     633       3     624     633     642       3
     633     642     651       3     642     651     660       3     651     660
     669       3     660     669     678       3     669     678     687       3
     678     687     696       3     687     696     705       3
%FLAG DIHEDRALS_INC_HYDROGEN                                                    
%FORMAT(10I8)                                                                   
       0       3      12      18       1       0       3      12      15       1
       0       3      12      21       2       3      12      21      24       2
       3      12      21      27       2       6       3      12      18       1
       6       3      12      15       1       6       3      12      21       2
       9       3      12      18       1       9       3      12      15       1
       9       3      12      21       2      12      21      30      36       2
      12      21      30      33       2      15      12      21      24       1
      15      12      21      27       1      15      12      21      30       2
      18      12      21      24       1      18      12      21      27       1
      18      12      21      30       2      21      30      39      42       2
      21      30      39      45       2      24      21      30      36       1
      24      21      30      33       1      24      21      30      39       2
      27      21      30      36       1      27      21      30      33       1
      27      21      30      39       2      30      39      48      54       2
      30      39      48      51       2      33      30      39      42       1
      33      30      39      45       1      33      30      39      48       2
      36      30      39      42       1      36      30      39      45       1
      36      30      39      48       2      39      48      57      60       2
      39      48      57      63       2      42      39      48      54       1
      42      39      48      51       1      42      39      48      57       2
      45      39      48      54       1      45      39      48      51       1
      45      39      48      57       2      48      57      66      69       2
      48      57      66      72       2      51      48      57      60       1
      51      48      57      63       1      51      48      57      66       2
      54      48      57      60       1      54      48      57      63       1
      54      48      57      66       2      57      66      75      81       2
      57      66      75      78       2      60      57      66      69       1
      60      57      66      72       1      60      57      66      75       2
      63      57      66      69       1      63      57      66      72       1
      63      57      66      75       2      66      75      84      87       2
      66      75      84      90       2      69      66      75      81       1
      69      66      75      78       1      69      66      75      84       2
      72      66      75      81       1      72      66      75      78       1
      72      66      75      84       2      75      84      93      99       2
      75      84      93      96       2      78      75      84      87       1
      78      75      84      90       1      78      75      84      93       2
      81      75      84      87       1      81      75      84      90       1
      81      75      84      93       2      84      93     102     108       2
      84      93     102     105       2      87      84      93      99       1
      87      84      93      96       1      87      84      93     102       2
      90      84      93      99       1      90      84      93      96       1
      90      84      93     102       2      93     102     111     117       2
      93     102     111     114       2      96      93     102     108       1
      96      93     102     105       1      96      93     102     111       2
      99      93     102     108       1      99      93     102     105       1
      99      93     102     111       2     102     111     120     126       2
     102     111     120     123       2     105     102     111     117       1
     105     102     111     114       1     105     102     111     120       2
     108     102     111     117       1     108     102     111     114       1
     108     102     111     120       2     111     120     129     132       2
     111     120     129     135       2     114     111     120     126       1
     114     111     120     123       1     114     111     120     129       2
     117     111     120     126       1     117     111     120     123       1
     117     111     120     129       2     120     129     138     144       2
     120     129     138     141       2     123     120     129     132       1
     123     120     129     135       1     123     120     129     138       2
     126     120     129     132       1     126     120     129     135       1
     126     120     129     138       2     129     138     147     150       2
     129     138     147     153       2     132     129     138     144       1
     132     129     138     141       1     132     129     138     147       2
     135     129     138     144       1     135     129     138     141       1
     135     129     138     147       2     138     147     156     159       2
     138     147     156     162       2     141     138     147     150       1
     141     138     147     153       1     141     138     147     156       2
     144     138     147     150       1     144     138     147     153       1
     144     138     147     156       2     147     156     165     168       2
     147     156     165     171       2     150     147     156     159       1
     150     147     156     162       1     150     147     156     165       2
     153     147     156     159       1     153     147     156     162       1
     153     147     156     165       2     156     165     174     177       2
     156     165     174     180       2     159     156     165     168       1
     159     156     165     171       1     159     156     165     174       2
     162     156     165     168       1     162     156     165     171       1
     162     156     165     174       2     165     174     183     186       2
     168     165     174     177       1     168     165     174     180       1
     168     165     174     183       4     171     165     174     177       1
     171     165     174     180       1     171     165     174     183       4
     174     183     195     201       4     174     183     195     198       4
     174     183     189     192       4     177     174     183     186       1
     177     174     183     195       2     177     174     183     189       2
     180     174     183     186       1     180     174     183     195       2
     180     174     183     189       2     183     195    -189     192       4
     183     189    -195     201       4     183     189    -195     198       4
     183     189     204     210       2     183     189     204     207       2
     186     183     195     201       4     186     183     195     198       4
     186     183    -195     189       4     186     183    -189     195       4
     186     183     189     192       4     186     183     189     204       4
     189     183    -195     201       4     189     183    -195     198       4
     189     204     213     219       4     189     204     213     216       4
     192     189    -183     195       4     192     189     195     201       4
     192     189     195     198       4     192     189     204     210       1
     192     189     204     207       1     192     189     204     213       2
     195     189     204     210       2     195     189     204     207       2
     198     195     189     204       4     201     195     189     204       4
     204     213     222     228       2     204     213     222     225       2
     207     204     213     219       1     207     204     213     216       1
     207     204     213     222       2     210     204     213     219       1
     210     204     213     216       1     210     204     213     222       2
     213     222     231     234       2     213     222     231     237       2
     216     213     222     228       1     216     213     222     225       1
     216     213     222     231       2     219     213     222     228       1
     219     213     222     225       1     219     213     222     231       2
     222     231     240     243       2     222     231     240     246       2
     225     222     231     234       1     225     222     231     237       1
     225     222     231     240       2     228     222     231     234       1
     228     222     231     237       1     228     222     231     240       2
     231     240     249     252       2     231     240     249     255       2
     234     231     240     243       1     234     231     240     246       1
     234     231     240     249       2     237     231     240     243       1
     237     231     240     246       1     237     231     240     249       2
     240     249     258     261       2     240     249     258     264       2
     243     240     249     252       1     243     240     249     255       1
     243     240     249     258       2     246     240     249     252       1
     246     240     249     255       1     246     240     249     258       2
     249     258     267     273       2     249     258     267     270       2
     252     249     258     261       1     252     249     258     264       1
     252     249     258     267       2     255     249     258     261       1
     255     249     258     264       1     255     249     258     267       2
     258     267     276     279       2     258     267     276     282       2
     261     258     267     273       1     261     258     267     270       1
     261     258     267     276       2     264     258     267     273       1
     264     258     267     270       1     264     258     267     276       2
     267     276     285     291       2     267     276     285     288       2
     270     267     276     279       1     270     267     276     282       1
     270     267     276     285       2     273     267     276     279       1
     273     267     276     282       1     273     267     276     285       2
     276     285     294     300       2     276     285     294     297       2
     279     276     285     291       1     279     276     285     288       1
     279     276     285     294       2     282     276     285     291       1
     282     276     285     288       1     282     276     285     294       2
     285     294     303     306       2     285     294     303     309       2
     288     285     294     300       1     288     285     294     297       1
     288     285     294     303       2     291     285     294     300       1
     291     285     294     297       1     291     285     294     303       2
     294     303     312     318       2     294     303     312     315       2
     297     294     303     306       1     297     294     303     309       1
     297     294     303     312       2     300     294     303     306       1
     300     294     303     309       1     300     294     303     312       2
     303     312     321     327       2     303     312     321     324       2
     306     303     312     318       1     306     303     312     315       1
     306     303     312     321       2     309     303     312     318       1
     309     303     312     315       1     309     303     312     321       2
     312     321     330     333       2     315     312     321     327       1
     315     312     321     330       4     315     312     321     324       1
     318     312     321     327       1     318     312     321     330       4
     318     312     321     324       1     321     330     336     339       4
     321     330     342     345       4     321     330     342     348       4
     324     321     330     336       2     324     321     330     333       1
     324     321     330     342       2     327     321     330     336       2
     327     321     330     333       1     327     321     330     342       2
     330     336     351     354       2     330     336     351     357       2
     330     336    -342     345       4     330     336    -342     348       4
     330     342    -336     339       4     333     330     336     339       4
     333     330     336     351       4     333     330    -336     342       4
     333     330    -342     336       4     333     330     342     345       4
     333     330     342     348       4     336     351     360     363       4
     336     351     360     366       4     336     330    -342     345       4
     336     330    -342     348       4     339     336     351     354       1
     339     336     351     360       2     339     336     351     357       1
     339     336    -330     342       4     339     336     342     345       4
     339     336     342     348       4     342     336     351     354       2
     342     336     351     357       2     345     342     336     351       4
     348     342     336     351       4     351     360     369     375       2
     351     360     369     372       2     354     351     360     369       2
     354     351     360     363       1     354     351     360     366       1
     357     351     360     369       2     357     351     360     363       1
     357     351     360     366       1     360     369     378     381       2
     360     369     378     384       2     363     360     369     375       1
     363     360     369     378       2     363     360     369     372       1
     366     360     369     375       1     366     360     369     378       2
     366     360     369     372       1     369     378     387     393       2
     369     378     387     390       2     372     369     378     387       2
     372     369     378     381       1     372     369     378     384       1
     375     369     378     387       2     375     369     378     381       1
     375     369     378     384       1     378     387     396     399       2
     378     387     396     402       2     381     378     387     393       1
     381     378     387     396       2     381     378     387     390       1
     384     378     387     393       1     384     378     387     396       2
     384     378     387     390       1     387     396     405     408       2
     387     396     405     411       2     390     387     396     405       2
     390     387     396     399       1     390     387     396     402       1
     393     387     396     405       2     393     387     396     399       1
     393     387     396     402       1     396     405     414     420       2
     396     405     414     417       2     399     396     405     414       2
     399     396     405     408       1     399     396     405     411       1
     402     396     405     414       2     402     396     405     408       1
     402     396     405     411       1     405     414     423     429       2
     405     414     423     426       2     408     405     414     423       2
     408     405     414     420       1     408     405     414     417       1
     411     405     414     423       2     411     405     414     420       1
     411     405     414     417       1     414     423     432     435       2
     414     423     432     438       2     417     414     423     432       2
     417     414     423     429       1     417     414     423     426       1
     420     414     423     432       2     420     414     423     429       1
     420     414     423     426       1     423     432     441     444       2
     423     432     441     447       2     426     423     432     441       2
     426     423     432     435       1     426     423     432     438       1
     429     423     432     441       2     429     423     432     435       1
     429     423     432     438       1     432     441     450     453       2
     432     441     450     456       2     435     432     441     450       2
     435     432     441     444       1     435     432     441     447       1
     438     432     441     450       2     438     432     441     444       1
     438     432     441     447       1     441     450     459     462       2
     441     450     459     465       2     444     441     450     459       2
     444     441     450     453       1     444     441     450     456       1
     447     441     450     459       2     447     441     450     453       1
     447     441     450     456       1     450     459     468     471       4
     453     450     459     468       2     453     450     459     462       1
     453     450     459     465       1     456     450     459     468       2
     456     450     459     462       1     456     450     459     465       1
     459     468     480     483       2     459     468     474     477       9
     462     459     468     471       4     462     459     468     480       2
     462     459     468     474      10     465     459     468     471       4
     465     459     468     480       2     465     459     468     474      10
     468     480     498     504       2     468     480     498     501       2
     471     468     480     498       4     471     468     480     483       4
     471     468     480     486       4     471     468     474     477      15
     474     468     480     483      10     477     474     468     480       9
     480     498     507     510       2     480     498     507     513       2
     480     486     492     495      17     483     480     498     507       2
     483     480     498     504       1     483     480     498     501       1
     483     480     486     489      18     483     480    -486     489      19
     483     480     486     492      14     486     480     498     504       4
     486     480     498     501       4     489     486     492     495      20
     489     486    -492     495      21     498     507     516     522       2
     498     507     516     519       2     501     498     507     516       2
     501     498     507     510       1     501     498     507     513       1
     504     498     507     516       2     504     498     507     510       1
     504     498     507     513       1     507     516     525     528       2
     507     516     525     531       2     510     507     516     525       2
     510     507     516     522       1     510     507     516     519       1
     513     507     516     525       2     513     507     516     522       1
     513     507     516     519       1     516     525     534     540       2
     516     525     534     537       2     519     516     525     534       2
     519     516     525     528       1     519     516     525     531       1
     522     516     525     534       2     522     516     525     528       1
     522     516     525     531       1     525     534     543     549       2
     525     534     543     546       2     528     525     534     543       2
     528     525     534     540       1     528     525     534     537       1
     531     525     534     543       2     531     525     534     540       1
     531     525     534     537       1     534     543     552     555       2
     534     543     552     558       2     537     534     543     552       2
     537     534     543     549       1     537     534     543     546       1
     540     534     543     552       2     540     534     543     549       1
     540     534     543     546       1     543     552     561     567       2
     543     552     561     564       2     546     543     552     561       2
     546     543     552     555       1     546     543     552     558       1
     549     543     552     561       2     549     543     552     555       1
     549     543     552     558       1     552     561     570     573       2
     552     561     570     576       2     555     552     561     570       2
     555     552     561     567       1     555     552     561     564       1
     558     552     561     570       2     558     552     561     567       1
     558     552     561     564       1     561     570     579     582       2
     561     570     579     585       2     564     561     570     579       2
     564     561     570     573       1     564     561     570     576       1
     567     561     570     579       2     567     561     570     573       1
     567     561     570     576       1     570     579     588     594       2
     570     579     588     591       2     573     570     579     588       2
     573     570     579     582       1     573     570     579     585       1
     576     570     579     588       2     576     570     579     582       1
     576     570     579     585       1     579     588     597     600       2
     579     588     597     603       2     582     579     588     597       2
     582     579     588     594       1     582     579     588     591       1
     585     579     588     597       2     585     579     588     594       1
     585     579     588     591       1     588     597     606     609       2
     588     597     606     612       2     591     588     597     606       2
     591     588     597     600       1     591     588     597     603       1
     594     588     597     606       2     594     588     597     600       1
     594     588     597     603       1     597     606     615     621       2
     597     606     615     618       2     600     597     606     615       2
     600     597     606     609       1     600     597     606     612       1
     603     597     606     615       2     603     597     606     609       1
     603     597     606     612       1     606     615     624     630       2
     606     615     624     627       2     609     606     615     624       2
     609     606     615     621       1     609     606     615     618       1
     612     606     615     624       2     612     606     615     621       1
     612     606     615     618       1     615     624     633     636       2
     615     624     633     639       2     618     615     624     633       2
     618     615     624     630       1     618     615     624     627       1
     621     615     624     633       2     621     615     624     630       1
     621     615     624     627       1     624     633     642     648       2
     624     633     642     645       2     627     624     633     642       2
     627     624     633     636       1     627     624     633     639       1
     630     624     633     642       2     630     624     633     636       1
     630     624     633     639       1     633     642     651     654       2
     633     642     651     657       2     636     633     642     651       2
     636     633     642     648       1     636     633     642     645       1
     639     633     642     651       2     639     633     642     648       1
     639     633     642     645       1     642     651     660     663       2
     642     651     660     666       2     645     642     651     660       2
     645     642     651     654       1     645     642     651     657       1
     648     642     651     660       2     648     642     651     654       1
     648     642     651     657       1     651     660     669     675       2
     651     660     669     672       2     654     651     660     669       2
     654     651     660     663       1     654     651     660     666       1
     657     651     660     669       2     657     651     660     663       1
     657     651     660     666       1     660     669     678     684       2
     660     669     678     681       2     663     660     669     678       2
     663     660     669     675       1     663     660     669     672       1
     666     660     669     678       2     666     660     669     675       1
     666     660     669     672       1     669     678     687     690       2
     669     678     687     693       2     672     669     678     687       2
     672     669     678     684       1     672     669     678     681       1
     675     669     678     687       2     675     669     678     684       1
     675     669     678     681       1     678     687     696     702       2
     678     687     696     699       2     681     678     687     696       2
     681     678     687     690       1     681     678     687     693       1
     684     678     687     696       2     684     678     687     690       1
     684     678     687     693       1     687     696     705     708       2
     687     696     705     714       2     687     696     705     711       2
     690     687     696     705       2     690     687     696     702       1
     690     687     696     699       1     693     687     696     705       2
     693     687     696     702       1     693     687     696     699       1
     699     696     705     708       1     699     696     705     714       1
     699     696     705     711       1     702     696     705     708       1
     702     696     705     714       1     702     696     705     711       1
%FLAG DIHEDRALS_WITHOUT_HYDROGEN                                                
%FORMAT(10I8)                                                                   
       3      12      21      30       3      12      21      30      39       3
      21      30      39      48       3      30      39      48      57       3
      39      48      57      66       3      48      57      66      75       3
      57      66      75      84       3      66      75      84      93       3
      75      84      93     102       3      84      93     102     111       3
      93     102     111     120       3     102     111     120     129       3
     111     120     129     138       3     120     129     138     147       3
     129     138     147     156       3     138     147     156     165       3
     147     156     165     174       3     156     165     174     183       4
     165     174     183     195       3     165     174     183     189       3
     174     183    -195     189       4     174     183    -189     195       4
     174     183     189     204       4     183     195    -189     204       4
     183     189     204     213       3     189     204     213     222       4
     195     183    -189     204       4     195     189     204     213       3
     204     213     222     231       3     213     222     231     240       3
     222     231     240     249       3     231     240     249     258       3
     240     249     258     267       3     249     258     267     276       3
     258     267     276     285       3     267     276     285     294       3
     276     285     294     303       3     285     294     303     312       3
     294     303     312     321       3     303     312     321     330       4
     312     321     330     336       3     312     321     330     342       3
     321     330     336     351       4     321     330    -336     342       4
     321     330    -342     336       4     330     336     351     360       3
     330     342    -336     351       4     336     351     360     369       4
     342     336     351     360       3     342     330    -336     351       4
     351     360     369     378       3     360     369     378     387       3
     369     378     387     396       3     378     387     396     405       3
     387     396     405     414       3     396     405     414     423       3
     405     414     423     432       3     414     423     432     441       3
     423     432     441     450       3     432     441     450     459       3
     441     450     459     468       3     450     459     468     480       3
     450     459     468     474       5     459     468     480     498       3
     459     468     480     486       6     459     468    -480     486       7
     459     468    -480     486       8     468     480     498     507       3
     468     480     486     489      11     468     480    -486     489      12
     468     480    -486     489      13     468     480     486     492      14
     474     468     480     498       5     474     468     480     486      16
     480     498     507     516       3     486     480     498     507       6
     486     480    -498     507       7     486     480    -498     507       8
     489     486     480     498      11     489     486    -480     498      12
     489     486    -480     498      13     492     486     480     498      14
     498     507     516     525       3     507     516     525     534       3
     516     525     534     543       3     525     534     543     552       3
     534     543     552     561       3     543     552     561     570       3
     552     561     570     579       3     561     570     579     588       3
     570     579     588     597       3     579     588     597     606       3
     588     597     606     615       3     597     606     615     624       3
     606     615     624     633       3     615     624     633     642       3
     624     633     642     651       3     633     642     651     660       3
     642     651     660     669       3     651     660     669     678       3
     660     669     678     687       3     669     678     687     696       3
     678     687     696     705       3     480     489    -486    -492      22
%FLAG EXCLUDED_ATOMS_LIST                                                       
%FORMAT(10I8)                                                                   
       2       3       4       5       6       7       8       3       4       5
       6       7       8       9      10      11       4       5       6       7
       8       5       6       7       8       6       7       8       9      10
      11      12      13      14       7       8       9      10      11       8
       9      10      11       9      10      11      12      13      14      15
      16      17      10      11      12      13      14      11      12      13
      14      12      13      14      15      16      17      18      19      20
      13      14      15      16      17      14      15      16      17      15
      16      17      18      19      20      21      22      23      16      17
      18      19      20      17      18      19      20      18      19      20
      21      22      23      24      25      26      19      20      21      22
      23      20      21      22      23      21      22      23      24      25
      26      27      28      29      22      23      24      25      26      23
      24      25      26      24      25      26      27      28      29      30
      31      32      25      26      27      28      29      26      27      28
      29      27      28      29      30      31      32      33      34      35
      28      29      30      31      32      29      30      31      32      30
      31      32      33      34      35      36      37      38      31      32
      33      34      35      32      33      34      35      33      34      35
      36      37      38      39      40      41      34      35      36      37
      38      35      36      37      38      36      37      38      39      40
      41      42      43      44      37      38      39      40      41      38
      39      40      41      39      40      41      42      43      44      45
      46      47      40      41      42      43      44      41      42      43
      44      42      43      44      45      46      47      48      49      50
      43      44      45      46      47      44      45      46      47      45
      46      47      48      49      50      51      52      53      46      47
      48      49      50      47      48      49      50      48      49      50
      51      52      53      54      55      56      49      50      51      52
      53      50      51      52      53      51      52      53      54      55
      56      57      58      59      52      53      54      55      56      53
      54      55      56      54      55      56      57      58      59      60
      61      62      55      56      57      58      59      56      57      58
      59      57      58      59      60      61      62      63      64      66
      58      59      60      61      62      59      60      61      62      60
      61      62      63      64      65      66      67      68      69      61
      62      63      64      66      62      63      64      66      63      64
      65      66      67      68      69      70      71      72      64      65
      66      67      68      69      65      66      67      68      69      70
      71      72      73      74      75      66      67      68      69      70
      71      72      67      68      69      70      71      72      68      69
      69      70      71      72      73      74      75      76      77      78
      71      72      73      74      75      72      73      74      75      73
      74      75      76      77      78      79      80      81      74      75
      76      77      78      75      76      77      78      76      77      78
      79      80      81      82      83      84      77      78      79      80
      81      78      79      80      81      79      80      81      82      83
      84      85      86      87      80      81      82      83      84      81
      82      83      84      82      83      84      85      86      87      88
      89      90      83      84      85      86      87      84      85      86
      87      85      86      87      88      89      90      91      92      93
      86      87      88      89      90      87      88      89      90      88
      89      90      91      92      93      94      95      96      89      90
      91      92      93      90      91      92      93      91      92      93
      94      95      96      97      98      99      92      93      94      95
      96      93      94      95      96      94      95      96      97      98
      99     100     101     102      95      96      97      98      99      96
      97      98      99      97      98      99     100     101     102     103
     104     105      98      99     100     101     102      99     100     101
     102     100     101     102     103     104     105     106     107     108
     101     102     103     104     105     102     103     104     105     103
     104     105     106     107     108     109     110     111     104     105
     106     107     108     105     106     107     108     106     107     108
     109     110     111     112     113     115     107     108     109     110
     111     108     109     110     111     109     110     111     112     113
     114     115     116     117     118     110     111     112     113     115
     111     112     113     115     112     113     114     115     116     117
     118     119     120     121     113     114     115     116     117     118
     114     115     116     117     118     119     120     121     122     123
     124     115     116     117     118     119     120     121     116     117
     118     119     120     121     117     118     118     119     120     121
     122     123     124     125     126     127     120     121     122     123
     124     121     122     123     124     122     123     124     125     126
     127     128     129     130     123     124     125     126     127     124
     125     126     127     125     126     127     128     129     130     131
     132     133     126     127     128     129     130     127     128     129
     130     128     129     130     131     132     133     134     135     136
     129     130     131     132     133     130     131     132     133     131
     132     133     134     135     136     137     138     139     132     133
     134     135     136     133     134     135     136     134     135     136
     137     138     139     140     141     142     135     136     137     138
     139     136     137     138     139     137     138     139     140     141
     142     143     144     145     138     139     140     141     142     139
     140     141     142     140     141     142     143     144     145     146
     147     148     141     142     143     144     145     142     143     144
     145     143     144     145     146     147     148     149     150     151
     144     145     146     147     148     145     146     147     148     146
     147     148     149     150     151     152     153     154     147     148
     149     150     151     148     149     150     151     149     150     151
     152     153     154     155     156     157     150     151     152     153
     154     151     152     153     154     152     153     154     155     156
     157     158     159     161     153     154     155     156     157     154
     155     156     157     155     156     157     158     159     160     161
     162     163     167     156     157     158     159     161     157     158
     159     161     158     159     160     161     162     163     164     165
     167     168     169     170     159     160     161     162     163     167
     160     161     162     163     167     161     162     163     164     165
     166     167     168     169     170     171     172     173     163     164
     165     167     168     169     170     164     165     166     167     168
     169     170     165     166     167     166     167       0     168     169
     170     171     172     173     174     175     176     169     170     171
     172     173     170     171     172     173     171     172     173     174
     175     176     177     178     179     172     173     174     175     176
     173     174     175     176     174     175     176     177     178     179
     180     181     182     175     176     177     178     179     176     177
     178     179     177     178     179     180     181     182     183     184
     185     178     179     180     181     182     179     180     181     182
     180     181     182     183     184     185     186     187     188     181
     182     183     184     185     182     183     184     185     183     184
     185     186     187     188     189     190     191     184     185     186
     187     188     185     186     187     188     186     187     188     189
     190     191     192     193     194     187     188     189     190     191
     188     189     190     191     189     190     191     192     193     194
     195     196     197     190     191     192     193     194     191     192
     193     194     192     193     194     195     196     197     198     199
     200     193     194     195     196     197     194     195     196     197
     195     196     197     198     199     200     201     202     203     196
     197     198     199     200     197     198     199     200     198     199
     200     201     202     203     204     205     206     199     200     201
     202     203     200     201     202     203     201     202     203     204
     205     206     207     208     209     202     203     204     205     206
     203     204     205     206     204     205     206     207     208     209
     210     211     212     205     206     207     208     209     206     207
     208     209     207     208     209     210     211     212     213     214
     215     208     209     210     211     212     209     210     211     212
     210     211     212     213     214     215     216     217     218     211
     212     213     214     215     212     213     214     215     213     214
     215     216     217     218     219     220     221     214     215     216
     217     218     215     216     217     218     216     217     218     219
     220     221     222     223     224     217     218     219     220     221
     218     219     220     221     219     220     221     222     223     224
     225     226     227     220     221     222     223     224     221     222
     223     224     222     223     224     225     226     227     228     229
     230     223     224     225     226     227     224     225     226     227
     225     226     227     228     229     230     231     232     233     226
     227     228     229     230     227     228     229     230     228     229
     230     231     232     233     234     235     236     229     230     231
     232     233     230     231     232     233     231     232     233     234
     235     236     237     238     239     232     233     234     235     236
     233     234     235     236     234     235     236     237     238     239
     235     236     237     238     239     236     237     238     239     237
     238     239     238     239     239       0
%FLAG HBOND_ACOEF                                                               
%FORMAT(5E16.8)                                                                 

%FLAG HBOND_BCOEF                                                               
%FORMAT(5E16.8)                                                                 

%FLAG HBCUT                                                                     
%FORMAT(5E16.8)                                                                 

%FLAG AMBER_ATOM_TYPE                                                           
%FORMAT(20a4)                                                                   
hc  c3  hc  hc  c3  hc  hc  c3  hc  hc  c3  hc  hc  c3  hc  hc  c3  hc  hc  c3  
hc  hc  c3  hc  hc  c3  hc  hc  c3  hc  hc  c3  hc  hc  c3  hc  hc  c3  hc  hc  
c3  hc  hc  c3  hc  hc  c3  hc  hc  c3  hc  hc  c3  hc  hc  c3  hc  hc  c3  hc  
hc  cx  hc  cx  hc  cx  hc  hc  c3  hc  hc  c3  hc  hc  c3  hc  hc  c3  hc  hc  
c3  hc  hc  c3  hc  hc  c3  hc  hc  c3  hc  hc  c3  hc  hc  c3  hc  hc  c3  hc  
hc  c3  hc  hc  c3  hc  hc  c3  hc  hc  cx  hc  cx  hc  cx  hc  hc  c3  hc  hc  
c3  hc  hc  c3  hc  hc  c3  hc  hc  c3  hc  hc  c3  hc  hc  c3  hc  hc  c3  hc  
hc  c3  hc  hc  c3  hc  hc  c3  hc  hc  c3  hc  hc  c3  hc  hc  c3  h1  oh  ho  
c3  hc  c   o   oh  ho  c3  hc  hc  c3  hc  hc  c3  hc  hc  c3  hc  hc  c3  hc  
hc  c3  hc  hc  c3  hc  hc  c3  hc  hc  c3  hc  hc  c3  hc  hc  c3  hc  hc  c3  
hc  hc  c3  hc  hc  c3  hc  hc  c3  hc  hc  c3  hc  hc  c3  hc  hc  c3  hc  hc  
c3  hc  hc  c3  hc  hc  c3  hc  hc  c3  hc  hc  c3  hc  hc  c3  hc  hc  hc  
%FLAG TREE_CHAIN_CLASSIFICATION                                                 
%FORMAT(20a4)                                                                   
BLA BLA BLA BLA BLA BLA BLA BLA BLA BLA BLA BLA BLA BLA BLA BLA BLA BLA BLA BLA 
BLA BLA BLA BLA BLA BLA BLA BLA BLA BLA BLA BLA BLA BLA BLA BLA BLA BLA BLA BLA 
BLA BLA BLA BLA BLA BLA BLA BLA BLA BLA BLA BLA BLA BLA BLA BLA BLA BLA BLA BLA 
BLA BLA BLA BLA BLA BLA BLA BLA BLA BLA BLA BLA BLA BLA BLA BLA BLA BLA BLA BLA 
BLA BLA BLA BLA BLA BLA BLA BLA BLA BLA BLA BLA BLA BLA BLA BLA BLA BLA BLA BLA 
BLA BLA BLA BLA BLA BLA BLA BLA BLA BLA BLA BLA BLA BLA BLA BLA BLA BLA BLA BLA 
BLA BLA BLA BLA BLA BLA BLA BLA BLA BLA BLA BLA BLA BLA BLA BLA BLA BLA BLA BLA 
BLA BLA BLA BLA BLA BLA BLA BLA BLA BLA BLA BLA BLA BLA BLA BLA BLA BLA BLA BLA 
BLA BLA BLA BLA BLA BLA BLA BLA BLA BLA BLA BLA BLA BLA BLA BLA BLA BLA BLA BLA 
BLA BLA BLA BLA BLA BLA BLA BLA BLA BLA BLA BLA BLA BLA BLA BLA BLA BLA BLA BLA 
BLA BLA BLA BLA BLA BLA BLA BLA BLA BLA BLA BLA BLA BLA BLA BLA BLA BLA BLA BLA 
BLA BLA BLA BLA BLA BLA BLA BLA BLA BLA BLA BLA BLA BLA BLA BLA BLA BLA BLA 
%FLAG JOIN_ARRAY                                                                
%FORMAT(10I8)                                                                   
       0       0       0       0       0       0       0       0       0       0
       0       0       0       0       0       0       0       0       0       0
       0       0       0       0       0       0       0       0       0       0
       0       0       0       0       0       0       0       0       0       0
       0       0       0       0       0       0       0       0       0       0
       0       0       0       0       0       0       0       0       0       0
       0       0       0       0       0       0       0       0       0       0
       0       0       0       0       0       0       0       0       0       0
       0       0       0       0       0       0       0       0       0       0
       0       0       0       0       0       0       0       0       0       0
       0       0       0       0       0       0       0       0       0       0
       0       0       0       0       0       0       0       0       0       0
       0       0       0       0       0       0       0       0       0       0
       0       0       0       0       0       0       0       0       0       0
       0       0       0       0       0       0       0       0       0       0
       0       0       0       0       0       0       0       0       0       0
       0       0       0       0       0       0       0       0       0       0
       0       0       0       0       0       0       0       0       0       0
       0       0       0       0       0       0       0       0       0       0
       0       0       0       0       0       0       0       0       0       0
       0       0       0       0       0       0       0       0       0       0
       0       0       0       0       0       0       0       0       0       0
       0       0       0       0       0       0       0       0       0       0
       0       0       0       0       0       0       0       0       0
%FLAG IROTAT                                                                    
%FORMAT(10I8)                                                                   
       0       0       0       0       0       0       0       0       0       0
       0       0       0       0       0       0       0       0       0       0
       0       0       0       0       0       0       0       0       0       0
       0       0       0       0       0       0       0       0       0       0
       0       0       0       0       0       0       0       0       0       0
       0       0       0       0       0       0       0       0       0       0
       0       0       0       0       0       0       0       0       0       0
       0       0       0       0       0       0       0       0       0       0
       0       0       0       0       0       0       0       0       0       0
       0       0       0       0       0       0       0       0       0       0
       0       0       0       0       0       0       0       0       0       0
       0       0       0       0       0       0       0       0       0       0
       0       0       0       0       0       0       0       0       0       0
       0       0       0       0       0       0       0       0       0       0
       0       0       0       0       0       0       0       0       0       0
       0       0       0       0       0       0       0       0       0       0
       0       0       0       0       0       0       0       0       0       0
       0       0       0       0       0       0       0       0       0       0
       0       0       0       0       0       0       0       0       0       0
       0       0       0       0       0       0       0       0       0       0
       0       0       0       0       0       0       0       0       0       0
       0       0       0       0       0       0       0       0       0       0
       0       0       0       0       0       0       0       0       0       0
       0       0       0       0       0       0       0       0       0
%FLAG RADIUS_SET                                                                
%FORMAT(1a80)                                                                   
modified Bondi radii (mbondi)                                                   
%FLAG RADII                                                                     
%FORMAT(5E16.8)                                                                 
  1.30000000E+00  1.70000000E+00  1.30000000E+00  1.30000000E+00  1.70000000E+00
  1.30000000E+00  1.30000000E+00  1.70000000E+00  1.30000000E+00  1.30000000E+00
  1.70000000E+00  1.30000000E+00  1.30000000E+00  1.70000000E+00  1.30000000E+00
  1.30000000E+00  1.70000000E+00  1.30000000E+00  1.30000000E+00  1.70000000E+00
  1.30000000E+00  1.30000000E+00  1.70000000E+00  1.30000000E+00  1.30000000E+00
  1.70000000E+00  1.30000000E+00  1.30000000E+00  1.70000000E+00  1.30000000E+00
  1.30000000E+00  1.70000000E+00  1.30000000E+00  1.30000000E+00  1.70000000E+00
  1.30000000E+00  1.30000000E+00  1.70000000E+00  1.30000000E+00  1.30000000E+00
  1.70000000E+00  1.30000000E+00  1.30000000E+00  1.70000000E+00  1.30000000E+00
  1.30000000E+00  1.70000000E+00  1.30000000E+00  1.30000000E+00  1.70000000E+00
  1.30000000E+00  1.30000000E+00  1.70000000E+00  1.30000000E+00  1.30000000E+00
  1.70000000E+00  1.30000000E+00  1.30000000E+00  1.70000000E+00  1.30000000E+00
  1.30000000E+00  1.70000000E+00  1.30000000E+00  1.70000000E+00  1.30000000E+00
  1.70000000E+00  1.30000000E+00  1.30000000E+00  1.70000000E+00  1.30000000E+00
  1.30000000E+00  1.70000000E+00  1.30000000E+00  1.30000000E+00  1.70000000E+00
  1.30000000E+00  1.30000000E+00  1.70000000E+00  1.30000000E+00  1.30000000E+00
  1.70000000E+00  1.30000000E+00  1.30000000E+00  1.70000000E+00  1.30000000E+00
  1.30000000E+00  1.70000000E+00  1.30000000E+00  1.30000000E+00  1.70000000E+00
  1.30000000E+00  1.30000000E+00  1.70000000E+00  1.30000000E+00  1.30000000E+00
  1.70000000E+00  1.30000000E+00  1.30000000E+00  1.70000000E+00  1.30000000E+00
  1.30000000E+00  1.70000000E+00  1.30000000E+00  1.30000000E+00  1.70000000E+00
  1.30000000E+00  1.30000000E+00  1.70000000E+00  1.30000000E+00  1.30000000E+00
  1.70000000E+00  1.30000000E+00  1.70000000E+00  1.30000000E+00  1.70000000E+00
  1.30000000E+00  1.30000000E+00  1.70000000E+00  1.30000000E+00  1.30000000E+00
  1.70000000E+00  1.30000000E+00  1.30000000E+00  1.70000000E+00  1.30000000E+00
  1.30000000E+00  1.70000000E+00  1.30000000E+00  1.30000000E+00  1.70000000E+00
  1.30000000E+00  1.30000000E+00  1.70000000E+00  1.30000000E+00  1.30000000E+00
  1.70000000E+00  1.30000000E+00  1.30000000E+00  1.70000000E+00  1.30000000E+00
  1.30000000E+00  1.70000000E+00  1.30000000E+00  1.30000000E+00  1.70000000E+00
  1.30000000E+00  1.30000000E+00  1.70000000E+00  1.30000000E+00  1.30000000E+00
  1.70000000E+00  1.30000000E+00  1.30000000E+00  1.70000000E+00  1.30000000E+00
  1.30000000E+00  1.70000000E+00  1.30000000E+00  1.50000000E+00  8.00000000E-01
  1.70000000E+00  1.30000000E+00  1.70000000E+00  1.50000000E+00  1.50000000E+00
  8.00000000E-01  1.70000000E+00  1.30000000E+00  1.30000000E+00  1.70000000E+00
  1.30000000E+00  1.30000000E+00  1.70000000E+00  1.30000000E+00  1.30000000E+00
  1.70000000E+00  1.30000000E+00  1.30000000E+00  1.70000000E+00  1.30000000E+00
  1.30000000E+00  1.70000000E+00  1.30000000E+00  1.30000000E+00  1.70000000E+00
  1.30000000E+00  1.30000000E+00  1.70000000E+00  1.30000000E+00  1.30000000E+00
  1.70000000E+00  1.30000000E+00  1.30000000E+00  1.70000000E+00  1.30000000E+00
  1.30000000E+00  1.70000000E+00  1.30000000E+00  1.30000000E+00  1.70000000E+00
  1.30000000E+00  1.30000000E+00  1.70000000E+00  1.30000000E+00  1.30000000E+00
  1.70000000E+00  1.30000000E+00  1.30000000E+00  1.70000000E+00  1.30000000E+00
  1.30000000E+00  1.70000000E+00  1.30000000E+00  1.30000000E+00  1.70000000E+00
  1.30000000E+00  1.30000000E+00  1.70000000E+00  1.30000000E+00  1.30000000E+00
  1.70000000E+00  1.30000000E+00  1.30000000E+00  1.70000000E+00  1.30000000E+00
  1.30000000E+00  1.70000000E+00  1.30000000E+00  1.30000000E+00  1.70000000E+00
  1.30000000E+00  1.30000000E+00  1.70000000E+00  1.30000000E+00  1.30000000E+00
  1.70000000E+00  1.30000000E+00  1.30000000E+00  1.30000000E+00
%FLAG SCREEN                                                                    
%FORMAT(5E16.8)                                                                 
  8.50000000E-01  7.20000000E-01  8.50000000E-01  8.50000000E-01  7.20000000E-01
  8.50000000E-01  8.50000000E-01  7.20000000E-01  8.50000000E-01  8.50000000E-01
  7.20000000E-01  8.50000000E-01  8.50000000E-01  7.20000000E-01  8.50000000E-01
  8.50000000E-01  7.20000000E-01  8.50000000E-01  8.50000000E-01  7.20000000E-01
  8.50000000E-01  8.50000000E-01  7.20000000E-01  8.50000000E-01  8.50000000E-01
  7.20000000E-01  8.50000000E-01  8.50000000E-01  7.20000000E-01  8.50000000E-01
  8.50000000E-01  7.20000000E-01  8.50000000E-01  8.50000000E-01  7.20000000E-01
  8.50000000E-01  8.50000000E-01  7.20000000E-01  8.50000000E-01  8.50000000E-01
  7.20000000E-01  8.50000000E-01  8.50000000E-01  7.20000000E-01  8.50000000E-01
  8.50000000E-01  7.20000000E-01  8.50000000E-01  8.50000000E-01  7.20000000E-01
  8.50000000E-01  8.50000000E-01  7.20000000E-01  8.50000000E-01  8.50000000E-01
  7.20000000E-01  8.50000000E-01  8.50000000E-01  7.20000000E-01  8.50000000E-01
  8.50000000E-01  7.20000000E-01  8.50000000E-01  7.20000000E-01  8.50000000E-01
  7.20000000E-01  8.50000000E-01  8.50000000E-01  7.20000000E-01  8.50000000E-01
  8.50000000E-01  7.20000000E-01  8.50000000E-01  8.50000000E-01  7.20000000E-01
  8.50000000E-01  8.50000000E-01  7.20000000E-01  8.50000000E-01  8.50000000E-01
  7.20000000E-01  8.50000000E-01  8.50000000E-01  7.20000000E-01  8.50000000E-01
  8.50000000E-01  7.20000000E-01  8.50000000E-01  8.50000000E-01  7.20000000E-01
  8.50000000E-01  8.50000000E-01  7.20000000E-01  8.50000000E-01  8.50000000E-01
  7.20000000E-01  8.50000000E-01  8.50000000E-01  7.20000000E-01  8.50000000E-01
  8.50000000E-01  7.20000000E-01  8.50000000E-01  8.50000000E-01  7.20000000E-01
  8.50000000E-01  8.50000000E-01  7.20000000E-01  8.50000000E-01  8.50000000E-01
  7.20000000E-01  8.50000000E-01  7.20000000E-01  8.50000000E-01  7.20000000E-01
  8.50000000E-01  8.50000000E-01  7.20000000E-01  8.50000000E-01  8.50000000E-01
  7.20000000E-01  8.50000000E-01  8.50000000E-01  7.20000000E-01  8.50000000E-01
  8.50000000E-01  7.20000000E-01  8.50000000E-01  8.50000000E-01  7.20000000E-01
  8.50000000E-01  8.50000000E-01  7.20000000E-01  8.50000000E-01  8.50000000E-01
  7.20000000E-01  8.50000000E-01  8.50000000E-01  7.20000000E-01  8.50000000E-01
  8.50000000E-01  7.20000000E-01  8.50000000E-01  8.50000000E-01  7.20000000E-01
  8.50000000E-01  8.50000000E-01  7.20000000E-01  8.50000000E-01  8.50000000E-01
  7.20000000E-01  8.50000000E-01  8.50000000E-01  7.20000000E-01  8.50000000E-01
  8.50000000E-01  7.20000000E-01  8.50000000E-01  8.50000000E-01  8.50000000E-01
  7.20000000E-01  8.50000000E-01  7.20000000E-01  8.50000000E-01  8.50000000E-01
  8.50000000E-01  7.20000000E-01  8.50000000E-01  8.50000000E-01  7.20000000E-01
  8.50000000E-01  8.50000000E-01  7.20000000E-01  8.50000000E-01  8.50000000E-01
  7.20000000E-01  8.50000000E-01  8.50000000E-01  7.20000000E-01  8.50000000E-01
  8.50000000E-01  7.20000000E-01  8.50000000E-01  8.50000000E-01  7.20000000E-01
  8.50000000E-01  8.50000000E-01  7.20000000E-01  8.50000000E-01  8.50000000E-01
  7.20000000E-01  8.50000000E-01  8.50000000E-01  7.20000000E-01  8.50000000E-01
  8.50000000E-01  7.20000000E-01  8.50000000E-01  8.50000000E-01  7.20000000E-01
  8.50000000E-01  8.50000000E-01  7.20000000E-01  8.50000000E-01  8.50000000E-01
  7.20000000E-01  8.50000000E-01  8.50000000E-01  7.20000000E-01  8.50000000E-01
  8.50000000E-01  7.20000000E-01  8.50000000E-01  8.50000000E-01  7.20000000E-01
  8.50000000E-01  8.50000000E-01  7.20000000E-01  8.50000000E-01  8.50000000E-01
  7.20000000E-01  8.50000000E-01  8.50000000E-01  7.20000000E-01  8.50000000E-01
  8.50000000E-01  7.20000000E-01  8.50000000E-01  8.50000000E-01  7.20000000E-01
  8.50000000E-01  8.50000000E-01  7.20000000E-01  8.50000000E-01  8.50000000E-01
  7.20000000E-01  8.50000000E-01  8.50000000E-01  8.50000000E-01
%FLAG IPOL                                                                      
%FORMAT(1I8)                                                                    
       0
