2FM6_single.pdb
   239
   6.9700000  62.1100000  66.4400000   6.8100000  62.5600000  67.4300000
   7.6400000  63.2700000  67.5600000   5.8900000  63.1600000  67.4400000
   6.6500000  61.4800000  68.5100000   7.5700000  60.9000000  68.5900000
   5.9400000  60.7500000  68.1100000   6.1300000  62.0000000  69.8600000
   5.0700000  62.2600000  69.7900000   6.7000000  62.9000000  70.1200000
   6.4800000  61.0800000  71.0400000   7.5200000  60.8400000  71.2700000
   6.0700000  60.0700000  70.9000000   5.8700000  61.6700000  72.3200000
   4.8300000  62.0000000  72.2100000   6.3500000  62.6300000  72.5700000
   5.9400000  60.7500000  73.5500000   6.9300000  60.2800000  73.5500000
   5.2400000  59.9200000  73.3800000   5.5800000  61.5300000  74.8300000
   4.4800000  61.6000000  74.8400000   6.0200000  62.5300000  74.8700000
   5.9700000  60.7600000  76.1000000   6.9900000  60.3700000  76.0300000
   5.2200000  59.9600000  76.0500000   5.6800000  61.5300000  77.4000000
   4.6200000  61.8100000  77.4900000   6.2700000  62.4500000  77.4800000
   5.8400000  60.6500000  78.6500000   6.7900000  60.1000000  78.5600000
   5.0000000  59.9500000  78.7200000   5.7100000  61.4700000  79.9500000
   4.7100000  61.8900000  80.0400000   6.4200000  62.2800000  79.7300000
   6.1000000  60.8000000  81.2800000   7.1400000  60.4800000  81.3500000
   5.5000000  59.8800000  81.3300000   5.8000000  61.7200000  82.4700000
   4.7400000  62.0100000  82.5000000   6.3400000  62.6700000  82.3600000
   6.2600000  61.1800000  83.8300000   7.3400000  61.3100000  83.9400000
   6.0600000  60.1000000  83.9100000   5.5100000  61.9700000  84.9200000
   4.4300000  61.9000000  84.7800000   5.6200000  63.0600000  84.8600000
   5.7700000  61.4700000  86.3500000   6.7500000  61.8200000  86.7000000
   5.9200000  60.3800000  86.2900000   4.6500000  61.7500000  87.3600000
   3.6900000  61.2500000  87.2000000   4.4800000  62.8300000  87.2800000
   5.1700000  61.4400000  88.7700000   6.1800000  61.8300000  88.9000000
   5.2000000  60.3500000  88.9400000   4.2100000  61.9200000  89.8800000
   3.2500000  61.4200000  89.7500000   4.0400000  63.0000000  89.8300000
   4.7300000  61.6100000  91.2900000   5.7800000  61.9300000  91.2600000
   4.6600000  60.5300000  91.4300000   3.9900000  62.3000000  92.4300000
   2.9000000  62.3200000  92.3700000   4.5900000  62.0700000  93.7900000
   5.5800000  61.6200000  93.8400000   4.5300000  63.4600000  93.2100000
   3.8300000  64.2100000  93.5600000   5.4400000  63.9300000  92.8300000
   3.8100000  61.7700000  95.0700000   3.5700000  60.7100000  95.1900000
   2.8900000  62.3500000  95.1000000   4.6100000  62.1100000  96.3400000
   4.6700000  63.1900000  96.4800000   5.6500000  61.7600000  96.2300000
   3.8500000  61.6300000  97.5900000   4.0300000  60.5500000  97.5800000
   2.7700000  61.7400000  97.4700000   4.3400000  62.3200000  98.8700000
   4.1600000  63.4000000  98.8800000   5.4300000  62.2400000  98.9700000
   3.7100000  61.7200000 100.1400000   3.8100000  60.6300000 100.1400000
   2.6400000  61.9700000 100.1500000   4.3200000  62.4900000 101.3200000
   4.2100000  63.5800000 101.2300000   5.3900000  62.2900000 101.2900000
   3.7200000  62.0200000 102.6600000   3.8000000  60.9300000 102.5800000
   2.6900000  62.3800000 102.6700000   4.4800000  62.4100000 103.9400000
   4.0900000  63.3700000 104.3300000   5.5100000  62.6100000 103.6200000
   4.3400000  61.4500000 105.1300000   4.9600000  60.5700000 104.9200000
   3.2500000  61.2800000 105.1800000   4.6400000  62.0600000 106.5100000
   4.1700000  63.0300000 106.7200000   5.7000000  62.3400000 106.5700000
   4.1400000  61.1700000 107.6600000   4.6200000  60.1900000 107.6200000
   3.0700000  61.0400000 107.4900000   4.2500000  61.7000000 109.1000000
   3.5000000  62.5000000 109.1600000   5.2300000  62.1700000 109.2500000
   4.0400000  60.6000000 110.1500000   4.8500000  59.8600000 110.1400000
   3.1700000  59.9400000 109.9900000   3.9900000  61.1400000 111.5900000
   3.6500000  60.3500000 112.2700000   3.1400000  61.8400000 111.6500000
   5.2100000  61.8800000 112.1200000   6.1600000  61.3700000 111.9900000
   5.1700000  63.3700000 111.8900000   4.2800000  63.6500000 111.3300000
   5.0500000  62.8200000 113.2900000   4.0700000  62.8800000 113.7500000
   5.9600000  62.9800000 113.8700000   6.4400000  64.0400000 111.4000000
   6.9900000  63.3900000 110.7000000   7.2100000  64.2500000 112.1600000
   6.2400000  65.4600000 110.8500000   7.2500000  65.8600000 110.7500000
   5.6800000  65.9900000 111.6300000   5.4800000  65.4800000 109.5100000
   4.4800000  65.1400000 109.8000000   5.9100000  64.7800000 108.7800000
   5.4500000  66.8700000 108.8500000   6.5000000  67.1500000 108.6800000
   5.0600000  67.5900000 109.5800000   4.6700000  66.9400000 107.5300000
   3.6800000  66.5200000 107.7300000   5.2300000  66.2800000 106.8500000
   4.5400000  68.4000000 107.0600000   5.5200000  68.8800000 107.0400000
   4.0300000  68.9200000 107.8700000   3.8400000  68.5400000 105.6900000
   3.9500000  69.5800000 105.3400000   2.7700000  68.3300000 105.7800000
   4.4100000  67.7000000 104.5400000   4.2700000  66.6500000 104.8500000
   5.5000000  67.8100000 104.5400000   3.9600000  68.0400000 103.1100000
   4.0800000  69.1300000 103.0800000   2.9000000  67.7900000 102.9900000
   4.8300000  67.3100000 102.0700000   4.6800000  66.2400000 102.2000000
   5.8600000  67.5800000 102.3300000   4.5600000  67.7100000 100.6100000
   4.7300000  68.7800000 100.4000000   3.4700000  67.6300000 100.4600000
   5.2800000  66.7700000  99.6300000   4.8300000  65.7700000  99.7000000
   6.2500000  66.6300000 100.1100000   5.4400000  67.2300000  98.1700000
   6.3700000  66.7400000  97.8500000   5.7800000  68.2700000  98.1400000
   4.2700000  67.0400000  97.2000000   4.7400000  66.7400000  96.2500000
   3.4500000  65.9300000  97.5500000   3.9900000  65.4700000  98.2200000
   3.3900000  68.2400000  96.8200000   4.1100000  69.0400000  96.6000000
   2.5100000  68.5700000  98.0200000   1.4400000  68.0300000  98.2500000
   2.6900000  69.7900000  98.5500000   1.8800000  70.0200000  99.0500000
   2.5200000  68.0800000  95.5600000   1.9800000  67.1300000  95.6400000
   1.8300000  68.9300000  95.4700000   3.3000000  68.0300000  94.2400000
   3.7500000  69.0200000  94.0700000   4.1200000  67.3100000  94.3000000
   2.3700000  67.7800000  93.0400000   1.6300000  67.0100000  93.2700000
   1.8100000  68.7000000  92.8200000   3.1400000  67.3300000  91.7800000
   3.9800000  68.0300000  91.6600000   3.5900000  66.3400000  91.9000000
   2.2900000  67.3700000  90.5000000   1.5800000  66.5500000  90.6200000
   1.7800000  68.3400000  90.4100000   3.1000000  67.2800000  89.1900000
   3.9500000  67.9700000  89.2100000   3.5400000  66.2800000  89.1000000
   2.2800000  67.6100000  87.9300000   1.3400000  67.0400000  87.9000000
   2.0600000  68.6700000  88.1000000   2.9300000  67.3900000  86.5500000
   3.9800000  67.7000000  86.6500000   3.0000000  66.3100000  86.3700000
   2.2200000  68.0400000  85.3500000   1.1300000  68.0000000  85.4000000
   2.3500000  69.1300000  85.4200000   2.8100000  67.5300000  84.0200000
   3.8000000  67.9800000  83.9400000   2.9900000  66.4400000  84.0600000
   2.0800000  67.9900000  82.7500000   1.0700000  67.6100000  82.9300000
   2.0500000  69.0800000  82.8600000   2.5700000  67.5100000  81.3700000
   3.5900000  67.8600000  81.1400000   2.7200000  66.4300000  81.3400000
   1.5400000  67.9600000  80.3200000   0.5500000  67.5200000  80.4300000
   1.4500000  69.0500000  80.4400000   2.0000000  67.6100000  78.8900000
   2.9800000  68.0900000  78.8000000   2.1400000  66.5300000  78.7600000
   1.0500000  68.0500000  77.7700000   0.0700000  67.5700000  77.8700000
   0.8900000  69.1300000  77.7900000   1.5000000  67.5800000  76.3700000
   2.5500000  67.8200000  76.1800000   1.5000000  66.4900000  76.3900000
   0.6900000  68.0800000  75.1600000  -0.3500000  67.8300000  75.4200000
   0.8100000  69.1700000  75.1300000   1.1800000  67.4100000  73.8600000
   2.2700000  67.5100000  73.8200000   0.8700000  66.3600000  73.9400000
   0.5700000  67.9600000  72.5600000  -0.4500000  67.5500000  72.5400000
   0.5600000  69.0600000  72.5600000   1.3400000  67.4800000  71.3200000
   2.3900000  67.7600000  71.4300000   1.2400000  66.3900000  71.3100000
   0.6800000  67.9300000  70.0100000  -0.3500000  67.5300000  70.0200000
   0.6000000  69.0200000  69.8700000   1.4200000  67.2700000  68.8400000
   2.3600000  67.8200000  68.8000000   1.8000000  66.2500000  69.0100000
   0.6000000  67.2600000  67.5400000  -0.2300000  66.5600000  67.6300000
   0.1500000  68.2300000  67.3200000   1.4800000  66.7700000  66.3700000
   0.9300000  66.7000000  65.4200000   1.9100000  65.7800000  66.5600000
   2.3400000  67.4000000  66.1400000
