; MYC_GMX_OPLS.itp created by acpype (v: 2023.10.27) on Fri May  8 22:45:17 2026

; For OPLS atomtypes manual fine tuning
; AC_at:OPLS_at:OPLScode: Possible_Alternatives (see ffoplsaa.atp and ffoplsaanb.itp)
; hc:HC:opls_140: []
; c3:CT:opls_135: ['136', '137', '149', '157', '158', '206', '209', '210', '223B', '224B', '245', '246', '274', '283', '284', '285', '292', '292B', '293B', '296', '307', '308', '505']
; cx:x:opls_x: []
; h1:HC:opls_140: []
; oh:OH:opls_154: ['167']
; ho:HO:opls_155: ['168']
; c:C:opls_235: ['271']
; o:O:opls_236: ['272']

[ moleculetype ]
;name            nrexcl
 MYC              3

[ atoms ]
;   nr  type  resi  res  atom  cgnr     charge      mass       ; qtot   bond_type
     1 opls_140     1   MYC  HH15    1     0.023034      1.00800 ; qtot  0.023  HC  
     2 opls_135     1   MYC   C80    2    -0.065381     12.01100 ; qtot -0.042  CT  
     3 opls_140     1   MYC  H100    3     0.023034      1.00800 ; qtot -0.019  HC  
     4 opls_140     1   MYC  H101    4     0.023034      1.00800 ; qtot  0.004  HC  
     5 opls_135     1   MYC   C79    5    -0.056168     12.01100 ; qtot -0.052  CT  
     6 opls_140     1   MYC  H102    6     0.026369      1.00800 ; qtot -0.026  HC  
     7 opls_140     1   MYC  H103    7     0.026369      1.00800 ; qtot  0.000  HC  
     8 opls_135     1   MYC   C78    8    -0.053565     12.01100 ; qtot -0.053  CT  
     9 opls_140     1   MYC  HH14    9     0.026641      1.00800 ; qtot -0.027  HC  
    10 opls_140     1   MYC  H104   10     0.026641      1.00800 ; qtot  0.000  HC  
    11 opls_135     1   MYC   C77   11    -0.053312     12.01100 ; qtot -0.053  CT  
    12 opls_140     1   MYC  H106   12     0.026651      1.00800 ; qtot -0.027  HC  
    13 opls_140     1   MYC  H107   13     0.026651      1.00800 ; qtot -0.000  HC  
    14 opls_135     1   MYC   C76   14    -0.053302     12.01100 ; qtot -0.053  CT  
    15 opls_140     1   MYC  H108   15     0.026651      1.00800 ; qtot -0.027  HC  
    16 opls_140     1   MYC  H109   16     0.026651      1.00800 ; qtot -0.000  HC  
    17 opls_135     1   MYC   C75   17    -0.053302     12.01100 ; qtot -0.053  CT  
    18 opls_140     1   MYC  H110   18     0.026651      1.00800 ; qtot -0.027  HC  
    19 opls_140     1   MYC  H111   19     0.026651      1.00800 ; qtot -0.000  HC  
    20 opls_135     1   MYC   C74   20    -0.053302     12.01100 ; qtot -0.053  CT  
    21 opls_140     1   MYC  H112   21     0.026651      1.00800 ; qtot -0.027  HC  
    22 opls_140     1   MYC  H113   22     0.026651      1.00800 ; qtot -0.000  HC  
    23 opls_135     1   MYC   C73   23    -0.053302     12.01100 ; qtot -0.053  CT  
    24 opls_140     1   MYC  HH13   24     0.026651      1.00800 ; qtot -0.027  HC  
    25 opls_140     1   MYC  H114   25     0.026651      1.00800 ; qtot -0.000  HC  
    26 opls_135     1   MYC   C72   26    -0.053302     12.01100 ; qtot -0.053  CT  
    27 opls_140     1   MYC  H115   27     0.026651      1.00800 ; qtot -0.027  HC  
    28 opls_140     1   MYC  H116   28     0.026651      1.00800 ; qtot -0.000  HC  
    29 opls_135     1   MYC   C71   29    -0.053302     12.01100 ; qtot -0.053  CT  
    30 opls_140     1   MYC  H117   30     0.026651      1.00800 ; qtot -0.027  HC  
    31 opls_140     1   MYC  H118   31     0.026651      1.00800 ; qtot -0.000  HC  
    32 opls_135     1   MYC   C70   32    -0.053302     12.01100 ; qtot -0.053  CT  
    33 opls_140     1   MYC  H119   33     0.026651      1.00800 ; qtot -0.027  HC  
    34 opls_140     1   MYC  H120   34     0.026651      1.00800 ; qtot -0.000  HC  
    35 opls_135     1   MYC   C69   35    -0.053302     12.01100 ; qtot -0.053  CT  
    36 opls_140     1   MYC  H121   36     0.026651      1.00800 ; qtot -0.027  HC  
    37 opls_140     1   MYC  H122   37     0.026651      1.00800 ; qtot -0.000  HC  
    38 opls_135     1   MYC   C68   38    -0.053302     12.01100 ; qtot -0.053  CT  
    39 opls_140     1   MYC  HH12   39     0.026651      1.00800 ; qtot -0.027  HC  
    40 opls_140     1   MYC  H123   40     0.026651      1.00800 ; qtot -0.000  HC  
    41 opls_135     1   MYC   C67   41    -0.053302     12.01100 ; qtot -0.053  CT  
    42 opls_140     1   MYC  H124   42     0.026651      1.00800 ; qtot -0.027  HC  
    43 opls_140     1   MYC  H125   43     0.026651      1.00800 ; qtot -0.000  HC  
    44 opls_135     1   MYC   C66   44    -0.053302     12.01100 ; qtot -0.053  CT  
    45 opls_140     1   MYC  H126   45     0.026651      1.00800 ; qtot -0.027  HC  
    46 opls_140     1   MYC  H127   46     0.026651      1.00800 ; qtot -0.000  HC  
    47 opls_135     1   MYC   C65   47    -0.053302     12.01100 ; qtot -0.053  CT  
    48 opls_140     1   MYC  H128   48     0.026651      1.00800 ; qtot -0.027  HC  
    49 opls_140     1   MYC  H129   49     0.026651      1.00800 ; qtot -0.000  HC  
    50 opls_135     1   MYC   C64   50    -0.053302     12.01100 ; qtot -0.053  CT  
    51 opls_140     1   MYC  H130   51     0.026651      1.00800 ; qtot -0.027  HC  
    52 opls_140     1   MYC  H131   52     0.026651      1.00800 ; qtot -0.000  HC  
    53 opls_135     1   MYC   C63   53    -0.053292     12.01100 ; qtot -0.053  CT  
    54 opls_140     1   MYC  HH11   54     0.026651      1.00800 ; qtot -0.027  HC  
    55 opls_140     1   MYC  H132   55     0.026651      1.00800 ; qtot  0.000  HC  
    56 opls_135     1   MYC   C62   56    -0.053028     12.01100 ; qtot -0.053  CT  
    57 opls_140     1   MYC  H133   57     0.026661      1.00800 ; qtot -0.026  HC  
    58 opls_140     1   MYC  H134   58     0.026661      1.00800 ; qtot  0.000  HC  
    59 opls_135     1   MYC   C61   59    -0.050169     12.01100 ; qtot -0.050  CT  
    60 opls_140     1   MYC  H135   60     0.026945      1.00800 ; qtot -0.023  HC  
    61 opls_140     1   MYC  H136   61     0.026945      1.00800 ; qtot  0.004  HC  
    62 opls_x     1   MYC   C60   62    -0.038295      0.00000 ; qtot -0.034  x   
    63 opls_140     1   MYC  H137   63     0.030560      1.00800 ; qtot -0.004  HC  
    64 opls_x     1   MYC   C58   64    -0.038295      0.00000 ; qtot -0.042  x   
    65 opls_140     1   MYC  H138   65     0.030560      1.00800 ; qtot -0.011  HC  
    66 opls_x     1   MYC   C59   66    -0.047058      0.00000 ; qtot -0.059  x   
    67 opls_140     1   MYC  H139   67     0.027238      1.00800 ; qtot -0.031  HC  
    68 opls_140     1   MYC  H140   68     0.027238      1.00800 ; qtot -0.004  HC  
    69 opls_135     1   MYC   C57   69    -0.050169     12.01100 ; qtot -0.054  CT  
    70 opls_140     1   MYC  HH10   70     0.026945      1.00800 ; qtot -0.027  HC  
    71 opls_140     1   MYC  H141   71     0.026945      1.00800 ; qtot -0.000  HC  
    72 opls_135     1   MYC   C56   72    -0.053028     12.01100 ; qtot -0.053  CT  
    73 opls_140     1   MYC  H142   73     0.026661      1.00800 ; qtot -0.027  HC  
    74 opls_140     1   MYC  H143   74     0.026661      1.00800 ; qtot -0.000  HC  
    75 opls_135     1   MYC   C55   75    -0.053292     12.01100 ; qtot -0.053  CT  
    76 opls_140     1   MYC  H144   76     0.026651      1.00800 ; qtot -0.027  HC  
    77 opls_140     1   MYC  H145   77     0.026651      1.00800 ; qtot -0.000  HC  
    78 opls_135     1   MYC   C54   78    -0.053302     12.01100 ; qtot -0.053  CT  
    79 opls_140     1   MYC  H146   79     0.026651      1.00800 ; qtot -0.027  HC  
    80 opls_140     1   MYC  H147   80     0.026651      1.00800 ; qtot -0.000  HC  
    81 opls_135     1   MYC   C53   81    -0.053302     12.01100 ; qtot -0.053  CT  
    82 opls_140     1   MYC  H148   82     0.026651      1.00800 ; qtot -0.027  HC  
    83 opls_140     1   MYC  H149   83     0.026651      1.00800 ; qtot -0.000  HC  
    84 opls_135     1   MYC   C52   84    -0.053302     12.01100 ; qtot -0.053  CT  
    85 opls_140     1   MYC   H99   85     0.026651      1.00800 ; qtot -0.027  HC  
    86 opls_140     1   MYC  H150   86     0.026651      1.00800 ; qtot -0.000  HC  
    87 opls_135     1   MYC   C51   87    -0.053302     12.01100 ; qtot -0.053  CT  
    88 opls_140     1   MYC   H97   88     0.026651      1.00800 ; qtot -0.027  HC  
    89 opls_140     1   MYC   H98   89     0.026651      1.00800 ; qtot -0.000  HC  
    90 opls_135     1   MYC   C50   90    -0.053302     12.01100 ; qtot -0.053  CT  
    91 opls_140     1   MYC   H95   91     0.026651      1.00800 ; qtot -0.027  HC  
    92 opls_140     1   MYC   H96   92     0.026651      1.00800 ; qtot -0.000  HC  
    93 opls_135     1   MYC   C49   93    -0.053302     12.01100 ; qtot -0.053  CT  
    94 opls_140     1   MYC   H93   94     0.026651      1.00800 ; qtot -0.027  HC  
    95 opls_140     1   MYC   H94   95     0.026651      1.00800 ; qtot -0.000  HC  
    96 opls_135     1   MYC   C48   96    -0.053302     12.01100 ; qtot -0.053  CT  
    97 opls_140     1   MYC   H91   97     0.026651      1.00800 ; qtot -0.027  HC  
    98 opls_140     1   MYC   H92   98     0.026651      1.00800 ; qtot -0.000  HC  
    99 opls_135     1   MYC   C47   99    -0.053302     12.01100 ; qtot -0.053  CT  
   100 opls_140     1   MYC   H89  100     0.026651      1.00800 ; qtot -0.027  HC  
   101 opls_140     1   MYC   H90  101     0.026651      1.00800 ; qtot -0.000  HC  
   102 opls_135     1   MYC   C46  102    -0.053292     12.01100 ; qtot -0.053  CT  
   103 opls_140     1   MYC   H87  103     0.026651      1.00800 ; qtot -0.027  HC  
   104 opls_140     1   MYC   H88  104     0.026651      1.00800 ; qtot  0.000  HC  
   105 opls_135     1   MYC   C45  105    -0.053028     12.01100 ; qtot -0.053  CT  
   106 opls_140     1   MYC   H85  106     0.026661      1.00800 ; qtot -0.026  HC  
   107 opls_140     1   MYC   H86  107     0.026661      1.00800 ; qtot  0.000  HC  
   108 opls_135     1   MYC   C44  108    -0.050169     12.01100 ; qtot -0.050  CT  
   109 opls_140     1   MYC   H83  109     0.026945      1.00800 ; qtot -0.023  HC  
   110 opls_140     1   MYC   H84  110     0.026945      1.00800 ; qtot  0.004  HC  
   111 opls_x     1   MYC   C18  111    -0.038295      0.00000 ; qtot -0.034  x   
   112 opls_140     1   MYC   H31  112     0.030560      1.00800 ; qtot -0.004  HC  
   113 opls_x     1   MYC   C17  113    -0.038295      0.00000 ; qtot -0.042  x   
   114 opls_140     1   MYC   H30  114     0.030560      1.00800 ; qtot -0.011  HC  
   115 opls_x     1   MYC   C19  115    -0.047058      0.00000 ; qtot -0.059  x   
   116 opls_140     1   MYC   H32  116     0.027238      1.00800 ; qtot -0.031  HC  
   117 opls_140     1   MYC   H33  117     0.027238      1.00800 ; qtot -0.004  HC  
   118 opls_135     1   MYC   C16  118    -0.050169     12.01100 ; qtot -0.054  CT  
   119 opls_140     1   MYC   H28  119     0.026945      1.00800 ; qtot -0.027  HC  
   120 opls_140     1   MYC   H29  120     0.026945      1.00800 ; qtot -0.000  HC  
   121 opls_135     1   MYC   C15  121    -0.053028     12.01100 ; qtot -0.053  CT  
   122 opls_140     1   MYC   H26  122     0.026661      1.00800 ; qtot -0.027  HC  
   123 opls_140     1   MYC   H27  123     0.026661      1.00800 ; qtot -0.000  HC  
   124 opls_135     1   MYC   C14  124    -0.053292     12.01100 ; qtot -0.053  CT  
   125 opls_140     1   MYC   H24  125     0.026651      1.00800 ; qtot -0.027  HC  
   126 opls_140     1   MYC   H25  126     0.026651      1.00800 ; qtot -0.000  HC  
   127 opls_135     1   MYC   C13  127    -0.053302     12.01100 ; qtot -0.053  CT  
   128 opls_140     1   MYC   H22  128     0.026651      1.00800 ; qtot -0.027  HC  
   129 opls_140     1   MYC   H23  129     0.026651      1.00800 ; qtot -0.000  HC  
   130 opls_135     1   MYC   C12  130    -0.053302     12.01100 ; qtot -0.053  CT  
   131 opls_140     1   MYC   H20  131     0.026651      1.00800 ; qtot -0.027  HC  
   132 opls_140     1   MYC   H21  132     0.026651      1.00800 ; qtot -0.000  HC  
   133 opls_135     1   MYC   C11  133    -0.053302     12.01100 ; qtot -0.053  CT  
   134 opls_140     1   MYC   H18  134     0.026651      1.00800 ; qtot -0.027  HC  
   135 opls_140     1   MYC   H19  135     0.026651      1.00800 ; qtot -0.000  HC  
   136 opls_135     1   MYC   C10  136    -0.053302     12.01100 ; qtot -0.053  CT  
   137 opls_140     1   MYC   H16  137     0.026651      1.00800 ; qtot -0.027  HC  
   138 opls_140     1   MYC   H17  138     0.026651      1.00800 ; qtot -0.000  HC  
   139 opls_135     1   MYC    C9  139    -0.053302     12.01100 ; qtot -0.053  CT  
   140 opls_140     1   MYC   H14  140     0.026651      1.00800 ; qtot -0.027  HC  
   141 opls_140     1   MYC   H15  141     0.026651      1.00800 ; qtot -0.000  HC  
   142 opls_135     1   MYC    C8  142    -0.053302     12.01100 ; qtot -0.053  CT  
   143 opls_140     1   MYC   H12  143     0.026651      1.00800 ; qtot -0.027  HC  
   144 opls_140     1   MYC   H13  144     0.026651      1.00800 ; qtot -0.000  HC  
   145 opls_135     1   MYC    C7  145    -0.053300     12.01100 ; qtot -0.053  CT  
   146 opls_140     1   MYC   H10  146     0.026651      1.00800 ; qtot -0.027  HC  
   147 opls_140     1   MYC   H11  147     0.026651      1.00800 ; qtot -0.000  HC  
   148 opls_135     1   MYC    C6  148    -0.053207     12.01100 ; qtot -0.053  CT  
   149 opls_140     1   MYC    H8  149     0.026653      1.00800 ; qtot -0.027  HC  
   150 opls_140     1   MYC    H9  150     0.026653      1.00800 ; qtot  0.000  HC  
   151 opls_135     1   MYC    C5  151    -0.050819     12.01100 ; qtot -0.051  CT  
   152 opls_140     1   MYC    H6  152     0.026746      1.00800 ; qtot -0.024  HC  
   153 opls_140     1   MYC    H7  153     0.026746      1.00800 ; qtot  0.003  HC  
   154 opls_135     1   MYC    C4  154    -0.026192     12.01100 ; qtot -0.023  CT  
   155 opls_140     1   MYC    H4  155     0.029318      1.00800 ; qtot  0.006  HC  
   156 opls_140     1   MYC    H5  156     0.029318      1.00800 ; qtot  0.035  HC  
   157 opls_135     1   MYC    C2  157     0.066168     12.01100 ; qtot  0.101  CT  
   158 opls_140     1   MYC    H2  158     0.060882      1.00800 ; qtot  0.162  HC  
   159 opls_154     1   MYC    O3  159    -0.392251     15.99940 ; qtot -0.230  OH  
   160 opls_155     1   MYC    H3  160     0.210470      1.00800 ; qtot -0.020  HO  
   161 opls_135     1   MYC    C1  161     0.070834     12.01100 ; qtot  0.051  CT  
   162 opls_140     1   MYC    H1  162     0.043639      1.00800 ; qtot  0.095  HC  
   163 opls_235     1   MYC   C81  163     0.263925     12.01100 ; qtot  0.359  C   
   164 opls_236     1   MYC   O82  164    -0.266379     15.99940 ; qtot  0.093  O   
   165 opls_154     1   MYC   O83  165    -0.331459     15.99940 ; qtot -0.239  OH  
   166 opls_155     1   MYC  H105  166     0.221379      1.00800 ; qtot -0.018  HO  
   167 opls_135     1   MYC   C20  167    -0.038516     12.01100 ; qtot -0.056  CT  
   168 opls_140     1   MYC   H34  168     0.027571      1.00800 ; qtot -0.029  HC  
   169 opls_140     1   MYC   H35  169     0.027571      1.00800 ; qtot -0.001  HC  
   170 opls_135     1   MYC   C21  170    -0.052424     12.01100 ; qtot -0.053  CT  
   171 opls_140     1   MYC   H36  171     0.026677      1.00800 ; qtot -0.027  HC  
   172 opls_140     1   MYC   H37  172     0.026677      1.00800 ; qtot -0.000  HC  
   173 opls_135     1   MYC   C22  173    -0.053276     12.01100 ; qtot -0.053  CT  
   174 opls_140     1   MYC   H38  174     0.026651      1.00800 ; qtot -0.027  HC  
   175 opls_140     1   MYC   H39  175     0.026651      1.00800 ; qtot  0.000  HC  
   176 opls_135     1   MYC   C23  176    -0.053302     12.01100 ; qtot -0.053  CT  
   177 opls_140     1   MYC   H40  177     0.026651      1.00800 ; qtot -0.027  HC  
   178 opls_140     1   MYC   H41  178     0.026651      1.00800 ; qtot  0.000  HC  
   179 opls_135     1   MYC   C24  179    -0.053302     12.01100 ; qtot -0.053  CT  
   180 opls_140     1   MYC   H42  180     0.026651      1.00800 ; qtot -0.027  HC  
   181 opls_140     1   MYC   H43  181     0.026651      1.00800 ; qtot  0.000  HC  
   182 opls_135     1   MYC   C25  182    -0.053302     12.01100 ; qtot -0.053  CT  
   183 opls_140     1   MYC   H44  183     0.026651      1.00800 ; qtot -0.027  HC  
   184 opls_140     1   MYC   H45  184     0.026651      1.00800 ; qtot  0.000  HC  
   185 opls_135     1   MYC   C26  185    -0.053302     12.01100 ; qtot -0.053  CT  
   186 opls_140     1   MYC   H46  186     0.026651      1.00800 ; qtot -0.027  HC  
   187 opls_140     1   MYC   H47  187     0.026651      1.00800 ; qtot  0.000  HC  
   188 opls_135     1   MYC   C27  188    -0.053302     12.01100 ; qtot -0.053  CT  
   189 opls_140     1   MYC   H48  189     0.026651      1.00800 ; qtot -0.027  HC  
   190 opls_140     1   MYC   H49  190     0.026651      1.00800 ; qtot  0.000  HC  
   191 opls_135     1   MYC   C28  191    -0.053302     12.01100 ; qtot -0.053  CT  
   192 opls_140     1   MYC   H50  192     0.026651      1.00800 ; qtot -0.027  HC  
   193 opls_140     1   MYC   H51  193     0.026651      1.00800 ; qtot  0.000  HC  
   194 opls_135     1   MYC   C29  194    -0.053302     12.01100 ; qtot -0.053  CT  
   195 opls_140     1   MYC   H52  195     0.026651      1.00800 ; qtot -0.027  HC  
   196 opls_140     1   MYC   H53  196     0.026651      1.00800 ; qtot  0.000  HC  
   197 opls_135     1   MYC   C30  197    -0.053302     12.01100 ; qtot -0.053  CT  
   198 opls_140     1   MYC   H54  198     0.026651      1.00800 ; qtot -0.027  HC  
   199 opls_140     1   MYC   H55  199     0.026651      1.00800 ; qtot  0.000  HC  
   200 opls_135     1   MYC   C31  200    -0.053302     12.01100 ; qtot -0.053  CT  
   201 opls_140     1   MYC   H56  201     0.026651      1.00800 ; qtot -0.027  HC  
   202 opls_140     1   MYC   H57  202     0.026651      1.00800 ; qtot  0.000  HC  
   203 opls_135     1   MYC   C32  203    -0.053302     12.01100 ; qtot -0.053  CT  
   204 opls_140     1   MYC   H58  204     0.026651      1.00800 ; qtot -0.027  HC  
   205 opls_140     1   MYC   H59  205     0.026651      1.00800 ; qtot  0.000  HC  
   206 opls_135     1   MYC   C33  206    -0.053302     12.01100 ; qtot -0.053  CT  
   207 opls_140     1   MYC   H60  207     0.026651      1.00800 ; qtot -0.027  HC  
   208 opls_140     1   MYC   H61  208     0.026651      1.00800 ; qtot  0.000  HC  
   209 opls_135     1   MYC   C34  209    -0.053302     12.01100 ; qtot -0.053  CT  
   210 opls_140     1   MYC   H62  210     0.026651      1.00800 ; qtot -0.027  HC  
   211 opls_140     1   MYC   H63  211     0.026651      1.00800 ; qtot  0.000  HC  
   212 opls_135     1   MYC   C35  212    -0.053302     12.01100 ; qtot -0.053  CT  
   213 opls_140     1   MYC   H64  213     0.026651      1.00800 ; qtot -0.027  HC  
   214 opls_140     1   MYC   H65  214     0.026651      1.00800 ; qtot  0.000  HC  
   215 opls_135     1   MYC   C36  215    -0.053302     12.01100 ; qtot -0.053  CT  
   216 opls_140     1   MYC   H66  216     0.026651      1.00800 ; qtot -0.027  HC  
   217 opls_140     1   MYC   H67  217     0.026651      1.00800 ; qtot  0.000  HC  
   218 opls_135     1   MYC   C37  218    -0.053302     12.01100 ; qtot -0.053  CT  
   219 opls_140     1   MYC   H68  219     0.026651      1.00800 ; qtot -0.027  HC  
   220 opls_140     1   MYC   H69  220     0.026651      1.00800 ; qtot  0.000  HC  
   221 opls_135     1   MYC   C38  221    -0.053302     12.01100 ; qtot -0.053  CT  
   222 opls_140     1   MYC   H70  222     0.026651      1.00800 ; qtot -0.027  HC  
   223 opls_140     1   MYC   H71  223     0.026651      1.00800 ; qtot  0.000  HC  
   224 opls_135     1   MYC   C39  224    -0.053302     12.01100 ; qtot -0.053  CT  
   225 opls_140     1   MYC   H72  225     0.026651      1.00800 ; qtot -0.027  HC  
   226 opls_140     1   MYC   H73  226     0.026651      1.00800 ; qtot  0.000  HC  
   227 opls_135     1   MYC   C40  227    -0.053312     12.01100 ; qtot -0.053  CT  
   228 opls_140     1   MYC   H74  228     0.026651      1.00800 ; qtot -0.027  HC  
   229 opls_140     1   MYC   H75  229     0.026651      1.00800 ; qtot -0.000  HC  
   230 opls_135     1   MYC   C41  230    -0.053565     12.01100 ; qtot -0.054  CT  
   231 opls_140     1   MYC   H76  231     0.026641      1.00800 ; qtot -0.027  HC  
   232 opls_140     1   MYC   H77  232     0.026641      1.00800 ; qtot -0.000  HC  
   233 opls_135     1   MYC   C42  233    -0.056168     12.01100 ; qtot -0.056  CT  
   234 opls_140     1   MYC   H78  234     0.026369      1.00800 ; qtot -0.030  HC  
   235 opls_140     1   MYC   H79  235     0.026369      1.00800 ; qtot -0.004  HC  
   236 opls_135     1   MYC   C43  236    -0.065381     12.01100 ; qtot -0.069  CT  
   237 opls_140     1   MYC   H80  237     0.023034      1.00800 ; qtot -0.046  HC  
   238 opls_140     1   MYC   H81  238     0.023034      1.00800 ; qtot -0.023  HC  
   239 opls_140     1   MYC   H82  239     0.023034      1.00800 ; qtot -0.000  HC  

[ bonds ]
;   ai     aj funct   r             k
     1      2   1 ;    1.0962e-01    2.8891e+05 ;   HH15 - C80        HC - CT    
     2      3   1 ;    1.0962e-01    2.8891e+05 ;    C80 - H100       CT - HC    
     2      4   1 ;    1.0962e-01    2.8891e+05 ;    C80 - H101       CT - HC    
     2      5   1 ;    1.5354e-01    1.9154e+05 ;    C80 - C79        CT - CT    
     5      6   1 ;    1.0962e-01    2.8891e+05 ;    C79 - H102       CT - HC    
     5      7   1 ;    1.0962e-01    2.8891e+05 ;    C79 - H103       CT - HC    
     5      8   1 ;    1.5354e-01    1.9154e+05 ;    C79 - C78        CT - CT    
     8      9   1 ;    1.0962e-01    2.8891e+05 ;    C78 - HH14       CT - HC    
     8     10   1 ;    1.0962e-01    2.8891e+05 ;    C78 - H104       CT - HC    
     8     11   1 ;    1.5354e-01    1.9154e+05 ;    C78 - C77        CT - CT    
    11     12   1 ;    1.0962e-01    2.8891e+05 ;    C77 - H106       CT - HC    
    11     13   1 ;    1.0962e-01    2.8891e+05 ;    C77 - H107       CT - HC    
    11     14   1 ;    1.5354e-01    1.9154e+05 ;    C77 - C76        CT - CT    
    14     15   1 ;    1.0962e-01    2.8891e+05 ;    C76 - H108       CT - HC    
    14     16   1 ;    1.0962e-01    2.8891e+05 ;    C76 - H109       CT - HC    
    14     17   1 ;    1.5354e-01    1.9154e+05 ;    C76 - C75        CT - CT    
    17     18   1 ;    1.0962e-01    2.8891e+05 ;    C75 - H110       CT - HC    
    17     19   1 ;    1.0962e-01    2.8891e+05 ;    C75 - H111       CT - HC    
    17     20   1 ;    1.5354e-01    1.9154e+05 ;    C75 - C74        CT - CT    
    20     21   1 ;    1.0962e-01    2.8891e+05 ;    C74 - H112       CT - HC    
    20     22   1 ;    1.0962e-01    2.8891e+05 ;    C74 - H113       CT - HC    
    20     23   1 ;    1.5354e-01    1.9154e+05 ;    C74 - C73        CT - CT    
    23     24   1 ;    1.0962e-01    2.8891e+05 ;    C73 - HH13       CT - HC    
    23     25   1 ;    1.0962e-01    2.8891e+05 ;    C73 - H114       CT - HC    
    23     26   1 ;    1.5354e-01    1.9154e+05 ;    C73 - C72        CT - CT    
    26     27   1 ;    1.0962e-01    2.8891e+05 ;    C72 - H115       CT - HC    
    26     28   1 ;    1.0962e-01    2.8891e+05 ;    C72 - H116       CT - HC    
    26     29   1 ;    1.5354e-01    1.9154e+05 ;    C72 - C71        CT - CT    
    29     30   1 ;    1.0962e-01    2.8891e+05 ;    C71 - H117       CT - HC    
    29     31   1 ;    1.0962e-01    2.8891e+05 ;    C71 - H118       CT - HC    
    29     32   1 ;    1.5354e-01    1.9154e+05 ;    C71 - C70        CT - CT    
    32     33   1 ;    1.0962e-01    2.8891e+05 ;    C70 - H119       CT - HC    
    32     34   1 ;    1.0962e-01    2.8891e+05 ;    C70 - H120       CT - HC    
    32     35   1 ;    1.5354e-01    1.9154e+05 ;    C70 - C69        CT - CT    
    35     36   1 ;    1.0962e-01    2.8891e+05 ;    C69 - H121       CT - HC    
    35     37   1 ;    1.0962e-01    2.8891e+05 ;    C69 - H122       CT - HC    
    35     38   1 ;    1.5354e-01    1.9154e+05 ;    C69 - C68        CT - CT    
    38     39   1 ;    1.0962e-01    2.8891e+05 ;    C68 - HH12       CT - HC    
    38     40   1 ;    1.0962e-01    2.8891e+05 ;    C68 - H123       CT - HC    
    38     41   1 ;    1.5354e-01    1.9154e+05 ;    C68 - C67        CT - CT    
    41     42   1 ;    1.0962e-01    2.8891e+05 ;    C67 - H124       CT - HC    
    41     43   1 ;    1.0962e-01    2.8891e+05 ;    C67 - H125       CT - HC    
    41     44   1 ;    1.5354e-01    1.9154e+05 ;    C67 - C66        CT - CT    
    44     45   1 ;    1.0962e-01    2.8891e+05 ;    C66 - H126       CT - HC    
    44     46   1 ;    1.0962e-01    2.8891e+05 ;    C66 - H127       CT - HC    
    44     47   1 ;    1.5354e-01    1.9154e+05 ;    C66 - C65        CT - CT    
    47     48   1 ;    1.0962e-01    2.8891e+05 ;    C65 - H128       CT - HC    
    47     49   1 ;    1.0962e-01    2.8891e+05 ;    C65 - H129       CT - HC    
    47     50   1 ;    1.5354e-01    1.9154e+05 ;    C65 - C64        CT - CT    
    50     51   1 ;    1.0962e-01    2.8891e+05 ;    C64 - H130       CT - HC    
    50     52   1 ;    1.0962e-01    2.8891e+05 ;    C64 - H131       CT - HC    
    50     53   1 ;    1.5354e-01    1.9154e+05 ;    C64 - C63        CT - CT    
    53     54   1 ;    1.0962e-01    2.8891e+05 ;    C63 - HH11       CT - HC    
    53     55   1 ;    1.0962e-01    2.8891e+05 ;    C63 - H132       CT - HC    
    53     56   1 ;    1.5354e-01    1.9154e+05 ;    C63 - C62        CT - CT    
    56     57   1 ;    1.0962e-01    2.8891e+05 ;    C62 - H133       CT - HC    
    56     58   1 ;    1.0962e-01    2.8891e+05 ;    C62 - H134       CT - HC    
    56     59   1 ;    1.5354e-01    1.9154e+05 ;    C62 - C61        CT - CT    
    59     60   1 ;    1.0962e-01    2.8891e+05 ;    C61 - H135       CT - HC    
    59     61   1 ;    1.0962e-01    2.8891e+05 ;    C61 - H136       CT - HC    
    59     62   1 ;    1.5174e-01    2.0241e+05 ;    C61 - C60        CT - x     
    62     63   1 ;    1.0865e-01    3.0117e+05 ;    C60 - H137        x - HC    
    62     64   1 ;    1.5082e-01    2.0825e+05 ;    C60 - C58         x - x     
    62     66   1 ;    1.5082e-01    2.0825e+05 ;    C60 - C59         x - x     
    64     65   1 ;    1.0865e-01    3.0117e+05 ;    C58 - H138        x - HC    
    64     66   1 ;    1.5082e-01    2.0825e+05 ;    C58 - C59         x - x     
    64     69   1 ;    1.5174e-01    2.0241e+05 ;    C58 - C57         x - CT    
    66     67   1 ;    1.0865e-01    3.0117e+05 ;    C59 - H139        x - HC    
    66     68   1 ;    1.0865e-01    3.0117e+05 ;    C59 - H140        x - HC    
    69     70   1 ;    1.0962e-01    2.8891e+05 ;    C57 - HH10       CT - HC    
    69     71   1 ;    1.0962e-01    2.8891e+05 ;    C57 - H141       CT - HC    
    69     72   1 ;    1.5354e-01    1.9154e+05 ;    C57 - C56        CT - CT    
    72     73   1 ;    1.0962e-01    2.8891e+05 ;    C56 - H142       CT - HC    
    72     74   1 ;    1.0962e-01    2.8891e+05 ;    C56 - H143       CT - HC    
    72     75   1 ;    1.5354e-01    1.9154e+05 ;    C56 - C55        CT - CT    
    75     76   1 ;    1.0962e-01    2.8891e+05 ;    C55 - H144       CT - HC    
    75     77   1 ;    1.0962e-01    2.8891e+05 ;    C55 - H145       CT - HC    
    75     78   1 ;    1.5354e-01    1.9154e+05 ;    C55 - C54        CT - CT    
    78     79   1 ;    1.0962e-01    2.8891e+05 ;    C54 - H146       CT - HC    
    78     80   1 ;    1.0962e-01    2.8891e+05 ;    C54 - H147       CT - HC    
    78     81   1 ;    1.5354e-01    1.9154e+05 ;    C54 - C53        CT - CT    
    81     82   1 ;    1.0962e-01    2.8891e+05 ;    C53 - H148       CT - HC    
    81     83   1 ;    1.0962e-01    2.8891e+05 ;    C53 - H149       CT - HC    
    81     84   1 ;    1.5354e-01    1.9154e+05 ;    C53 - C52        CT - CT    
    84     85   1 ;    1.0962e-01    2.8891e+05 ;    C52 - H99        CT - HC    
    84     86   1 ;    1.0962e-01    2.8891e+05 ;    C52 - H150       CT - HC    
    84     87   1 ;    1.5354e-01    1.9154e+05 ;    C52 - C51        CT - CT    
    87     88   1 ;    1.0962e-01    2.8891e+05 ;    C51 - H97        CT - HC    
    87     89   1 ;    1.0962e-01    2.8891e+05 ;    C51 - H98        CT - HC    
    87     90   1 ;    1.5354e-01    1.9154e+05 ;    C51 - C50        CT - CT    
    90     91   1 ;    1.0962e-01    2.8891e+05 ;    C50 - H95        CT - HC    
    90     92   1 ;    1.0962e-01    2.8891e+05 ;    C50 - H96        CT - HC    
    90     93   1 ;    1.5354e-01    1.9154e+05 ;    C50 - C49        CT - CT    
    93     94   1 ;    1.0962e-01    2.8891e+05 ;    C49 - H93        CT - HC    
    93     95   1 ;    1.0962e-01    2.8891e+05 ;    C49 - H94        CT - HC    
    93     96   1 ;    1.5354e-01    1.9154e+05 ;    C49 - C48        CT - CT    
    96     97   1 ;    1.0962e-01    2.8891e+05 ;    C48 - H91        CT - HC    
    96     98   1 ;    1.0962e-01    2.8891e+05 ;    C48 - H92        CT - HC    
    96     99   1 ;    1.5354e-01    1.9154e+05 ;    C48 - C47        CT - CT    
    99    100   1 ;    1.0962e-01    2.8891e+05 ;    C47 - H89        CT - HC    
    99    101   1 ;    1.0962e-01    2.8891e+05 ;    C47 - H90        CT - HC    
    99    102   1 ;    1.5354e-01    1.9154e+05 ;    C47 - C46        CT - CT    
   102    103   1 ;    1.0962e-01    2.8891e+05 ;    C46 - H87        CT - HC    
   102    104   1 ;    1.0962e-01    2.8891e+05 ;    C46 - H88        CT - HC    
   102    105   1 ;    1.5354e-01    1.9154e+05 ;    C46 - C45        CT - CT    
   105    106   1 ;    1.0962e-01    2.8891e+05 ;    C45 - H85        CT - HC    
   105    107   1 ;    1.0962e-01    2.8891e+05 ;    C45 - H86        CT - HC    
   105    108   1 ;    1.5354e-01    1.9154e+05 ;    C45 - C44        CT - CT    
   108    109   1 ;    1.0962e-01    2.8891e+05 ;    C44 - H83        CT - HC    
   108    110   1 ;    1.0962e-01    2.8891e+05 ;    C44 - H84        CT - HC    
   108    111   1 ;    1.5174e-01    2.0241e+05 ;    C44 - C18        CT - x     
   111    112   1 ;    1.0865e-01    3.0117e+05 ;    C18 - H31         x - HC    
   111    113   1 ;    1.5082e-01    2.0825e+05 ;    C18 - C17         x - x     
   111    115   1 ;    1.5082e-01    2.0825e+05 ;    C18 - C19         x - x     
   113    114   1 ;    1.0865e-01    3.0117e+05 ;    C17 - H30         x - HC    
   113    115   1 ;    1.5082e-01    2.0825e+05 ;    C17 - C19         x - x     
   113    118   1 ;    1.5174e-01    2.0241e+05 ;    C17 - C16         x - CT    
   115    116   1 ;    1.0865e-01    3.0117e+05 ;    C19 - H32         x - HC    
   115    117   1 ;    1.0865e-01    3.0117e+05 ;    C19 - H33         x - HC    
   118    119   1 ;    1.0962e-01    2.8891e+05 ;    C16 - H28        CT - HC    
   118    120   1 ;    1.0962e-01    2.8891e+05 ;    C16 - H29        CT - HC    
   118    121   1 ;    1.5354e-01    1.9154e+05 ;    C16 - C15        CT - CT    
   121    122   1 ;    1.0962e-01    2.8891e+05 ;    C15 - H26        CT - HC    
   121    123   1 ;    1.0962e-01    2.8891e+05 ;    C15 - H27        CT - HC    
   121    124   1 ;    1.5354e-01    1.9154e+05 ;    C15 - C14        CT - CT    
   124    125   1 ;    1.0962e-01    2.8891e+05 ;    C14 - H24        CT - HC    
   124    126   1 ;    1.0962e-01    2.8891e+05 ;    C14 - H25        CT - HC    
   124    127   1 ;    1.5354e-01    1.9154e+05 ;    C14 - C13        CT - CT    
   127    128   1 ;    1.0962e-01    2.8891e+05 ;    C13 - H22        CT - HC    
   127    129   1 ;    1.0962e-01    2.8891e+05 ;    C13 - H23        CT - HC    
   127    130   1 ;    1.5354e-01    1.9154e+05 ;    C13 - C12        CT - CT    
   130    131   1 ;    1.0962e-01    2.8891e+05 ;    C12 - H20        CT - HC    
   130    132   1 ;    1.0962e-01    2.8891e+05 ;    C12 - H21        CT - HC    
   130    133   1 ;    1.5354e-01    1.9154e+05 ;    C12 - C11        CT - CT    
   133    134   1 ;    1.0962e-01    2.8891e+05 ;    C11 - H18        CT - HC    
   133    135   1 ;    1.0962e-01    2.8891e+05 ;    C11 - H19        CT - HC    
   133    136   1 ;    1.5354e-01    1.9154e+05 ;    C11 - C10        CT - CT    
   136    137   1 ;    1.0962e-01    2.8891e+05 ;    C10 - H16        CT - HC    
   136    138   1 ;    1.0962e-01    2.8891e+05 ;    C10 - H17        CT - HC    
   136    139   1 ;    1.5354e-01    1.9154e+05 ;    C10 - C9         CT - CT    
   139    140   1 ;    1.0962e-01    2.8891e+05 ;     C9 - H14        CT - HC    
   139    141   1 ;    1.0962e-01    2.8891e+05 ;     C9 - H15        CT - HC    
   139    142   1 ;    1.5354e-01    1.9154e+05 ;     C9 - C8         CT - CT    
   142    143   1 ;    1.0962e-01    2.8891e+05 ;     C8 - H12        CT - HC    
   142    144   1 ;    1.0962e-01    2.8891e+05 ;     C8 - H13        CT - HC    
   142    145   1 ;    1.5354e-01    1.9154e+05 ;     C8 - C7         CT - CT    
   145    146   1 ;    1.0962e-01    2.8891e+05 ;     C7 - H10        CT - HC    
   145    147   1 ;    1.0962e-01    2.8891e+05 ;     C7 - H11        CT - HC    
   145    148   1 ;    1.5354e-01    1.9154e+05 ;     C7 - C6         CT - CT    
   148    149   1 ;    1.0962e-01    2.8891e+05 ;     C6 - H8         CT - HC    
   148    150   1 ;    1.0962e-01    2.8891e+05 ;     C6 - H9         CT - HC    
   148    151   1 ;    1.5354e-01    1.9154e+05 ;     C6 - C5         CT - CT    
   151    152   1 ;    1.0962e-01    2.8891e+05 ;     C5 - H6         CT - HC    
   151    153   1 ;    1.0962e-01    2.8891e+05 ;     C5 - H7         CT - HC    
   151    154   1 ;    1.5354e-01    1.9154e+05 ;     C5 - C4         CT - CT    
   154    155   1 ;    1.0962e-01    2.8891e+05 ;     C4 - H4         CT - HC    
   154    156   1 ;    1.0962e-01    2.8891e+05 ;     C4 - H5         CT - HC    
   154    157   1 ;    1.5354e-01    1.9154e+05 ;     C4 - C2         CT - CT    
   157    158   1 ;    1.0969e-01    2.8804e+05 ;     C2 - H2         CT - HC    
   157    159   1 ;    1.4242e-01    2.3861e+05 ;     C2 - O3         CT - OH    
   157    161   1 ;    1.5354e-01    1.9154e+05 ;     C2 - C1         CT - CT    
   159    160   1 ;    9.7250e-02    4.4811e+05 ;     O3 - H3         OH - HO    
   161    162   1 ;    1.0962e-01    2.8891e+05 ;     C1 - H1         CT - HC    
   161    163   1 ;    1.5270e-01    1.9652e+05 ;     C1 - C81        CT - C     
   161    167   1 ;    1.5354e-01    1.9154e+05 ;     C1 - C20        CT - CT    
   163    164   1 ;    1.2190e-01    4.9421e+05 ;    C81 - O82         C - O     
   163    165   1 ;    1.3556e-01    3.0064e+05 ;    C81 - O83         C - OH    
   165    166   1 ;    9.7250e-02    4.4811e+05 ;    O83 - H105       OH - HO    
   167    168   1 ;    1.0962e-01    2.8891e+05 ;    C20 - H34        CT - HC    
   167    169   1 ;    1.0962e-01    2.8891e+05 ;    C20 - H35        CT - HC    
   167    170   1 ;    1.5354e-01    1.9154e+05 ;    C20 - C21        CT - CT    
   170    171   1 ;    1.0962e-01    2.8891e+05 ;    C21 - H36        CT - HC    
   170    172   1 ;    1.0962e-01    2.8891e+05 ;    C21 - H37        CT - HC    
   170    173   1 ;    1.5354e-01    1.9154e+05 ;    C21 - C22        CT - CT    
   173    174   1 ;    1.0962e-01    2.8891e+05 ;    C22 - H38        CT - HC    
   173    175   1 ;    1.0962e-01    2.8891e+05 ;    C22 - H39        CT - HC    
   173    176   1 ;    1.5354e-01    1.9154e+05 ;    C22 - C23        CT - CT    
   176    177   1 ;    1.0962e-01    2.8891e+05 ;    C23 - H40        CT - HC    
   176    178   1 ;    1.0962e-01    2.8891e+05 ;    C23 - H41        CT - HC    
   176    179   1 ;    1.5354e-01    1.9154e+05 ;    C23 - C24        CT - CT    
   179    180   1 ;    1.0962e-01    2.8891e+05 ;    C24 - H42        CT - HC    
   179    181   1 ;    1.0962e-01    2.8891e+05 ;    C24 - H43        CT - HC    
   179    182   1 ;    1.5354e-01    1.9154e+05 ;    C24 - C25        CT - CT    
   182    183   1 ;    1.0962e-01    2.8891e+05 ;    C25 - H44        CT - HC    
   182    184   1 ;    1.0962e-01    2.8891e+05 ;    C25 - H45        CT - HC    
   182    185   1 ;    1.5354e-01    1.9154e+05 ;    C25 - C26        CT - CT    
   185    186   1 ;    1.0962e-01    2.8891e+05 ;    C26 - H46        CT - HC    
   185    187   1 ;    1.0962e-01    2.8891e+05 ;    C26 - H47        CT - HC    
   185    188   1 ;    1.5354e-01    1.9154e+05 ;    C26 - C27        CT - CT    
   188    189   1 ;    1.0962e-01    2.8891e+05 ;    C27 - H48        CT - HC    
   188    190   1 ;    1.0962e-01    2.8891e+05 ;    C27 - H49        CT - HC    
   188    191   1 ;    1.5354e-01    1.9154e+05 ;    C27 - C28        CT - CT    
   191    192   1 ;    1.0962e-01    2.8891e+05 ;    C28 - H50        CT - HC    
   191    193   1 ;    1.0962e-01    2.8891e+05 ;    C28 - H51        CT - HC    
   191    194   1 ;    1.5354e-01    1.9154e+05 ;    C28 - C29        CT - CT    
   194    195   1 ;    1.0962e-01    2.8891e+05 ;    C29 - H52        CT - HC    
   194    196   1 ;    1.0962e-01    2.8891e+05 ;    C29 - H53        CT - HC    
   194    197   1 ;    1.5354e-01    1.9154e+05 ;    C29 - C30        CT - CT    
   197    198   1 ;    1.0962e-01    2.8891e+05 ;    C30 - H54        CT - HC    
   197    199   1 ;    1.0962e-01    2.8891e+05 ;    C30 - H55        CT - HC    
   197    200   1 ;    1.5354e-01    1.9154e+05 ;    C30 - C31        CT - CT    
   200    201   1 ;    1.0962e-01    2.8891e+05 ;    C31 - H56        CT - HC    
   200    202   1 ;    1.0962e-01    2.8891e+05 ;    C31 - H57        CT - HC    
   200    203   1 ;    1.5354e-01    1.9154e+05 ;    C31 - C32        CT - CT    
   203    204   1 ;    1.0962e-01    2.8891e+05 ;    C32 - H58        CT - HC    
   203    205   1 ;    1.0962e-01    2.8891e+05 ;    C32 - H59        CT - HC    
   203    206   1 ;    1.5354e-01    1.9154e+05 ;    C32 - C33        CT - CT    
   206    207   1 ;    1.0962e-01    2.8891e+05 ;    C33 - H60        CT - HC    
   206    208   1 ;    1.0962e-01    2.8891e+05 ;    C33 - H61        CT - HC    
   206    209   1 ;    1.5354e-01    1.9154e+05 ;    C33 - C34        CT - CT    
   209    210   1 ;    1.0962e-01    2.8891e+05 ;    C34 - H62        CT - HC    
   209    211   1 ;    1.0962e-01    2.8891e+05 ;    C34 - H63        CT - HC    
   209    212   1 ;    1.5354e-01    1.9154e+05 ;    C34 - C35        CT - CT    
   212    213   1 ;    1.0962e-01    2.8891e+05 ;    C35 - H64        CT - HC    
   212    214   1 ;    1.0962e-01    2.8891e+05 ;    C35 - H65        CT - HC    
   212    215   1 ;    1.5354e-01    1.9154e+05 ;    C35 - C36        CT - CT    
   215    216   1 ;    1.0962e-01    2.8891e+05 ;    C36 - H66        CT - HC    
   215    217   1 ;    1.0962e-01    2.8891e+05 ;    C36 - H67        CT - HC    
   215    218   1 ;    1.5354e-01    1.9154e+05 ;    C36 - C37        CT - CT    
   218    219   1 ;    1.0962e-01    2.8891e+05 ;    C37 - H68        CT - HC    
   218    220   1 ;    1.0962e-01    2.8891e+05 ;    C37 - H69        CT - HC    
   218    221   1 ;    1.5354e-01    1.9154e+05 ;    C37 - C38        CT - CT    
   221    222   1 ;    1.0962e-01    2.8891e+05 ;    C38 - H70        CT - HC    
   221    223   1 ;    1.0962e-01    2.8891e+05 ;    C38 - H71        CT - HC    
   221    224   1 ;    1.5354e-01    1.9154e+05 ;    C38 - C39        CT - CT    
   224    225   1 ;    1.0962e-01    2.8891e+05 ;    C39 - H72        CT - HC    
   224    226   1 ;    1.0962e-01    2.8891e+05 ;    C39 - H73        CT - HC    
   224    227   1 ;    1.5354e-01    1.9154e+05 ;    C39 - C40        CT - CT    
   227    228   1 ;    1.0962e-01    2.8891e+05 ;    C40 - H74        CT - HC    
   227    229   1 ;    1.0962e-01    2.8891e+05 ;    C40 - H75        CT - HC    
   227    230   1 ;    1.5354e-01    1.9154e+05 ;    C40 - C41        CT - CT    
   230    231   1 ;    1.0962e-01    2.8891e+05 ;    C41 - H76        CT - HC    
   230    232   1 ;    1.0962e-01    2.8891e+05 ;    C41 - H77        CT - HC    
   230    233   1 ;    1.5354e-01    1.9154e+05 ;    C41 - C42        CT - CT    
   233    234   1 ;    1.0962e-01    2.8891e+05 ;    C42 - H78        CT - HC    
   233    235   1 ;    1.0962e-01    2.8891e+05 ;    C42 - H79        CT - HC    
   233    236   1 ;    1.5354e-01    1.9154e+05 ;    C42 - C43        CT - CT    
   236    237   1 ;    1.0962e-01    2.8891e+05 ;    C43 - H80        CT - HC    
   236    238   1 ;    1.0962e-01    2.8891e+05 ;    C43 - H81        CT - HC    
   236    239   1 ;    1.0962e-01    2.8891e+05 ;    C43 - H82        CT - HC    

[ pairs ]
;   ai     aj    funct
     1      6      1 ;   HH15 - H102  
     1      7      1 ;   HH15 - H103  
     1      8      1 ;   HH15 - C78   
     2      9      1 ;    C80 - HH14  
     2     10      1 ;    C80 - H104  
     2     11      1 ;    C80 - C77   
     3      6      1 ;   H100 - H102  
     3      7      1 ;   H100 - H103  
     3      8      1 ;   H100 - C78   
     4      6      1 ;   H101 - H102  
     4      7      1 ;   H101 - H103  
     4      8      1 ;   H101 - C78   
     5     12      1 ;    C79 - H106  
     5     13      1 ;    C79 - H107  
     5     14      1 ;    C79 - C76   
     6      9      1 ;   H102 - HH14  
     6     10      1 ;   H102 - H104  
     6     11      1 ;   H102 - C77   
     7      9      1 ;   H103 - HH14  
     7     10      1 ;   H103 - H104  
     7     11      1 ;   H103 - C77   
     8     15      1 ;    C78 - H108  
     8     16      1 ;    C78 - H109  
     8     17      1 ;    C78 - C75   
     9     12      1 ;   HH14 - H106  
     9     13      1 ;   HH14 - H107  
     9     14      1 ;   HH14 - C76   
    10     12      1 ;   H104 - H106  
    10     13      1 ;   H104 - H107  
    10     14      1 ;   H104 - C76   
    11     18      1 ;    C77 - H110  
    11     19      1 ;    C77 - H111  
    11     20      1 ;    C77 - C74   
    12     15      1 ;   H106 - H108  
    12     16      1 ;   H106 - H109  
    12     17      1 ;   H106 - C75   
    13     15      1 ;   H107 - H108  
    13     16      1 ;   H107 - H109  
    13     17      1 ;   H107 - C75   
    14     21      1 ;    C76 - H112  
    14     22      1 ;    C76 - H113  
    14     23      1 ;    C76 - C73   
    15     18      1 ;   H108 - H110  
    15     19      1 ;   H108 - H111  
    15     20      1 ;   H108 - C74   
    16     18      1 ;   H109 - H110  
    16     19      1 ;   H109 - H111  
    16     20      1 ;   H109 - C74   
    17     24      1 ;    C75 - HH13  
    17     25      1 ;    C75 - H114  
    17     26      1 ;    C75 - C72   
    18     21      1 ;   H110 - H112  
    18     22      1 ;   H110 - H113  
    18     23      1 ;   H110 - C73   
    19     21      1 ;   H111 - H112  
    19     22      1 ;   H111 - H113  
    19     23      1 ;   H111 - C73   
    20     27      1 ;    C74 - H115  
    20     28      1 ;    C74 - H116  
    20     29      1 ;    C74 - C71   
    21     24      1 ;   H112 - HH13  
    21     25      1 ;   H112 - H114  
    21     26      1 ;   H112 - C72   
    22     24      1 ;   H113 - HH13  
    22     25      1 ;   H113 - H114  
    22     26      1 ;   H113 - C72   
    23     30      1 ;    C73 - H117  
    23     31      1 ;    C73 - H118  
    23     32      1 ;    C73 - C70   
    24     27      1 ;   HH13 - H115  
    24     28      1 ;   HH13 - H116  
    24     29      1 ;   HH13 - C71   
    25     27      1 ;   H114 - H115  
    25     28      1 ;   H114 - H116  
    25     29      1 ;   H114 - C71   
    26     33      1 ;    C72 - H119  
    26     34      1 ;    C72 - H120  
    26     35      1 ;    C72 - C69   
    27     30      1 ;   H115 - H117  
    27     31      1 ;   H115 - H118  
    27     32      1 ;   H115 - C70   
    28     30      1 ;   H116 - H117  
    28     31      1 ;   H116 - H118  
    28     32      1 ;   H116 - C70   
    29     36      1 ;    C71 - H121  
    29     37      1 ;    C71 - H122  
    29     38      1 ;    C71 - C68   
    30     33      1 ;   H117 - H119  
    30     34      1 ;   H117 - H120  
    30     35      1 ;   H117 - C69   
    31     33      1 ;   H118 - H119  
    31     34      1 ;   H118 - H120  
    31     35      1 ;   H118 - C69   
    32     39      1 ;    C70 - HH12  
    32     40      1 ;    C70 - H123  
    32     41      1 ;    C70 - C67   
    33     36      1 ;   H119 - H121  
    33     37      1 ;   H119 - H122  
    33     38      1 ;   H119 - C68   
    34     36      1 ;   H120 - H121  
    34     37      1 ;   H120 - H122  
    34     38      1 ;   H120 - C68   
    35     42      1 ;    C69 - H124  
    35     43      1 ;    C69 - H125  
    35     44      1 ;    C69 - C66   
    36     39      1 ;   H121 - HH12  
    36     40      1 ;   H121 - H123  
    36     41      1 ;   H121 - C67   
    37     39      1 ;   H122 - HH12  
    37     40      1 ;   H122 - H123  
    37     41      1 ;   H122 - C67   
    38     45      1 ;    C68 - H126  
    38     46      1 ;    C68 - H127  
    38     47      1 ;    C68 - C65   
    39     42      1 ;   HH12 - H124  
    39     43      1 ;   HH12 - H125  
    39     44      1 ;   HH12 - C66   
    40     42      1 ;   H123 - H124  
    40     43      1 ;   H123 - H125  
    40     44      1 ;   H123 - C66   
    41     48      1 ;    C67 - H128  
    41     49      1 ;    C67 - H129  
    41     50      1 ;    C67 - C64   
    42     45      1 ;   H124 - H126  
    42     46      1 ;   H124 - H127  
    42     47      1 ;   H124 - C65   
    43     45      1 ;   H125 - H126  
    43     46      1 ;   H125 - H127  
    43     47      1 ;   H125 - C65   
    44     51      1 ;    C66 - H130  
    44     52      1 ;    C66 - H131  
    44     53      1 ;    C66 - C63   
    45     48      1 ;   H126 - H128  
    45     49      1 ;   H126 - H129  
    45     50      1 ;   H126 - C64   
    46     48      1 ;   H127 - H128  
    46     49      1 ;   H127 - H129  
    46     50      1 ;   H127 - C64   
    47     54      1 ;    C65 - HH11  
    47     55      1 ;    C65 - H132  
    47     56      1 ;    C65 - C62   
    48     51      1 ;   H128 - H130  
    48     52      1 ;   H128 - H131  
    48     53      1 ;   H128 - C63   
    49     51      1 ;   H129 - H130  
    49     52      1 ;   H129 - H131  
    49     53      1 ;   H129 - C63   
    50     57      1 ;    C64 - H133  
    50     58      1 ;    C64 - H134  
    50     59      1 ;    C64 - C61   
    51     54      1 ;   H130 - HH11  
    51     55      1 ;   H130 - H132  
    51     56      1 ;   H130 - C62   
    52     54      1 ;   H131 - HH11  
    52     55      1 ;   H131 - H132  
    52     56      1 ;   H131 - C62   
    53     60      1 ;    C63 - H135  
    53     61      1 ;    C63 - H136  
    53     62      1 ;    C63 - C60   
    54     57      1 ;   HH11 - H133  
    54     58      1 ;   HH11 - H134  
    54     59      1 ;   HH11 - C61   
    55     57      1 ;   H132 - H133  
    55     58      1 ;   H132 - H134  
    55     59      1 ;   H132 - C61   
    56     63      1 ;    C62 - H137  
    56     64      1 ;    C62 - C58   
    56     66      1 ;    C62 - C59   
    57     60      1 ;   H133 - H135  
    57     61      1 ;   H133 - H136  
    57     62      1 ;   H133 - C60   
    58     60      1 ;   H134 - H135  
    58     61      1 ;   H134 - H136  
    58     62      1 ;   H134 - C60   
    59     65      1 ;    C61 - H138  
    59     67      1 ;    C61 - H139  
    59     68      1 ;    C61 - H140  
    59     69      1 ;    C61 - C57   
    60     63      1 ;   H135 - H137  
    60     64      1 ;   H135 - C58   
    60     66      1 ;   H135 - C59   
    61     63      1 ;   H136 - H137  
    61     64      1 ;   H136 - C58   
    61     66      1 ;   H136 - C59   
    62     70      1 ;    C60 - HH10  
    62     71      1 ;    C60 - H141  
    62     72      1 ;    C60 - C56   
    63     65      1 ;   H137 - H138  
    63     67      1 ;   H137 - H139  
    63     68      1 ;   H137 - H140  
    63     69      1 ;   H137 - C57   
    64     73      1 ;    C58 - H142  
    64     74      1 ;    C58 - H143  
    64     75      1 ;    C58 - C55   
    65     67      1 ;   H138 - H139  
    65     68      1 ;   H138 - H140  
    65     70      1 ;   H138 - HH10  
    65     71      1 ;   H138 - H141  
    65     72      1 ;   H138 - C56   
    66     70      1 ;    C59 - HH10  
    66     71      1 ;    C59 - H141  
    66     72      1 ;    C59 - C56   
    67     69      1 ;   H139 - C57   
    68     69      1 ;   H140 - C57   
    69     76      1 ;    C57 - H144  
    69     77      1 ;    C57 - H145  
    69     78      1 ;    C57 - C54   
    70     73      1 ;   HH10 - H142  
    70     74      1 ;   HH10 - H143  
    70     75      1 ;   HH10 - C55   
    71     73      1 ;   H141 - H142  
    71     74      1 ;   H141 - H143  
    71     75      1 ;   H141 - C55   
    72     79      1 ;    C56 - H146  
    72     80      1 ;    C56 - H147  
    72     81      1 ;    C56 - C53   
    73     76      1 ;   H142 - H144  
    73     77      1 ;   H142 - H145  
    73     78      1 ;   H142 - C54   
    74     76      1 ;   H143 - H144  
    74     77      1 ;   H143 - H145  
    74     78      1 ;   H143 - C54   
    75     82      1 ;    C55 - H148  
    75     83      1 ;    C55 - H149  
    75     84      1 ;    C55 - C52   
    76     79      1 ;   H144 - H146  
    76     80      1 ;   H144 - H147  
    76     81      1 ;   H144 - C53   
    77     79      1 ;   H145 - H146  
    77     80      1 ;   H145 - H147  
    77     81      1 ;   H145 - C53   
    78     85      1 ;    C54 - H99   
    78     86      1 ;    C54 - H150  
    78     87      1 ;    C54 - C51   
    79     82      1 ;   H146 - H148  
    79     83      1 ;   H146 - H149  
    79     84      1 ;   H146 - C52   
    80     82      1 ;   H147 - H148  
    80     83      1 ;   H147 - H149  
    80     84      1 ;   H147 - C52   
    81     88      1 ;    C53 - H97   
    81     89      1 ;    C53 - H98   
    81     90      1 ;    C53 - C50   
    82     85      1 ;   H148 - H99   
    82     86      1 ;   H148 - H150  
    82     87      1 ;   H148 - C51   
    83     85      1 ;   H149 - H99   
    83     86      1 ;   H149 - H150  
    83     87      1 ;   H149 - C51   
    84     91      1 ;    C52 - H95   
    84     92      1 ;    C52 - H96   
    84     93      1 ;    C52 - C49   
    85     88      1 ;    H99 - H97   
    85     89      1 ;    H99 - H98   
    85     90      1 ;    H99 - C50   
    86     88      1 ;   H150 - H97   
    86     89      1 ;   H150 - H98   
    86     90      1 ;   H150 - C50   
    87     94      1 ;    C51 - H93   
    87     95      1 ;    C51 - H94   
    87     96      1 ;    C51 - C48   
    88     91      1 ;    H97 - H95   
    88     92      1 ;    H97 - H96   
    88     93      1 ;    H97 - C49   
    89     91      1 ;    H98 - H95   
    89     92      1 ;    H98 - H96   
    89     93      1 ;    H98 - C49   
    90     97      1 ;    C50 - H91   
    90     98      1 ;    C50 - H92   
    90     99      1 ;    C50 - C47   
    91     94      1 ;    H95 - H93   
    91     95      1 ;    H95 - H94   
    91     96      1 ;    H95 - C48   
    92     94      1 ;    H96 - H93   
    92     95      1 ;    H96 - H94   
    92     96      1 ;    H96 - C48   
    93    100      1 ;    C49 - H89   
    93    101      1 ;    C49 - H90   
    93    102      1 ;    C49 - C46   
    94     97      1 ;    H93 - H91   
    94     98      1 ;    H93 - H92   
    94     99      1 ;    H93 - C47   
    95     97      1 ;    H94 - H91   
    95     98      1 ;    H94 - H92   
    95     99      1 ;    H94 - C47   
    96    103      1 ;    C48 - H87   
    96    104      1 ;    C48 - H88   
    96    105      1 ;    C48 - C45   
    97    100      1 ;    H91 - H89   
    97    101      1 ;    H91 - H90   
    97    102      1 ;    H91 - C46   
    98    100      1 ;    H92 - H89   
    98    101      1 ;    H92 - H90   
    98    102      1 ;    H92 - C46   
    99    106      1 ;    C47 - H85   
    99    107      1 ;    C47 - H86   
    99    108      1 ;    C47 - C44   
   100    103      1 ;    H89 - H87   
   100    104      1 ;    H89 - H88   
   100    105      1 ;    H89 - C45   
   101    103      1 ;    H90 - H87   
   101    104      1 ;    H90 - H88   
   101    105      1 ;    H90 - C45   
   102    109      1 ;    C46 - H83   
   102    110      1 ;    C46 - H84   
   102    111      1 ;    C46 - C18   
   103    106      1 ;    H87 - H85   
   103    107      1 ;    H87 - H86   
   103    108      1 ;    H87 - C44   
   104    106      1 ;    H88 - H85   
   104    107      1 ;    H88 - H86   
   104    108      1 ;    H88 - C44   
   105    112      1 ;    C45 - H31   
   105    113      1 ;    C45 - C17   
   105    115      1 ;    C45 - C19   
   106    109      1 ;    H85 - H83   
   106    110      1 ;    H85 - H84   
   106    111      1 ;    H85 - C18   
   107    109      1 ;    H86 - H83   
   107    110      1 ;    H86 - H84   
   107    111      1 ;    H86 - C18   
   108    114      1 ;    C44 - H30   
   108    116      1 ;    C44 - H32   
   108    117      1 ;    C44 - H33   
   108    118      1 ;    C44 - C16   
   109    112      1 ;    H83 - H31   
   109    113      1 ;    H83 - C17   
   109    115      1 ;    H83 - C19   
   110    112      1 ;    H84 - H31   
   110    113      1 ;    H84 - C17   
   110    115      1 ;    H84 - C19   
   111    119      1 ;    C18 - H28   
   111    120      1 ;    C18 - H29   
   111    121      1 ;    C18 - C15   
   112    114      1 ;    H31 - H30   
   112    116      1 ;    H31 - H32   
   112    117      1 ;    H31 - H33   
   112    118      1 ;    H31 - C16   
   113    122      1 ;    C17 - H26   
   113    123      1 ;    C17 - H27   
   113    124      1 ;    C17 - C14   
   114    116      1 ;    H30 - H32   
   114    117      1 ;    H30 - H33   
   114    119      1 ;    H30 - H28   
   114    120      1 ;    H30 - H29   
   114    121      1 ;    H30 - C15   
   115    119      1 ;    C19 - H28   
   115    120      1 ;    C19 - H29   
   115    121      1 ;    C19 - C15   
   116    118      1 ;    H32 - C16   
   117    118      1 ;    H33 - C16   
   118    125      1 ;    C16 - H24   
   118    126      1 ;    C16 - H25   
   118    127      1 ;    C16 - C13   
   119    122      1 ;    H28 - H26   
   119    123      1 ;    H28 - H27   
   119    124      1 ;    H28 - C14   
   120    122      1 ;    H29 - H26   
   120    123      1 ;    H29 - H27   
   120    124      1 ;    H29 - C14   
   121    128      1 ;    C15 - H22   
   121    129      1 ;    C15 - H23   
   121    130      1 ;    C15 - C12   
   122    125      1 ;    H26 - H24   
   122    126      1 ;    H26 - H25   
   122    127      1 ;    H26 - C13   
   123    125      1 ;    H27 - H24   
   123    126      1 ;    H27 - H25   
   123    127      1 ;    H27 - C13   
   124    131      1 ;    C14 - H20   
   124    132      1 ;    C14 - H21   
   124    133      1 ;    C14 - C11   
   125    128      1 ;    H24 - H22   
   125    129      1 ;    H24 - H23   
   125    130      1 ;    H24 - C12   
   126    128      1 ;    H25 - H22   
   126    129      1 ;    H25 - H23   
   126    130      1 ;    H25 - C12   
   127    134      1 ;    C13 - H18   
   127    135      1 ;    C13 - H19   
   127    136      1 ;    C13 - C10   
   128    131      1 ;    H22 - H20   
   128    132      1 ;    H22 - H21   
   128    133      1 ;    H22 - C11   
   129    131      1 ;    H23 - H20   
   129    132      1 ;    H23 - H21   
   129    133      1 ;    H23 - C11   
   130    137      1 ;    C12 - H16   
   130    138      1 ;    C12 - H17   
   130    139      1 ;    C12 - C9    
   131    134      1 ;    H20 - H18   
   131    135      1 ;    H20 - H19   
   131    136      1 ;    H20 - C10   
   132    134      1 ;    H21 - H18   
   132    135      1 ;    H21 - H19   
   132    136      1 ;    H21 - C10   
   133    140      1 ;    C11 - H14   
   133    141      1 ;    C11 - H15   
   133    142      1 ;    C11 - C8    
   134    137      1 ;    H18 - H16   
   134    138      1 ;    H18 - H17   
   134    139      1 ;    H18 - C9    
   135    137      1 ;    H19 - H16   
   135    138      1 ;    H19 - H17   
   135    139      1 ;    H19 - C9    
   136    143      1 ;    C10 - H12   
   136    144      1 ;    C10 - H13   
   136    145      1 ;    C10 - C7    
   137    140      1 ;    H16 - H14   
   137    141      1 ;    H16 - H15   
   137    142      1 ;    H16 - C8    
   138    140      1 ;    H17 - H14   
   138    141      1 ;    H17 - H15   
   138    142      1 ;    H17 - C8    
   139    146      1 ;     C9 - H10   
   139    147      1 ;     C9 - H11   
   139    148      1 ;     C9 - C6    
   140    143      1 ;    H14 - H12   
   140    144      1 ;    H14 - H13   
   140    145      1 ;    H14 - C7    
   141    143      1 ;    H15 - H12   
   141    144      1 ;    H15 - H13   
   141    145      1 ;    H15 - C7    
   142    149      1 ;     C8 - H8    
   142    150      1 ;     C8 - H9    
   142    151      1 ;     C8 - C5    
   143    146      1 ;    H12 - H10   
   143    147      1 ;    H12 - H11   
   143    148      1 ;    H12 - C6    
   144    146      1 ;    H13 - H10   
   144    147      1 ;    H13 - H11   
   144    148      1 ;    H13 - C6    
   145    152      1 ;     C7 - H6    
   145    153      1 ;     C7 - H7    
   145    154      1 ;     C7 - C4    
   146    149      1 ;    H10 - H8    
   146    150      1 ;    H10 - H9    
   146    151      1 ;    H10 - C5    
   147    149      1 ;    H11 - H8    
   147    150      1 ;    H11 - H9    
   147    151      1 ;    H11 - C5    
   148    155      1 ;     C6 - H4    
   148    156      1 ;     C6 - H5    
   148    157      1 ;     C6 - C2    
   149    152      1 ;     H8 - H6    
   149    153      1 ;     H8 - H7    
   149    154      1 ;     H8 - C4    
   150    152      1 ;     H9 - H6    
   150    153      1 ;     H9 - H7    
   150    154      1 ;     H9 - C4    
   151    158      1 ;     C5 - H2    
   151    159      1 ;     C5 - O3    
   151    161      1 ;     C5 - C1    
   152    155      1 ;     H6 - H4    
   152    156      1 ;     H6 - H5    
   152    157      1 ;     H6 - C2    
   153    155      1 ;     H7 - H4    
   153    156      1 ;     H7 - H5    
   153    157      1 ;     H7 - C2    
   154    160      1 ;     C4 - H3    
   154    162      1 ;     C4 - H1    
   154    163      1 ;     C4 - C81   
   154    167      1 ;     C4 - C20   
   155    158      1 ;     H4 - H2    
   155    159      1 ;     H4 - O3    
   155    161      1 ;     H4 - C1    
   156    158      1 ;     H5 - H2    
   156    159      1 ;     H5 - O3    
   156    161      1 ;     H5 - C1    
   157    164      1 ;     C2 - O82   
   157    165      1 ;     C2 - O83   
   157    168      1 ;     C2 - H34   
   157    169      1 ;     C2 - H35   
   157    170      1 ;     C2 - C21   
   158    160      1 ;     H2 - H3    
   158    162      1 ;     H2 - H1    
   158    163      1 ;     H2 - C81   
   158    167      1 ;     H2 - C20   
   159    162      1 ;     O3 - H1    
   159    163      1 ;     O3 - C81   
   159    167      1 ;     O3 - C20   
   160    161      1 ;     H3 - C1    
   161    166      1 ;     C1 - H105  
   161    171      1 ;     C1 - H36   
   161    172      1 ;     C1 - H37   
   161    173      1 ;     C1 - C22   
   162    164      1 ;     H1 - O82   
   162    165      1 ;     H1 - O83   
   162    168      1 ;     H1 - H34   
   162    169      1 ;     H1 - H35   
   162    170      1 ;     H1 - C21   
   163    168      1 ;    C81 - H34   
   163    169      1 ;    C81 - H35   
   163    170      1 ;    C81 - C21   
   164    166      1 ;    O82 - H105  
   164    167      1 ;    O82 - C20   
   165    167      1 ;    O83 - C20   
   167    174      1 ;    C20 - H38   
   167    175      1 ;    C20 - H39   
   167    176      1 ;    C20 - C23   
   168    171      1 ;    H34 - H36   
   168    172      1 ;    H34 - H37   
   168    173      1 ;    H34 - C22   
   169    171      1 ;    H35 - H36   
   169    172      1 ;    H35 - H37   
   169    173      1 ;    H35 - C22   
   170    177      1 ;    C21 - H40   
   170    178      1 ;    C21 - H41   
   170    179      1 ;    C21 - C24   
   171    174      1 ;    H36 - H38   
   171    175      1 ;    H36 - H39   
   171    176      1 ;    H36 - C23   
   172    174      1 ;    H37 - H38   
   172    175      1 ;    H37 - H39   
   172    176      1 ;    H37 - C23   
   173    180      1 ;    C22 - H42   
   173    181      1 ;    C22 - H43   
   173    182      1 ;    C22 - C25   
   174    177      1 ;    H38 - H40   
   174    178      1 ;    H38 - H41   
   174    179      1 ;    H38 - C24   
   175    177      1 ;    H39 - H40   
   175    178      1 ;    H39 - H41   
   175    179      1 ;    H39 - C24   
   176    183      1 ;    C23 - H44   
   176    184      1 ;    C23 - H45   
   176    185      1 ;    C23 - C26   
   177    180      1 ;    H40 - H42   
   177    181      1 ;    H40 - H43   
   177    182      1 ;    H40 - C25   
   178    180      1 ;    H41 - H42   
   178    181      1 ;    H41 - H43   
   178    182      1 ;    H41 - C25   
   179    186      1 ;    C24 - H46   
   179    187      1 ;    C24 - H47   
   179    188      1 ;    C24 - C27   
   180    183      1 ;    H42 - H44   
   180    184      1 ;    H42 - H45   
   180    185      1 ;    H42 - C26   
   181    183      1 ;    H43 - H44   
   181    184      1 ;    H43 - H45   
   181    185      1 ;    H43 - C26   
   182    189      1 ;    C25 - H48   
   182    190      1 ;    C25 - H49   
   182    191      1 ;    C25 - C28   
   183    186      1 ;    H44 - H46   
   183    187      1 ;    H44 - H47   
   183    188      1 ;    H44 - C27   
   184    186      1 ;    H45 - H46   
   184    187      1 ;    H45 - H47   
   184    188      1 ;    H45 - C27   
   185    192      1 ;    C26 - H50   
   185    193      1 ;    C26 - H51   
   185    194      1 ;    C26 - C29   
   186    189      1 ;    H46 - H48   
   186    190      1 ;    H46 - H49   
   186    191      1 ;    H46 - C28   
   187    189      1 ;    H47 - H48   
   187    190      1 ;    H47 - H49   
   187    191      1 ;    H47 - C28   
   188    195      1 ;    C27 - H52   
   188    196      1 ;    C27 - H53   
   188    197      1 ;    C27 - C30   
   189    192      1 ;    H48 - H50   
   189    193      1 ;    H48 - H51   
   189    194      1 ;    H48 - C29   
   190    192      1 ;    H49 - H50   
   190    193      1 ;    H49 - H51   
   190    194      1 ;    H49 - C29   
   191    198      1 ;    C28 - H54   
   191    199      1 ;    C28 - H55   
   191    200      1 ;    C28 - C31   
   192    195      1 ;    H50 - H52   
   192    196      1 ;    H50 - H53   
   192    197      1 ;    H50 - C30   
   193    195      1 ;    H51 - H52   
   193    196      1 ;    H51 - H53   
   193    197      1 ;    H51 - C30   
   194    201      1 ;    C29 - H56   
   194    202      1 ;    C29 - H57   
   194    203      1 ;    C29 - C32   
   195    198      1 ;    H52 - H54   
   195    199      1 ;    H52 - H55   
   195    200      1 ;    H52 - C31   
   196    198      1 ;    H53 - H54   
   196    199      1 ;    H53 - H55   
   196    200      1 ;    H53 - C31   
   197    204      1 ;    C30 - H58   
   197    205      1 ;    C30 - H59   
   197    206      1 ;    C30 - C33   
   198    201      1 ;    H54 - H56   
   198    202      1 ;    H54 - H57   
   198    203      1 ;    H54 - C32   
   199    201      1 ;    H55 - H56   
   199    202      1 ;    H55 - H57   
   199    203      1 ;    H55 - C32   
   200    207      1 ;    C31 - H60   
   200    208      1 ;    C31 - H61   
   200    209      1 ;    C31 - C34   
   201    204      1 ;    H56 - H58   
   201    205      1 ;    H56 - H59   
   201    206      1 ;    H56 - C33   
   202    204      1 ;    H57 - H58   
   202    205      1 ;    H57 - H59   
   202    206      1 ;    H57 - C33   
   203    210      1 ;    C32 - H62   
   203    211      1 ;    C32 - H63   
   203    212      1 ;    C32 - C35   
   204    207      1 ;    H58 - H60   
   204    208      1 ;    H58 - H61   
   204    209      1 ;    H58 - C34   
   205    207      1 ;    H59 - H60   
   205    208      1 ;    H59 - H61   
   205    209      1 ;    H59 - C34   
   206    213      1 ;    C33 - H64   
   206    214      1 ;    C33 - H65   
   206    215      1 ;    C33 - C36   
   207    210      1 ;    H60 - H62   
   207    211      1 ;    H60 - H63   
   207    212      1 ;    H60 - C35   
   208    210      1 ;    H61 - H62   
   208    211      1 ;    H61 - H63   
   208    212      1 ;    H61 - C35   
   209    216      1 ;    C34 - H66   
   209    217      1 ;    C34 - H67   
   209    218      1 ;    C34 - C37   
   210    213      1 ;    H62 - H64   
   210    214      1 ;    H62 - H65   
   210    215      1 ;    H62 - C36   
   211    213      1 ;    H63 - H64   
   211    214      1 ;    H63 - H65   
   211    215      1 ;    H63 - C36   
   212    219      1 ;    C35 - H68   
   212    220      1 ;    C35 - H69   
   212    221      1 ;    C35 - C38   
   213    216      1 ;    H64 - H66   
   213    217      1 ;    H64 - H67   
   213    218      1 ;    H64 - C37   
   214    216      1 ;    H65 - H66   
   214    217      1 ;    H65 - H67   
   214    218      1 ;    H65 - C37   
   215    222      1 ;    C36 - H70   
   215    223      1 ;    C36 - H71   
   215    224      1 ;    C36 - C39   
   216    219      1 ;    H66 - H68   
   216    220      1 ;    H66 - H69   
   216    221      1 ;    H66 - C38   
   217    219      1 ;    H67 - H68   
   217    220      1 ;    H67 - H69   
   217    221      1 ;    H67 - C38   
   218    225      1 ;    C37 - H72   
   218    226      1 ;    C37 - H73   
   218    227      1 ;    C37 - C40   
   219    222      1 ;    H68 - H70   
   219    223      1 ;    H68 - H71   
   219    224      1 ;    H68 - C39   
   220    222      1 ;    H69 - H70   
   220    223      1 ;    H69 - H71   
   220    224      1 ;    H69 - C39   
   221    228      1 ;    C38 - H74   
   221    229      1 ;    C38 - H75   
   221    230      1 ;    C38 - C41   
   222    225      1 ;    H70 - H72   
   222    226      1 ;    H70 - H73   
   222    227      1 ;    H70 - C40   
   223    225      1 ;    H71 - H72   
   223    226      1 ;    H71 - H73   
   223    227      1 ;    H71 - C40   
   224    231      1 ;    C39 - H76   
   224    232      1 ;    C39 - H77   
   224    233      1 ;    C39 - C42   
   225    228      1 ;    H72 - H74   
   225    229      1 ;    H72 - H75   
   225    230      1 ;    H72 - C41   
   226    228      1 ;    H73 - H74   
   226    229      1 ;    H73 - H75   
   226    230      1 ;    H73 - C41   
   227    234      1 ;    C40 - H78   
   227    235      1 ;    C40 - H79   
   227    236      1 ;    C40 - C43   
   228    231      1 ;    H74 - H76   
   228    232      1 ;    H74 - H77   
   228    233      1 ;    H74 - C42   
   229    231      1 ;    H75 - H76   
   229    232      1 ;    H75 - H77   
   229    233      1 ;    H75 - C42   
   230    237      1 ;    C41 - H80   
   230    238      1 ;    C41 - H81   
   230    239      1 ;    C41 - H82   
   231    234      1 ;    H76 - H78   
   231    235      1 ;    H76 - H79   
   231    236      1 ;    H76 - C43   
   232    234      1 ;    H77 - H78   
   232    235      1 ;    H77 - H79   
   232    236      1 ;    H77 - C43   
   234    237      1 ;    H78 - H80   
   234    238      1 ;    H78 - H81   
   234    239      1 ;    H78 - H82   
   235    237      1 ;    H79 - H80   
   235    238      1 ;    H79 - H81   
   235    239      1 ;    H79 - H82   

[ angles ]
;   ai     aj     ak    funct   theta         cth
     1      2      3      1 ;    1.0773e+02    2.9957e+02 ;   HH15 - C80  - H100     HC -   CT - HC  
     1      2      4      1 ;    1.0773e+02    2.9957e+02 ;   HH15 - C80  - H101     HC -   CT - HC  
     1      2      5      1 ;    1.0968e+02    3.6208e+02 ;   HH15 - C80  - C79      HC -   CT - CT  
     2      5      6      1 ;    1.0968e+02    3.6208e+02 ;    C80 - C79  - H102     CT -   CT - HC  
     2      5      7      1 ;    1.0968e+02    3.6208e+02 ;    C80 - C79  - H103     CT -   CT - HC  
     2      5      8      1 ;    1.1263e+02    5.0099e+02 ;    C80 - C79  - C78      CT -   CT - CT  
     3      2      4      1 ;    1.0773e+02    2.9957e+02 ;   H100 - C80  - H101     HC -   CT - HC  
     3      2      5      1 ;    1.0968e+02    3.6208e+02 ;   H100 - C80  - C79      HC -   CT - CT  
     4      2      5      1 ;    1.0968e+02    3.6208e+02 ;   H101 - C80  - C79      HC -   CT - CT  
     5      8      9      1 ;    1.0968e+02    3.6208e+02 ;    C79 - C78  - HH14     CT -   CT - HC  
     5      8     10      1 ;    1.0968e+02    3.6208e+02 ;    C79 - C78  - H104     CT -   CT - HC  
     5      8     11      1 ;    1.1263e+02    5.0099e+02 ;    C79 - C78  - C77      CT -   CT - CT  
     6      5      7      1 ;    1.0773e+02    2.9957e+02 ;   H102 - C79  - H103     HC -   CT - HC  
     6      5      8      1 ;    1.0968e+02    3.6208e+02 ;   H102 - C79  - C78      HC -   CT - CT  
     7      5      8      1 ;    1.0968e+02    3.6208e+02 ;   H103 - C79  - C78      HC -   CT - CT  
     8     11     12      1 ;    1.0968e+02    3.6208e+02 ;    C78 - C77  - H106     CT -   CT - HC  
     8     11     13      1 ;    1.0968e+02    3.6208e+02 ;    C78 - C77  - H107     CT -   CT - HC  
     8     11     14      1 ;    1.1263e+02    5.0099e+02 ;    C78 - C77  - C76      CT -   CT - CT  
     9      8     10      1 ;    1.0773e+02    2.9957e+02 ;   HH14 - C78  - H104     HC -   CT - HC  
     9      8     11      1 ;    1.0968e+02    3.6208e+02 ;   HH14 - C78  - C77      HC -   CT - CT  
    10      8     11      1 ;    1.0968e+02    3.6208e+02 ;   H104 - C78  - C77      HC -   CT - CT  
    11     14     15      1 ;    1.0968e+02    3.6208e+02 ;    C77 - C76  - H108     CT -   CT - HC  
    11     14     16      1 ;    1.0968e+02    3.6208e+02 ;    C77 - C76  - H109     CT -   CT - HC  
    11     14     17      1 ;    1.1263e+02    5.0099e+02 ;    C77 - C76  - C75      CT -   CT - CT  
    12     11     13      1 ;    1.0773e+02    2.9957e+02 ;   H106 - C77  - H107     HC -   CT - HC  
    12     11     14      1 ;    1.0968e+02    3.6208e+02 ;   H106 - C77  - C76      HC -   CT - CT  
    13     11     14      1 ;    1.0968e+02    3.6208e+02 ;   H107 - C77  - C76      HC -   CT - CT  
    14     17     18      1 ;    1.0968e+02    3.6208e+02 ;    C76 - C75  - H110     CT -   CT - HC  
    14     17     19      1 ;    1.0968e+02    3.6208e+02 ;    C76 - C75  - H111     CT -   CT - HC  
    14     17     20      1 ;    1.1263e+02    5.0099e+02 ;    C76 - C75  - C74      CT -   CT - CT  
    15     14     16      1 ;    1.0773e+02    2.9957e+02 ;   H108 - C76  - H109     HC -   CT - HC  
    15     14     17      1 ;    1.0968e+02    3.6208e+02 ;   H108 - C76  - C75      HC -   CT - CT  
    16     14     17      1 ;    1.0968e+02    3.6208e+02 ;   H109 - C76  - C75      HC -   CT - CT  
    17     20     21      1 ;    1.0968e+02    3.6208e+02 ;    C75 - C74  - H112     CT -   CT - HC  
    17     20     22      1 ;    1.0968e+02    3.6208e+02 ;    C75 - C74  - H113     CT -   CT - HC  
    17     20     23      1 ;    1.1263e+02    5.0099e+02 ;    C75 - C74  - C73      CT -   CT - CT  
    18     17     19      1 ;    1.0773e+02    2.9957e+02 ;   H110 - C75  - H111     HC -   CT - HC  
    18     17     20      1 ;    1.0968e+02    3.6208e+02 ;   H110 - C75  - C74      HC -   CT - CT  
    19     17     20      1 ;    1.0968e+02    3.6208e+02 ;   H111 - C75  - C74      HC -   CT - CT  
    20     23     24      1 ;    1.0968e+02    3.6208e+02 ;    C74 - C73  - HH13     CT -   CT - HC  
    20     23     25      1 ;    1.0968e+02    3.6208e+02 ;    C74 - C73  - H114     CT -   CT - HC  
    20     23     26      1 ;    1.1263e+02    5.0099e+02 ;    C74 - C73  - C72      CT -   CT - CT  
    21     20     22      1 ;    1.0773e+02    2.9957e+02 ;   H112 - C74  - H113     HC -   CT - HC  
    21     20     23      1 ;    1.0968e+02    3.6208e+02 ;   H112 - C74  - C73      HC -   CT - CT  
    22     20     23      1 ;    1.0968e+02    3.6208e+02 ;   H113 - C74  - C73      HC -   CT - CT  
    23     26     27      1 ;    1.0968e+02    3.6208e+02 ;    C73 - C72  - H115     CT -   CT - HC  
    23     26     28      1 ;    1.0968e+02    3.6208e+02 ;    C73 - C72  - H116     CT -   CT - HC  
    23     26     29      1 ;    1.1263e+02    5.0099e+02 ;    C73 - C72  - C71      CT -   CT - CT  
    24     23     25      1 ;    1.0773e+02    2.9957e+02 ;   HH13 - C73  - H114     HC -   CT - HC  
    24     23     26      1 ;    1.0968e+02    3.6208e+02 ;   HH13 - C73  - C72      HC -   CT - CT  
    25     23     26      1 ;    1.0968e+02    3.6208e+02 ;   H114 - C73  - C72      HC -   CT - CT  
    26     29     30      1 ;    1.0968e+02    3.6208e+02 ;    C72 - C71  - H117     CT -   CT - HC  
    26     29     31      1 ;    1.0968e+02    3.6208e+02 ;    C72 - C71  - H118     CT -   CT - HC  
    26     29     32      1 ;    1.1263e+02    5.0099e+02 ;    C72 - C71  - C70      CT -   CT - CT  
    27     26     28      1 ;    1.0773e+02    2.9957e+02 ;   H115 - C72  - H116     HC -   CT - HC  
    27     26     29      1 ;    1.0968e+02    3.6208e+02 ;   H115 - C72  - C71      HC -   CT - CT  
    28     26     29      1 ;    1.0968e+02    3.6208e+02 ;   H116 - C72  - C71      HC -   CT - CT  
    29     32     33      1 ;    1.0968e+02    3.6208e+02 ;    C71 - C70  - H119     CT -   CT - HC  
    29     32     34      1 ;    1.0968e+02    3.6208e+02 ;    C71 - C70  - H120     CT -   CT - HC  
    29     32     35      1 ;    1.1263e+02    5.0099e+02 ;    C71 - C70  - C69      CT -   CT - CT  
    30     29     31      1 ;    1.0773e+02    2.9957e+02 ;   H117 - C71  - H118     HC -   CT - HC  
    30     29     32      1 ;    1.0968e+02    3.6208e+02 ;   H117 - C71  - C70      HC -   CT - CT  
    31     29     32      1 ;    1.0968e+02    3.6208e+02 ;   H118 - C71  - C70      HC -   CT - CT  
    32     35     36      1 ;    1.0968e+02    3.6208e+02 ;    C70 - C69  - H121     CT -   CT - HC  
    32     35     37      1 ;    1.0968e+02    3.6208e+02 ;    C70 - C69  - H122     CT -   CT - HC  
    32     35     38      1 ;    1.1263e+02    5.0099e+02 ;    C70 - C69  - C68      CT -   CT - CT  
    33     32     34      1 ;    1.0773e+02    2.9957e+02 ;   H119 - C70  - H120     HC -   CT - HC  
    33     32     35      1 ;    1.0968e+02    3.6208e+02 ;   H119 - C70  - C69      HC -   CT - CT  
    34     32     35      1 ;    1.0968e+02    3.6208e+02 ;   H120 - C70  - C69      HC -   CT - CT  
    35     38     39      1 ;    1.0968e+02    3.6208e+02 ;    C69 - C68  - HH12     CT -   CT - HC  
    35     38     40      1 ;    1.0968e+02    3.6208e+02 ;    C69 - C68  - H123     CT -   CT - HC  
    35     38     41      1 ;    1.1263e+02    5.0099e+02 ;    C69 - C68  - C67      CT -   CT - CT  
    36     35     37      1 ;    1.0773e+02    2.9957e+02 ;   H121 - C69  - H122     HC -   CT - HC  
    36     35     38      1 ;    1.0968e+02    3.6208e+02 ;   H121 - C69  - C68      HC -   CT - CT  
    37     35     38      1 ;    1.0968e+02    3.6208e+02 ;   H122 - C69  - C68      HC -   CT - CT  
    38     41     42      1 ;    1.0968e+02    3.6208e+02 ;    C68 - C67  - H124     CT -   CT - HC  
    38     41     43      1 ;    1.0968e+02    3.6208e+02 ;    C68 - C67  - H125     CT -   CT - HC  
    38     41     44      1 ;    1.1263e+02    5.0099e+02 ;    C68 - C67  - C66      CT -   CT - CT  
    39     38     40      1 ;    1.0773e+02    2.9957e+02 ;   HH12 - C68  - H123     HC -   CT - HC  
    39     38     41      1 ;    1.0968e+02    3.6208e+02 ;   HH12 - C68  - C67      HC -   CT - CT  
    40     38     41      1 ;    1.0968e+02    3.6208e+02 ;   H123 - C68  - C67      HC -   CT - CT  
    41     44     45      1 ;    1.0968e+02    3.6208e+02 ;    C67 - C66  - H126     CT -   CT - HC  
    41     44     46      1 ;    1.0968e+02    3.6208e+02 ;    C67 - C66  - H127     CT -   CT - HC  
    41     44     47      1 ;    1.1263e+02    5.0099e+02 ;    C67 - C66  - C65      CT -   CT - CT  
    42     41     43      1 ;    1.0773e+02    2.9957e+02 ;   H124 - C67  - H125     HC -   CT - HC  
    42     41     44      1 ;    1.0968e+02    3.6208e+02 ;   H124 - C67  - C66      HC -   CT - CT  
    43     41     44      1 ;    1.0968e+02    3.6208e+02 ;   H125 - C67  - C66      HC -   CT - CT  
    44     47     48      1 ;    1.0968e+02    3.6208e+02 ;    C66 - C65  - H128     CT -   CT - HC  
    44     47     49      1 ;    1.0968e+02    3.6208e+02 ;    C66 - C65  - H129     CT -   CT - HC  
    44     47     50      1 ;    1.1263e+02    5.0099e+02 ;    C66 - C65  - C64      CT -   CT - CT  
    45     44     46      1 ;    1.0773e+02    2.9957e+02 ;   H126 - C66  - H127     HC -   CT - HC  
    45     44     47      1 ;    1.0968e+02    3.6208e+02 ;   H126 - C66  - C65      HC -   CT - CT  
    46     44     47      1 ;    1.0968e+02    3.6208e+02 ;   H127 - C66  - C65      HC -   CT - CT  
    47     50     51      1 ;    1.0968e+02    3.6208e+02 ;    C65 - C64  - H130     CT -   CT - HC  
    47     50     52      1 ;    1.0968e+02    3.6208e+02 ;    C65 - C64  - H131     CT -   CT - HC  
    47     50     53      1 ;    1.1263e+02    5.0099e+02 ;    C65 - C64  - C63      CT -   CT - CT  
    48     47     49      1 ;    1.0773e+02    2.9957e+02 ;   H128 - C65  - H129     HC -   CT - HC  
    48     47     50      1 ;    1.0968e+02    3.6208e+02 ;   H128 - C65  - C64      HC -   CT - CT  
    49     47     50      1 ;    1.0968e+02    3.6208e+02 ;   H129 - C65  - C64      HC -   CT - CT  
    50     53     54      1 ;    1.0968e+02    3.6208e+02 ;    C64 - C63  - HH11     CT -   CT - HC  
    50     53     55      1 ;    1.0968e+02    3.6208e+02 ;    C64 - C63  - H132     CT -   CT - HC  
    50     53     56      1 ;    1.1263e+02    5.0099e+02 ;    C64 - C63  - C62      CT -   CT - CT  
    51     50     52      1 ;    1.0773e+02    2.9957e+02 ;   H130 - C64  - H131     HC -   CT - HC  
    51     50     53      1 ;    1.0968e+02    3.6208e+02 ;   H130 - C64  - C63      HC -   CT - CT  
    52     50     53      1 ;    1.0968e+02    3.6208e+02 ;   H131 - C64  - C63      HC -   CT - CT  
    53     56     57      1 ;    1.0968e+02    3.6208e+02 ;    C63 - C62  - H133     CT -   CT - HC  
    53     56     58      1 ;    1.0968e+02    3.6208e+02 ;    C63 - C62  - H134     CT -   CT - HC  
    53     56     59      1 ;    1.1263e+02    5.0099e+02 ;    C63 - C62  - C61      CT -   CT - CT  
    54     53     55      1 ;    1.0773e+02    2.9957e+02 ;   HH11 - C63  - H132     HC -   CT - HC  
    54     53     56      1 ;    1.0968e+02    3.6208e+02 ;   HH11 - C63  - C62      HC -   CT - CT  
    55     53     56      1 ;    1.0968e+02    3.6208e+02 ;   H132 - C63  - C62      HC -   CT - CT  
    56     59     60      1 ;    1.0968e+02    3.6208e+02 ;    C62 - C61  - H135     CT -   CT - HC  
    56     59     61      1 ;    1.0968e+02    3.6208e+02 ;    C62 - C61  - H136     CT -   CT - HC  
    56     59     62      1 ;    1.1277e+02    5.0367e+02 ;    C62 - C61  - C60      CT -   CT - x   
    57     56     58      1 ;    1.0773e+02    2.9957e+02 ;   H133 - C62  - H134     HC -   CT - HC  
    57     56     59      1 ;    1.0968e+02    3.6208e+02 ;   H133 - C62  - C61      HC -   CT - CT  
    58     56     59      1 ;    1.0968e+02    3.6208e+02 ;   H134 - C62  - C61      HC -   CT - CT  
    59     62     63      1 ;    1.1372e+02    3.5974e+02 ;    C61 - C60  - H137     CT -    x - HC  
    59     62     64      1 ;    1.2076e+02    4.9112e+02 ;    C61 - C60  - C58      CT -    x - x   
    59     62     66      1 ;    1.2076e+02    4.9112e+02 ;    C61 - C60  - C59      CT -    x - x   
    60     59     61      1 ;    1.0773e+02    2.9957e+02 ;   H135 - C61  - H136     HC -   CT - HC  
    60     59     62      1 ;    1.1034e+02    3.6484e+02 ;   H135 - C61  - C60      HC -   CT - x   
    61     59     62      1 ;    1.1034e+02    3.6484e+02 ;   H136 - C61  - C60      HC -   CT - x   
    62     64     65      1 ;    1.1769e+02    3.5556e+02 ;    C60 - C58  - H138      x -    x - HC  
    62     64     66      1 ;    6.0000e+01    6.9881e+02 ;    C60 - C58  - C59       x -    x - x   
    62     64     69      1 ;    1.2076e+02    4.9112e+02 ;    C60 - C58  - C57       x -    x - CT  
    62     66     64      1 ;    6.0000e+01    6.9881e+02 ;    C60 - C59  - C58       x -    x - x   
    62     66     67      1 ;    1.1769e+02    3.5556e+02 ;    C60 - C59  - H139      x -    x - HC  
    62     66     68      1 ;    1.1769e+02    3.5556e+02 ;    C60 - C59  - H140      x -    x - HC  
    63     62     64      1 ;    1.1769e+02    3.5556e+02 ;   H137 - C60  - C58      HC -    x - x   
    63     62     66      1 ;    1.1769e+02    3.5556e+02 ;   H137 - C60  - C59      HC -    x - x   
    64     62     66      1 ;    6.0000e+01    6.9881e+02 ;    C58 - C60  - C59       x -    x - x   
    64     66     67      1 ;    1.1769e+02    3.5556e+02 ;    C58 - C59  - H139      x -    x - HC  
    64     66     68      1 ;    1.1769e+02    3.5556e+02 ;    C58 - C59  - H140      x -    x - HC  
    64     69     70      1 ;    1.1034e+02    3.6484e+02 ;    C58 - C57  - HH10      x -   CT - HC  
    64     69     71      1 ;    1.1034e+02    3.6484e+02 ;    C58 - C57  - H141      x -   CT - HC  
    64     69     72      1 ;    1.1277e+02    5.0367e+02 ;    C58 - C57  - C56       x -   CT - CT  
    65     64     66      1 ;    1.1769e+02    3.5556e+02 ;   H138 - C58  - C59      HC -    x - x   
    65     64     69      1 ;    1.1372e+02    3.5974e+02 ;   H138 - C58  - C57      HC -    x - CT  
    66     64     69      1 ;    1.2076e+02    4.9112e+02 ;    C59 - C58  - C57       x -    x - CT  
    67     66     68      1 ;    1.1443e+02    2.9330e+02 ;   H139 - C59  - H140     HC -    x - HC  
    69     72     73      1 ;    1.0968e+02    3.6208e+02 ;    C57 - C56  - H142     CT -   CT - HC  
    69     72     74      1 ;    1.0968e+02    3.6208e+02 ;    C57 - C56  - H143     CT -   CT - HC  
    69     72     75      1 ;    1.1263e+02    5.0099e+02 ;    C57 - C56  - C55      CT -   CT - CT  
    70     69     71      1 ;    1.0773e+02    2.9957e+02 ;   HH10 - C57  - H141     HC -   CT - HC  
    70     69     72      1 ;    1.0968e+02    3.6208e+02 ;   HH10 - C57  - C56      HC -   CT - CT  
    71     69     72      1 ;    1.0968e+02    3.6208e+02 ;   H141 - C57  - C56      HC -   CT - CT  
    72     75     76      1 ;    1.0968e+02    3.6208e+02 ;    C56 - C55  - H144     CT -   CT - HC  
    72     75     77      1 ;    1.0968e+02    3.6208e+02 ;    C56 - C55  - H145     CT -   CT - HC  
    72     75     78      1 ;    1.1263e+02    5.0099e+02 ;    C56 - C55  - C54      CT -   CT - CT  
    73     72     74      1 ;    1.0773e+02    2.9957e+02 ;   H142 - C56  - H143     HC -   CT - HC  
    73     72     75      1 ;    1.0968e+02    3.6208e+02 ;   H142 - C56  - C55      HC -   CT - CT  
    74     72     75      1 ;    1.0968e+02    3.6208e+02 ;   H143 - C56  - C55      HC -   CT - CT  
    75     78     79      1 ;    1.0968e+02    3.6208e+02 ;    C55 - C54  - H146     CT -   CT - HC  
    75     78     80      1 ;    1.0968e+02    3.6208e+02 ;    C55 - C54  - H147     CT -   CT - HC  
    75     78     81      1 ;    1.1263e+02    5.0099e+02 ;    C55 - C54  - C53      CT -   CT - CT  
    76     75     77      1 ;    1.0773e+02    2.9957e+02 ;   H144 - C55  - H145     HC -   CT - HC  
    76     75     78      1 ;    1.0968e+02    3.6208e+02 ;   H144 - C55  - C54      HC -   CT - CT  
    77     75     78      1 ;    1.0968e+02    3.6208e+02 ;   H145 - C55  - C54      HC -   CT - CT  
    78     81     82      1 ;    1.0968e+02    3.6208e+02 ;    C54 - C53  - H148     CT -   CT - HC  
    78     81     83      1 ;    1.0968e+02    3.6208e+02 ;    C54 - C53  - H149     CT -   CT - HC  
    78     81     84      1 ;    1.1263e+02    5.0099e+02 ;    C54 - C53  - C52      CT -   CT - CT  
    79     78     80      1 ;    1.0773e+02    2.9957e+02 ;   H146 - C54  - H147     HC -   CT - HC  
    79     78     81      1 ;    1.0968e+02    3.6208e+02 ;   H146 - C54  - C53      HC -   CT - CT  
    80     78     81      1 ;    1.0968e+02    3.6208e+02 ;   H147 - C54  - C53      HC -   CT - CT  
    81     84     85      1 ;    1.0968e+02    3.6208e+02 ;    C53 - C52  - H99      CT -   CT - HC  
    81     84     86      1 ;    1.0968e+02    3.6208e+02 ;    C53 - C52  - H150     CT -   CT - HC  
    81     84     87      1 ;    1.1263e+02    5.0099e+02 ;    C53 - C52  - C51      CT -   CT - CT  
    82     81     83      1 ;    1.0773e+02    2.9957e+02 ;   H148 - C53  - H149     HC -   CT - HC  
    82     81     84      1 ;    1.0968e+02    3.6208e+02 ;   H148 - C53  - C52      HC -   CT - CT  
    83     81     84      1 ;    1.0968e+02    3.6208e+02 ;   H149 - C53  - C52      HC -   CT - CT  
    84     87     88      1 ;    1.0968e+02    3.6208e+02 ;    C52 - C51  - H97      CT -   CT - HC  
    84     87     89      1 ;    1.0968e+02    3.6208e+02 ;    C52 - C51  - H98      CT -   CT - HC  
    84     87     90      1 ;    1.1263e+02    5.0099e+02 ;    C52 - C51  - C50      CT -   CT - CT  
    85     84     86      1 ;    1.0773e+02    2.9957e+02 ;    H99 - C52  - H150     HC -   CT - HC  
    85     84     87      1 ;    1.0968e+02    3.6208e+02 ;    H99 - C52  - C51      HC -   CT - CT  
    86     84     87      1 ;    1.0968e+02    3.6208e+02 ;   H150 - C52  - C51      HC -   CT - CT  
    87     90     91      1 ;    1.0968e+02    3.6208e+02 ;    C51 - C50  - H95      CT -   CT - HC  
    87     90     92      1 ;    1.0968e+02    3.6208e+02 ;    C51 - C50  - H96      CT -   CT - HC  
    87     90     93      1 ;    1.1263e+02    5.0099e+02 ;    C51 - C50  - C49      CT -   CT - CT  
    88     87     89      1 ;    1.0773e+02    2.9957e+02 ;    H97 - C51  - H98      HC -   CT - HC  
    88     87     90      1 ;    1.0968e+02    3.6208e+02 ;    H97 - C51  - C50      HC -   CT - CT  
    89     87     90      1 ;    1.0968e+02    3.6208e+02 ;    H98 - C51  - C50      HC -   CT - CT  
    90     93     94      1 ;    1.0968e+02    3.6208e+02 ;    C50 - C49  - H93      CT -   CT - HC  
    90     93     95      1 ;    1.0968e+02    3.6208e+02 ;    C50 - C49  - H94      CT -   CT - HC  
    90     93     96      1 ;    1.1263e+02    5.0099e+02 ;    C50 - C49  - C48      CT -   CT - CT  
    91     90     92      1 ;    1.0773e+02    2.9957e+02 ;    H95 - C50  - H96      HC -   CT - HC  
    91     90     93      1 ;    1.0968e+02    3.6208e+02 ;    H95 - C50  - C49      HC -   CT - CT  
    92     90     93      1 ;    1.0968e+02    3.6208e+02 ;    H96 - C50  - C49      HC -   CT - CT  
    93     96     97      1 ;    1.0968e+02    3.6208e+02 ;    C49 - C48  - H91      CT -   CT - HC  
    93     96     98      1 ;    1.0968e+02    3.6208e+02 ;    C49 - C48  - H92      CT -   CT - HC  
    93     96     99      1 ;    1.1263e+02    5.0099e+02 ;    C49 - C48  - C47      CT -   CT - CT  
    94     93     95      1 ;    1.0773e+02    2.9957e+02 ;    H93 - C49  - H94      HC -   CT - HC  
    94     93     96      1 ;    1.0968e+02    3.6208e+02 ;    H93 - C49  - C48      HC -   CT - CT  
    95     93     96      1 ;    1.0968e+02    3.6208e+02 ;    H94 - C49  - C48      HC -   CT - CT  
    96     99    100      1 ;    1.0968e+02    3.6208e+02 ;    C48 - C47  - H89      CT -   CT - HC  
    96     99    101      1 ;    1.0968e+02    3.6208e+02 ;    C48 - C47  - H90      CT -   CT - HC  
    96     99    102      1 ;    1.1263e+02    5.0099e+02 ;    C48 - C47  - C46      CT -   CT - CT  
    97     96     98      1 ;    1.0773e+02    2.9957e+02 ;    H91 - C48  - H92      HC -   CT - HC  
    97     96     99      1 ;    1.0968e+02    3.6208e+02 ;    H91 - C48  - C47      HC -   CT - CT  
    98     96     99      1 ;    1.0968e+02    3.6208e+02 ;    H92 - C48  - C47      HC -   CT - CT  
    99    102    103      1 ;    1.0968e+02    3.6208e+02 ;    C47 - C46  - H87      CT -   CT - HC  
    99    102    104      1 ;    1.0968e+02    3.6208e+02 ;    C47 - C46  - H88      CT -   CT - HC  
    99    102    105      1 ;    1.1263e+02    5.0099e+02 ;    C47 - C46  - C45      CT -   CT - CT  
   100     99    101      1 ;    1.0773e+02    2.9957e+02 ;    H89 - C47  - H90      HC -   CT - HC  
   100     99    102      1 ;    1.0968e+02    3.6208e+02 ;    H89 - C47  - C46      HC -   CT - CT  
   101     99    102      1 ;    1.0968e+02    3.6208e+02 ;    H90 - C47  - C46      HC -   CT - CT  
   102    105    106      1 ;    1.0968e+02    3.6208e+02 ;    C46 - C45  - H85      CT -   CT - HC  
   102    105    107      1 ;    1.0968e+02    3.6208e+02 ;    C46 - C45  - H86      CT -   CT - HC  
   102    105    108      1 ;    1.1263e+02    5.0099e+02 ;    C46 - C45  - C44      CT -   CT - CT  
   103    102    104      1 ;    1.0773e+02    2.9957e+02 ;    H87 - C46  - H88      HC -   CT - HC  
   103    102    105      1 ;    1.0968e+02    3.6208e+02 ;    H87 - C46  - C45      HC -   CT - CT  
   104    102    105      1 ;    1.0968e+02    3.6208e+02 ;    H88 - C46  - C45      HC -   CT - CT  
   105    108    109      1 ;    1.0968e+02    3.6208e+02 ;    C45 - C44  - H83      CT -   CT - HC  
   105    108    110      1 ;    1.0968e+02    3.6208e+02 ;    C45 - C44  - H84      CT -   CT - HC  
   105    108    111      1 ;    1.1277e+02    5.0367e+02 ;    C45 - C44  - C18      CT -   CT - x   
   106    105    107      1 ;    1.0773e+02    2.9957e+02 ;    H85 - C45  - H86      HC -   CT - HC  
   106    105    108      1 ;    1.0968e+02    3.6208e+02 ;    H85 - C45  - C44      HC -   CT - CT  
   107    105    108      1 ;    1.0968e+02    3.6208e+02 ;    H86 - C45  - C44      HC -   CT - CT  
   108    111    112      1 ;    1.1372e+02    3.5974e+02 ;    C44 - C18  - H31      CT -    x - HC  
   108    111    113      1 ;    1.2076e+02    4.9112e+02 ;    C44 - C18  - C17      CT -    x - x   
   108    111    115      1 ;    1.2076e+02    4.9112e+02 ;    C44 - C18  - C19      CT -    x - x   
   109    108    110      1 ;    1.0773e+02    2.9957e+02 ;    H83 - C44  - H84      HC -   CT - HC  
   109    108    111      1 ;    1.1034e+02    3.6484e+02 ;    H83 - C44  - C18      HC -   CT - x   
   110    108    111      1 ;    1.1034e+02    3.6484e+02 ;    H84 - C44  - C18      HC -   CT - x   
   111    113    114      1 ;    1.1769e+02    3.5556e+02 ;    C18 - C17  - H30       x -    x - HC  
   111    113    115      1 ;    6.0000e+01    6.9881e+02 ;    C18 - C17  - C19       x -    x - x   
   111    113    118      1 ;    1.2076e+02    4.9112e+02 ;    C18 - C17  - C16       x -    x - CT  
   111    115    113      1 ;    6.0000e+01    6.9881e+02 ;    C18 - C19  - C17       x -    x - x   
   111    115    116      1 ;    1.1769e+02    3.5556e+02 ;    C18 - C19  - H32       x -    x - HC  
   111    115    117      1 ;    1.1769e+02    3.5556e+02 ;    C18 - C19  - H33       x -    x - HC  
   112    111    113      1 ;    1.1769e+02    3.5556e+02 ;    H31 - C18  - C17      HC -    x - x   
   112    111    115      1 ;    1.1769e+02    3.5556e+02 ;    H31 - C18  - C19      HC -    x - x   
   113    111    115      1 ;    6.0000e+01    6.9881e+02 ;    C17 - C18  - C19       x -    x - x   
   113    115    116      1 ;    1.1769e+02    3.5556e+02 ;    C17 - C19  - H32       x -    x - HC  
   113    115    117      1 ;    1.1769e+02    3.5556e+02 ;    C17 - C19  - H33       x -    x - HC  
   113    118    119      1 ;    1.1034e+02    3.6484e+02 ;    C17 - C16  - H28       x -   CT - HC  
   113    118    120      1 ;    1.1034e+02    3.6484e+02 ;    C17 - C16  - H29       x -   CT - HC  
   113    118    121      1 ;    1.1277e+02    5.0367e+02 ;    C17 - C16  - C15       x -   CT - CT  
   114    113    115      1 ;    1.1769e+02    3.5556e+02 ;    H30 - C17  - C19      HC -    x - x   
   114    113    118      1 ;    1.1372e+02    3.5974e+02 ;    H30 - C17  - C16      HC -    x - CT  
   115    113    118      1 ;    1.2076e+02    4.9112e+02 ;    C19 - C17  - C16       x -    x - CT  
   116    115    117      1 ;    1.1443e+02    2.9330e+02 ;    H32 - C19  - H33      HC -    x - HC  
   118    121    122      1 ;    1.0968e+02    3.6208e+02 ;    C16 - C15  - H26      CT -   CT - HC  
   118    121    123      1 ;    1.0968e+02    3.6208e+02 ;    C16 - C15  - H27      CT -   CT - HC  
   118    121    124      1 ;    1.1263e+02    5.0099e+02 ;    C16 - C15  - C14      CT -   CT - CT  
   119    118    120      1 ;    1.0773e+02    2.9957e+02 ;    H28 - C16  - H29      HC -   CT - HC  
   119    118    121      1 ;    1.0968e+02    3.6208e+02 ;    H28 - C16  - C15      HC -   CT - CT  
   120    118    121      1 ;    1.0968e+02    3.6208e+02 ;    H29 - C16  - C15      HC -   CT - CT  
   121    124    125      1 ;    1.0968e+02    3.6208e+02 ;    C15 - C14  - H24      CT -   CT - HC  
   121    124    126      1 ;    1.0968e+02    3.6208e+02 ;    C15 - C14  - H25      CT -   CT - HC  
   121    124    127      1 ;    1.1263e+02    5.0099e+02 ;    C15 - C14  - C13      CT -   CT - CT  
   122    121    123      1 ;    1.0773e+02    2.9957e+02 ;    H26 - C15  - H27      HC -   CT - HC  
   122    121    124      1 ;    1.0968e+02    3.6208e+02 ;    H26 - C15  - C14      HC -   CT - CT  
   123    121    124      1 ;    1.0968e+02    3.6208e+02 ;    H27 - C15  - C14      HC -   CT - CT  
   124    127    128      1 ;    1.0968e+02    3.6208e+02 ;    C14 - C13  - H22      CT -   CT - HC  
   124    127    129      1 ;    1.0968e+02    3.6208e+02 ;    C14 - C13  - H23      CT -   CT - HC  
   124    127    130      1 ;    1.1263e+02    5.0099e+02 ;    C14 - C13  - C12      CT -   CT - CT  
   125    124    126      1 ;    1.0773e+02    2.9957e+02 ;    H24 - C14  - H25      HC -   CT - HC  
   125    124    127      1 ;    1.0968e+02    3.6208e+02 ;    H24 - C14  - C13      HC -   CT - CT  
   126    124    127      1 ;    1.0968e+02    3.6208e+02 ;    H25 - C14  - C13      HC -   CT - CT  
   127    130    131      1 ;    1.0968e+02    3.6208e+02 ;    C13 - C12  - H20      CT -   CT - HC  
   127    130    132      1 ;    1.0968e+02    3.6208e+02 ;    C13 - C12  - H21      CT -   CT - HC  
   127    130    133      1 ;    1.1263e+02    5.0099e+02 ;    C13 - C12  - C11      CT -   CT - CT  
   128    127    129      1 ;    1.0773e+02    2.9957e+02 ;    H22 - C13  - H23      HC -   CT - HC  
   128    127    130      1 ;    1.0968e+02    3.6208e+02 ;    H22 - C13  - C12      HC -   CT - CT  
   129    127    130      1 ;    1.0968e+02    3.6208e+02 ;    H23 - C13  - C12      HC -   CT - CT  
   130    133    134      1 ;    1.0968e+02    3.6208e+02 ;    C12 - C11  - H18      CT -   CT - HC  
   130    133    135      1 ;    1.0968e+02    3.6208e+02 ;    C12 - C11  - H19      CT -   CT - HC  
   130    133    136      1 ;    1.1263e+02    5.0099e+02 ;    C12 - C11  - C10      CT -   CT - CT  
   131    130    132      1 ;    1.0773e+02    2.9957e+02 ;    H20 - C12  - H21      HC -   CT - HC  
   131    130    133      1 ;    1.0968e+02    3.6208e+02 ;    H20 - C12  - C11      HC -   CT - CT  
   132    130    133      1 ;    1.0968e+02    3.6208e+02 ;    H21 - C12  - C11      HC -   CT - CT  
   133    136    137      1 ;    1.0968e+02    3.6208e+02 ;    C11 - C10  - H16      CT -   CT - HC  
   133    136    138      1 ;    1.0968e+02    3.6208e+02 ;    C11 - C10  - H17      CT -   CT - HC  
   133    136    139      1 ;    1.1263e+02    5.0099e+02 ;    C11 - C10  - C9       CT -   CT - CT  
   134    133    135      1 ;    1.0773e+02    2.9957e+02 ;    H18 - C11  - H19      HC -   CT - HC  
   134    133    136      1 ;    1.0968e+02    3.6208e+02 ;    H18 - C11  - C10      HC -   CT - CT  
   135    133    136      1 ;    1.0968e+02    3.6208e+02 ;    H19 - C11  - C10      HC -   CT - CT  
   136    139    140      1 ;    1.0968e+02    3.6208e+02 ;    C10 - C9   - H14      CT -   CT - HC  
   136    139    141      1 ;    1.0968e+02    3.6208e+02 ;    C10 - C9   - H15      CT -   CT - HC  
   136    139    142      1 ;    1.1263e+02    5.0099e+02 ;    C10 - C9   - C8       CT -   CT - CT  
   137    136    138      1 ;    1.0773e+02    2.9957e+02 ;    H16 - C10  - H17      HC -   CT - HC  
   137    136    139      1 ;    1.0968e+02    3.6208e+02 ;    H16 - C10  - C9       HC -   CT - CT  
   138    136    139      1 ;    1.0968e+02    3.6208e+02 ;    H17 - C10  - C9       HC -   CT - CT  
   139    142    143      1 ;    1.0968e+02    3.6208e+02 ;     C9 - C8   - H12      CT -   CT - HC  
   139    142    144      1 ;    1.0968e+02    3.6208e+02 ;     C9 - C8   - H13      CT -   CT - HC  
   139    142    145      1 ;    1.1263e+02    5.0099e+02 ;     C9 - C8   - C7       CT -   CT - CT  
   140    139    141      1 ;    1.0773e+02    2.9957e+02 ;    H14 - C9   - H15      HC -   CT - HC  
   140    139    142      1 ;    1.0968e+02    3.6208e+02 ;    H14 - C9   - C8       HC -   CT - CT  
   141    139    142      1 ;    1.0968e+02    3.6208e+02 ;    H15 - C9   - C8       HC -   CT - CT  
   142    145    146      1 ;    1.0968e+02    3.6208e+02 ;     C8 - C7   - H10      CT -   CT - HC  
   142    145    147      1 ;    1.0968e+02    3.6208e+02 ;     C8 - C7   - H11      CT -   CT - HC  
   142    145    148      1 ;    1.1263e+02    5.0099e+02 ;     C8 - C7   - C6       CT -   CT - CT  
   143    142    144      1 ;    1.0773e+02    2.9957e+02 ;    H12 - C8   - H13      HC -   CT - HC  
   143    142    145      1 ;    1.0968e+02    3.6208e+02 ;    H12 - C8   - C7       HC -   CT - CT  
   144    142    145      1 ;    1.0968e+02    3.6208e+02 ;    H13 - C8   - C7       HC -   CT - CT  
   145    148    149      1 ;    1.0968e+02    3.6208e+02 ;     C7 - C6   - H8       CT -   CT - HC  
   145    148    150      1 ;    1.0968e+02    3.6208e+02 ;     C7 - C6   - H9       CT -   CT - HC  
   145    148    151      1 ;    1.1263e+02    5.0099e+02 ;     C7 - C6   - C5       CT -   CT - CT  
   146    145    147      1 ;    1.0773e+02    2.9957e+02 ;    H10 - C7   - H11      HC -   CT - HC  
   146    145    148      1 ;    1.0968e+02    3.6208e+02 ;    H10 - C7   - C6       HC -   CT - CT  
   147    145    148      1 ;    1.0968e+02    3.6208e+02 ;    H11 - C7   - C6       HC -   CT - CT  
   148    151    152      1 ;    1.0968e+02    3.6208e+02 ;     C6 - C5   - H6       CT -   CT - HC  
   148    151    153      1 ;    1.0968e+02    3.6208e+02 ;     C6 - C5   - H7       CT -   CT - HC  
   148    151    154      1 ;    1.1263e+02    5.0099e+02 ;     C6 - C5   - C4       CT -   CT - CT  
   149    148    150      1 ;    1.0773e+02    2.9957e+02 ;     H8 - C6   - H9       HC -   CT - HC  
   149    148    151      1 ;    1.0968e+02    3.6208e+02 ;     H8 - C6   - C5       HC -   CT - CT  
   150    148    151      1 ;    1.0968e+02    3.6208e+02 ;     H9 - C6   - C5       HC -   CT - CT  
   151    154    155      1 ;    1.0968e+02    3.6208e+02 ;     C5 - C4   - H4       CT -   CT - HC  
   151    154    156      1 ;    1.0968e+02    3.6208e+02 ;     C5 - C4   - H5       CT -   CT - HC  
   151    154    157      1 ;    1.1263e+02    5.0099e+02 ;     C5 - C4   - C2       CT -   CT - CT  
   152    151    153      1 ;    1.0773e+02    2.9957e+02 ;     H6 - C5   - H7       HC -   CT - HC  
   152    151    154      1 ;    1.0968e+02    3.6208e+02 ;     H6 - C5   - C4       HC -   CT - CT  
   153    151    154      1 ;    1.0968e+02    3.6208e+02 ;     H7 - C5   - C4       HC -   CT - CT  
   154    157    158      1 ;    1.0959e+02    3.6217e+02 ;     C4 - C2   - H2       CT -   CT - HC  
   154    157    159      1 ;    1.0966e+02    6.4258e+02 ;     C4 - C2   - O3       CT -   CT - OH  
   154    157    161      1 ;    1.1263e+02    5.0099e+02 ;     C4 - C2   - C1       CT -   CT - CT  
   155    154    156      1 ;    1.0773e+02    2.9957e+02 ;     H4 - C4   - H5       HC -   CT - HC  
   155    154    157      1 ;    1.0968e+02    3.6208e+02 ;     H4 - C4   - C2       HC -   CT - CT  
   156    154    157      1 ;    1.0968e+02    3.6208e+02 ;     H5 - C4   - C2       HC -   CT - CT  
   157    159    160      1 ;    1.0739e+02    5.4501e+02 ;     C2 - O3   - H3       CT -   OH - HO  
   157    161    162      1 ;    1.0968e+02    3.6208e+02 ;     C2 - C1   - H1       CT -   CT - HC  
   157    161    163      1 ;    1.1143e+02    5.0509e+02 ;     C2 - C1   - C81      CT -   CT - C   
   157    161    167      1 ;    1.1263e+02    5.0099e+02 ;     C2 - C1   - C20      CT -   CT - CT  
   158    157    159      1 ;    1.1038e+02    4.7103e+02 ;     H2 - C2   - O3       HC -   CT - OH  
   158    157    161      1 ;    1.0959e+02    3.6217e+02 ;     H2 - C2   - C1       HC -   CT - CT  
   159    157    161      1 ;    1.0966e+02    6.4258e+02 ;     O3 - C2   - C1       OH -   CT - CT  
   161    163    164      1 ;    1.2290e+02    6.3973e+02 ;     C1 - C81  - O82      CT -    C - O   
   161    163    165      1 ;    1.1274e+02    6.4785e+02 ;     C1 - C81  - O83      CT -    C - OH  
   161    167    168      1 ;    1.0968e+02    3.6208e+02 ;     C1 - C20  - H34      CT -   CT - HC  
   161    167    169      1 ;    1.0968e+02    3.6208e+02 ;     C1 - C20  - H35      CT -   CT - HC  
   161    167    170      1 ;    1.1263e+02    5.0099e+02 ;     C1 - C20  - C21      CT -   CT - CT  
   162    161    163      1 ;    1.0895e+02    3.6510e+02 ;     H1 - C1   - C81      HC -   CT - C   
   162    161    167      1 ;    1.0968e+02    3.6208e+02 ;     H1 - C1   - C20      HC -   CT - CT  
   163    161    167      1 ;    1.1143e+02    5.0509e+02 ;    C81 - C1   - C20       C -   CT - CT  
   163    165    166      1 ;    1.0654e+02    5.7287e+02 ;    C81 - O83  - H105      C -   OH - HO  
   164    163    165      1 ;    1.2209e+02    8.5379e+02 ;    O82 - C81  - O83       O -    C - OH  
   167    170    171      1 ;    1.0968e+02    3.6208e+02 ;    C20 - C21  - H36      CT -   CT - HC  
   167    170    172      1 ;    1.0968e+02    3.6208e+02 ;    C20 - C21  - H37      CT -   CT - HC  
   167    170    173      1 ;    1.1263e+02    5.0099e+02 ;    C20 - C21  - C22      CT -   CT - CT  
   168    167    169      1 ;    1.0773e+02    2.9957e+02 ;    H34 - C20  - H35      HC -   CT - HC  
   168    167    170      1 ;    1.0968e+02    3.6208e+02 ;    H34 - C20  - C21      HC -   CT - CT  
   169    167    170      1 ;    1.0968e+02    3.6208e+02 ;    H35 - C20  - C21      HC -   CT - CT  
   170    173    174      1 ;    1.0968e+02    3.6208e+02 ;    C21 - C22  - H38      CT -   CT - HC  
   170    173    175      1 ;    1.0968e+02    3.6208e+02 ;    C21 - C22  - H39      CT -   CT - HC  
   170    173    176      1 ;    1.1263e+02    5.0099e+02 ;    C21 - C22  - C23      CT -   CT - CT  
   171    170    172      1 ;    1.0773e+02    2.9957e+02 ;    H36 - C21  - H37      HC -   CT - HC  
   171    170    173      1 ;    1.0968e+02    3.6208e+02 ;    H36 - C21  - C22      HC -   CT - CT  
   172    170    173      1 ;    1.0968e+02    3.6208e+02 ;    H37 - C21  - C22      HC -   CT - CT  
   173    176    177      1 ;    1.0968e+02    3.6208e+02 ;    C22 - C23  - H40      CT -   CT - HC  
   173    176    178      1 ;    1.0968e+02    3.6208e+02 ;    C22 - C23  - H41      CT -   CT - HC  
   173    176    179      1 ;    1.1263e+02    5.0099e+02 ;    C22 - C23  - C24      CT -   CT - CT  
   174    173    175      1 ;    1.0773e+02    2.9957e+02 ;    H38 - C22  - H39      HC -   CT - HC  
   174    173    176      1 ;    1.0968e+02    3.6208e+02 ;    H38 - C22  - C23      HC -   CT - CT  
   175    173    176      1 ;    1.0968e+02    3.6208e+02 ;    H39 - C22  - C23      HC -   CT - CT  
   176    179    180      1 ;    1.0968e+02    3.6208e+02 ;    C23 - C24  - H42      CT -   CT - HC  
   176    179    181      1 ;    1.0968e+02    3.6208e+02 ;    C23 - C24  - H43      CT -   CT - HC  
   176    179    182      1 ;    1.1263e+02    5.0099e+02 ;    C23 - C24  - C25      CT -   CT - CT  
   177    176    178      1 ;    1.0773e+02    2.9957e+02 ;    H40 - C23  - H41      HC -   CT - HC  
   177    176    179      1 ;    1.0968e+02    3.6208e+02 ;    H40 - C23  - C24      HC -   CT - CT  
   178    176    179      1 ;    1.0968e+02    3.6208e+02 ;    H41 - C23  - C24      HC -   CT - CT  
   179    182    183      1 ;    1.0968e+02    3.6208e+02 ;    C24 - C25  - H44      CT -   CT - HC  
   179    182    184      1 ;    1.0968e+02    3.6208e+02 ;    C24 - C25  - H45      CT -   CT - HC  
   179    182    185      1 ;    1.1263e+02    5.0099e+02 ;    C24 - C25  - C26      CT -   CT - CT  
   180    179    181      1 ;    1.0773e+02    2.9957e+02 ;    H42 - C24  - H43      HC -   CT - HC  
   180    179    182      1 ;    1.0968e+02    3.6208e+02 ;    H42 - C24  - C25      HC -   CT - CT  
   181    179    182      1 ;    1.0968e+02    3.6208e+02 ;    H43 - C24  - C25      HC -   CT - CT  
   182    185    186      1 ;    1.0968e+02    3.6208e+02 ;    C25 - C26  - H46      CT -   CT - HC  
   182    185    187      1 ;    1.0968e+02    3.6208e+02 ;    C25 - C26  - H47      CT -   CT - HC  
   182    185    188      1 ;    1.1263e+02    5.0099e+02 ;    C25 - C26  - C27      CT -   CT - CT  
   183    182    184      1 ;    1.0773e+02    2.9957e+02 ;    H44 - C25  - H45      HC -   CT - HC  
   183    182    185      1 ;    1.0968e+02    3.6208e+02 ;    H44 - C25  - C26      HC -   CT - CT  
   184    182    185      1 ;    1.0968e+02    3.6208e+02 ;    H45 - C25  - C26      HC -   CT - CT  
   185    188    189      1 ;    1.0968e+02    3.6208e+02 ;    C26 - C27  - H48      CT -   CT - HC  
   185    188    190      1 ;    1.0968e+02    3.6208e+02 ;    C26 - C27  - H49      CT -   CT - HC  
   185    188    191      1 ;    1.1263e+02    5.0099e+02 ;    C26 - C27  - C28      CT -   CT - CT  
   186    185    187      1 ;    1.0773e+02    2.9957e+02 ;    H46 - C26  - H47      HC -   CT - HC  
   186    185    188      1 ;    1.0968e+02    3.6208e+02 ;    H46 - C26  - C27      HC -   CT - CT  
   187    185    188      1 ;    1.0968e+02    3.6208e+02 ;    H47 - C26  - C27      HC -   CT - CT  
   188    191    192      1 ;    1.0968e+02    3.6208e+02 ;    C27 - C28  - H50      CT -   CT - HC  
   188    191    193      1 ;    1.0968e+02    3.6208e+02 ;    C27 - C28  - H51      CT -   CT - HC  
   188    191    194      1 ;    1.1263e+02    5.0099e+02 ;    C27 - C28  - C29      CT -   CT - CT  
   189    188    190      1 ;    1.0773e+02    2.9957e+02 ;    H48 - C27  - H49      HC -   CT - HC  
   189    188    191      1 ;    1.0968e+02    3.6208e+02 ;    H48 - C27  - C28      HC -   CT - CT  
   190    188    191      1 ;    1.0968e+02    3.6208e+02 ;    H49 - C27  - C28      HC -   CT - CT  
   191    194    195      1 ;    1.0968e+02    3.6208e+02 ;    C28 - C29  - H52      CT -   CT - HC  
   191    194    196      1 ;    1.0968e+02    3.6208e+02 ;    C28 - C29  - H53      CT -   CT - HC  
   191    194    197      1 ;    1.1263e+02    5.0099e+02 ;    C28 - C29  - C30      CT -   CT - CT  
   192    191    193      1 ;    1.0773e+02    2.9957e+02 ;    H50 - C28  - H51      HC -   CT - HC  
   192    191    194      1 ;    1.0968e+02    3.6208e+02 ;    H50 - C28  - C29      HC -   CT - CT  
   193    191    194      1 ;    1.0968e+02    3.6208e+02 ;    H51 - C28  - C29      HC -   CT - CT  
   194    197    198      1 ;    1.0968e+02    3.6208e+02 ;    C29 - C30  - H54      CT -   CT - HC  
   194    197    199      1 ;    1.0968e+02    3.6208e+02 ;    C29 - C30  - H55      CT -   CT - HC  
   194    197    200      1 ;    1.1263e+02    5.0099e+02 ;    C29 - C30  - C31      CT -   CT - CT  
   195    194    196      1 ;    1.0773e+02    2.9957e+02 ;    H52 - C29  - H53      HC -   CT - HC  
   195    194    197      1 ;    1.0968e+02    3.6208e+02 ;    H52 - C29  - C30      HC -   CT - CT  
   196    194    197      1 ;    1.0968e+02    3.6208e+02 ;    H53 - C29  - C30      HC -   CT - CT  
   197    200    201      1 ;    1.0968e+02    3.6208e+02 ;    C30 - C31  - H56      CT -   CT - HC  
   197    200    202      1 ;    1.0968e+02    3.6208e+02 ;    C30 - C31  - H57      CT -   CT - HC  
   197    200    203      1 ;    1.1263e+02    5.0099e+02 ;    C30 - C31  - C32      CT -   CT - CT  
   198    197    199      1 ;    1.0773e+02    2.9957e+02 ;    H54 - C30  - H55      HC -   CT - HC  
   198    197    200      1 ;    1.0968e+02    3.6208e+02 ;    H54 - C30  - C31      HC -   CT - CT  
   199    197    200      1 ;    1.0968e+02    3.6208e+02 ;    H55 - C30  - C31      HC -   CT - CT  
   200    203    204      1 ;    1.0968e+02    3.6208e+02 ;    C31 - C32  - H58      CT -   CT - HC  
   200    203    205      1 ;    1.0968e+02    3.6208e+02 ;    C31 - C32  - H59      CT -   CT - HC  
   200    203    206      1 ;    1.1263e+02    5.0099e+02 ;    C31 - C32  - C33      CT -   CT - CT  
   201    200    202      1 ;    1.0773e+02    2.9957e+02 ;    H56 - C31  - H57      HC -   CT - HC  
   201    200    203      1 ;    1.0968e+02    3.6208e+02 ;    H56 - C31  - C32      HC -   CT - CT  
   202    200    203      1 ;    1.0968e+02    3.6208e+02 ;    H57 - C31  - C32      HC -   CT - CT  
   203    206    207      1 ;    1.0968e+02    3.6208e+02 ;    C32 - C33  - H60      CT -   CT - HC  
   203    206    208      1 ;    1.0968e+02    3.6208e+02 ;    C32 - C33  - H61      CT -   CT - HC  
   203    206    209      1 ;    1.1263e+02    5.0099e+02 ;    C32 - C33  - C34      CT -   CT - CT  
   204    203    205      1 ;    1.0773e+02    2.9957e+02 ;    H58 - C32  - H59      HC -   CT - HC  
   204    203    206      1 ;    1.0968e+02    3.6208e+02 ;    H58 - C32  - C33      HC -   CT - CT  
   205    203    206      1 ;    1.0968e+02    3.6208e+02 ;    H59 - C32  - C33      HC -   CT - CT  
   206    209    210      1 ;    1.0968e+02    3.6208e+02 ;    C33 - C34  - H62      CT -   CT - HC  
   206    209    211      1 ;    1.0968e+02    3.6208e+02 ;    C33 - C34  - H63      CT -   CT - HC  
   206    209    212      1 ;    1.1263e+02    5.0099e+02 ;    C33 - C34  - C35      CT -   CT - CT  
   207    206    208      1 ;    1.0773e+02    2.9957e+02 ;    H60 - C33  - H61      HC -   CT - HC  
   207    206    209      1 ;    1.0968e+02    3.6208e+02 ;    H60 - C33  - C34      HC -   CT - CT  
   208    206    209      1 ;    1.0968e+02    3.6208e+02 ;    H61 - C33  - C34      HC -   CT - CT  
   209    212    213      1 ;    1.0968e+02    3.6208e+02 ;    C34 - C35  - H64      CT -   CT - HC  
   209    212    214      1 ;    1.0968e+02    3.6208e+02 ;    C34 - C35  - H65      CT -   CT - HC  
   209    212    215      1 ;    1.1263e+02    5.0099e+02 ;    C34 - C35  - C36      CT -   CT - CT  
   210    209    211      1 ;    1.0773e+02    2.9957e+02 ;    H62 - C34  - H63      HC -   CT - HC  
   210    209    212      1 ;    1.0968e+02    3.6208e+02 ;    H62 - C34  - C35      HC -   CT - CT  
   211    209    212      1 ;    1.0968e+02    3.6208e+02 ;    H63 - C34  - C35      HC -   CT - CT  
   212    215    216      1 ;    1.0968e+02    3.6208e+02 ;    C35 - C36  - H66      CT -   CT - HC  
   212    215    217      1 ;    1.0968e+02    3.6208e+02 ;    C35 - C36  - H67      CT -   CT - HC  
   212    215    218      1 ;    1.1263e+02    5.0099e+02 ;    C35 - C36  - C37      CT -   CT - CT  
   213    212    214      1 ;    1.0773e+02    2.9957e+02 ;    H64 - C35  - H65      HC -   CT - HC  
   213    212    215      1 ;    1.0968e+02    3.6208e+02 ;    H64 - C35  - C36      HC -   CT - CT  
   214    212    215      1 ;    1.0968e+02    3.6208e+02 ;    H65 - C35  - C36      HC -   CT - CT  
   215    218    219      1 ;    1.0968e+02    3.6208e+02 ;    C36 - C37  - H68      CT -   CT - HC  
   215    218    220      1 ;    1.0968e+02    3.6208e+02 ;    C36 - C37  - H69      CT -   CT - HC  
   215    218    221      1 ;    1.1263e+02    5.0099e+02 ;    C36 - C37  - C38      CT -   CT - CT  
   216    215    217      1 ;    1.0773e+02    2.9957e+02 ;    H66 - C36  - H67      HC -   CT - HC  
   216    215    218      1 ;    1.0968e+02    3.6208e+02 ;    H66 - C36  - C37      HC -   CT - CT  
   217    215    218      1 ;    1.0968e+02    3.6208e+02 ;    H67 - C36  - C37      HC -   CT - CT  
   218    221    222      1 ;    1.0968e+02    3.6208e+02 ;    C37 - C38  - H70      CT -   CT - HC  
   218    221    223      1 ;    1.0968e+02    3.6208e+02 ;    C37 - C38  - H71      CT -   CT - HC  
   218    221    224      1 ;    1.1263e+02    5.0099e+02 ;    C37 - C38  - C39      CT -   CT - CT  
   219    218    220      1 ;    1.0773e+02    2.9957e+02 ;    H68 - C37  - H69      HC -   CT - HC  
   219    218    221      1 ;    1.0968e+02    3.6208e+02 ;    H68 - C37  - C38      HC -   CT - CT  
   220    218    221      1 ;    1.0968e+02    3.6208e+02 ;    H69 - C37  - C38      HC -   CT - CT  
   221    224    225      1 ;    1.0968e+02    3.6208e+02 ;    C38 - C39  - H72      CT -   CT - HC  
   221    224    226      1 ;    1.0968e+02    3.6208e+02 ;    C38 - C39  - H73      CT -   CT - HC  
   221    224    227      1 ;    1.1263e+02    5.0099e+02 ;    C38 - C39  - C40      CT -   CT - CT  
   222    221    223      1 ;    1.0773e+02    2.9957e+02 ;    H70 - C38  - H71      HC -   CT - HC  
   222    221    224      1 ;    1.0968e+02    3.6208e+02 ;    H70 - C38  - C39      HC -   CT - CT  
   223    221    224      1 ;    1.0968e+02    3.6208e+02 ;    H71 - C38  - C39      HC -   CT - CT  
   224    227    228      1 ;    1.0968e+02    3.6208e+02 ;    C39 - C40  - H74      CT -   CT - HC  
   224    227    229      1 ;    1.0968e+02    3.6208e+02 ;    C39 - C40  - H75      CT -   CT - HC  
   224    227    230      1 ;    1.1263e+02    5.0099e+02 ;    C39 - C40  - C41      CT -   CT - CT  
   225    224    226      1 ;    1.0773e+02    2.9957e+02 ;    H72 - C39  - H73      HC -   CT - HC  
   225    224    227      1 ;    1.0968e+02    3.6208e+02 ;    H72 - C39  - C40      HC -   CT - CT  
   226    224    227      1 ;    1.0968e+02    3.6208e+02 ;    H73 - C39  - C40      HC -   CT - CT  
   227    230    231      1 ;    1.0968e+02    3.6208e+02 ;    C40 - C41  - H76      CT -   CT - HC  
   227    230    232      1 ;    1.0968e+02    3.6208e+02 ;    C40 - C41  - H77      CT -   CT - HC  
   227    230    233      1 ;    1.1263e+02    5.0099e+02 ;    C40 - C41  - C42      CT -   CT - CT  
   228    227    229      1 ;    1.0773e+02    2.9957e+02 ;    H74 - C40  - H75      HC -   CT - HC  
   228    227    230      1 ;    1.0968e+02    3.6208e+02 ;    H74 - C40  - C41      HC -   CT - CT  
   229    227    230      1 ;    1.0968e+02    3.6208e+02 ;    H75 - C40  - C41      HC -   CT - CT  
   230    233    234      1 ;    1.0968e+02    3.6208e+02 ;    C41 - C42  - H78      CT -   CT - HC  
   230    233    235      1 ;    1.0968e+02    3.6208e+02 ;    C41 - C42  - H79      CT -   CT - HC  
   230    233    236      1 ;    1.1263e+02    5.0099e+02 ;    C41 - C42  - C43      CT -   CT - CT  
   231    230    232      1 ;    1.0773e+02    2.9957e+02 ;    H76 - C41  - H77      HC -   CT - HC  
   231    230    233      1 ;    1.0968e+02    3.6208e+02 ;    H76 - C41  - C42      HC -   CT - CT  
   232    230    233      1 ;    1.0968e+02    3.6208e+02 ;    H77 - C41  - C42      HC -   CT - CT  
   233    236    237      1 ;    1.0968e+02    3.6208e+02 ;    C42 - C43  - H80      CT -   CT - HC  
   233    236    238      1 ;    1.0968e+02    3.6208e+02 ;    C42 - C43  - H81      CT -   CT - HC  
   233    236    239      1 ;    1.0968e+02    3.6208e+02 ;    C42 - C43  - H82      CT -   CT - HC  
   234    233    235      1 ;    1.0773e+02    2.9957e+02 ;    H78 - C42  - H79      HC -   CT - HC  
   234    233    236      1 ;    1.0968e+02    3.6208e+02 ;    H78 - C42  - C43      HC -   CT - CT  
   235    233    236      1 ;    1.0968e+02    3.6208e+02 ;    H79 - C42  - C43      HC -   CT - CT  
   237    236    238      1 ;    1.0773e+02    2.9957e+02 ;    H80 - C43  - H81      HC -   CT - HC  
   237    236    239      1 ;    1.0773e+02    2.9957e+02 ;    H80 - C43  - H82      HC -   CT - HC  
   238    236    239      1 ;    1.0773e+02    2.9957e+02 ;    H81 - C43  - H82      HC -   CT - HC  

[ dihedrals ] ; propers
; for gromacs 4.5 or higher, using funct 9
;    i      j      k      l   func   phase     kd      pn
     1      2      5      6      9 ;     0.00   0.50208   3 ;   HH15-   C80-   C79-  H102
     1      2      5      7      9 ;     0.00   0.50208   3 ;   HH15-   C80-   C79-  H103
     1      2      5      8      9 ;     0.00   0.54392   3 ;   HH15-   C80-   C79-   C78
     2      5      8      9      9 ;     0.00   0.54392   3 ;    C80-   C79-   C78-  HH14
     2      5      8     10      9 ;     0.00   0.54392   3 ;    C80-   C79-   C78-  H104
     2      5      8     11      9 ;     0.00   2.17568   3 ;    C80-   C79-   C78-   C77
     3      2      5      6      9 ;     0.00   0.50208   3 ;   H100-   C80-   C79-  H102
     3      2      5      7      9 ;     0.00   0.50208   3 ;   H100-   C80-   C79-  H103
     3      2      5      8      9 ;     0.00   0.54392   3 ;   H100-   C80-   C79-   C78
     4      2      5      6      9 ;     0.00   0.50208   3 ;   H101-   C80-   C79-  H102
     4      2      5      7      9 ;     0.00   0.50208   3 ;   H101-   C80-   C79-  H103
     4      2      5      8      9 ;     0.00   0.54392   3 ;   H101-   C80-   C79-   C78
     5      8     11     12      9 ;     0.00   0.54392   3 ;    C79-   C78-   C77-  H106
     5      8     11     13      9 ;     0.00   0.54392   3 ;    C79-   C78-   C77-  H107
     5      8     11     14      9 ;     0.00   2.17568   3 ;    C79-   C78-   C77-   C76
     6      5      8      9      9 ;     0.00   0.50208   3 ;   H102-   C79-   C78-  HH14
     6      5      8     10      9 ;     0.00   0.50208   3 ;   H102-   C79-   C78-  H104
     6      5      8     11      9 ;     0.00   0.54392   3 ;   H102-   C79-   C78-   C77
     7      5      8      9      9 ;     0.00   0.50208   3 ;   H103-   C79-   C78-  HH14
     7      5      8     10      9 ;     0.00   0.50208   3 ;   H103-   C79-   C78-  H104
     7      5      8     11      9 ;     0.00   0.54392   3 ;   H103-   C79-   C78-   C77
     8     11     14     15      9 ;     0.00   0.54392   3 ;    C78-   C77-   C76-  H108
     8     11     14     16      9 ;     0.00   0.54392   3 ;    C78-   C77-   C76-  H109
     8     11     14     17      9 ;     0.00   2.17568   3 ;    C78-   C77-   C76-   C75
     9      8     11     12      9 ;     0.00   0.50208   3 ;   HH14-   C78-   C77-  H106
     9      8     11     13      9 ;     0.00   0.50208   3 ;   HH14-   C78-   C77-  H107
     9      8     11     14      9 ;     0.00   0.54392   3 ;   HH14-   C78-   C77-   C76
    10      8     11     12      9 ;     0.00   0.50208   3 ;   H104-   C78-   C77-  H106
    10      8     11     13      9 ;     0.00   0.50208   3 ;   H104-   C78-   C77-  H107
    10      8     11     14      9 ;     0.00   0.54392   3 ;   H104-   C78-   C77-   C76
    11     14     17     18      9 ;     0.00   0.54392   3 ;    C77-   C76-   C75-  H110
    11     14     17     19      9 ;     0.00   0.54392   3 ;    C77-   C76-   C75-  H111
    11     14     17     20      9 ;     0.00   2.17568   3 ;    C77-   C76-   C75-   C74
    12     11     14     15      9 ;     0.00   0.50208   3 ;   H106-   C77-   C76-  H108
    12     11     14     16      9 ;     0.00   0.50208   3 ;   H106-   C77-   C76-  H109
    12     11     14     17      9 ;     0.00   0.54392   3 ;   H106-   C77-   C76-   C75
    13     11     14     15      9 ;     0.00   0.50208   3 ;   H107-   C77-   C76-  H108
    13     11     14     16      9 ;     0.00   0.50208   3 ;   H107-   C77-   C76-  H109
    13     11     14     17      9 ;     0.00   0.54392   3 ;   H107-   C77-   C76-   C75
    14     17     20     21      9 ;     0.00   0.54392   3 ;    C76-   C75-   C74-  H112
    14     17     20     22      9 ;     0.00   0.54392   3 ;    C76-   C75-   C74-  H113
    14     17     20     23      9 ;     0.00   2.17568   3 ;    C76-   C75-   C74-   C73
    15     14     17     18      9 ;     0.00   0.50208   3 ;   H108-   C76-   C75-  H110
    15     14     17     19      9 ;     0.00   0.50208   3 ;   H108-   C76-   C75-  H111
    15     14     17     20      9 ;     0.00   0.54392   3 ;   H108-   C76-   C75-   C74
    16     14     17     18      9 ;     0.00   0.50208   3 ;   H109-   C76-   C75-  H110
    16     14     17     19      9 ;     0.00   0.50208   3 ;   H109-   C76-   C75-  H111
    16     14     17     20      9 ;     0.00   0.54392   3 ;   H109-   C76-   C75-   C74
    17     20     23     24      9 ;     0.00   0.54392   3 ;    C75-   C74-   C73-  HH13
    17     20     23     25      9 ;     0.00   0.54392   3 ;    C75-   C74-   C73-  H114
    17     20     23     26      9 ;     0.00   2.17568   3 ;    C75-   C74-   C73-   C72
    18     17     20     21      9 ;     0.00   0.50208   3 ;   H110-   C75-   C74-  H112
    18     17     20     22      9 ;     0.00   0.50208   3 ;   H110-   C75-   C74-  H113
    18     17     20     23      9 ;     0.00   0.54392   3 ;   H110-   C75-   C74-   C73
    19     17     20     21      9 ;     0.00   0.50208   3 ;   H111-   C75-   C74-  H112
    19     17     20     22      9 ;     0.00   0.50208   3 ;   H111-   C75-   C74-  H113
    19     17     20     23      9 ;     0.00   0.54392   3 ;   H111-   C75-   C74-   C73
    20     23     26     27      9 ;     0.00   0.54392   3 ;    C74-   C73-   C72-  H115
    20     23     26     28      9 ;     0.00   0.54392   3 ;    C74-   C73-   C72-  H116
    20     23     26     29      9 ;     0.00   2.17568   3 ;    C74-   C73-   C72-   C71
    21     20     23     24      9 ;     0.00   0.50208   3 ;   H112-   C74-   C73-  HH13
    21     20     23     25      9 ;     0.00   0.50208   3 ;   H112-   C74-   C73-  H114
    21     20     23     26      9 ;     0.00   0.54392   3 ;   H112-   C74-   C73-   C72
    22     20     23     24      9 ;     0.00   0.50208   3 ;   H113-   C74-   C73-  HH13
    22     20     23     25      9 ;     0.00   0.50208   3 ;   H113-   C74-   C73-  H114
    22     20     23     26      9 ;     0.00   0.54392   3 ;   H113-   C74-   C73-   C72
    23     26     29     30      9 ;     0.00   0.54392   3 ;    C73-   C72-   C71-  H117
    23     26     29     31      9 ;     0.00   0.54392   3 ;    C73-   C72-   C71-  H118
    23     26     29     32      9 ;     0.00   2.17568   3 ;    C73-   C72-   C71-   C70
    24     23     26     27      9 ;     0.00   0.50208   3 ;   HH13-   C73-   C72-  H115
    24     23     26     28      9 ;     0.00   0.50208   3 ;   HH13-   C73-   C72-  H116
    24     23     26     29      9 ;     0.00   0.54392   3 ;   HH13-   C73-   C72-   C71
    25     23     26     27      9 ;     0.00   0.50208   3 ;   H114-   C73-   C72-  H115
    25     23     26     28      9 ;     0.00   0.50208   3 ;   H114-   C73-   C72-  H116
    25     23     26     29      9 ;     0.00   0.54392   3 ;   H114-   C73-   C72-   C71
    26     29     32     33      9 ;     0.00   0.54392   3 ;    C72-   C71-   C70-  H119
    26     29     32     34      9 ;     0.00   0.54392   3 ;    C72-   C71-   C70-  H120
    26     29     32     35      9 ;     0.00   2.17568   3 ;    C72-   C71-   C70-   C69
    27     26     29     30      9 ;     0.00   0.50208   3 ;   H115-   C72-   C71-  H117
    27     26     29     31      9 ;     0.00   0.50208   3 ;   H115-   C72-   C71-  H118
    27     26     29     32      9 ;     0.00   0.54392   3 ;   H115-   C72-   C71-   C70
    28     26     29     30      9 ;     0.00   0.50208   3 ;   H116-   C72-   C71-  H117
    28     26     29     31      9 ;     0.00   0.50208   3 ;   H116-   C72-   C71-  H118
    28     26     29     32      9 ;     0.00   0.54392   3 ;   H116-   C72-   C71-   C70
    29     32     35     36      9 ;     0.00   0.54392   3 ;    C71-   C70-   C69-  H121
    29     32     35     37      9 ;     0.00   0.54392   3 ;    C71-   C70-   C69-  H122
    29     32     35     38      9 ;     0.00   2.17568   3 ;    C71-   C70-   C69-   C68
    30     29     32     33      9 ;     0.00   0.50208   3 ;   H117-   C71-   C70-  H119
    30     29     32     34      9 ;     0.00   0.50208   3 ;   H117-   C71-   C70-  H120
    30     29     32     35      9 ;     0.00   0.54392   3 ;   H117-   C71-   C70-   C69
    31     29     32     33      9 ;     0.00   0.50208   3 ;   H118-   C71-   C70-  H119
    31     29     32     34      9 ;     0.00   0.50208   3 ;   H118-   C71-   C70-  H120
    31     29     32     35      9 ;     0.00   0.54392   3 ;   H118-   C71-   C70-   C69
    32     35     38     39      9 ;     0.00   0.54392   3 ;    C70-   C69-   C68-  HH12
    32     35     38     40      9 ;     0.00   0.54392   3 ;    C70-   C69-   C68-  H123
    32     35     38     41      9 ;     0.00   2.17568   3 ;    C70-   C69-   C68-   C67
    33     32     35     36      9 ;     0.00   0.50208   3 ;   H119-   C70-   C69-  H121
    33     32     35     37      9 ;     0.00   0.50208   3 ;   H119-   C70-   C69-  H122
    33     32     35     38      9 ;     0.00   0.54392   3 ;   H119-   C70-   C69-   C68
    34     32     35     36      9 ;     0.00   0.50208   3 ;   H120-   C70-   C69-  H121
    34     32     35     37      9 ;     0.00   0.50208   3 ;   H120-   C70-   C69-  H122
    34     32     35     38      9 ;     0.00   0.54392   3 ;   H120-   C70-   C69-   C68
    35     38     41     42      9 ;     0.00   0.54392   3 ;    C69-   C68-   C67-  H124
    35     38     41     43      9 ;     0.00   0.54392   3 ;    C69-   C68-   C67-  H125
    35     38     41     44      9 ;     0.00   2.17568   3 ;    C69-   C68-   C67-   C66
    36     35     38     39      9 ;     0.00   0.50208   3 ;   H121-   C69-   C68-  HH12
    36     35     38     40      9 ;     0.00   0.50208   3 ;   H121-   C69-   C68-  H123
    36     35     38     41      9 ;     0.00   0.54392   3 ;   H121-   C69-   C68-   C67
    37     35     38     39      9 ;     0.00   0.50208   3 ;   H122-   C69-   C68-  HH12
    37     35     38     40      9 ;     0.00   0.50208   3 ;   H122-   C69-   C68-  H123
    37     35     38     41      9 ;     0.00   0.54392   3 ;   H122-   C69-   C68-   C67
    38     41     44     45      9 ;     0.00   0.54392   3 ;    C68-   C67-   C66-  H126
    38     41     44     46      9 ;     0.00   0.54392   3 ;    C68-   C67-   C66-  H127
    38     41     44     47      9 ;     0.00   2.17568   3 ;    C68-   C67-   C66-   C65
    39     38     41     42      9 ;     0.00   0.50208   3 ;   HH12-   C68-   C67-  H124
    39     38     41     43      9 ;     0.00   0.50208   3 ;   HH12-   C68-   C67-  H125
    39     38     41     44      9 ;     0.00   0.54392   3 ;   HH12-   C68-   C67-   C66
    40     38     41     42      9 ;     0.00   0.50208   3 ;   H123-   C68-   C67-  H124
    40     38     41     43      9 ;     0.00   0.50208   3 ;   H123-   C68-   C67-  H125
    40     38     41     44      9 ;     0.00   0.54392   3 ;   H123-   C68-   C67-   C66
    41     44     47     48      9 ;     0.00   0.54392   3 ;    C67-   C66-   C65-  H128
    41     44     47     49      9 ;     0.00   0.54392   3 ;    C67-   C66-   C65-  H129
    41     44     47     50      9 ;     0.00   2.17568   3 ;    C67-   C66-   C65-   C64
    42     41     44     45      9 ;     0.00   0.50208   3 ;   H124-   C67-   C66-  H126
    42     41     44     46      9 ;     0.00   0.50208   3 ;   H124-   C67-   C66-  H127
    42     41     44     47      9 ;     0.00   0.54392   3 ;   H124-   C67-   C66-   C65
    43     41     44     45      9 ;     0.00   0.50208   3 ;   H125-   C67-   C66-  H126
    43     41     44     46      9 ;     0.00   0.50208   3 ;   H125-   C67-   C66-  H127
    43     41     44     47      9 ;     0.00   0.54392   3 ;   H125-   C67-   C66-   C65
    44     47     50     51      9 ;     0.00   0.54392   3 ;    C66-   C65-   C64-  H130
    44     47     50     52      9 ;     0.00   0.54392   3 ;    C66-   C65-   C64-  H131
    44     47     50     53      9 ;     0.00   2.17568   3 ;    C66-   C65-   C64-   C63
    45     44     47     48      9 ;     0.00   0.50208   3 ;   H126-   C66-   C65-  H128
    45     44     47     49      9 ;     0.00   0.50208   3 ;   H126-   C66-   C65-  H129
    45     44     47     50      9 ;     0.00   0.54392   3 ;   H126-   C66-   C65-   C64
    46     44     47     48      9 ;     0.00   0.50208   3 ;   H127-   C66-   C65-  H128
    46     44     47     49      9 ;     0.00   0.50208   3 ;   H127-   C66-   C65-  H129
    46     44     47     50      9 ;     0.00   0.54392   3 ;   H127-   C66-   C65-   C64
    47     50     53     54      9 ;     0.00   0.54392   3 ;    C65-   C64-   C63-  HH11
    47     50     53     55      9 ;     0.00   0.54392   3 ;    C65-   C64-   C63-  H132
    47     50     53     56      9 ;     0.00   2.17568   3 ;    C65-   C64-   C63-   C62
    48     47     50     51      9 ;     0.00   0.50208   3 ;   H128-   C65-   C64-  H130
    48     47     50     52      9 ;     0.00   0.50208   3 ;   H128-   C65-   C64-  H131
    48     47     50     53      9 ;     0.00   0.54392   3 ;   H128-   C65-   C64-   C63
    49     47     50     51      9 ;     0.00   0.50208   3 ;   H129-   C65-   C64-  H130
    49     47     50     52      9 ;     0.00   0.50208   3 ;   H129-   C65-   C64-  H131
    49     47     50     53      9 ;     0.00   0.54392   3 ;   H129-   C65-   C64-   C63
    50     53     56     57      9 ;     0.00   0.54392   3 ;    C64-   C63-   C62-  H133
    50     53     56     58      9 ;     0.00   0.54392   3 ;    C64-   C63-   C62-  H134
    50     53     56     59      9 ;     0.00   2.17568   3 ;    C64-   C63-   C62-   C61
    51     50     53     54      9 ;     0.00   0.50208   3 ;   H130-   C64-   C63-  HH11
    51     50     53     55      9 ;     0.00   0.50208   3 ;   H130-   C64-   C63-  H132
    51     50     53     56      9 ;     0.00   0.54392   3 ;   H130-   C64-   C63-   C62
    52     50     53     54      9 ;     0.00   0.50208   3 ;   H131-   C64-   C63-  HH11
    52     50     53     55      9 ;     0.00   0.50208   3 ;   H131-   C64-   C63-  H132
    52     50     53     56      9 ;     0.00   0.54392   3 ;   H131-   C64-   C63-   C62
    53     56     59     60      9 ;     0.00   0.54392   3 ;    C63-   C62-   C61-  H135
    53     56     59     61      9 ;     0.00   0.54392   3 ;    C63-   C62-   C61-  H136
    53     56     59     62      9 ;     0.00   0.65084   3 ;    C63-   C62-   C61-   C60
    54     53     56     57      9 ;     0.00   0.50208   3 ;   HH11-   C63-   C62-  H133
    54     53     56     58      9 ;     0.00   0.50208   3 ;   HH11-   C63-   C62-  H134
    54     53     56     59      9 ;     0.00   0.54392   3 ;   HH11-   C63-   C62-   C61
    55     53     56     57      9 ;     0.00   0.50208   3 ;   H132-   C63-   C62-  H133
    55     53     56     58      9 ;     0.00   0.50208   3 ;   H132-   C63-   C62-  H134
    55     53     56     59      9 ;     0.00   0.54392   3 ;   H132-   C63-   C62-   C61
    56     59     62     63      9 ;     0.00   0.54392   3 ;    C62-   C61-   C60-  H137
    56     59     62     64      9 ;     0.00   2.17568   3 ;    C62-   C61-   C60-   C58
    56     59     62     66      9 ;     0.00   2.17568   3 ;    C62-   C61-   C60-   C59
    57     56     59     60      9 ;     0.00   0.50208   3 ;   H133-   C62-   C61-  H135
    57     56     59     61      9 ;     0.00   0.50208   3 ;   H133-   C62-   C61-  H136
    57     56     59     62      9 ;     0.00   0.65084   3 ;   H133-   C62-   C61-   C60
    58     56     59     60      9 ;     0.00   0.50208   3 ;   H134-   C62-   C61-  H135
    58     56     59     61      9 ;     0.00   0.50208   3 ;   H134-   C62-   C61-  H136
    58     56     59     62      9 ;     0.00   0.65084   3 ;   H134-   C62-   C61-   C60
    59     62     64     65      9 ;     0.00   0.65084   3 ;    C61-   C60-   C58-  H138
    59     62     64     66      9 ;     0.00   0.65084   3 ;    C61-   C60-   C58-   C59
    59     62     64     69      9 ;     0.00   0.65084   3 ;    C61-   C60-   C58-   C57
    59     62     66     64      9 ;     0.00   0.65084   3 ;    C61-   C60-   C59-   C58
    59     62     66     67      9 ;     0.00   0.65084   3 ;    C61-   C60-   C59-  H139
    59     62     66     68      9 ;     0.00   0.65084   3 ;    C61-   C60-   C59-  H140
    60     59     62     63      9 ;     0.00   0.50208   3 ;   H135-   C61-   C60-  H137
    60     59     62     64      9 ;     0.00   0.54392   3 ;   H135-   C61-   C60-   C58
    60     59     62     66      9 ;     0.00   0.54392   3 ;   H135-   C61-   C60-   C59
    61     59     62     63      9 ;     0.00   0.50208   3 ;   H136-   C61-   C60-  H137
    61     59     62     64      9 ;     0.00   0.54392   3 ;   H136-   C61-   C60-   C58
    61     59     62     66      9 ;     0.00   0.54392   3 ;   H136-   C61-   C60-   C59
    62     64     66     67      9 ;     0.00   0.65084   3 ;    C60-   C58-   C59-  H139
    62     64     66     68      9 ;     0.00   0.65084   3 ;    C60-   C58-   C59-  H140
    62     64     69     70      9 ;     0.00   0.54392   3 ;    C60-   C58-   C57-  HH10
    62     64     69     71      9 ;     0.00   0.54392   3 ;    C60-   C58-   C57-  H141
    62     64     69     72      9 ;     0.00   2.17568   3 ;    C60-   C58-   C57-   C56
    62     66     64     65      9 ;     0.00   0.65084   3 ;    C60-   C59-   C58-  H138
    62     66     64     69      9 ;     0.00   0.65084   3 ;    C60-   C59-   C58-   C57
    63     62     64     65      9 ;     0.00   0.65084   3 ;   H137-   C60-   C58-  H138
    63     62     64     66      9 ;     0.00   0.65084   3 ;   H137-   C60-   C58-   C59
    63     62     64     69      9 ;     0.00   0.65084   3 ;   H137-   C60-   C58-   C57
    63     62     66     64      9 ;     0.00   0.65084   3 ;   H137-   C60-   C59-   C58
    63     62     66     67      9 ;     0.00   0.65084   3 ;   H137-   C60-   C59-  H139
    63     62     66     68      9 ;     0.00   0.65084   3 ;   H137-   C60-   C59-  H140
    64     62     66     67      9 ;     0.00   0.65084   3 ;    C58-   C60-   C59-  H139
    64     62     66     68      9 ;     0.00   0.65084   3 ;    C58-   C60-   C59-  H140
    64     69     72     73      9 ;     0.00   0.65084   3 ;    C58-   C57-   C56-  H142
    64     69     72     74      9 ;     0.00   0.65084   3 ;    C58-   C57-   C56-  H143
    64     69     72     75      9 ;     0.00   0.65084   3 ;    C58-   C57-   C56-   C55
    65     64     62     66      9 ;     0.00   0.65084   3 ;   H138-   C58-   C60-   C59
    65     64     66     67      9 ;     0.00   0.65084   3 ;   H138-   C58-   C59-  H139
    65     64     66     68      9 ;     0.00   0.65084   3 ;   H138-   C58-   C59-  H140
    65     64     69     70      9 ;     0.00   0.50208   3 ;   H138-   C58-   C57-  HH10
    65     64     69     71      9 ;     0.00   0.50208   3 ;   H138-   C58-   C57-  H141
    65     64     69     72      9 ;     0.00   0.54392   3 ;   H138-   C58-   C57-   C56
    66     62     64     69      9 ;     0.00   0.65084   3 ;    C59-   C60-   C58-   C57
    66     64     69     70      9 ;     0.00   0.54392   3 ;    C59-   C58-   C57-  HH10
    66     64     69     71      9 ;     0.00   0.54392   3 ;    C59-   C58-   C57-  H141
    66     64     69     72      9 ;     0.00   2.17568   3 ;    C59-   C58-   C57-   C56
    67     66     64     69      9 ;     0.00   0.65084   3 ;   H139-   C59-   C58-   C57
    68     66     64     69      9 ;     0.00   0.65084   3 ;   H140-   C59-   C58-   C57
    69     72     75     76      9 ;     0.00   0.54392   3 ;    C57-   C56-   C55-  H144
    69     72     75     77      9 ;     0.00   0.54392   3 ;    C57-   C56-   C55-  H145
    69     72     75     78      9 ;     0.00   2.17568   3 ;    C57-   C56-   C55-   C54
    70     69     72     73      9 ;     0.00   0.50208   3 ;   HH10-   C57-   C56-  H142
    70     69     72     74      9 ;     0.00   0.50208   3 ;   HH10-   C57-   C56-  H143
    70     69     72     75      9 ;     0.00   0.54392   3 ;   HH10-   C57-   C56-   C55
    71     69     72     73      9 ;     0.00   0.50208   3 ;   H141-   C57-   C56-  H142
    71     69     72     74      9 ;     0.00   0.50208   3 ;   H141-   C57-   C56-  H143
    71     69     72     75      9 ;     0.00   0.54392   3 ;   H141-   C57-   C56-   C55
    72     75     78     79      9 ;     0.00   0.54392   3 ;    C56-   C55-   C54-  H146
    72     75     78     80      9 ;     0.00   0.54392   3 ;    C56-   C55-   C54-  H147
    72     75     78     81      9 ;     0.00   2.17568   3 ;    C56-   C55-   C54-   C53
    73     72     75     76      9 ;     0.00   0.50208   3 ;   H142-   C56-   C55-  H144
    73     72     75     77      9 ;     0.00   0.50208   3 ;   H142-   C56-   C55-  H145
    73     72     75     78      9 ;     0.00   0.54392   3 ;   H142-   C56-   C55-   C54
    74     72     75     76      9 ;     0.00   0.50208   3 ;   H143-   C56-   C55-  H144
    74     72     75     77      9 ;     0.00   0.50208   3 ;   H143-   C56-   C55-  H145
    74     72     75     78      9 ;     0.00   0.54392   3 ;   H143-   C56-   C55-   C54
    75     78     81     82      9 ;     0.00   0.54392   3 ;    C55-   C54-   C53-  H148
    75     78     81     83      9 ;     0.00   0.54392   3 ;    C55-   C54-   C53-  H149
    75     78     81     84      9 ;     0.00   2.17568   3 ;    C55-   C54-   C53-   C52
    76     75     78     79      9 ;     0.00   0.50208   3 ;   H144-   C55-   C54-  H146
    76     75     78     80      9 ;     0.00   0.50208   3 ;   H144-   C55-   C54-  H147
    76     75     78     81      9 ;     0.00   0.54392   3 ;   H144-   C55-   C54-   C53
    77     75     78     79      9 ;     0.00   0.50208   3 ;   H145-   C55-   C54-  H146
    77     75     78     80      9 ;     0.00   0.50208   3 ;   H145-   C55-   C54-  H147
    77     75     78     81      9 ;     0.00   0.54392   3 ;   H145-   C55-   C54-   C53
    78     81     84     85      9 ;     0.00   0.54392   3 ;    C54-   C53-   C52-   H99
    78     81     84     86      9 ;     0.00   0.54392   3 ;    C54-   C53-   C52-  H150
    78     81     84     87      9 ;     0.00   2.17568   3 ;    C54-   C53-   C52-   C51
    79     78     81     82      9 ;     0.00   0.50208   3 ;   H146-   C54-   C53-  H148
    79     78     81     83      9 ;     0.00   0.50208   3 ;   H146-   C54-   C53-  H149
    79     78     81     84      9 ;     0.00   0.54392   3 ;   H146-   C54-   C53-   C52
    80     78     81     82      9 ;     0.00   0.50208   3 ;   H147-   C54-   C53-  H148
    80     78     81     83      9 ;     0.00   0.50208   3 ;   H147-   C54-   C53-  H149
    80     78     81     84      9 ;     0.00   0.54392   3 ;   H147-   C54-   C53-   C52
    81     84     87     88      9 ;     0.00   0.54392   3 ;    C53-   C52-   C51-   H97
    81     84     87     89      9 ;     0.00   0.54392   3 ;    C53-   C52-   C51-   H98
    81     84     87     90      9 ;     0.00   2.17568   3 ;    C53-   C52-   C51-   C50
    82     81     84     85      9 ;     0.00   0.50208   3 ;   H148-   C53-   C52-   H99
    82     81     84     86      9 ;     0.00   0.50208   3 ;   H148-   C53-   C52-  H150
    82     81     84     87      9 ;     0.00   0.54392   3 ;   H148-   C53-   C52-   C51
    83     81     84     85      9 ;     0.00   0.50208   3 ;   H149-   C53-   C52-   H99
    83     81     84     86      9 ;     0.00   0.50208   3 ;   H149-   C53-   C52-  H150
    83     81     84     87      9 ;     0.00   0.54392   3 ;   H149-   C53-   C52-   C51
    84     87     90     91      9 ;     0.00   0.54392   3 ;    C52-   C51-   C50-   H95
    84     87     90     92      9 ;     0.00   0.54392   3 ;    C52-   C51-   C50-   H96
    84     87     90     93      9 ;     0.00   2.17568   3 ;    C52-   C51-   C50-   C49
    85     84     87     88      9 ;     0.00   0.50208   3 ;    H99-   C52-   C51-   H97
    85     84     87     89      9 ;     0.00   0.50208   3 ;    H99-   C52-   C51-   H98
    85     84     87     90      9 ;     0.00   0.54392   3 ;    H99-   C52-   C51-   C50
    86     84     87     88      9 ;     0.00   0.50208   3 ;   H150-   C52-   C51-   H97
    86     84     87     89      9 ;     0.00   0.50208   3 ;   H150-   C52-   C51-   H98
    86     84     87     90      9 ;     0.00   0.54392   3 ;   H150-   C52-   C51-   C50
    87     90     93     94      9 ;     0.00   0.54392   3 ;    C51-   C50-   C49-   H93
    87     90     93     95      9 ;     0.00   0.54392   3 ;    C51-   C50-   C49-   H94
    87     90     93     96      9 ;     0.00   2.17568   3 ;    C51-   C50-   C49-   C48
    88     87     90     91      9 ;     0.00   0.50208   3 ;    H97-   C51-   C50-   H95
    88     87     90     92      9 ;     0.00   0.50208   3 ;    H97-   C51-   C50-   H96
    88     87     90     93      9 ;     0.00   0.54392   3 ;    H97-   C51-   C50-   C49
    89     87     90     91      9 ;     0.00   0.50208   3 ;    H98-   C51-   C50-   H95
    89     87     90     92      9 ;     0.00   0.50208   3 ;    H98-   C51-   C50-   H96
    89     87     90     93      9 ;     0.00   0.54392   3 ;    H98-   C51-   C50-   C49
    90     93     96     97      9 ;     0.00   0.54392   3 ;    C50-   C49-   C48-   H91
    90     93     96     98      9 ;     0.00   0.54392   3 ;    C50-   C49-   C48-   H92
    90     93     96     99      9 ;     0.00   2.17568   3 ;    C50-   C49-   C48-   C47
    91     90     93     94      9 ;     0.00   0.50208   3 ;    H95-   C50-   C49-   H93
    91     90     93     95      9 ;     0.00   0.50208   3 ;    H95-   C50-   C49-   H94
    91     90     93     96      9 ;     0.00   0.54392   3 ;    H95-   C50-   C49-   C48
    92     90     93     94      9 ;     0.00   0.50208   3 ;    H96-   C50-   C49-   H93
    92     90     93     95      9 ;     0.00   0.50208   3 ;    H96-   C50-   C49-   H94
    92     90     93     96      9 ;     0.00   0.54392   3 ;    H96-   C50-   C49-   C48
    93     96     99    100      9 ;     0.00   0.54392   3 ;    C49-   C48-   C47-   H89
    93     96     99    101      9 ;     0.00   0.54392   3 ;    C49-   C48-   C47-   H90
    93     96     99    102      9 ;     0.00   2.17568   3 ;    C49-   C48-   C47-   C46
    94     93     96     97      9 ;     0.00   0.50208   3 ;    H93-   C49-   C48-   H91
    94     93     96     98      9 ;     0.00   0.50208   3 ;    H93-   C49-   C48-   H92
    94     93     96     99      9 ;     0.00   0.54392   3 ;    H93-   C49-   C48-   C47
    95     93     96     97      9 ;     0.00   0.50208   3 ;    H94-   C49-   C48-   H91
    95     93     96     98      9 ;     0.00   0.50208   3 ;    H94-   C49-   C48-   H92
    95     93     96     99      9 ;     0.00   0.54392   3 ;    H94-   C49-   C48-   C47
    96     99    102    103      9 ;     0.00   0.54392   3 ;    C48-   C47-   C46-   H87
    96     99    102    104      9 ;     0.00   0.54392   3 ;    C48-   C47-   C46-   H88
    96     99    102    105      9 ;     0.00   2.17568   3 ;    C48-   C47-   C46-   C45
    97     96     99    100      9 ;     0.00   0.50208   3 ;    H91-   C48-   C47-   H89
    97     96     99    101      9 ;     0.00   0.50208   3 ;    H91-   C48-   C47-   H90
    97     96     99    102      9 ;     0.00   0.54392   3 ;    H91-   C48-   C47-   C46
    98     96     99    100      9 ;     0.00   0.50208   3 ;    H92-   C48-   C47-   H89
    98     96     99    101      9 ;     0.00   0.50208   3 ;    H92-   C48-   C47-   H90
    98     96     99    102      9 ;     0.00   0.54392   3 ;    H92-   C48-   C47-   C46
    99    102    105    106      9 ;     0.00   0.54392   3 ;    C47-   C46-   C45-   H85
    99    102    105    107      9 ;     0.00   0.54392   3 ;    C47-   C46-   C45-   H86
    99    102    105    108      9 ;     0.00   2.17568   3 ;    C47-   C46-   C45-   C44
   100     99    102    103      9 ;     0.00   0.50208   3 ;    H89-   C47-   C46-   H87
   100     99    102    104      9 ;     0.00   0.50208   3 ;    H89-   C47-   C46-   H88
   100     99    102    105      9 ;     0.00   0.54392   3 ;    H89-   C47-   C46-   C45
   101     99    102    103      9 ;     0.00   0.50208   3 ;    H90-   C47-   C46-   H87
   101     99    102    104      9 ;     0.00   0.50208   3 ;    H90-   C47-   C46-   H88
   101     99    102    105      9 ;     0.00   0.54392   3 ;    H90-   C47-   C46-   C45
   102    105    108    109      9 ;     0.00   0.54392   3 ;    C46-   C45-   C44-   H83
   102    105    108    110      9 ;     0.00   0.54392   3 ;    C46-   C45-   C44-   H84
   102    105    108    111      9 ;     0.00   0.65084   3 ;    C46-   C45-   C44-   C18
   103    102    105    106      9 ;     0.00   0.50208   3 ;    H87-   C46-   C45-   H85
   103    102    105    107      9 ;     0.00   0.50208   3 ;    H87-   C46-   C45-   H86
   103    102    105    108      9 ;     0.00   0.54392   3 ;    H87-   C46-   C45-   C44
   104    102    105    106      9 ;     0.00   0.50208   3 ;    H88-   C46-   C45-   H85
   104    102    105    107      9 ;     0.00   0.50208   3 ;    H88-   C46-   C45-   H86
   104    102    105    108      9 ;     0.00   0.54392   3 ;    H88-   C46-   C45-   C44
   105    108    111    112      9 ;     0.00   0.54392   3 ;    C45-   C44-   C18-   H31
   105    108    111    113      9 ;     0.00   2.17568   3 ;    C45-   C44-   C18-   C17
   105    108    111    115      9 ;     0.00   2.17568   3 ;    C45-   C44-   C18-   C19
   106    105    108    109      9 ;     0.00   0.50208   3 ;    H85-   C45-   C44-   H83
   106    105    108    110      9 ;     0.00   0.50208   3 ;    H85-   C45-   C44-   H84
   106    105    108    111      9 ;     0.00   0.65084   3 ;    H85-   C45-   C44-   C18
   107    105    108    109      9 ;     0.00   0.50208   3 ;    H86-   C45-   C44-   H83
   107    105    108    110      9 ;     0.00   0.50208   3 ;    H86-   C45-   C44-   H84
   107    105    108    111      9 ;     0.00   0.65084   3 ;    H86-   C45-   C44-   C18
   108    111    113    114      9 ;     0.00   0.65084   3 ;    C44-   C18-   C17-   H30
   108    111    113    115      9 ;     0.00   0.65084   3 ;    C44-   C18-   C17-   C19
   108    111    113    118      9 ;     0.00   0.65084   3 ;    C44-   C18-   C17-   C16
   108    111    115    113      9 ;     0.00   0.65084   3 ;    C44-   C18-   C19-   C17
   108    111    115    116      9 ;     0.00   0.65084   3 ;    C44-   C18-   C19-   H32
   108    111    115    117      9 ;     0.00   0.65084   3 ;    C44-   C18-   C19-   H33
   109    108    111    112      9 ;     0.00   0.50208   3 ;    H83-   C44-   C18-   H31
   109    108    111    113      9 ;     0.00   0.54392   3 ;    H83-   C44-   C18-   C17
   109    108    111    115      9 ;     0.00   0.54392   3 ;    H83-   C44-   C18-   C19
   110    108    111    112      9 ;     0.00   0.50208   3 ;    H84-   C44-   C18-   H31
   110    108    111    113      9 ;     0.00   0.54392   3 ;    H84-   C44-   C18-   C17
   110    108    111    115      9 ;     0.00   0.54392   3 ;    H84-   C44-   C18-   C19
   111    113    115    116      9 ;     0.00   0.65084   3 ;    C18-   C17-   C19-   H32
   111    113    115    117      9 ;     0.00   0.65084   3 ;    C18-   C17-   C19-   H33
   111    113    118    119      9 ;     0.00   0.54392   3 ;    C18-   C17-   C16-   H28
   111    113    118    120      9 ;     0.00   0.54392   3 ;    C18-   C17-   C16-   H29
   111    113    118    121      9 ;     0.00   2.17568   3 ;    C18-   C17-   C16-   C15
   111    115    113    114      9 ;     0.00   0.65084   3 ;    C18-   C19-   C17-   H30
   111    115    113    118      9 ;     0.00   0.65084   3 ;    C18-   C19-   C17-   C16
   112    111    113    114      9 ;     0.00   0.65084   3 ;    H31-   C18-   C17-   H30
   112    111    113    115      9 ;     0.00   0.65084   3 ;    H31-   C18-   C17-   C19
   112    111    113    118      9 ;     0.00   0.65084   3 ;    H31-   C18-   C17-   C16
   112    111    115    113      9 ;     0.00   0.65084   3 ;    H31-   C18-   C19-   C17
   112    111    115    116      9 ;     0.00   0.65084   3 ;    H31-   C18-   C19-   H32
   112    111    115    117      9 ;     0.00   0.65084   3 ;    H31-   C18-   C19-   H33
   113    111    115    116      9 ;     0.00   0.65084   3 ;    C17-   C18-   C19-   H32
   113    111    115    117      9 ;     0.00   0.65084   3 ;    C17-   C18-   C19-   H33
   113    118    121    122      9 ;     0.00   0.65084   3 ;    C17-   C16-   C15-   H26
   113    118    121    123      9 ;     0.00   0.65084   3 ;    C17-   C16-   C15-   H27
   113    118    121    124      9 ;     0.00   0.65084   3 ;    C17-   C16-   C15-   C14
   114    113    111    115      9 ;     0.00   0.65084   3 ;    H30-   C17-   C18-   C19
   114    113    115    116      9 ;     0.00   0.65084   3 ;    H30-   C17-   C19-   H32
   114    113    115    117      9 ;     0.00   0.65084   3 ;    H30-   C17-   C19-   H33
   114    113    118    119      9 ;     0.00   0.50208   3 ;    H30-   C17-   C16-   H28
   114    113    118    120      9 ;     0.00   0.50208   3 ;    H30-   C17-   C16-   H29
   114    113    118    121      9 ;     0.00   0.54392   3 ;    H30-   C17-   C16-   C15
   115    111    113    118      9 ;     0.00   0.65084   3 ;    C19-   C18-   C17-   C16
   115    113    118    119      9 ;     0.00   0.54392   3 ;    C19-   C17-   C16-   H28
   115    113    118    120      9 ;     0.00   0.54392   3 ;    C19-   C17-   C16-   H29
   115    113    118    121      9 ;     0.00   2.17568   3 ;    C19-   C17-   C16-   C15
   116    115    113    118      9 ;     0.00   0.65084   3 ;    H32-   C19-   C17-   C16
   117    115    113    118      9 ;     0.00   0.65084   3 ;    H33-   C19-   C17-   C16
   118    121    124    125      9 ;     0.00   0.54392   3 ;    C16-   C15-   C14-   H24
   118    121    124    126      9 ;     0.00   0.54392   3 ;    C16-   C15-   C14-   H25
   118    121    124    127      9 ;     0.00   2.17568   3 ;    C16-   C15-   C14-   C13
   119    118    121    122      9 ;     0.00   0.50208   3 ;    H28-   C16-   C15-   H26
   119    118    121    123      9 ;     0.00   0.50208   3 ;    H28-   C16-   C15-   H27
   119    118    121    124      9 ;     0.00   0.54392   3 ;    H28-   C16-   C15-   C14
   120    118    121    122      9 ;     0.00   0.50208   3 ;    H29-   C16-   C15-   H26
   120    118    121    123      9 ;     0.00   0.50208   3 ;    H29-   C16-   C15-   H27
   120    118    121    124      9 ;     0.00   0.54392   3 ;    H29-   C16-   C15-   C14
   121    124    127    128      9 ;     0.00   0.54392   3 ;    C15-   C14-   C13-   H22
   121    124    127    129      9 ;     0.00   0.54392   3 ;    C15-   C14-   C13-   H23
   121    124    127    130      9 ;     0.00   2.17568   3 ;    C15-   C14-   C13-   C12
   122    121    124    125      9 ;     0.00   0.50208   3 ;    H26-   C15-   C14-   H24
   122    121    124    126      9 ;     0.00   0.50208   3 ;    H26-   C15-   C14-   H25
   122    121    124    127      9 ;     0.00   0.54392   3 ;    H26-   C15-   C14-   C13
   123    121    124    125      9 ;     0.00   0.50208   3 ;    H27-   C15-   C14-   H24
   123    121    124    126      9 ;     0.00   0.50208   3 ;    H27-   C15-   C14-   H25
   123    121    124    127      9 ;     0.00   0.54392   3 ;    H27-   C15-   C14-   C13
   124    127    130    131      9 ;     0.00   0.54392   3 ;    C14-   C13-   C12-   H20
   124    127    130    132      9 ;     0.00   0.54392   3 ;    C14-   C13-   C12-   H21
   124    127    130    133      9 ;     0.00   2.17568   3 ;    C14-   C13-   C12-   C11
   125    124    127    128      9 ;     0.00   0.50208   3 ;    H24-   C14-   C13-   H22
   125    124    127    129      9 ;     0.00   0.50208   3 ;    H24-   C14-   C13-   H23
   125    124    127    130      9 ;     0.00   0.54392   3 ;    H24-   C14-   C13-   C12
   126    124    127    128      9 ;     0.00   0.50208   3 ;    H25-   C14-   C13-   H22
   126    124    127    129      9 ;     0.00   0.50208   3 ;    H25-   C14-   C13-   H23
   126    124    127    130      9 ;     0.00   0.54392   3 ;    H25-   C14-   C13-   C12
   127    130    133    134      9 ;     0.00   0.54392   3 ;    C13-   C12-   C11-   H18
   127    130    133    135      9 ;     0.00   0.54392   3 ;    C13-   C12-   C11-   H19
   127    130    133    136      9 ;     0.00   2.17568   3 ;    C13-   C12-   C11-   C10
   128    127    130    131      9 ;     0.00   0.50208   3 ;    H22-   C13-   C12-   H20
   128    127    130    132      9 ;     0.00   0.50208   3 ;    H22-   C13-   C12-   H21
   128    127    130    133      9 ;     0.00   0.54392   3 ;    H22-   C13-   C12-   C11
   129    127    130    131      9 ;     0.00   0.50208   3 ;    H23-   C13-   C12-   H20
   129    127    130    132      9 ;     0.00   0.50208   3 ;    H23-   C13-   C12-   H21
   129    127    130    133      9 ;     0.00   0.54392   3 ;    H23-   C13-   C12-   C11
   130    133    136    137      9 ;     0.00   0.54392   3 ;    C12-   C11-   C10-   H16
   130    133    136    138      9 ;     0.00   0.54392   3 ;    C12-   C11-   C10-   H17
   130    133    136    139      9 ;     0.00   2.17568   3 ;    C12-   C11-   C10-    C9
   131    130    133    134      9 ;     0.00   0.50208   3 ;    H20-   C12-   C11-   H18
   131    130    133    135      9 ;     0.00   0.50208   3 ;    H20-   C12-   C11-   H19
   131    130    133    136      9 ;     0.00   0.54392   3 ;    H20-   C12-   C11-   C10
   132    130    133    134      9 ;     0.00   0.50208   3 ;    H21-   C12-   C11-   H18
   132    130    133    135      9 ;     0.00   0.50208   3 ;    H21-   C12-   C11-   H19
   132    130    133    136      9 ;     0.00   0.54392   3 ;    H21-   C12-   C11-   C10
   133    136    139    140      9 ;     0.00   0.54392   3 ;    C11-   C10-    C9-   H14
   133    136    139    141      9 ;     0.00   0.54392   3 ;    C11-   C10-    C9-   H15
   133    136    139    142      9 ;     0.00   2.17568   3 ;    C11-   C10-    C9-    C8
   134    133    136    137      9 ;     0.00   0.50208   3 ;    H18-   C11-   C10-   H16
   134    133    136    138      9 ;     0.00   0.50208   3 ;    H18-   C11-   C10-   H17
   134    133    136    139      9 ;     0.00   0.54392   3 ;    H18-   C11-   C10-    C9
   135    133    136    137      9 ;     0.00   0.50208   3 ;    H19-   C11-   C10-   H16
   135    133    136    138      9 ;     0.00   0.50208   3 ;    H19-   C11-   C10-   H17
   135    133    136    139      9 ;     0.00   0.54392   3 ;    H19-   C11-   C10-    C9
   136    139    142    143      9 ;     0.00   0.54392   3 ;    C10-    C9-    C8-   H12
   136    139    142    144      9 ;     0.00   0.54392   3 ;    C10-    C9-    C8-   H13
   136    139    142    145      9 ;     0.00   2.17568   3 ;    C10-    C9-    C8-    C7
   137    136    139    140      9 ;     0.00   0.50208   3 ;    H16-   C10-    C9-   H14
   137    136    139    141      9 ;     0.00   0.50208   3 ;    H16-   C10-    C9-   H15
   137    136    139    142      9 ;     0.00   0.54392   3 ;    H16-   C10-    C9-    C8
   138    136    139    140      9 ;     0.00   0.50208   3 ;    H17-   C10-    C9-   H14
   138    136    139    141      9 ;     0.00   0.50208   3 ;    H17-   C10-    C9-   H15
   138    136    139    142      9 ;     0.00   0.54392   3 ;    H17-   C10-    C9-    C8
   139    142    145    146      9 ;     0.00   0.54392   3 ;     C9-    C8-    C7-   H10
   139    142    145    147      9 ;     0.00   0.54392   3 ;     C9-    C8-    C7-   H11
   139    142    145    148      9 ;     0.00   2.17568   3 ;     C9-    C8-    C7-    C6
   140    139    142    143      9 ;     0.00   0.50208   3 ;    H14-    C9-    C8-   H12
   140    139    142    144      9 ;     0.00   0.50208   3 ;    H14-    C9-    C8-   H13
   140    139    142    145      9 ;     0.00   0.54392   3 ;    H14-    C9-    C8-    C7
   141    139    142    143      9 ;     0.00   0.50208   3 ;    H15-    C9-    C8-   H12
   141    139    142    144      9 ;     0.00   0.50208   3 ;    H15-    C9-    C8-   H13
   141    139    142    145      9 ;     0.00   0.54392   3 ;    H15-    C9-    C8-    C7
   142    145    148    149      9 ;     0.00   0.54392   3 ;     C8-    C7-    C6-    H8
   142    145    148    150      9 ;     0.00   0.54392   3 ;     C8-    C7-    C6-    H9
   142    145    148    151      9 ;     0.00   2.17568   3 ;     C8-    C7-    C6-    C5
   143    142    145    146      9 ;     0.00   0.50208   3 ;    H12-    C8-    C7-   H10
   143    142    145    147      9 ;     0.00   0.50208   3 ;    H12-    C8-    C7-   H11
   143    142    145    148      9 ;     0.00   0.54392   3 ;    H12-    C8-    C7-    C6
   144    142    145    146      9 ;     0.00   0.50208   3 ;    H13-    C8-    C7-   H10
   144    142    145    147      9 ;     0.00   0.50208   3 ;    H13-    C8-    C7-   H11
   144    142    145    148      9 ;     0.00   0.54392   3 ;    H13-    C8-    C7-    C6
   145    148    151    152      9 ;     0.00   0.54392   3 ;     C7-    C6-    C5-    H6
   145    148    151    153      9 ;     0.00   0.54392   3 ;     C7-    C6-    C5-    H7
   145    148    151    154      9 ;     0.00   2.17568   3 ;     C7-    C6-    C5-    C4
   146    145    148    149      9 ;     0.00   0.50208   3 ;    H10-    C7-    C6-    H8
   146    145    148    150      9 ;     0.00   0.50208   3 ;    H10-    C7-    C6-    H9
   146    145    148    151      9 ;     0.00   0.54392   3 ;    H10-    C7-    C6-    C5
   147    145    148    149      9 ;     0.00   0.50208   3 ;    H11-    C7-    C6-    H8
   147    145    148    150      9 ;     0.00   0.50208   3 ;    H11-    C7-    C6-    H9
   147    145    148    151      9 ;     0.00   0.54392   3 ;    H11-    C7-    C6-    C5
   148    151    154    155      9 ;     0.00   0.54392   3 ;     C6-    C5-    C4-    H4
   148    151    154    156      9 ;     0.00   0.54392   3 ;     C6-    C5-    C4-    H5
   148    151    154    157      9 ;     0.00   2.17568   3 ;     C6-    C5-    C4-    C2
   149    148    151    152      9 ;     0.00   0.50208   3 ;     H8-    C6-    C5-    H6
   149    148    151    153      9 ;     0.00   0.50208   3 ;     H8-    C6-    C5-    H7
   149    148    151    154      9 ;     0.00   0.54392   3 ;     H8-    C6-    C5-    C4
   150    148    151    152      9 ;     0.00   0.50208   3 ;     H9-    C6-    C5-    H6
   150    148    151    153      9 ;     0.00   0.50208   3 ;     H9-    C6-    C5-    H7
   150    148    151    154      9 ;     0.00   0.54392   3 ;     H9-    C6-    C5-    C4
   151    154    157    158      9 ;     0.00   0.65084   3 ;     C5-    C4-    C2-    H2
   151    154    157    159      9 ;     0.00   0.75312   3 ;     C5-    C4-    C2-    O3
   151    154    157    161      9 ;     0.00   2.17568   3 ;     C5-    C4-    C2-    C1
   152    151    154    155      9 ;     0.00   0.50208   3 ;     H6-    C5-    C4-    H4
   152    151    154    156      9 ;     0.00   0.50208   3 ;     H6-    C5-    C4-    H5
   152    151    154    157      9 ;     0.00   0.54392   3 ;     H6-    C5-    C4-    C2
   153    151    154    155      9 ;     0.00   0.50208   3 ;     H7-    C5-    C4-    H4
   153    151    154    156      9 ;     0.00   0.50208   3 ;     H7-    C5-    C4-    H5
   153    151    154    157      9 ;     0.00   0.54392   3 ;     H7-    C5-    C4-    C2
   154    157    159    160      9 ;     0.00   0.25104   3 ;     C4-    C2-    O3-    H3
   154    157    161    162      9 ;     0.00   0.54392   3 ;     C4-    C2-    C1-    H1
   154    157    161    163      9 ;     0.00   0.00000   0 ;     C4-    C2-    C1-   C81
   154    157    161    163      9 ;     0.00   0.16736   2 ;     C4-    C2-    C1-   C81
   154    157    161    163      9 ;   180.00   1.92464   1 ;     C4-    C2-    C1-   C81
   154    157    161    167      9 ;     0.00   2.17568   3 ;     C4-    C2-    C1-   C20
   155    154    157    158      9 ;     0.00   0.65084   3 ;     H4-    C4-    C2-    H2
   155    154    157    159      9 ;     0.00   0.37656   3 ;     H4-    C4-    C2-    O3
   155    154    157    161      9 ;     0.00   0.54392   3 ;     H4-    C4-    C2-    C1
   156    154    157    158      9 ;     0.00   0.65084   3 ;     H5-    C4-    C2-    H2
   156    154    157    159      9 ;     0.00   0.37656   3 ;     H5-    C4-    C2-    O3
   156    154    157    161      9 ;     0.00   0.54392   3 ;     H5-    C4-    C2-    C1
   157    161    163    164      9 ;     0.00   2.84512   1 ;     C2-    C1-   C81-   O82
   157    161    163    164      9 ;   180.00   0.83680   2 ;     C2-    C1-   C81-   O82
   157    161    163    164      9 ;   180.00   1.84096   3 ;     C2-    C1-   C81-   O82
   157    161    163    165      9 ;   180.00   0.00000   2 ;     C2-    C1-   C81-   O83
   157    161    167    168      9 ;     0.00   0.54392   3 ;     C2-    C1-   C20-   H34
   157    161    167    169      9 ;     0.00   0.54392   3 ;     C2-    C1-   C20-   H35
   157    161    167    170      9 ;     0.00   2.17568   3 ;     C2-    C1-   C20-   C21
   158    157    159    160      9 ;     0.00   0.51463   3 ;     H2-    C2-    O3-    H3
   158    157    161    162      9 ;     0.00   0.65084   3 ;     H2-    C2-    C1-    H1
   158    157    161    163      9 ;     0.00   0.65084   3 ;     H2-    C2-    C1-   C81
   158    157    161    167      9 ;     0.00   0.65084   3 ;     H2-    C2-    C1-   C20
   159    157    161    162      9 ;     0.00   0.37656   3 ;     O3-    C2-    C1-    H1
   159    157    161    163      9 ;   180.00   1.96648   1 ;     O3-    C2-    C1-   C81
   159    157    161    167      9 ;     0.00   0.75312   3 ;     O3-    C2-    C1-   C20
   160    159    157    161      9 ;     0.00   0.25104   3 ;     H3-    O3-    C2-    C1
   161    163    165    166      9 ;   180.00   7.53120   2 ;     C1-   C81-   O83-  H105
   161    167    170    171      9 ;     0.00   0.54392   3 ;     C1-   C20-   C21-   H36
   161    167    170    172      9 ;     0.00   0.54392   3 ;     C1-   C20-   C21-   H37
   161    167    170    173      9 ;     0.00   2.17568   3 ;     C1-   C20-   C21-   C22
   162    161    163    164      9 ;     0.00  16.86152   1 ;     H1-    C1-   C81-   O82
   162    161    163    164      9 ;   180.00  15.31344   2 ;     H1-    C1-   C81-   O82
   162    161    163    165      9 ;   180.00   0.00000   2 ;     H1-    C1-   C81-   O83
   162    161    167    168      9 ;     0.00   0.50208   3 ;     H1-    C1-   C20-   H34
   162    161    167    169      9 ;     0.00   0.50208   3 ;     H1-    C1-   C20-   H35
   162    161    167    170      9 ;     0.00   0.54392   3 ;     H1-    C1-   C20-   C21
   163    161    167    168      9 ;     0.00   0.65084   3 ;    C81-    C1-   C20-   H34
   163    161    167    169      9 ;     0.00   0.65084   3 ;    C81-    C1-   C20-   H35
   163    161    167    170      9 ;     0.00   0.00000   0 ;    C81-    C1-   C20-   C21
   163    161    167    170      9 ;     0.00   0.16736   2 ;    C81-    C1-   C20-   C21
   163    161    167    170      9 ;   180.00   1.92464   1 ;    C81-    C1-   C20-   C21
   164    163    161    167      9 ;     0.00   2.84512   1 ;    O82-   C81-    C1-   C20
   164    163    161    167      9 ;   180.00   0.83680   2 ;    O82-   C81-    C1-   C20
   164    163    161    167      9 ;   180.00   1.84096   3 ;    O82-   C81-    C1-   C20
   164    163    165    166      9 ;     0.00   7.94960   1 ;    O82-   C81-   O83-  H105
   164    163    165    166      9 ;   180.00   9.62320   2 ;    O82-   C81-   O83-  H105
   165    163    161    167      9 ;   180.00   0.00000   2 ;    O83-   C81-    C1-   C20
   167    170    173    174      9 ;     0.00   0.54392   3 ;    C20-   C21-   C22-   H38
   167    170    173    175      9 ;     0.00   0.54392   3 ;    C20-   C21-   C22-   H39
   167    170    173    176      9 ;     0.00   2.17568   3 ;    C20-   C21-   C22-   C23
   168    167    170    171      9 ;     0.00   0.50208   3 ;    H34-   C20-   C21-   H36
   168    167    170    172      9 ;     0.00   0.50208   3 ;    H34-   C20-   C21-   H37
   168    167    170    173      9 ;     0.00   0.54392   3 ;    H34-   C20-   C21-   C22
   169    167    170    171      9 ;     0.00   0.50208   3 ;    H35-   C20-   C21-   H36
   169    167    170    172      9 ;     0.00   0.50208   3 ;    H35-   C20-   C21-   H37
   169    167    170    173      9 ;     0.00   0.54392   3 ;    H35-   C20-   C21-   C22
   170    173    176    177      9 ;     0.00   0.54392   3 ;    C21-   C22-   C23-   H40
   170    173    176    178      9 ;     0.00   0.54392   3 ;    C21-   C22-   C23-   H41
   170    173    176    179      9 ;     0.00   2.17568   3 ;    C21-   C22-   C23-   C24
   171    170    173    174      9 ;     0.00   0.50208   3 ;    H36-   C21-   C22-   H38
   171    170    173    175      9 ;     0.00   0.50208   3 ;    H36-   C21-   C22-   H39
   171    170    173    176      9 ;     0.00   0.54392   3 ;    H36-   C21-   C22-   C23
   172    170    173    174      9 ;     0.00   0.50208   3 ;    H37-   C21-   C22-   H38
   172    170    173    175      9 ;     0.00   0.50208   3 ;    H37-   C21-   C22-   H39
   172    170    173    176      9 ;     0.00   0.54392   3 ;    H37-   C21-   C22-   C23
   173    176    179    180      9 ;     0.00   0.54392   3 ;    C22-   C23-   C24-   H42
   173    176    179    181      9 ;     0.00   0.54392   3 ;    C22-   C23-   C24-   H43
   173    176    179    182      9 ;     0.00   2.17568   3 ;    C22-   C23-   C24-   C25
   174    173    176    177      9 ;     0.00   0.50208   3 ;    H38-   C22-   C23-   H40
   174    173    176    178      9 ;     0.00   0.50208   3 ;    H38-   C22-   C23-   H41
   174    173    176    179      9 ;     0.00   0.54392   3 ;    H38-   C22-   C23-   C24
   175    173    176    177      9 ;     0.00   0.50208   3 ;    H39-   C22-   C23-   H40
   175    173    176    178      9 ;     0.00   0.50208   3 ;    H39-   C22-   C23-   H41
   175    173    176    179      9 ;     0.00   0.54392   3 ;    H39-   C22-   C23-   C24
   176    179    182    183      9 ;     0.00   0.54392   3 ;    C23-   C24-   C25-   H44
   176    179    182    184      9 ;     0.00   0.54392   3 ;    C23-   C24-   C25-   H45
   176    179    182    185      9 ;     0.00   2.17568   3 ;    C23-   C24-   C25-   C26
   177    176    179    180      9 ;     0.00   0.50208   3 ;    H40-   C23-   C24-   H42
   177    176    179    181      9 ;     0.00   0.50208   3 ;    H40-   C23-   C24-   H43
   177    176    179    182      9 ;     0.00   0.54392   3 ;    H40-   C23-   C24-   C25
   178    176    179    180      9 ;     0.00   0.50208   3 ;    H41-   C23-   C24-   H42
   178    176    179    181      9 ;     0.00   0.50208   3 ;    H41-   C23-   C24-   H43
   178    176    179    182      9 ;     0.00   0.54392   3 ;    H41-   C23-   C24-   C25
   179    182    185    186      9 ;     0.00   0.54392   3 ;    C24-   C25-   C26-   H46
   179    182    185    187      9 ;     0.00   0.54392   3 ;    C24-   C25-   C26-   H47
   179    182    185    188      9 ;     0.00   2.17568   3 ;    C24-   C25-   C26-   C27
   180    179    182    183      9 ;     0.00   0.50208   3 ;    H42-   C24-   C25-   H44
   180    179    182    184      9 ;     0.00   0.50208   3 ;    H42-   C24-   C25-   H45
   180    179    182    185      9 ;     0.00   0.54392   3 ;    H42-   C24-   C25-   C26
   181    179    182    183      9 ;     0.00   0.50208   3 ;    H43-   C24-   C25-   H44
   181    179    182    184      9 ;     0.00   0.50208   3 ;    H43-   C24-   C25-   H45
   181    179    182    185      9 ;     0.00   0.54392   3 ;    H43-   C24-   C25-   C26
   182    185    188    189      9 ;     0.00   0.54392   3 ;    C25-   C26-   C27-   H48
   182    185    188    190      9 ;     0.00   0.54392   3 ;    C25-   C26-   C27-   H49
   182    185    188    191      9 ;     0.00   2.17568   3 ;    C25-   C26-   C27-   C28
   183    182    185    186      9 ;     0.00   0.50208   3 ;    H44-   C25-   C26-   H46
   183    182    185    187      9 ;     0.00   0.50208   3 ;    H44-   C25-   C26-   H47
   183    182    185    188      9 ;     0.00   0.54392   3 ;    H44-   C25-   C26-   C27
   184    182    185    186      9 ;     0.00   0.50208   3 ;    H45-   C25-   C26-   H46
   184    182    185    187      9 ;     0.00   0.50208   3 ;    H45-   C25-   C26-   H47
   184    182    185    188      9 ;     0.00   0.54392   3 ;    H45-   C25-   C26-   C27
   185    188    191    192      9 ;     0.00   0.54392   3 ;    C26-   C27-   C28-   H50
   185    188    191    193      9 ;     0.00   0.54392   3 ;    C26-   C27-   C28-   H51
   185    188    191    194      9 ;     0.00   2.17568   3 ;    C26-   C27-   C28-   C29
   186    185    188    189      9 ;     0.00   0.50208   3 ;    H46-   C26-   C27-   H48
   186    185    188    190      9 ;     0.00   0.50208   3 ;    H46-   C26-   C27-   H49
   186    185    188    191      9 ;     0.00   0.54392   3 ;    H46-   C26-   C27-   C28
   187    185    188    189      9 ;     0.00   0.50208   3 ;    H47-   C26-   C27-   H48
   187    185    188    190      9 ;     0.00   0.50208   3 ;    H47-   C26-   C27-   H49
   187    185    188    191      9 ;     0.00   0.54392   3 ;    H47-   C26-   C27-   C28
   188    191    194    195      9 ;     0.00   0.54392   3 ;    C27-   C28-   C29-   H52
   188    191    194    196      9 ;     0.00   0.54392   3 ;    C27-   C28-   C29-   H53
   188    191    194    197      9 ;     0.00   2.17568   3 ;    C27-   C28-   C29-   C30
   189    188    191    192      9 ;     0.00   0.50208   3 ;    H48-   C27-   C28-   H50
   189    188    191    193      9 ;     0.00   0.50208   3 ;    H48-   C27-   C28-   H51
   189    188    191    194      9 ;     0.00   0.54392   3 ;    H48-   C27-   C28-   C29
   190    188    191    192      9 ;     0.00   0.50208   3 ;    H49-   C27-   C28-   H50
   190    188    191    193      9 ;     0.00   0.50208   3 ;    H49-   C27-   C28-   H51
   190    188    191    194      9 ;     0.00   0.54392   3 ;    H49-   C27-   C28-   C29
   191    194    197    198      9 ;     0.00   0.54392   3 ;    C28-   C29-   C30-   H54
   191    194    197    199      9 ;     0.00   0.54392   3 ;    C28-   C29-   C30-   H55
   191    194    197    200      9 ;     0.00   2.17568   3 ;    C28-   C29-   C30-   C31
   192    191    194    195      9 ;     0.00   0.50208   3 ;    H50-   C28-   C29-   H52
   192    191    194    196      9 ;     0.00   0.50208   3 ;    H50-   C28-   C29-   H53
   192    191    194    197      9 ;     0.00   0.54392   3 ;    H50-   C28-   C29-   C30
   193    191    194    195      9 ;     0.00   0.50208   3 ;    H51-   C28-   C29-   H52
   193    191    194    196      9 ;     0.00   0.50208   3 ;    H51-   C28-   C29-   H53
   193    191    194    197      9 ;     0.00   0.54392   3 ;    H51-   C28-   C29-   C30
   194    197    200    201      9 ;     0.00   0.54392   3 ;    C29-   C30-   C31-   H56
   194    197    200    202      9 ;     0.00   0.54392   3 ;    C29-   C30-   C31-   H57
   194    197    200    203      9 ;     0.00   2.17568   3 ;    C29-   C30-   C31-   C32
   195    194    197    198      9 ;     0.00   0.50208   3 ;    H52-   C29-   C30-   H54
   195    194    197    199      9 ;     0.00   0.50208   3 ;    H52-   C29-   C30-   H55
   195    194    197    200      9 ;     0.00   0.54392   3 ;    H52-   C29-   C30-   C31
   196    194    197    198      9 ;     0.00   0.50208   3 ;    H53-   C29-   C30-   H54
   196    194    197    199      9 ;     0.00   0.50208   3 ;    H53-   C29-   C30-   H55
   196    194    197    200      9 ;     0.00   0.54392   3 ;    H53-   C29-   C30-   C31
   197    200    203    204      9 ;     0.00   0.54392   3 ;    C30-   C31-   C32-   H58
   197    200    203    205      9 ;     0.00   0.54392   3 ;    C30-   C31-   C32-   H59
   197    200    203    206      9 ;     0.00   2.17568   3 ;    C30-   C31-   C32-   C33
   198    197    200    201      9 ;     0.00   0.50208   3 ;    H54-   C30-   C31-   H56
   198    197    200    202      9 ;     0.00   0.50208   3 ;    H54-   C30-   C31-   H57
   198    197    200    203      9 ;     0.00   0.54392   3 ;    H54-   C30-   C31-   C32
   199    197    200    201      9 ;     0.00   0.50208   3 ;    H55-   C30-   C31-   H56
   199    197    200    202      9 ;     0.00   0.50208   3 ;    H55-   C30-   C31-   H57
   199    197    200    203      9 ;     0.00   0.54392   3 ;    H55-   C30-   C31-   C32
   200    203    206    207      9 ;     0.00   0.54392   3 ;    C31-   C32-   C33-   H60
   200    203    206    208      9 ;     0.00   0.54392   3 ;    C31-   C32-   C33-   H61
   200    203    206    209      9 ;     0.00   2.17568   3 ;    C31-   C32-   C33-   C34
   201    200    203    204      9 ;     0.00   0.50208   3 ;    H56-   C31-   C32-   H58
   201    200    203    205      9 ;     0.00   0.50208   3 ;    H56-   C31-   C32-   H59
   201    200    203    206      9 ;     0.00   0.54392   3 ;    H56-   C31-   C32-   C33
   202    200    203    204      9 ;     0.00   0.50208   3 ;    H57-   C31-   C32-   H58
   202    200    203    205      9 ;     0.00   0.50208   3 ;    H57-   C31-   C32-   H59
   202    200    203    206      9 ;     0.00   0.54392   3 ;    H57-   C31-   C32-   C33
   203    206    209    210      9 ;     0.00   0.54392   3 ;    C32-   C33-   C34-   H62
   203    206    209    211      9 ;     0.00   0.54392   3 ;    C32-   C33-   C34-   H63
   203    206    209    212      9 ;     0.00   2.17568   3 ;    C32-   C33-   C34-   C35
   204    203    206    207      9 ;     0.00   0.50208   3 ;    H58-   C32-   C33-   H60
   204    203    206    208      9 ;     0.00   0.50208   3 ;    H58-   C32-   C33-   H61
   204    203    206    209      9 ;     0.00   0.54392   3 ;    H58-   C32-   C33-   C34
   205    203    206    207      9 ;     0.00   0.50208   3 ;    H59-   C32-   C33-   H60
   205    203    206    208      9 ;     0.00   0.50208   3 ;    H59-   C32-   C33-   H61
   205    203    206    209      9 ;     0.00   0.54392   3 ;    H59-   C32-   C33-   C34
   206    209    212    213      9 ;     0.00   0.54392   3 ;    C33-   C34-   C35-   H64
   206    209    212    214      9 ;     0.00   0.54392   3 ;    C33-   C34-   C35-   H65
   206    209    212    215      9 ;     0.00   2.17568   3 ;    C33-   C34-   C35-   C36
   207    206    209    210      9 ;     0.00   0.50208   3 ;    H60-   C33-   C34-   H62
   207    206    209    211      9 ;     0.00   0.50208   3 ;    H60-   C33-   C34-   H63
   207    206    209    212      9 ;     0.00   0.54392   3 ;    H60-   C33-   C34-   C35
   208    206    209    210      9 ;     0.00   0.50208   3 ;    H61-   C33-   C34-   H62
   208    206    209    211      9 ;     0.00   0.50208   3 ;    H61-   C33-   C34-   H63
   208    206    209    212      9 ;     0.00   0.54392   3 ;    H61-   C33-   C34-   C35
   209    212    215    216      9 ;     0.00   0.54392   3 ;    C34-   C35-   C36-   H66
   209    212    215    217      9 ;     0.00   0.54392   3 ;    C34-   C35-   C36-   H67
   209    212    215    218      9 ;     0.00   2.17568   3 ;    C34-   C35-   C36-   C37
   210    209    212    213      9 ;     0.00   0.50208   3 ;    H62-   C34-   C35-   H64
   210    209    212    214      9 ;     0.00   0.50208   3 ;    H62-   C34-   C35-   H65
   210    209    212    215      9 ;     0.00   0.54392   3 ;    H62-   C34-   C35-   C36
   211    209    212    213      9 ;     0.00   0.50208   3 ;    H63-   C34-   C35-   H64
   211    209    212    214      9 ;     0.00   0.50208   3 ;    H63-   C34-   C35-   H65
   211    209    212    215      9 ;     0.00   0.54392   3 ;    H63-   C34-   C35-   C36
   212    215    218    219      9 ;     0.00   0.54392   3 ;    C35-   C36-   C37-   H68
   212    215    218    220      9 ;     0.00   0.54392   3 ;    C35-   C36-   C37-   H69
   212    215    218    221      9 ;     0.00   2.17568   3 ;    C35-   C36-   C37-   C38
   213    212    215    216      9 ;     0.00   0.50208   3 ;    H64-   C35-   C36-   H66
   213    212    215    217      9 ;     0.00   0.50208   3 ;    H64-   C35-   C36-   H67
   213    212    215    218      9 ;     0.00   0.54392   3 ;    H64-   C35-   C36-   C37
   214    212    215    216      9 ;     0.00   0.50208   3 ;    H65-   C35-   C36-   H66
   214    212    215    217      9 ;     0.00   0.50208   3 ;    H65-   C35-   C36-   H67
   214    212    215    218      9 ;     0.00   0.54392   3 ;    H65-   C35-   C36-   C37
   215    218    221    222      9 ;     0.00   0.54392   3 ;    C36-   C37-   C38-   H70
   215    218    221    223      9 ;     0.00   0.54392   3 ;    C36-   C37-   C38-   H71
   215    218    221    224      9 ;     0.00   2.17568   3 ;    C36-   C37-   C38-   C39
   216    215    218    219      9 ;     0.00   0.50208   3 ;    H66-   C36-   C37-   H68
   216    215    218    220      9 ;     0.00   0.50208   3 ;    H66-   C36-   C37-   H69
   216    215    218    221      9 ;     0.00   0.54392   3 ;    H66-   C36-   C37-   C38
   217    215    218    219      9 ;     0.00   0.50208   3 ;    H67-   C36-   C37-   H68
   217    215    218    220      9 ;     0.00   0.50208   3 ;    H67-   C36-   C37-   H69
   217    215    218    221      9 ;     0.00   0.54392   3 ;    H67-   C36-   C37-   C38
   218    221    224    225      9 ;     0.00   0.54392   3 ;    C37-   C38-   C39-   H72
   218    221    224    226      9 ;     0.00   0.54392   3 ;    C37-   C38-   C39-   H73
   218    221    224    227      9 ;     0.00   2.17568   3 ;    C37-   C38-   C39-   C40
   219    218    221    222      9 ;     0.00   0.50208   3 ;    H68-   C37-   C38-   H70
   219    218    221    223      9 ;     0.00   0.50208   3 ;    H68-   C37-   C38-   H71
   219    218    221    224      9 ;     0.00   0.54392   3 ;    H68-   C37-   C38-   C39
   220    218    221    222      9 ;     0.00   0.50208   3 ;    H69-   C37-   C38-   H70
   220    218    221    223      9 ;     0.00   0.50208   3 ;    H69-   C37-   C38-   H71
   220    218    221    224      9 ;     0.00   0.54392   3 ;    H69-   C37-   C38-   C39
   221    224    227    228      9 ;     0.00   0.54392   3 ;    C38-   C39-   C40-   H74
   221    224    227    229      9 ;     0.00   0.54392   3 ;    C38-   C39-   C40-   H75
   221    224    227    230      9 ;     0.00   2.17568   3 ;    C38-   C39-   C40-   C41
   222    221    224    225      9 ;     0.00   0.50208   3 ;    H70-   C38-   C39-   H72
   222    221    224    226      9 ;     0.00   0.50208   3 ;    H70-   C38-   C39-   H73
   222    221    224    227      9 ;     0.00   0.54392   3 ;    H70-   C38-   C39-   C40
   223    221    224    225      9 ;     0.00   0.50208   3 ;    H71-   C38-   C39-   H72
   223    221    224    226      9 ;     0.00   0.50208   3 ;    H71-   C38-   C39-   H73
   223    221    224    227      9 ;     0.00   0.54392   3 ;    H71-   C38-   C39-   C40
   224    227    230    231      9 ;     0.00   0.54392   3 ;    C39-   C40-   C41-   H76
   224    227    230    232      9 ;     0.00   0.54392   3 ;    C39-   C40-   C41-   H77
   224    227    230    233      9 ;     0.00   2.17568   3 ;    C39-   C40-   C41-   C42
   225    224    227    228      9 ;     0.00   0.50208   3 ;    H72-   C39-   C40-   H74
   225    224    227    229      9 ;     0.00   0.50208   3 ;    H72-   C39-   C40-   H75
   225    224    227    230      9 ;     0.00   0.54392   3 ;    H72-   C39-   C40-   C41
   226    224    227    228      9 ;     0.00   0.50208   3 ;    H73-   C39-   C40-   H74
   226    224    227    229      9 ;     0.00   0.50208   3 ;    H73-   C39-   C40-   H75
   226    224    227    230      9 ;     0.00   0.54392   3 ;    H73-   C39-   C40-   C41
   227    230    233    234      9 ;     0.00   0.54392   3 ;    C40-   C41-   C42-   H78
   227    230    233    235      9 ;     0.00   0.54392   3 ;    C40-   C41-   C42-   H79
   227    230    233    236      9 ;     0.00   2.17568   3 ;    C40-   C41-   C42-   C43
   228    227    230    231      9 ;     0.00   0.50208   3 ;    H74-   C40-   C41-   H76
   228    227    230    232      9 ;     0.00   0.50208   3 ;    H74-   C40-   C41-   H77
   228    227    230    233      9 ;     0.00   0.54392   3 ;    H74-   C40-   C41-   C42
   229    227    230    231      9 ;     0.00   0.50208   3 ;    H75-   C40-   C41-   H76
   229    227    230    232      9 ;     0.00   0.50208   3 ;    H75-   C40-   C41-   H77
   229    227    230    233      9 ;     0.00   0.54392   3 ;    H75-   C40-   C41-   C42
   230    233    236    237      9 ;     0.00   0.54392   3 ;    C41-   C42-   C43-   H80
   230    233    236    238      9 ;     0.00   0.54392   3 ;    C41-   C42-   C43-   H81
   230    233    236    239      9 ;     0.00   0.54392   3 ;    C41-   C42-   C43-   H82
   231    230    233    234      9 ;     0.00   0.50208   3 ;    H76-   C41-   C42-   H78
   231    230    233    235      9 ;     0.00   0.50208   3 ;    H76-   C41-   C42-   H79
   231    230    233    236      9 ;     0.00   0.54392   3 ;    H76-   C41-   C42-   C43
   232    230    233    234      9 ;     0.00   0.50208   3 ;    H77-   C41-   C42-   H78
   232    230    233    235      9 ;     0.00   0.50208   3 ;    H77-   C41-   C42-   H79
   232    230    233    236      9 ;     0.00   0.54392   3 ;    H77-   C41-   C42-   C43
   234    233    236    237      9 ;     0.00   0.50208   3 ;    H78-   C42-   C43-   H80
   234    233    236    238      9 ;     0.00   0.50208   3 ;    H78-   C42-   C43-   H81
   234    233    236    239      9 ;     0.00   0.50208   3 ;    H78-   C42-   C43-   H82
   235    233    236    237      9 ;     0.00   0.50208   3 ;    H79-   C42-   C43-   H80
   235    233    236    238      9 ;     0.00   0.50208   3 ;    H79-   C42-   C43-   H81
   235    233    236    239      9 ;     0.00   0.50208   3 ;    H79-   C42-   C43-   H82

[ dihedrals ] ; impropers
; treated as propers in GROMACS to use correct AMBER analytical function
;    i      j      k      l   func   phase     kd      pn
   161    164    163    165      4 ;   180.00   4.60240   2 ;     C1-   O82-   C81-   O83
