MYC_GMX.gro created by acpype (v: 2023.10.27) on Fri May  8 22:45:17 2026
 239
    1  MYC HH15    1   0.697   6.211   6.644
    1  MYC  C80    2   0.681   6.256   6.743
    1  MYC H100    3   0.764   6.327   6.756
    1  MYC H101    4   0.589   6.316   6.744
    1  MYC  C79    5   0.665   6.148   6.851
    1  MYC H102    6   0.757   6.090   6.859
    1  MYC H103    7   0.594   6.075   6.811
    1  MYC  C78    8   0.613   6.200   6.986
    1  MYC HH14    9   0.507   6.226   6.979
    1  MYC H104   10   0.670   6.290   7.012
    1  MYC  C77   11   0.648   6.108   7.104
    1  MYC H106   12   0.752   6.084   7.127
    1  MYC H107   13   0.607   6.007   7.090
    1  MYC  C76   14   0.587   6.167   7.232
    1  MYC H108   15   0.483   6.200   7.221
    1  MYC H109   16   0.635   6.263   7.257
    1  MYC  C75   17   0.594   6.075   7.355
    1  MYC H110   18   0.693   6.028   7.355
    1  MYC H111   19   0.524   5.992   7.338
    1  MYC  C74   20   0.558   6.153   7.483
    1  MYC H112   21   0.448   6.160   7.484
    1  MYC H113   22   0.602   6.253   7.487
    1  MYC  C73   23   0.597   6.076   7.610
    1  MYC HH13   24   0.699   6.037   7.603
    1  MYC H114   25   0.522   5.996   7.605
    1  MYC  C72   26   0.568   6.153   7.740
    1  MYC H115   27   0.462   6.181   7.749
    1  MYC H116   28   0.627   6.245   7.748
    1  MYC  C71   29   0.584   6.065   7.865
    1  MYC H117   30   0.679   6.010   7.856
    1  MYC H118   31   0.500   5.995   7.872
    1  MYC  C70   32   0.571   6.147   7.995
    1  MYC H119   33   0.471   6.189   8.004
    1  MYC H120   34   0.642   6.228   7.973
    1  MYC  C69   35   0.610   6.080   8.128
    1  MYC H121   36   0.714   6.048   8.135
    1  MYC H122   37   0.550   5.988   8.133
    1  MYC  C68   38   0.580   6.172   8.247
    1  MYC HH12   39   0.474   6.201   8.250
    1  MYC H123   40   0.634   6.267   8.236
    1  MYC  C67   41   0.626   6.118   8.383
    1  MYC H124   42   0.734   6.131   8.394
    1  MYC H125   43   0.606   6.010   8.391
    1  MYC  C66   44   0.551   6.197   8.492
    1  MYC H126   45   0.443   6.190   8.478
    1  MYC H127   46   0.562   6.306   8.486
    1  MYC  C65   47   0.577   6.147   8.635
    1  MYC H128   48   0.675   6.182   8.670
    1  MYC H129   49   0.592   6.038   8.629
    1  MYC  C64   50   0.465   6.175   8.736
    1  MYC H130   51   0.369   6.125   8.720
    1  MYC H131   52   0.448   6.283   8.728
    1  MYC  C63   53   0.517   6.144   8.877
    1  MYC HH11   54   0.618   6.183   8.890
    1  MYC H132   55   0.520   6.035   8.894
    1  MYC  C62   56   0.421   6.192   8.988
    1  MYC H133   57   0.325   6.142   8.975
    1  MYC H134   58   0.404   6.300   8.983
    1  MYC  C61   59   0.473   6.161   9.129
    1  MYC H135   60   0.578   6.193   9.126
    1  MYC H136   61   0.466   6.053   9.143
    1  MYC  C60   62   0.399   6.230   9.243
    1  MYC H137   63   0.290   6.232   9.237
    1  MYC  C58   64   0.459   6.207   9.379
    1  MYC H138   65   0.558   6.162   9.384
    1  MYC  C59   66   0.453   6.346   9.321
    1  MYC H139   67   0.383   6.421   9.356
    1  MYC H140   68   0.544   6.393   9.283
    1  MYC  C57   69   0.381   6.177   9.507
    1  MYC HH10   70   0.357   6.071   9.519
    1  MYC H141   71   0.289   6.235   9.510
    1  MYC  C56   72   0.461   6.211   9.634
    1  MYC H142   73   0.467   6.319   9.648
    1  MYC H143   74   0.565   6.176   9.623
    1  MYC  C55   75   0.385   6.163   9.759
    1  MYC H144   76   0.403   6.055   9.758
    1  MYC H145   77   0.277   6.174   9.747
    1  MYC  C54   78   0.434   6.232   9.887
    1  MYC H146   79   0.416   6.340   9.888
    1  MYC H147   80   0.543   6.224   9.897
    1  MYC  C53   81   0.371   6.172  10.014
    1  MYC H148   82   0.381   6.063  10.014
    1  MYC H149   83   0.264   6.197  10.015
    1  MYC  C52   84   0.432   6.249  10.132
    1  MYC  H99   85   0.421   6.358  10.123
    1  MYC H150   86   0.539   6.229  10.129
    1  MYC  C51   87   0.372   6.202  10.266
    1  MYC  H97   88   0.380   6.093  10.258
    1  MYC  H98   89   0.269   6.238  10.267
    1  MYC  C50   90   0.448   6.241  10.394
    1  MYC  H95   91   0.409   6.337  10.433
    1  MYC  H96   92   0.551   6.261  10.362
    1  MYC  C49   93   0.434   6.145  10.513
    1  MYC  H93   94   0.496   6.057  10.492
    1  MYC  H94   95   0.325   6.128  10.518
    1  MYC  C48   96   0.464   6.206  10.651
    1  MYC  H91   97   0.417   6.303  10.672
    1  MYC  H92   98   0.570   6.234  10.657
    1  MYC  C47   99   0.414   6.117  10.766
    1  MYC  H89  100   0.462   6.019  10.762
    1  MYC  H90  101   0.307   6.104  10.749
    1  MYC  C46  102   0.425   6.170  10.910
    1  MYC  H87  103   0.350   6.250  10.916
    1  MYC  H88  104   0.523   6.217  10.925
    1  MYC  C45  105   0.404   6.060  11.015
    1  MYC  H85  106   0.485   5.986  11.014
    1  MYC  H86  107   0.317   5.994  10.999
    1  MYC  C44  108   0.399   6.114  11.159
    1  MYC  H83  109   0.365   6.035  11.227
    1  MYC  H84  110   0.314   6.184  11.165
    1  MYC  C18  111   0.521   6.188  11.212
    1  MYC  H31  112   0.616   6.137  11.199
    1  MYC  C17  113   0.517   6.337  11.189
    1  MYC  H30  114   0.428   6.365  11.133
    1  MYC  C19  115   0.505   6.282  11.329
    1  MYC  H32  116   0.407   6.288  11.375
    1  MYC  H33  117   0.596   6.298  11.387
    1  MYC  C16  118   0.644   6.404  11.140
    1  MYC  H28  119   0.699   6.339  11.070
    1  MYC  H29  120   0.721   6.425  11.216
    1  MYC  C15  121   0.624   6.546  11.085
    1  MYC  H26  122   0.725   6.586  11.075
    1  MYC  H27  123   0.568   6.599  11.163
    1  MYC  C14  124   0.548   6.548  10.951
    1  MYC  H24  125   0.448   6.514  10.980
    1  MYC  H25  126   0.591   6.478  10.878
    1  MYC  C13  127   0.545   6.687  10.885
    1  MYC  H22  128   0.650   6.715  10.868
    1  MYC  H23  129   0.506   6.759  10.958
    1  MYC  C12  130   0.467   6.694  10.753
    1  MYC  H20  131   0.368   6.652  10.773
    1  MYC  H21  132   0.523   6.628  10.685
    1  MYC  C11  133   0.454   6.840  10.706
    1  MYC  H18  134   0.552   6.888  10.704
    1  MYC  H19  135   0.403   6.892  10.787
    1  MYC  C10  136   0.384   6.854  10.569
    1  MYC  H16  137   0.395   6.958  10.534
    1  MYC  H17  138   0.277   6.833  10.578
    1  MYC   C9  139   0.441   6.770  10.454
    1  MYC  H14  140   0.427   6.665  10.485
    1  MYC  H15  141   0.550   6.781  10.454
    1  MYC   C8  142   0.396   6.804  10.311
    1  MYC  H12  143   0.408   6.913  10.308
    1  MYC  H13  144   0.290   6.779  10.299
    1  MYC   C7  145   0.483   6.731  10.207
    1  MYC  H10  146   0.468   6.624  10.220
    1  MYC  H11  147   0.586   6.758  10.233
    1  MYC   C6  148   0.456   6.771  10.061
    1  MYC   H8  149   0.473   6.878  10.040
    1  MYC   H9  150   0.347   6.763  10.046
    1  MYC   C5  151   0.528   6.677   9.963
    1  MYC   H6  152   0.483   6.577   9.970
    1  MYC   H7  153   0.625   6.663  10.011
    1  MYC   C4  154   0.544   6.723   9.817
    1  MYC   H4  155   0.637   6.674   9.785
    1  MYC   H5  156   0.578   6.827   9.814
    1  MYC   C2  157   0.427   6.704   9.720
    1  MYC   H2  158   0.474   6.674   9.625
    1  MYC   O3  159   0.345   6.593   9.755
    1  MYC   H3  160   0.399   6.547   9.822
    1  MYC   C1  161   0.339   6.824   9.682
    1  MYC   H1  162   0.411   6.904   9.660
    1  MYC  C81  163   0.251   6.857   9.802
    1  MYC  O82  164   0.144   6.803   9.825
    1  MYC  O83  165   0.269   6.979   9.855
    1  MYC H105  166   0.188   7.002   9.905
    1  MYC  C20  167   0.252   6.808   9.556
    1  MYC  H34  168   0.198   6.713   9.564
    1  MYC  H35  169   0.183   6.893   9.547
    1  MYC  C21  170   0.330   6.803   9.424
    1  MYC  H36  171   0.375   6.902   9.407
    1  MYC  H37  172   0.412   6.731   9.430
    1  MYC  C22  173   0.237   6.778   9.304
    1  MYC  H38  174   0.163   6.701   9.327
    1  MYC  H39  175   0.181   6.870   9.282
    1  MYC  C23  176   0.314   6.733   9.178
    1  MYC  H40  177   0.398   6.803   9.166
    1  MYC  H41  178   0.359   6.634   9.190
    1  MYC  C24  179   0.229   6.737   9.050
    1  MYC  H42  180   0.158   6.655   9.062
    1  MYC  H43  181   0.178   6.834   9.041
    1  MYC  C25  182   0.310   6.728   8.919
    1  MYC  H44  183   0.395   6.797   8.921
    1  MYC  H45  184   0.354   6.628   8.910
    1  MYC  C26  185   0.228   6.761   8.793
    1  MYC  H46  186   0.134   6.704   8.790
    1  MYC  H47  187   0.206   6.867   8.810
    1  MYC  C27  188   0.293   6.739   8.655
    1  MYC  H48  189   0.398   6.770   8.665
    1  MYC  H49  190   0.300   6.631   8.637
    1  MYC  C28  191   0.222   6.804   8.535
    1  MYC  H50  192   0.113   6.800   8.540
    1  MYC  H51  193   0.235   6.913   8.542
    1  MYC  C29  194   0.281   6.753   8.402
    1  MYC  H52  195   0.380   6.798   8.394
    1  MYC  H53  196   0.299   6.644   8.406
    1  MYC  C30  197   0.208   6.799   8.275
    1  MYC  H54  198   0.107   6.761   8.293
    1  MYC  H55  199   0.205   6.908   8.286
    1  MYC  C31  200   0.257   6.751   8.137
    1  MYC  H56  201   0.359   6.786   8.114
    1  MYC  H57  202   0.272   6.643   8.134
    1  MYC  C32  203   0.154   6.796   8.032
    1  MYC  H58  204   0.055   6.752   8.043
    1  MYC  H59  205   0.145   6.905   8.044
    1  MYC  C33  206   0.200   6.761   7.889
    1  MYC  H60  207   0.298   6.809   7.880
    1  MYC  H61  208   0.214   6.653   7.876
    1  MYC  C34  209   0.105   6.805   7.777
    1  MYC  H62  210   0.007   6.757   7.787
    1  MYC  H63  211   0.089   6.913   7.779
    1  MYC  C35  212   0.150   6.758   7.637
    1  MYC  H64  213   0.255   6.782   7.618
    1  MYC  H65  214   0.150   6.649   7.639
    1  MYC  C36  215   0.069   6.808   7.516
    1  MYC  H66  216  -0.035   6.783   7.542
    1  MYC  H67  217   0.081   6.917   7.513
    1  MYC  C37  218   0.118   6.741   7.386
    1  MYC  H68  219   0.227   6.751   7.382
    1  MYC  H69  220   0.087   6.636   7.394
    1  MYC  C38  221   0.057   6.796   7.256
    1  MYC  H70  222  -0.045   6.755   7.254
    1  MYC  H71  223   0.056   6.906   7.256
    1  MYC  C39  224   0.134   6.748   7.132
    1  MYC  H72  225   0.239   6.776   7.143
    1  MYC  H73  226   0.124   6.639   7.131
    1  MYC  C40  227   0.068   6.793   7.001
    1  MYC  H74  228  -0.035   6.753   7.002
    1  MYC  H75  229   0.060   6.902   6.987
    1  MYC  C41  230   0.142   6.727   6.884
    1  MYC  H76  231   0.236   6.782   6.880
    1  MYC  H77  232   0.180   6.625   6.901
    1  MYC  C42  233   0.060   6.726   6.754
    1  MYC  H78  234  -0.023   6.656   6.763
    1  MYC  H79  235   0.015   6.823   6.732
    1  MYC  C43  236   0.148   6.677   6.637
    1  MYC  H80  237   0.093   6.670   6.542
    1  MYC  H81  238   0.191   6.578   6.656
    1  MYC  H82  239   0.234   6.740   6.614
   16.18000    20.32000    96.90000
