Peptide + Mycolic Acid Membrane + Water
44182
    1LEU      N    1   2.590   3.390   1.473 -0.4323 -0.5609  0.5534
    1LEU     H1    2   2.516   3.324   1.493 -0.5743 -0.7468 -0.4955
    1LEU     H2    3   2.552   3.477   1.505  2.1748  1.1952 -0.7554
    1LEU     H3    4   2.601   3.412   1.375 -1.4967 -1.5544  0.1835
    1LEU     CA    5   2.714   3.358   1.554 -0.8898 -0.2074 -0.4362
    1LEU     HA    6   2.778   3.446   1.545 -1.6274  0.2554 -1.5308
    1LEU     CB    7   2.677   3.346   1.706  0.3859  0.8321  0.6182
    1LEU    HB1    8   2.617   3.255   1.715 -2.2783  2.3007 -0.7982
    1LEU    HB2    9   2.599   3.416   1.736  0.6619  0.4649  2.2593
    1LEU     CG   10   2.789   3.341   1.812 -0.3893  0.1596  0.7658
    1LEU     HG   11   2.847   3.250   1.798  1.2858  0.9835  1.9784
    1LEU    CD1   12   2.744   3.328   1.961 -0.1858 -0.1521 -0.1251
    1LEU   HD11   13   2.829   3.306   2.026  1.1774  0.1988 -1.7198
    1LEU   HD12   14   2.696   3.422   1.990 -0.8649 -0.2839 -0.8029
    1LEU   HD13   15   2.668   3.250   1.963  1.0300 -1.3775 -0.4141
    1LEU    CD2   16   2.890   3.453   1.794  0.1574 -0.0679  0.2177
    1LEU   HD21   17   2.842   3.544   1.759 -0.3339 -0.2504  0.3999
    1LEU   HD22   18   2.952   3.463   1.883  2.7564 -1.2796 -1.3196
    1LEU   HD23   19   2.956   3.416   1.715 -0.9784  3.5880 -2.7372
    1LEU      C   20   2.798   3.240   1.500 -0.0681  0.0250 -0.4432
    1LEU      O   21   2.828   3.148   1.566  0.4601 -0.6780 -0.0832
    2ILE      N   22   2.829   3.250   1.370 -0.3060  0.0704  0.4012
    2ILE      H   23   2.790   3.328   1.319 -1.7941 -2.2133 -2.2500
    2ILE     CA   24   2.908   3.164   1.284 -0.7118  0.3554 -1.0791
    2ILE     HA   25   2.950   3.080   1.339  0.2604  0.0748 -2.2058
    2ILE     CB   26   2.812   3.095   1.178 -0.2922  0.1096 -0.0565
    2ILE     HB   27   2.883   3.037   1.120  0.1151 -0.3819  0.9182
    2ILE    CG2   28   2.711   3.003   1.241  0.5239  0.9085  0.2162
    2ILE   HG21   29   2.679   2.923   1.174  2.1291 -2.0034  2.6968
    2ILE   HG22   30   2.747   2.955   1.332 -0.9039  2.4536  1.6648
    2ILE   HG23   31   2.625   3.063   1.273  1.1351  1.2748  1.2084
    2ILE    CG1   32   2.730   3.198   1.093  0.0161 -0.2412  0.3685
    2ILE   HG11   33   2.663   3.263   1.149 -2.6349 -1.5876 -1.0081
    2ILE   HG12   34   2.654   3.142   1.038  1.1082 -1.1095 -0.2958
    2ILE     CD   35   2.801   3.282   0.987 -0.0197 -0.2919  0.0646
    2ILE    HD1   36   2.734   3.346   0.929  1.1702  0.7506 -0.1944
    2ILE    HD2   37   2.864   3.340   1.053  0.3226 -1.8234  1.1339
    2ILE    HD3   38   2.863   3.213   0.929  0.7902  0.6304 -0.1910
    2ILE      C   39   3.029   3.235   1.216 -0.5804  0.2272  0.0806
    2ILE      O   40   3.106   3.165   1.147 -0.2691  1.0106 -0.0600
    3SER      N   41   3.038   3.362   1.230 -0.1018 -0.0854  0.0964
    3SER      H   42   2.977   3.412   1.293 -0.2496  0.2430 -0.3008
    3SER     CA   43   3.129   3.441   1.161  0.4196 -0.4097 -0.0180
    3SER     HA   44   3.112   3.422   1.055 -0.5812 -2.3589  0.4561
    3SER     CB   45   3.108   3.593   1.182  0.1680 -0.2214  0.7990
    3SER    HB1   46   3.000   3.606   1.168  0.1372  0.6259  1.7239
    3SER    HB2   47   3.169   3.650   1.112  0.4621 -0.6385  0.7143
    3SER     OG   48   3.152   3.629   1.308 -0.1341  0.5289 -0.0886
    3SER     HG   49   3.094   3.584   1.370  0.8743  0.2635  0.6918
    3SER      C   50   3.277   3.412   1.180 -0.4838  0.3426 -0.4252
    3SER      O   51   3.353   3.459   1.097  0.1125 -0.0422 -0.0488
    4GLY      N   52   3.320   3.339   1.283  0.3544 -1.2014  0.7367
    4GLY      H   53   3.250   3.290   1.336  0.0252 -0.6351  0.8331
    4GLY     CA   54   3.457   3.337   1.324  0.7257  0.6478 -0.0392
    4GLY    HA1   55   3.511   3.320   1.231  0.7392  1.3293 -0.1588
    4GLY    HA2   56   3.468   3.251   1.391  0.4012  1.4465  1.0731
    4GLY      C   57   3.496   3.461   1.397  0.0434  0.0588  0.3062
    4GLY      O   58   3.412   3.525   1.459  0.3031 -0.0301 -0.1462
    5LEU      N   59   3.627   3.496   1.400  0.2510 -0.6267 -0.1030
    5LEU      H   60   3.689   3.434   1.350  1.0411  0.2309 -0.2307
    5LEU     CA   61   3.692   3.604   1.464 -0.0412 -0.1622  0.6078
    5LEU     HA   62   3.650   3.632   1.561  1.1631  0.2471  1.0375
    5LEU     CB   63   3.840   3.575   1.490 -0.3935 -0.3789 -0.7247
    5LEU    HB1   64   3.893   3.664   1.525 -1.6480  0.4579 -0.9050
    5LEU    HB2   65   3.871   3.555   1.387 -2.3248  1.8658 -1.8452
    5LEU     CG   66   3.876   3.460   1.584  0.8752  0.7659  0.0695
    5LEU     HG   67   3.820   3.372   1.550 -1.0696  1.5361  1.1024
    5LEU    CD1   68   3.832   3.483   1.730  0.3273 -0.0766  0.5165
    5LEU   HD11   69   3.729   3.514   1.747  0.5759  1.0155  0.1402
    5LEU   HD12   70   3.858   3.397   1.791 -1.2433 -0.2018  1.0479
    5LEU   HD13   71   3.893   3.563   1.773 -1.2914  1.7839 -0.4525
    5LEU    CD2   72   4.021   3.417   1.578 -0.2390  0.3092  0.2514
    5LEU   HD21   73   4.045   3.384   1.477  1.4574  0.6017  0.5303
    5LEU   HD22   74   4.074   3.512   1.594  0.7333  0.0407 -1.1793
    5LEU   HD23   75   4.036   3.337   1.650 -0.5070 -0.1178 -0.1676
    5LEU      C   76   3.670   3.727   1.379 -0.5868 -0.2974 -0.4160
    5LEU      O   77   3.659   3.839   1.436 -0.3206  0.0718  0.4958
    6ALA      N   78   3.658   3.719   1.244 -0.3726 -0.2120  0.6370
    6ALA      H   79   3.669   3.628   1.203 -1.4379 -0.0755  0.0161
    6ALA     CA   80   3.639   3.836   1.151 -0.2624 -0.2434 -0.0535
    6ALA     HA   81   3.604   3.925   1.202  0.0810  1.3245 -2.3707
    6ALA     CB   82   3.783   3.887   1.107  0.0934  0.3261  1.1756
    6ALA    HB1   83   3.776   3.969   1.034  1.0128 -1.3703 -0.9250
    6ALA    HB2   84   3.823   3.944   1.190  0.2548  1.1435  0.5613
    6ALA    HB3   85   3.856   3.817   1.068 -0.8090 -0.4659  0.8633
    6ALA      C   86   3.547   3.791   1.039  0.5008 -0.7253 -0.7334
    6ALA      O   87   3.547   3.676   0.995 -0.1607 -0.5144 -0.1686
    7ALA      N   88   3.462   3.875   0.976 -0.4084 -0.2001  0.5965
    7ALA      H   89   3.464   3.969   1.011  1.1056  0.3923 -0.9462
    7ALA     CA   90   3.360   3.843   0.878  0.4825  0.2066  0.0847
    7ALA     HA   91   3.338   3.737   0.871 -2.6577  0.8444 -1.4868
    7ALA     CB   92   3.231   3.902   0.935 -0.7897  0.7760 -0.6126
    7ALA    HB1   93   3.248   4.009   0.950  1.5017  0.1429  2.6144
    7ALA    HB2   94   3.146   3.869   0.875 -3.0834  0.9146  2.3280
    7ALA    HB3   95   3.208   3.868   1.037 -1.4108  1.1224 -0.6343
    7ALA      C   96   3.398   3.885   0.732  0.0235 -0.3209  0.3348
    7ALA      O   97   3.317   3.881   0.639  0.1990  0.4504  0.5582
    8ASN      N   98   3.515   3.945   0.706 -0.2129  0.2574 -0.0270
    8ASN      H   99   3.580   3.944   0.782  1.2756 -1.5611 -1.2367
    8ASN     CA  100   3.562   4.006   0.580  0.0474 -0.9754  0.4263
    8ASN     HA  101   3.491   4.084   0.553  0.9474 -0.4454 -0.4763
    8ASN     CB  102   3.695   4.074   0.612 -0.0619  0.0633 -0.6204
    8ASN    HB1  103   3.739   4.113   0.520 -0.4595  0.7549 -0.5237
    8ASN    HB2  104   3.761   4.002   0.660 -0.7108 -0.0959  0.0527
    8ASN     CG  105   3.687   4.187   0.706 -0.0678 -0.5316 -0.0272
    8ASN    OD1  106   3.715   4.173   0.827  0.4197  0.2364  0.5482
    8ASN    ND2  107   3.667   4.302   0.658 -0.2402  0.0906 -0.3232
    8ASN   HD21  108   3.650   4.308   0.559 -1.2365 -0.9714 -0.2406
    8ASN   HD22  109   3.675   4.384   0.716  1.3376 -1.4858  1.8663
    8ASN      C  110   3.569   3.918   0.451 -0.3458  0.3978  1.0808
    8ASN      O  111   3.584   3.976   0.344  0.4478  0.1941 -0.6976
    9PHE      N  112   3.576   3.781   0.455 -0.0710 -0.1303  0.2203
    9PHE      H  113   3.579   3.732   0.543 -0.3176 -1.0866 -0.2917
    9PHE     CA  114   3.553   3.690   0.335 -0.4326  0.0359 -0.1196
    9PHE     HA  115   3.530   3.750   0.247 -0.0653  0.2496 -0.0721
    9PHE     CB  116   3.681   3.606   0.309 -0.9061 -0.9753 -0.0613
    9PHE    HB1  117   3.758   3.679   0.331  0.1096 -1.4517 -1.8433
    9PHE    HB2  118   3.691   3.600   0.200  0.4430 -0.3168  0.0108
    9PHE     CG  119   3.684   3.472   0.380  0.6745  0.5231 -0.4851
    9PHE    CD1  120   3.647   3.367   0.298  0.9439  0.4366 -0.1743
    9PHE    HD1  121   3.635   3.395   0.194 -0.5066  2.4930  0.4845
    9PHE    CE1  122   3.624   3.239   0.361  0.2217 -0.5874  0.2420
    9PHE    HE1  123   3.600   3.156   0.296 -0.5754  0.5601 -0.9945
    9PHE     CZ  124   3.646   3.226   0.502  0.0888  0.8695  1.0268
    9PHE     HZ  125   3.628   3.132   0.552  0.5351 -0.1258 -0.5961
    9PHE    CE2  126   3.692   3.334   0.579  0.6641 -0.3141 -0.0283
    9PHE    HE2  127   3.707   3.320   0.685 -4.1906 -1.6719  0.7241
    9PHE    CD2  128   3.707   3.460   0.516  0.1099  0.0854 -0.1786
    9PHE    HD2  129   3.733   3.548   0.574  0.8032 -0.4329  0.3064
    9PHE      C  130   3.422   3.602   0.344 -0.0829 -0.2847  0.1425
    9PHE      O  131   3.385   3.540   0.249  0.2843  0.2305  0.1399
   10LEU      N  132   3.361   3.598   0.461 -0.2365  0.4791 -0.8783
   10LEU      H  133   3.412   3.632   0.542  0.2786 -0.9703 -0.5567
   10LEU     CA  134   3.238   3.520   0.489  0.3403  0.2603 -0.5148
   10LEU     HA  135   3.266   3.415   0.480 -1.0793 -0.2153  0.3429
   10LEU     CB  136   3.195   3.563   0.629  0.4036  0.2095 -0.5525
   10LEU    HB1  137   3.171   3.669   0.630 -1.5614 -0.1693  1.3715
   10LEU    HB2  138   3.276   3.547   0.700  0.4757 -0.3451 -0.7552
   10LEU     CG  139   3.068   3.496   0.680  0.0251 -0.0518 -0.0335
   10LEU     HG  140   2.989   3.513   0.607  0.5195  0.9800 -0.3576
   10LEU    CD1  141   3.033   3.546   0.818  0.0620 -0.4848 -0.2502
   10LEU   HD11  142   3.117   3.561   0.886  0.2510  2.1325 -0.9455
   10LEU   HD12  143   2.994   3.647   0.808  0.4443 -0.4701 -1.9725
   10LEU   HD13  144   2.961   3.479   0.865  0.7259 -1.4860 -0.6198
   10LEU    CD2  145   3.081   3.345   0.676  0.3550  0.1266 -0.1351
   10LEU   HD21  146   3.177   3.311   0.714 -0.8857 -1.4701  1.7800
   10LEU   HD22  147   2.996   3.301   0.728  0.7203  0.4919  0.7877
   10LEU   HD23  148   3.074   3.303   0.576 -1.6152  1.2702 -0.5186
   10LEU      C  149   3.127   3.533   0.380 -1.0091  0.2784  0.0032
   10LEU      O  150   3.071   3.427   0.337  0.4106 -0.7258 -0.2368
   11PRO      N  151   3.091   3.652   0.332 -0.0902  0.1070 -0.3934
   11PRO     CD  152   3.152   3.783   0.371  0.2308  0.7010 -0.2282
   11PRO    HD1  153   3.256   3.792   0.338 -0.1397  0.9753 -1.3868
   11PRO    HD2  154   3.136   3.810   0.475 -3.0366 -0.8618 -0.2146
   11PRO     CG  155   3.075   3.885   0.294  0.0286 -0.1242 -0.2084
   11PRO    HG1  156   3.134   3.975   0.279  1.7962 -1.2378 -0.1956
   11PRO    HG2  157   2.982   3.911   0.346  1.3321  1.4169  1.4904
   11PRO     CB  158   3.062   3.814   0.162 -0.3252  0.2870 -0.2739
   11PRO    HB1  159   3.161   3.806   0.116  0.3088  2.4309  0.6204
   11PRO    HB2  160   2.983   3.863   0.105 -0.0483  1.1962  0.1160
   11PRO     CA  161   3.016   3.674   0.207  0.5209 -0.0531 -0.2840
   11PRO     HA  162   2.909   3.674   0.229  0.2597  1.4253 -1.4083
   11PRO      C  163   3.027   3.572   0.093  0.5361 -0.0316 -0.0587
   11PRO      O  164   2.929   3.538   0.027 -0.0529  0.3991 -0.1189
   12GLN      N  165   3.148   3.528   0.064  0.5521 -0.4878  0.2715
   12GLN      H  166   3.224   3.570   0.115 -0.2832 -0.1743  1.2948
   12GLN     CA  167   3.168   3.429  -0.042  0.4201 -0.5110  0.1142
   12GLN     HA  168   3.108   3.467  -0.125 -0.1561  1.4508  1.3704
   12GLN     CB  169   3.317   3.431  -0.091  0.3029  0.4096  0.3969
   12GLN    HB1  170   3.321   3.385  -0.190 -1.5515 -1.2607  1.0183
   12GLN    HB2  171   3.370   3.359  -0.027 -0.4924 -0.2566  0.3248
   12GLN     CG  172   3.393   3.565  -0.079  0.6786  1.0977  0.1098
   12GLN    HG1  173   3.359   3.616   0.011 -2.5003 -1.0681  0.3038
   12GLN    HG2  174   3.356   3.627  -0.161  2.6807  0.4820 -1.3334
   12GLN     CD  175   3.547   3.566  -0.097 -0.4216 -0.0412 -0.3146
   12GLN    OE1  176   3.610   3.463  -0.128 -0.1254  0.0800 -0.3981
   12GLN    NE2  177   3.616   3.679  -0.073  0.7226  0.1245  0.0039
   12GLN   HE21  178   3.561   3.761  -0.052 -2.6717 -2.0087  0.2094
   12GLN   HE22  179   3.717   3.677  -0.081  0.7723 -0.0584  0.6088
   12GLN      C  180   3.120   3.287  -0.010  0.9387 -0.0266  0.3856
   12GLN      O  181   3.065   3.213  -0.095 -0.2320 -0.5337 -0.5029
   13ILE      N  182   3.115   3.260   0.118  0.1094  0.6428  0.4091
   13ILE      H  183   3.167   3.318   0.182  1.9693 -0.3974 -0.0799
   13ILE     CA  184   3.060   3.128   0.168 -0.7468 -0.4620 -0.2322
   13ILE     HA  185   3.071   3.046   0.097 -0.1782  0.4420 -1.2351
   13ILE     CB  186   3.137   3.085   0.297 -0.5812 -0.2015  0.1827
   13ILE     HB  187   3.135   3.175   0.358  1.7380  0.9977 -1.3617
   13ILE    CG2  188   3.074   2.965   0.376 -0.0537 -0.6411  0.0641
   13ILE   HG21  189   3.063   2.878   0.311 -2.1441 -0.2950 -0.1239
   13ILE   HG22  190   3.117   2.946   0.474  2.5987 -1.2941 -1.1448
   13ILE   HG23  191   2.970   2.988   0.400 -0.7324 -3.0121 -0.3239
   13ILE    CG1  192   3.284   3.041   0.261 -0.5312 -0.0428 -0.1572
   13ILE   HG11  193   3.339   3.123   0.215 -0.9652  1.0006  1.1246
   13ILE   HG12  194   3.289   2.961   0.187  1.4771  0.1359 -0.2687
   13ILE     CD  195   3.362   3.003   0.386  0.2997  0.4163 -0.8835
   13ILE    HD1  196   3.469   2.992   0.366  0.7153  2.0335  0.2505
   13ILE    HD2  197   3.359   3.078   0.464 -0.4934 -0.6282  0.1159
   13ILE    HD3  198   3.326   2.909   0.427  1.3327 -0.7150 -2.4268
   13ILE      C  199   2.909   3.138   0.186  0.3178  0.2434 -0.2534
   13ILE      O  200   2.838   3.045   0.154  0.2307 -0.0691 -0.3805
   14LEU      N  201   2.854   3.257   0.221  0.4427 -0.7429  0.2175
   14LEU      H  202   2.913   3.338   0.235 -2.1470  1.2714  0.1281
   14LEU     CA  203   2.716   3.288   0.222  0.2661  0.8068 -0.3396
   14LEU     HA  204   2.659   3.214   0.279  0.1502  0.0536 -1.4015
   14LEU     CB  205   2.680   3.421   0.292  0.3581  0.5927  0.2879
   14LEU    HB1  206   2.580   3.457   0.265  0.3984  2.0957  2.0062
   14LEU    HB2  207   2.749   3.501   0.267 -1.0910  1.6738 -0.3782
   14LEU     CG  208   2.657   3.399   0.445 -0.0325 -0.3853 -0.0372
   14LEU     HG  209   2.563   3.348   0.465 -0.5222  1.3073  2.3820
   14LEU    CD1  210   2.766   3.328   0.517 -0.5860 -0.7479 -0.0514
   14LEU   HD11  211   2.741   3.222   0.515 -0.4736 -0.7746 -0.0455
   14LEU   HD12  212   2.855   3.345   0.457 -0.4340 -1.1075  0.0737
   14LEU   HD13  213   2.777   3.360   0.621 -0.7121 -2.4899  0.5334
   14LEU    CD2  214   2.644   3.538   0.513  0.1270  0.0327 -0.0425
   14LEU   HD21  215   2.732   3.602   0.502  0.1674 -0.1070 -0.5576
   14LEU   HD22  216   2.559   3.594   0.473  0.9056  2.5039  1.5450
   14LEU   HD23  217   2.622   3.529   0.619  1.0725 -1.3028  0.0572
   14LEU      C  218   2.652   3.288   0.081  0.0076  0.3497 -0.1264
   14LEU      O  219   2.533   3.258   0.057 -0.4045  0.3726 -0.2063
   15LYS      N  220   2.737   3.319  -0.015 -0.0462  0.3172 -0.2930
   15LYS      H  221   2.826   3.360   0.010  0.5818 -1.0187 -0.2864
   15LYS     CA  222   2.708   3.300  -0.157  0.0746  0.3251 -0.6816
   15LYS     HA  223   2.605   3.334  -0.171 -0.4173  1.2906  3.8805
   15LYS     CB  224   2.812   3.376  -0.243  0.2522  0.2673  0.7393
   15LYS    HB1  225   2.899   3.312  -0.235 -0.4618 -0.9175 -0.6292
   15LYS    HB2  226   2.830   3.474  -0.198 -1.4696  1.3119 -0.7054
   15LYS     CG  227   2.788   3.382  -0.393 -0.0948  0.0931  0.2086
   15LYS    HG1  228   2.689   3.423  -0.415 -1.0155 -1.2001  1.7045
   15LYS    HG2  229   2.795   3.278  -0.427  2.2280 -0.2998  1.6995
   15LYS     CD  230   2.905   3.443  -0.473  0.1103 -0.1017 -0.2742
   15LYS    HD1  231   2.891   3.426  -0.580  2.4137 -3.0052 -0.2464
   15LYS    HD2  232   3.000   3.395  -0.448 -0.6144 -0.8606  1.1102
   15LYS     CE  233   2.918   3.591  -0.439 -0.0105 -0.1832 -0.1613
   15LYS    HE1  234   2.961   3.593  -0.339  2.0561 -2.1289 -0.9084
   15LYS    HE2  235   2.819   3.635  -0.442  0.3351  0.5712 -0.8079
   15LYS     NZ  236   2.997   3.672  -0.536  0.0393  0.2708 -0.2169
   15LYS    HZ1  237   2.974   3.768  -0.513 -1.6821 -0.1188 -0.1263
   15LYS    HZ2  238   3.095   3.663  -0.514  0.2120  0.4084 -0.8935
   15LYS    HZ3  239   2.969   3.667  -0.633 -0.7987  2.7441 -0.1785
   15LYS      C  240   2.704   3.151  -0.199  0.7455 -0.4210 -0.9368
   15LYS      O  241   2.610   3.109  -0.266 -0.5347 -0.4344 -0.4060
   16LYS      N  242   2.810   3.073  -0.164 -0.2242 -0.4227  0.3695
   16LYS      H  243   2.885   3.116  -0.112 -2.1385  1.2507  1.8953
   16LYS     CA  244   2.819   2.930  -0.212 -0.7579 -0.9763 -0.5695
   16LYS     HA  245   2.822   2.921  -0.321 -1.6178 -1.9266 -0.5274
   16LYS     CB  246   2.946   2.856  -0.144  0.6621 -0.4716 -0.1300
   16LYS    HB1  247   2.936   2.868  -0.036  0.5899  1.2538 -0.3084
   16LYS    HB2  248   3.034   2.911  -0.177  0.2478 -0.2222 -0.8254
   16LYS     CG  249   2.957   2.702  -0.173 -0.2860  0.0507 -0.0130
   16LYS    HG1  250   2.951   2.685  -0.280 -0.7383  0.3531 -0.0415
   16LYS    HG2  251   2.868   2.659  -0.126  0.4722 -0.3369  1.1132
   16LYS     CD  252   3.084   2.641  -0.108 -0.6051  0.5173  0.3534
   16LYS    HD1  253   3.089   2.671  -0.004  1.0507  0.2532  0.3863
   16LYS    HD2  254   3.172   2.673  -0.166  0.3123 -2.5296 -0.0879
   16LYS     CE  255   3.066   2.490  -0.132 -0.3383  0.8027 -0.4607
   16LYS    HE1  256   3.076   2.470  -0.239  0.5714  0.8854 -0.4017
   16LYS    HE2  257   2.968   2.458  -0.098 -0.2513 -0.3079 -1.1792
   16LYS     NZ  258   3.158   2.402  -0.051 -0.3226 -0.0125 -0.5014
   16LYS    HZ1  259   3.117   2.311  -0.041 -0.5131  0.2592  1.7383
   16LYS    HZ2  260   3.254   2.402  -0.081  0.0042 -1.4007  0.4540
   16LYS    HZ3  261   3.154   2.438   0.043  0.0428  0.1217 -0.5345
   16LYS      C  262   2.693   2.855  -0.162 -0.9608 -0.8946 -0.4531
   16LYS      O  263   2.626   2.793  -0.242  0.3999  0.2941 -0.0690
   17ILE      N  264   2.664   2.854  -0.035  0.8442  0.3812  0.1143
   17ILE      H  265   2.731   2.891   0.031  1.0278 -0.2080  0.2573
   17ILE     CA  266   2.538   2.795   0.017  0.3320 -0.1686 -0.1655
   17ILE     HA  267   2.550   2.689  -0.004  0.2794  0.0746 -1.5048
   17ILE     CB  268   2.526   2.810   0.169 -0.2134  0.6835  0.2595
   17ILE     HB  269   2.432   2.770   0.207 -0.0351  0.6319  0.6562
   17ILE    CG2  270   2.635   2.731   0.246 -0.4735  0.5546  0.1526
   17ILE   HG21  271   2.639   2.627   0.214 -1.4128  0.6301 -0.2406
   17ILE   HG22  272   2.734   2.773   0.233  0.0894 -0.7620  0.0574
   17ILE   HG23  273   2.607   2.721   0.351 -2.5483  1.8731 -0.1992
   17ILE    CG1  274   2.521   2.964   0.212  0.3103  0.4478 -0.0686
   17ILE   HG11  275   2.421   3.000   0.187  0.1601  0.2739  0.2867
   17ILE   HG12  276   2.598   3.025   0.166  0.3889  0.5985  0.2605
   17ILE     CD  277   2.544   2.986   0.360 -0.6475  0.7959 -0.0781
   17ILE    HD1  278   2.491   2.905   0.411 -0.2226  0.5009 -0.1004
   17ILE    HD2  279   2.650   2.983   0.385 -0.7234  2.5161  0.5977
   17ILE    HD3  280   2.508   3.087   0.381  2.1104  1.8579 -0.0342
   17ILE      C  281   2.402   2.837  -0.055  0.3112  0.0542 -0.2106
   17ILE      O  282   2.306   2.765  -0.053 -0.0510  0.2212  0.1466
   18ALA      N  283   2.400   2.954  -0.114  0.4458 -0.5138  0.0575
   18ALA      H  284   2.478   3.019  -0.109  0.5079 -0.4047 -1.7270
   18ALA     CA  285   2.283   3.008  -0.186 -0.0255 -0.5928 -0.0406
   18ALA     HA  286   2.193   2.974  -0.134 -0.4172  1.6600  0.8845
   18ALA     CB  287   2.279   3.161  -0.190 -0.4761 -0.7758 -0.5764
   18ALA    HB1  288   2.203   3.206  -0.254 -0.5821  1.1514  0.7982
   18ALA    HB2  289   2.259   3.184  -0.085 -1.1443 -2.6836 -0.2436
   18ALA    HB3  290   2.372   3.206  -0.224 -0.5548 -0.7954 -0.8199
   18ALA      C  291   2.265   2.948  -0.324  0.2169  0.1587 -0.1483
   18ALA      O  292   2.154   2.893  -0.359  0.7321  0.1569 -0.2821
   19ARG      N  293   2.367   2.941  -0.406 -0.5039  0.5658 -0.6964
   19ARG      H  294   2.448   2.994  -0.377  0.1819 -0.6936 -0.2579
   19ARG     CA  295   2.376   2.858  -0.525 -0.4442  0.1162  0.6919
   19ARG     HA  296   2.297   2.892  -0.592 -1.1984  0.4756  1.7508
   19ARG     CB  297   2.519   2.877  -0.589 -0.0653  0.4082 -0.0100
   19ARG    HB1  298   2.527   2.790  -0.653  0.5093 -0.6214  1.4131
   19ARG    HB2  299   2.595   2.863  -0.512 -1.6901 -2.3939  1.2372
   19ARG     CG  300   2.525   3.009  -0.667  0.2146  0.5016  0.4429
   19ARG    HG1  301   2.448   3.013  -0.744  3.0143 -1.6090 -2.7223
   19ARG    HG2  302   2.611   2.992  -0.731  0.1412  3.1641 -0.4950
   19ARG     CD  303   2.542   3.137  -0.580 -0.1614 -0.1098  0.0330
   19ARG    HD1  304   2.631   3.121  -0.520 -0.8578  0.6012  1.3105
   19ARG    HD2  305   2.453   3.153  -0.518 -1.2142 -2.2942 -0.7911
   19ARG     NE  306   2.551   3.262  -0.656  0.4975  0.1517 -0.2659
   19ARG     HE  307   2.471   3.322  -0.641  1.1158  0.6521  1.1969
   19ARG     CZ  308   2.635   3.287  -0.751 -0.4246 -0.6175 -0.4818
   19ARG    NH1  309   2.757   3.240  -0.748  0.0576 -0.8394 -0.0082
   19ARG   HH11  310   2.780   3.179  -0.670  0.6516  0.0753  0.5481
   19ARG   HH12  311   2.811   3.241  -0.833 -1.1552 -0.8107 -0.7964
   19ARG    NH2  312   2.606   3.372  -0.847 -0.3361  0.0895 -0.0051
   19ARG   HH21  313   2.520   3.425  -0.851  0.1338  0.9204  0.6375
   19ARG   HH22  314   2.680   3.398  -0.912 -0.1381 -1.0388 -0.2564
   19ARG      C  315   2.360   2.708  -0.499  0.5180 -0.5106 -0.0278
   19ARG      O  316   2.297   2.639  -0.581 -0.1499  0.4096 -0.1407
   20LYS      N  317   2.409   2.654  -0.391  0.3022  1.1702 -0.2973
   20LYS      H  318   2.475   2.703  -0.332  1.5872 -3.7451  2.9829
   20LYS     CA  319   2.407   2.500  -0.373  0.1166 -0.3461 -0.0536
   20LYS     HA  320   2.396   2.456  -0.472 -1.5887 -1.6080  0.6614
   20LYS     CB  321   2.539   2.455  -0.304 -0.7805  0.4255 -0.4843
   20LYS    HB1  322   2.529   2.353  -0.269 -1.3807  0.5919 -0.1440
   20LYS    HB2  323   2.551   2.511  -0.211 -1.2125  0.6973 -0.5877
   20LYS     CG  324   2.663   2.466  -0.389 -1.1281 -0.1078  0.5564
   20LYS    HG1  325   2.751   2.445  -0.328  0.0149  4.2898  0.7569
   20LYS    HG2  326   2.676   2.571  -0.416 -3.0778  0.0492  0.0541
   20LYS     CD  327   2.658   2.383  -0.520  0.0852 -0.0868  0.6955
   20LYS    HD1  328   2.573   2.420  -0.577  1.6322  1.3471 -0.8200
   20LYS    HD2  329   2.638   2.277  -0.506 -1.2444  0.1035  0.3680
   20LYS     CE  330   2.791   2.399  -0.602  0.9466 -0.6660 -0.1427
   20LYS    HE1  331   2.867   2.356  -0.537  1.6331  0.5306 -0.1151
   20LYS    HE2  332   2.814   2.505  -0.611 -0.7661 -0.1635  1.1132
   20LYS     NZ  333   2.799   2.322  -0.728  0.7759 -0.1259  0.3113
   20LYS    HZ1  334   2.799   2.223  -0.710 -0.7802 -0.0840  0.7327
   20LYS    HZ2  335   2.722   2.346  -0.788  1.2764  0.3952 -0.1315
   20LYS    HZ3  336   2.883   2.352  -0.775  1.4413 -0.3812  1.3188
   20LYS      C  337   2.278   2.456  -0.295 -0.0561  0.3368  0.0701
   20LYS      O  338   2.261   2.345  -0.247  0.4457  0.0448 -0.6688
   21SER      N  339   2.181   2.552  -0.277 -0.5269 -0.5370  0.5221
   21SER      H  340   2.198   2.645  -0.313 -2.3129 -0.7659 -1.0850
   21SER     CA  341   2.043   2.527  -0.223 -0.1319  0.0536  0.7613
   21SER     HA  342   2.043   2.465  -0.134 -1.6608  0.6810  1.2388
   21SER     CB  343   1.992   2.664  -0.173  0.7526 -0.3577 -0.2613
   21SER    HB1  344   1.884   2.672  -0.166  0.6311 -2.2533  0.7220
   21SER    HB2  345   2.007   2.739  -0.251  0.0838 -1.0710 -1.0900
   21SER     OG  346   2.056   2.698  -0.055  0.0656  0.1686 -0.4243
   21SER     HG  347   2.147   2.710  -0.082  0.0500  0.8294 -0.2170
   21SER      C  348   1.947   2.469  -0.328 -0.3553 -0.1629 -0.2031
   21SER    OC1  349   1.864   2.388  -0.284  0.3435 -0.5326  0.2296
   21SER    OC2  350   1.960   2.504  -0.444  0.0653  0.4313  0.5248
   22MYC   HH15  351   2.326   0.789   8.887  0.7861  0.2306  0.9430
   22MYC    C80  352   2.302   0.723   8.971  0.2057 -0.8122 -0.0131
   22MYC   H100  353   2.323   0.771   9.068 -0.7367  1.5091 -0.8685
   22MYC   H101  354   2.201   0.681   8.974  0.1182 -0.5656  1.8585
   22MYC    C79  355   2.390   0.602   8.950  0.1351  1.0039  0.1151
   22MYC   H102  356   2.345   0.523   9.012  1.4712 -0.6065 -0.8748
   22MYC   H103  357   2.484   0.624   9.002 -0.0500 -0.2809  1.0520
   22MYC    C78  358   2.420   0.549   8.807  0.0992  0.2599  1.0088
   22MYC   HH14  359   2.478   0.456   8.810  2.2255  0.8930 -4.9648
   22MYC   H104  360   2.494   0.605   8.748  1.5135 -1.1076  1.4264
   22MYC    C77  361   2.294   0.514   8.721 -0.3880  0.2290  0.0579
   22MYC   H106  362   2.226   0.597   8.700  1.7518  2.2008  0.4617
   22MYC   H107  363   2.230   0.440   8.770 -0.8042  0.1666 -0.5682
   22MYC    C76  364   2.336   0.454   8.589 -0.2669  0.1079 -0.0187
   22MYC   H108  365   2.376   0.354   8.606 -1.1450 -0.4728 -1.2303
   22MYC   H109  366   2.407   0.508   8.526  1.8889  0.6809  2.7085
   22MYC    C75  367   2.217   0.445   8.492  0.1723 -0.7608 -0.2655
   22MYC   H110  368   2.197   0.550   8.465 -0.5336 -0.9622 -0.5579
   22MYC   H111  369   2.117   0.420   8.528 -1.6244  1.4421 -3.1906
   22MYC    C74  370   2.241   0.361   8.364  0.0383  0.1868 -0.3042
   22MYC   H112  371   2.332   0.392   8.310 -1.3618  2.0065 -1.7899
   22MYC   H113  372   2.158   0.397   8.303 -0.0068 -0.2053 -0.4754
   22MYC    C73  373   2.244   0.207   8.383 -0.5163  0.3189 -0.3949
   22MYC   HH13  374   2.294   0.174   8.475 -0.5590  1.4664  0.0622
   22MYC   H114  375   2.294   0.159   8.299  1.8003  0.4034  0.8677
   22MYC    C72  376   2.102   0.139   8.372 -0.3225 -1.1222  0.0156
   22MYC   H115  377   2.076   0.176   8.272 -2.8566  0.2834  1.0993
   22MYC   H116  378   2.034   0.182   8.445  1.2139 -1.8734  1.9853
   22MYC    C71  379   2.098  -0.014   8.378  0.1234 -0.0803  0.0053
   22MYC   H117  380   2.132  -0.051   8.475  0.0419  1.3172  0.5995
   22MYC   H118  381   2.170  -0.056   8.307  0.5798 -0.4047  0.6559
   22MYC    C70  382   1.954  -0.071   8.356 -0.0498 -0.9414 -0.0068
   22MYC   H119  383   1.945  -0.180   8.356  0.6742 -1.0164  1.4610
   22MYC   H120  384   1.924  -0.029   8.259  0.4863  1.7697  0.9040
   22MYC    C69  385   1.852  -0.015   8.463 -0.3629  0.2650 -0.1349
   22MYC   H121  386   1.839   0.089   8.430  1.1075  0.2034 -1.0005
   22MYC   H122  387   1.896  -0.026   8.562 -1.8442  1.4567  0.7050
   22MYC    C68  388   1.718  -0.094   8.454  0.0643 -0.5001  0.3270
   22MYC   HH12  389   1.728  -0.200   8.480 -1.1444 -1.0494 -1.2573
   22MYC   H123  390   1.692  -0.085   8.347  0.8375 -1.9841 -0.0072
   22MYC    C67  391   1.607  -0.016   8.542  0.1807 -0.0695  0.5806
   22MYC   H124  392   1.598   0.083   8.496 -1.0952  0.2046  1.3842
   22MYC   H125  393   1.659  -0.010   8.638  3.7756  1.0522 -1.2693
   22MYC    C66  394   1.470  -0.094   8.541  0.3884 -1.0970 -0.2358
   22MYC   H126  395   1.485  -0.184   8.601  1.6420 -1.1052 -0.5458
   22MYC   H127  396   1.425  -0.127   8.447 -1.3700  2.5681 -0.8570
   22MYC    C65  397   1.356  -0.020   8.612 -0.3053  0.4087  0.7829
   22MYC   H128  398   1.333   0.077   8.565 -0.0169 -0.4375 -1.2420
   22MYC   H129  399   1.391   0.015   8.709 -2.5297  3.4981  0.6093
   22MYC    C64  400   1.221  -0.102   8.604 -0.0042  0.0462 -0.4714
   22MYC   H130  401   1.245  -0.195   8.657  0.6581  0.6618  0.3314
   22MYC   H131  402   1.199  -0.142   8.504 -0.7073  3.4445 -1.8284
   22MYC    C63  403   1.101  -0.047   8.680  0.1831 -0.5861 -1.3847
   22MYC   HH11  404   1.068   0.054   8.654 -1.8917  0.6095  4.3556
   22MYC   H132  405   1.132  -0.037   8.785 -2.3427  0.9215 -0.7099
   22MYC    C62  406   0.979  -0.137   8.689  0.7413 -0.0578 -0.5795
   22MYC   H133  407   0.990  -0.235   8.736 -1.8578  0.0336  0.3781
   22MYC   H134  408   0.951  -0.147   8.584  1.8443  1.5396 -1.0639
   22MYC    C61  409   0.856  -0.076   8.762 -0.3848 -0.7104  0.0004
   22MYC   H135  410   0.827   0.019   8.716  0.1440  0.2091  1.4938
   22MYC   H136  411   0.889  -0.055   8.864  0.6231 -0.7484 -0.3010
   22MYC    C60  412   0.738  -0.174   8.775  0.7219  0.4289 -0.0283
   22MYC   H137  413   0.747  -0.253   8.849  1.0203 -2.2731 -2.7517
   22MYC    C58  414   0.602  -0.112   8.766  0.5895 -0.1059  0.0120
   22MYC   H138  415   0.593  -0.006   8.743 -1.2310 -0.0580  0.7561
   22MYC    C59  416   0.656  -0.196   8.655  0.1282  0.3954  0.6024
   22MYC   H139  417   0.615  -0.296   8.641 -0.1960  0.3968  1.4434
   22MYC   H140  418   0.688  -0.142   8.567  0.6456 -1.6577 -0.5412
   22MYC    C57  419   0.479  -0.165   8.846 -0.1713 -0.1388  0.3643
   22MYC   HH10  420   0.474  -0.275   8.853  1.9889 -0.1937  2.2974
   22MYC   H141  421   0.388  -0.126   8.799  0.5987 -0.0655 -1.1563
   22MYC    C56  422   0.492  -0.122   8.997  0.4240  0.3266 -0.0326
   22MYC   H142  423   0.392  -0.145   9.034 -0.5614  2.8281 -0.9735
   22MYC   H143  424   0.496  -0.014   9.014 -0.1909  0.5840 -1.3645
   22MYC    C55  425   0.615  -0.177   9.075  0.3048  0.5099 -0.1831
   22MYC   H144  426   0.713  -0.143   9.038  0.7580 -1.2420 -0.7048
   22MYC   H145  427   0.621  -0.286   9.062  0.5695  0.3277  1.2742
   22MYC    C54  428   0.626  -0.135   9.221  0.3305 -0.5715  0.2732
   22MYC   H146  429   0.654  -0.029   9.228  0.2007 -0.5970  1.2297
   22MYC   H147  430   0.714  -0.184   9.262  1.2353 -0.0070 -0.9287
   22MYC    C53  431   0.504  -0.155   9.314  0.3613  0.6181 -0.1300
   22MYC   H148  432   0.410  -0.117   9.274 -0.3211  1.2589  1.9508
   22MYC   H149  433   0.517  -0.090   9.401 -0.5010  0.8689 -0.1800
   22MYC    C52  434   0.494  -0.305   9.355 -0.2443 -0.0568 -0.7961
   22MYC    H99  435   0.587  -0.343   9.399 -1.6773 -2.4944  0.3304
   22MYC   H150  436   0.487  -0.364   9.263 -0.0528  0.6950 -1.3066
   22MYC    C51  437   0.368  -0.317   9.450 -1.1533 -0.7227  0.1114
   22MYC    H97  438   0.276  -0.279   9.405 -1.5098  1.2683  2.3529
   22MYC    H98  439   0.382  -0.278   9.551 -1.9301  0.1729 -0.1110
   22MYC    C50  440   0.347  -0.461   9.488 -0.1208  0.2017  0.6507
   22MYC    H95  441   0.442  -0.499   9.528  0.2595  1.4001  0.9158
   22MYC    H96  442   0.321  -0.521   9.400  1.5592  1.6911 -0.9203
   22MYC    C49  443   0.232  -0.474   9.598  0.4063 -0.2641 -0.1975
   22MYC    H93  444   0.147  -0.438   9.539 -0.2801 -2.8738 -0.9492
   22MYC    H94  445   0.254  -0.410   9.684 -1.0401  2.0986 -1.4824
   22MYC    C48  446   0.201  -0.621   9.642  0.2844  0.3057  0.0938
   22MYC    H91  447   0.290  -0.651   9.698  0.4373 -1.2079 -0.9128
   22MYC    H92  448   0.204  -0.695   9.562  0.0047  1.1837 -0.7541
   22MYC    C47  449   0.069  -0.650   9.727 -0.2086 -0.1067  1.0280
   22MYC    H89  450   0.079  -0.747   9.777  0.4567 -0.9680 -0.6920
   22MYC    H90  451  -0.015  -0.659   9.658  1.1725  3.5168 -1.4314
   22MYC    C46  452   0.042  -0.530   9.829 -0.1136  1.1705 -0.1164
   22MYC    H87  453  -0.060  -0.548   9.865  0.0778  1.1621  0.4307
   22MYC    H88  454   0.042  -0.433   9.778  1.9107  0.3537 -1.7972
   22MYC    C45  455   0.140  -0.515   9.956 -0.2489  0.4538  0.5090
   22MYC    H85  456   0.242  -0.495   9.920  0.1230 -2.9821 -0.7563
   22MYC    H86  457   0.159  -0.610  10.007  0.5925 -0.7301 -1.8199
   22MYC    C44  458   0.106  -0.410  10.058 -0.2455  0.2201  0.1221
   22MYC    H83  459   0.047  -0.328  10.017 -1.5827 -0.5176  0.5133
   22MYC    H84  460   0.199  -0.363  10.093 -1.6660  2.7756  0.6925
   22MYC    C18  461   0.034  -0.461  10.177 -0.4800  0.3452  0.1394
   22MYC    H31  462   0.088  -0.540  10.227 -0.2110  2.5104  3.6192
   22MYC    C17  463  -0.057  -0.376  10.259 -0.0148  0.3755 -0.3588
   22MYC    H30  464  -0.052  -0.278  10.211 -0.9667 -0.0406 -1.3606
   22MYC    C19  465  -0.118  -0.486  10.170 -0.0545 -0.2106 -0.2048
   22MYC    H32  466  -0.180  -0.455  10.087 -0.4379 -0.6489 -0.0858
   22MYC    H33  467  -0.153  -0.579  10.214  0.2073 -0.5960 -0.7826
   22MYC    C16  468  -0.090  -0.375  10.410  0.1735  0.1662  0.3527
   22MYC    H28  469  -0.101  -0.477  10.447 -1.7814 -0.0316 -0.6626
   22MYC    H29  470  -0.187  -0.324  10.402 -0.8424 -1.8262 -0.7556
   22MYC    C15  471   0.015  -0.290  10.483 -0.4318  0.1870 -0.0879
   22MYC    H26  472  -0.020  -0.299  10.587  0.4456 -4.9826  0.0206
   22MYC    H27  473   0.008  -0.184  10.456  1.0147  0.0105 -1.2532
   22MYC    C14  474   0.163  -0.327  10.470 -0.1397 -0.5540  0.1546
   22MYC    H24  475   0.197  -0.319  10.366  2.2727 -1.0185  0.8343
   22MYC    H25  476   0.180  -0.434  10.483  0.8481 -0.2115  1.9509
   22MYC    C13  477   0.269  -0.236  10.548 -0.8425 -0.5321 -0.3577
   22MYC    H22  478   0.364  -0.290  10.551  0.0753  0.8791 -2.1285
   22MYC    H23  479   0.233  -0.224  10.651  0.9300 -1.2269  0.3890
   22MYC    C12  480   0.284  -0.098  10.482 -0.7536 -0.5966 -0.7683
   22MYC    H20  481   0.188  -0.046  10.475 -1.3089 -1.3478  0.8255
   22MYC    H21  482   0.320  -0.115  10.380  0.5704  1.1978 -0.6451
   22MYC    C11  483   0.392  -0.003  10.551 -0.0176 -0.1527 -0.6203
   22MYC    H18  484   0.494  -0.044  10.556  1.1139  2.5141  0.6724
   22MYC    H19  485   0.366   0.012  10.657  0.4870  1.4243 -0.6932
   22MYC    C10  486   0.401   0.143  10.487  0.1825 -0.4531  0.3768
   22MYC    H16  487   0.475   0.198  10.546  1.0653 -0.9026 -0.2956
   22MYC    H17  488   0.307   0.198  10.502  0.9949  1.2975 -0.6270
   22MYC     C9  489   0.461   0.136  10.342 -0.2337 -0.1009 -0.1511
   22MYC    H14  490   0.535   0.057  10.331 -0.0504  0.2005 -1.2382
   22MYC    H15  491   0.505   0.234  10.322  0.4860 -0.2710  0.5800
   22MYC     C8  492   0.367   0.108  10.222 -0.0673 -0.3386 -0.3144
   22MYC    H12  493   0.339   0.003  10.209 -0.4060  0.0064 -2.8846
   22MYC    H13  494   0.421   0.140  10.132  0.8359 -0.1755  0.2837
   22MYC     C7  495   0.234   0.184  10.228 -0.0629  0.2216 -0.3401
   22MYC    H10  496   0.249   0.269  10.296 -0.1510 -0.0943  0.0796
   22MYC    H11  497   0.163   0.115  10.276  0.6631  0.1889  0.7286
   22MYC     C6  498   0.166   0.223  10.101 -0.4054  0.2350  0.0976
   22MYC     H8  499   0.241   0.278  10.042 -0.0972  0.7252  0.9324
   22MYC     H9  500   0.085   0.294  10.121 -0.4628 -0.3270  2.0047
   22MYC     C5  501   0.125   0.102  10.022 -0.5974  0.1400  0.3985
   22MYC     H6  502   0.036   0.053  10.064 -0.1735  1.3540  2.8418
   22MYC     H7  503   0.208   0.030  10.015  0.5562  1.5384 -0.8508
   22MYC     C4  504   0.078   0.130   9.879 -0.6899  0.1590 -0.1536
   22MYC     H4  505   0.145   0.210   9.845  1.7119 -1.0268  1.4261
   22MYC     H5  506  -0.020   0.177   9.886  0.5712  2.9161  0.6152
   22MYC     C2  507   0.076   0.008   9.776 -0.6133  0.6385  0.4346
   22MYC     H2  508   0.170  -0.049   9.781 -1.0131 -0.6208 -3.0609
   22MYC     O3  509  -0.025  -0.092   9.805  0.2914  0.6121  0.0131
   22MYC     H3  510  -0.068  -0.130   9.727 -0.7759  2.2652 -0.2581
   22MYC     C1  511   0.058   0.054   9.627 -0.3177 -0.1178  0.5186
   22MYC     H1  512   0.132   0.133   9.638  0.1769 -0.7127  1.6645
   22MYC    C81  513  -0.081   0.114   9.597 -0.9548 -0.7449  0.6777
   22MYC    O82  514  -0.177   0.049   9.584  0.1464 -0.5694  0.2472
   22MYC    O83  515  -0.087   0.247   9.605  0.3318 -0.1440 -0.5305
   22MYC   H105  516  -0.181   0.268   9.615  0.0656 -1.5237  0.1348
   22MYC    C20  517   0.110  -0.058   9.523  0.0980 -0.2041 -0.3053
   22MYC    H34  518   0.214  -0.079   9.550  1.2150  1.3006 -3.0451
   22MYC    H35  519   0.052  -0.149   9.541 -1.8086  0.6607 -1.7348
   22MYC    C21  520   0.097  -0.013   9.371  0.4278  0.4687 -0.8209
   22MYC    H36  521   0.147  -0.089   9.310  0.6136  0.4502 -0.6460
   22MYC    H37  522  -0.008  -0.003   9.342  0.0510 -1.1172 -0.1159
   22MYC    C22  523   0.169   0.122   9.335  0.0350 -0.7283 -0.1337
   22MYC    H38  524   0.094   0.189   9.379 -1.5359 -2.8183  0.5021
   22MYC    H39  525   0.262   0.132   9.393  0.3572 -2.4171 -0.3107
   22MYC    C23  526   0.194   0.155   9.189  0.0465 -0.2398  0.4157
   22MYC    H40  527   0.220   0.260   9.171  0.4223 -0.3361  0.3926
   22MYC    H41  528   0.279   0.094   9.156  0.4837 -0.7133  2.2785
   22MYC    C24  529   0.068   0.117   9.095  0.2547 -0.1829  0.2444
   22MYC    H42  530   0.045   0.010   9.097 -0.0187 -0.1233  0.2960
   22MYC    H43  531  -0.010   0.178   9.141  1.3291  2.0945 -0.7979
   22MYC    C25  532   0.081   0.161   8.948  0.5347  0.9359  0.0913
   22MYC    H44  533   0.097   0.268   8.960  1.4293  1.0926 -2.0087
   22MYC    H45  534   0.165   0.113   8.896  0.3244  1.0547 -0.3627
   22MYC    C26  535  -0.050   0.134   8.864  0.6869  1.2118 -0.5547
   22MYC    H46  536  -0.062   0.027   8.842  1.9293  0.6225  1.3934
   22MYC    H47  537  -0.130   0.188   8.917  1.2907  2.0350 -0.4693
   22MYC    C27  538  -0.045   0.192   8.719 -0.0995  0.3515  0.2391
   22MYC    H48  539  -0.047   0.302   8.719 -0.2375  0.3520 -0.6475
   22MYC    H49  540   0.051   0.170   8.670 -0.0552  0.7789  0.1314
   22MYC    C28  541  -0.145   0.136   8.613  0.7327 -0.2315  0.6601
   22MYC    H50  542  -0.143   0.026   8.605  0.4003 -0.5183  3.5874
   22MYC    H51  543  -0.246   0.153   8.650  0.8139 -0.3001  0.9170
   22MYC    C29  544  -0.130   0.219   8.479 -0.3656  0.3578 -0.0962
   22MYC    H52  545  -0.151   0.327   8.486 -2.8283  0.0063 -1.0670
   22MYC    H53  546  -0.026   0.216   8.443  0.0609  0.9092  1.0351
   22MYC    C30  547  -0.218   0.154   8.368  0.3426 -0.0867 -1.3652
   22MYC    H54  548  -0.180   0.055   8.339 -1.2568 -0.8285 -1.0408
   22MYC    H55  549  -0.319   0.126   8.402  0.6394 -0.6661 -0.9426
   22MYC    C31  550  -0.221   0.236   8.234  0.3818  0.0112 -0.1314
   22MYC    H56  551  -0.281   0.325   8.255 -0.0845 -0.1760 -0.6437
   22MYC    H57  552  -0.120   0.265   8.205 -0.1377  1.2236 -0.7848
   22MYC    C32  553  -0.293   0.155   8.122 -0.5977  0.7716 -0.2121
   22MYC    H58  554  -0.224   0.072   8.103 -1.3705  0.0933 -0.0959
   22MYC    H59  555  -0.391   0.120   8.159 -0.5598 -0.3635 -1.1307
   22MYC    C33  556  -0.308   0.226   7.987  0.6168  0.7669 -0.7323
   22MYC    H60  557  -0.374   0.312   7.999 -1.0119 -0.5444  0.0597
   22MYC    H61  558  -0.213   0.261   7.945 -0.3751  1.2668 -2.6602
   22MYC    C34  559  -0.371   0.125   7.882  0.1984 -0.2607 -0.4365
   22MYC    H62  560  -0.320   0.028   7.873  0.9366  0.1687 -1.0175
   22MYC    H63  561  -0.478   0.119   7.904 -0.2459  0.1509 -2.3444
   22MYC    C35  562  -0.360   0.191   7.744 -0.5110 -0.3310 -0.3342
   22MYC    H64  563  -0.431   0.275   7.748 -0.2049 -0.0317 -0.9494
   22MYC    H65  564  -0.258   0.216   7.710 -0.3702 -1.5162 -0.8342
   22MYC    C36  565  -0.413   0.108   7.627 -0.4407 -0.6698  0.3103
   22MYC    H66  566  -0.354   0.016   7.626  1.3746  0.4559  0.9075
   22MYC    H67  567  -0.518   0.078   7.641 -0.3398 -1.4715 -0.5592
   22MYC    C37  568  -0.395   0.180   7.490 -0.2971 -0.2017 -0.5963
   22MYC    H68  569  -0.435   0.281   7.504  0.6454  0.5250 -2.6129
   22MYC    H69  570  -0.286   0.188   7.477 -0.3874  0.3280 -1.0509
   22MYC    C38  571  -0.458   0.112   7.369 -0.1999  0.1975 -0.6728
   22MYC    H70  572  -0.422   0.010   7.355 -0.4634 -0.8567  4.2938
   22MYC    H71  573  -0.564   0.093   7.390 -0.3678  1.2698 -0.5024
   22MYC    C39  574  -0.433   0.187   7.243  0.7642 -0.5567 -0.4637
   22MYC    H72  575  -0.469   0.290   7.249  2.6372  0.0607  1.7839
   22MYC    H73  576  -0.324   0.198   7.235  0.6106  2.4972  0.2950
   22MYC    C40  577  -0.496   0.118   7.117  0.4496 -0.1972 -0.0227
   22MYC    H74  578  -0.440   0.024   7.105  1.5913  0.3700  0.6772
   22MYC    H75  579  -0.601   0.090   7.132 -0.0930  0.9630 -1.4364
   22MYC    C41  580  -0.495   0.218   6.994 -0.5273  0.2857  0.9081
   22MYC    H76  581  -0.549   0.313   7.005  1.9529  1.8600  0.2987
   22MYC    H77  582  -0.392   0.242   6.964 -1.1687  1.6109 -0.4022
   22MYC    C42  583  -0.558   0.143   6.868 -0.6307  0.4418 -1.0063
   22MYC    H78  584  -0.501   0.051   6.850 -0.8862 -0.0273  0.4533
   22MYC    H79  585  -0.651   0.103   6.910 -0.2822 -1.1660 -1.6916
   22MYC    C43  586  -0.576   0.218   6.733  0.2241  0.2286  0.1530
   22MYC    H80  587  -0.601   0.155   6.647  3.0570  1.0840 -1.4129
   22MYC    H81  588  -0.478   0.258   6.705 -1.4862  2.8235 -2.7817
   22MYC    H82  589  -0.661   0.286   6.750  0.1137 -0.3832  2.3987
   23MYC   HH15  590   0.084   6.373   8.650  1.6833 -0.0756  0.9371
   23MYC    C80  591   0.102   6.310   8.562 -0.3141  0.1553  0.3167
   23MYC   H100  592   0.190   6.253   8.593 -1.5916 -1.2590  1.5135
   23MYC   H101  593   0.024   6.234   8.552 -1.1507  0.9071  0.9131
   23MYC    C79  594   0.146   6.389   8.431 -0.2953 -0.5171  0.1507
   23MYC   H102  595   0.068   6.464   8.414 -1.3522 -1.5576  0.3226
   23MYC   H103  596   0.147   6.323   8.343  3.1747  0.3691 -0.6661
   23MYC    C78  597   0.279   6.458   8.436  0.1601  0.0730 -0.2176
   23MYC   HH14  598   0.362   6.387   8.421 -1.0814 -1.6822  0.8704
   23MYC   H104  599   0.291   6.493   8.539 -2.9707  3.1674 -0.7176
   23MYC    C77  600   0.308   6.586   8.340 -0.0194  0.4682 -0.0096
   23MYC   H106  601   0.240   6.666   8.370 -1.0761 -0.5715  0.4335
   23MYC   H107  602   0.292   6.566   8.233  2.7843  0.3519 -0.4840
   23MYC    C76  603   0.459   6.635   8.350 -0.4646  0.2514 -0.7853
   23MYC   H108  604   0.467   6.728   8.294 -1.2373 -0.2868 -1.8358
   23MYC   H109  605   0.513   6.560   8.291  1.0505  0.4622  0.2717
   23MYC    C75  606   0.521   6.658   8.492  0.2009 -0.9622  0.6924
   23MYC   H110  607   0.511   6.576   8.565  0.3933 -0.2700  1.5109
   23MYC   H111  608   0.466   6.745   8.531 -0.8975 -0.2803 -2.1588
   23MYC    C74  609   0.671   6.690   8.493  0.4233  0.1138 -0.2946
   23MYC   H112  610   0.706   6.729   8.396 -0.4094 -0.9325 -1.0394
   23MYC   H113  611   0.720   6.592   8.503 -0.6226 -0.2935  1.1964
   23MYC    C73  612   0.723   6.782   8.606 -0.0168  0.0517  0.7727
   23MYC   HH13  613   0.673   6.741   8.695 -2.2539  0.4376 -0.2216
   23MYC   H114  614   0.676   6.879   8.587 -1.3100 -0.9153 -1.3976
   23MYC    C72  615   0.876   6.794   8.613 -0.8463 -0.3558 -0.2120
   23MYC   H115  616   0.922   6.855   8.535 -1.6260 -1.7136 -1.8081
   23MYC   H116  617   0.932   6.700   8.606  0.5553  0.4113  0.3546
   23MYC    C71  618   0.939   6.846   8.743  0.2966  0.3560  0.1444
   23MYC   H117  619   0.915   6.952   8.758 -1.6893 -0.1804  1.2007
   23MYC   H118  620   1.047   6.851   8.729  0.3377  0.2124  0.4110
   23MYC    C70  621   0.911   6.765   8.870  0.1856 -0.3214 -0.3114
   23MYC   H119  622   0.924   6.659   8.848  0.8802 -0.2744 -0.1574
   23MYC   H120  623   0.804   6.769   8.894  0.6947 -1.9300  2.6461
   23MYC    C69  624   0.994   6.818   8.996  1.3292 -0.1458  0.0185
   23MYC   H121  625   0.970   6.924   9.015 -1.1881 -0.3524 -1.5941
   23MYC   H122  626   1.099   6.805   8.966  1.5564 -2.1182  1.4699
   23MYC    C68  627   0.987   6.732   9.127  0.1917  0.1046  0.7101
   23MYC   HH12  628   1.021   6.630   9.106  1.3796  0.4928  0.6603
   23MYC   H123  629   0.884   6.739   9.162  0.3479  0.8041  1.0444
   23MYC    C67  630   1.090   6.787   9.235 -0.0254  0.4599 -0.7907
   23MYC   H124  631   1.079   6.894   9.256  1.9156  0.4035  0.6901
   23MYC   H125  632   1.193   6.773   9.202  0.8225  0.1539  1.8420
   23MYC    C66  633   1.060   6.717   9.374 -0.0868 -0.4352 -1.0807
   23MYC   H126  634   1.051   6.608   9.368  0.8853 -0.6753  0.9398
   23MYC   H127  635   0.960   6.748   9.405 -0.8959 -3.0269 -0.8084
   23MYC    C65  636   1.165   6.752   9.486 -0.9177  0.0208  0.5305
   23MYC   H128  637   1.161   6.861   9.503  1.0736  0.0423  1.0207
   23MYC   H129  638   1.265   6.729   9.449 -1.1427 -1.1481  0.6187
   23MYC    C64  639   1.125   6.662   9.611  0.2755  0.0747 -0.4649
   23MYC   H130  640   1.132   6.558   9.577 -0.4471  0.0169 -0.4452
   23MYC   H131  641   1.019   6.667   9.640  0.2435 -4.4730  1.0026
   23MYC    C63  642   1.210   6.691   9.729  0.2200 -0.4058  0.3662
   23MYC   HH11  643   1.198   6.786   9.782  2.3107 -0.7749  1.5997
   23MYC   H132  644   1.314   6.700   9.694 -0.4218  0.5238 -1.4816
   23MYC    C62  645   1.187   6.577   9.833  0.9337  0.4880  0.9601
   23MYC   H133  646   1.202   6.481   9.782  3.3209 -0.4953  3.2763
   23MYC   H134  647   1.089   6.574   9.883 -1.5184  0.0166 -3.3909
   23MYC    C61  648   1.302   6.577   9.937 -0.5530 -0.9300  0.4528
   23MYC   H135  649   1.339   6.680   9.948  1.5223 -1.3951 -1.4160
   23MYC   H136  650   1.385   6.525   9.888  0.4319  1.8545 -1.0775
   23MYC    C60  651   1.262   6.526  10.071 -0.7120 -0.3573 -0.3518
   23MYC   H137  652   1.179   6.582  10.113  1.1581  1.0158  1.7788
   23MYC    C58  653   1.292   6.381  10.117  0.3371 -0.4630 -0.1467
   23MYC   H138  654   1.340   6.326  10.037  0.0116  0.3148 -0.8839
   23MYC    C59  655   1.373   6.497  10.178  0.0090 -0.0820  0.6747
   23MYC   H139  656   1.336   6.538  10.272  0.0190  1.4819  0.0332
   23MYC   H140  657   1.477   6.512  10.150 -0.3546  0.8793 -0.2388
   23MYC    C57  658   1.198   6.304  10.201 -0.0910 -0.0079 -0.5340
   23MYC   HH10  659   1.253   6.234  10.266 -1.2580 -1.1512 -0.7454
   23MYC   H141  660   1.135   6.250  10.130  1.8321  0.6378 -2.8952
   23MYC    C56  661   1.102   6.377  10.301 -0.0757 -0.8524  0.3579
   23MYC   H142  662   1.159   6.458  10.348  1.2205 -1.3542 -0.3152
   23MYC   H143  663   1.074   6.310  10.383 -4.0201  2.4383  2.0641
   23MYC    C55  664   0.965   6.428  10.253  0.2620  0.5874  0.3194
   23MYC   H144  665   0.901   6.342  10.233  0.1054  0.5871  0.8095
   23MYC   H145  666   0.984   6.496  10.168  1.4599  0.5477  0.5439
   23MYC    C54  667   0.896   6.515  10.346  0.1863 -0.2604 -0.7348
   23MYC   H146  668   0.906   6.472  10.447  0.4766 -0.3836 -0.8162
   23MYC   H147  669   0.788   6.519  10.328  0.1496 -1.4311 -0.8396
   23MYC    C53  670   0.945   6.659  10.340 -0.1771 -0.5494  0.3252
   23MYC   H148  671   0.884   6.706  10.262 -0.2963  0.6361  1.1009
   23MYC   H149  672   1.052   6.668  10.314  0.4944 -1.0006  2.7031
   23MYC    C52  673   0.939   6.742  10.468 -0.4110 -0.2743  0.0612
   23MYC    H99  674   0.996   6.686  10.543  1.0375 -2.0272 -2.2297
   23MYC   H150  675   0.833   6.754  10.497 -0.1579  0.0678  0.8848
   23MYC    C51  676   1.005   6.882  10.458  0.0641 -0.3726 -0.5839
   23MYC    H97  677   0.950   6.947  10.389  1.8323  0.0747 -1.6422
   23MYC    H98  678   1.103   6.869  10.411 -0.3674 -0.5440 -1.4363
   23MYC    C50  679   1.005   6.969  10.591 -0.3307  0.2156  0.0048
   23MYC    H95  680   0.905   7.007  10.609  0.8763  1.7008  5.2278
   23MYC    H96  681   1.081   7.046  10.571  1.8867 -1.8099  0.0434
   23MYC    C49  682   1.057   6.914  10.724  0.3846 -0.1355  0.1243
   23MYC    H93  683   1.160   6.876  10.722 -0.5404 -2.9047 -2.4615
   23MYC    H94  684   1.000   6.823  10.747  1.5183 -0.5197  1.5333
   23MYC    C48  685   1.041   7.019  10.835 -0.9534 -0.4744 -0.6139
   23MYC    H91  686   0.935   7.044  10.840 -0.8436  0.0775 -0.9778
   23MYC    H92  687   1.085   7.115  10.805 -0.9025  0.2901  1.7356
   23MYC    C47  688   1.111   6.980  10.970 -0.5202 -0.3459 -0.1698
   23MYC    H89  689   1.089   7.050  11.052 -1.0122 -2.3862  1.5223
   23MYC    H90  690   1.215   7.009  10.951 -0.2466 -1.6371 -0.6818
   23MYC    C46  691   1.086   6.840  11.032  0.4770  0.0152  0.1357
   23MYC    H87  692   1.120   6.759  10.967  2.6309 -0.8917  2.2295
   23MYC    H88  693   0.980   6.817  11.046  0.5253 -1.5397 -1.6734
   23MYC    C45  694   1.157   6.822  11.172 -0.0447 -0.3945  0.0155
   23MYC    H85  695   1.125   6.732  11.225 -0.8938 -1.0513 -1.5437
   23MYC    H86  696   1.125   6.910  11.230 -0.6171  1.2271 -2.5421
   23MYC    C44  697   1.314   6.824  11.163  0.0192 -0.1930  0.4666
   23MYC    H83  698   1.349   6.832  11.267  1.2456 -1.4025  0.1807
   23MYC    H84  699   1.331   6.922  11.117 -0.8960 -1.0478 -1.8143
   23MYC    C18  700   1.375   6.703  11.085  0.0126 -0.6987  0.1235
   23MYC    H31  701   1.342   6.610  11.131  0.1145 -1.3813 -1.1305
   23MYC    C17  702   1.409   6.698  10.938  0.1411 -0.8681  0.6418
   23MYC    H30  703   1.395   6.795  10.892 -1.8225 -2.7747 -3.3227
   23MYC    C19  704   1.522   6.690  11.035 -0.1050  0.4412 -0.1159
   23MYC    H32  705   1.589   6.776  11.034 -1.1485  1.2743  0.0855
   23MYC    H33  706   1.586   6.604  11.053  1.1419  1.2879 -0.3346
   23MYC    C16  707   1.350   6.592  10.848  0.0648 -0.3061 -0.0460
   23MYC    H28  708   1.243   6.601  10.829 -0.0106  1.2871  1.0137
   23MYC    H29  709   1.364   6.497  10.902 -3.1138 -0.8798 -0.0612
   23MYC    C15  710   1.436   6.600  10.719 -0.8429 -0.2753  0.3211
   23MYC    H26  711   1.541   6.590  10.750 -0.2786  1.5625 -0.8197
   23MYC    H27  712   1.421   6.705  10.693 -0.6623 -0.1430  0.7304
   23MYC    C14  713   1.401   6.508  10.605 -0.2820  0.0642  0.6436
   23MYC    H24  714   1.419   6.560  10.510 -1.4489  1.7228  1.2710
   23MYC    H25  715   1.292   6.495  10.597 -0.6760  2.5785  0.9345
   23MYC    C13  716   1.469   6.369  10.615  0.6679 -0.0937 -0.0163
   23MYC    H22  717   1.443   6.309  10.702  1.7607 -0.0223  0.3791
   23MYC    H23  718   1.573   6.395  10.640 -0.3059  2.3699  1.9066
   23MYC    C12  719   1.443   6.283  10.491  0.9045 -0.2701  0.0765
   23MYC    H20  720   1.463   6.349  10.406 -1.8242  1.4773  0.6661
   23MYC    H21  721   1.336   6.257  10.497  1.0748 -0.7994  0.8893
   23MYC    C11  722   1.525   6.152  10.472 -0.7468 -0.3390 -0.2378
   23MYC    H18  723   1.493   6.095  10.383 -1.5242  0.5852 -0.5567
   23MYC    H19  724   1.517   6.081  10.555 -3.4431 -1.3194 -1.2308
   23MYC    C10  725   1.683   6.170  10.449  0.4434  0.4126  0.3105
   23MYC    H16  726   1.734   6.073  10.444  2.0918  1.2952 -0.8714
   23MYC    H17  727   1.728   6.196  10.546  1.3632 -0.5811  0.1689
   23MYC     C9  728   1.736   6.266  10.347  0.1686  0.1457  0.4713
   23MYC    H14  729   1.845   6.256  10.351  0.0542 -0.9954  1.0218
   23MYC    H15  730   1.717   6.370  10.375  0.1213  0.0241  0.8979
   23MYC     C8  731   1.682   6.235  10.209 -0.1895 -0.0203  0.0484
   23MYC    H12  732   1.575   6.256  10.206 -0.0484  1.1374  1.7580
   23MYC    H13  733   1.703   6.130  10.186 -0.3168 -0.1281  0.4162
   23MYC     C7  734   1.744   6.327  10.100 -0.8282  0.2918  0.3437
   23MYC    H10  735   1.853   6.337  10.112 -0.2310 -2.7900 -1.4732
   23MYC    H11  736   1.707   6.427  10.124  1.8352  1.9088 -1.6722
   23MYC     C6  737   1.698   6.291   9.954  0.3132  0.1936  0.0294
   23MYC     H8  738   1.596   6.251   9.951  0.2327  0.4068 -0.1062
   23MYC     H9  739   1.765   6.213   9.915 -0.9919 -0.5605 -0.8034
   23MYC     C5  740   1.724   6.411   9.865 -0.1265  0.1191  0.7204
   23MYC     H6  741   1.833   6.423   9.868  0.0314 -1.3865  1.7853
   23MYC     H7  742   1.686   6.506   9.904  0.8449  1.2312 -0.9028
   23MYC     C4  743   1.670   6.387   9.724  0.4476  0.5416 -0.3453
   23MYC     H4  744   1.577   6.332   9.741  0.4969  0.3771 -0.6103
   23MYC     H5  745   1.735   6.315   9.674  1.5749 -0.7103  2.6705
   23MYC     C2  746   1.661   6.509   9.639 -0.1818  0.6705 -0.0830
   23MYC     H2  747   1.579   6.573   9.675  0.2233  1.2820 -0.2351
   23MYC     O3  748   1.781   6.583   9.647  0.3816  0.3885 -0.3447
   23MYC     H3  749   1.849   6.514   9.652 -0.3431 -0.2257  2.1103
   23MYC     C1  750   1.634   6.476   9.484  0.7290  0.3342 -0.1365
   23MYC     H1  751   1.554   6.402   9.476  1.1961 -0.1614 -0.3657
   23MYC    C81  752   1.760   6.407   9.421 -0.7553  0.3634 -0.1321
   23MYC    O82  753   1.867   6.460   9.393  0.1060  0.0211 -0.3525
   23MYC    O83  754   1.735   6.272   9.392 -0.9058 -0.2407 -0.6718
   23MYC   H105  755   1.821   6.246   9.356  0.1969  1.5217  0.5085
   23MYC    C20  756   1.595   6.599   9.400 -0.2133 -0.0677  0.3666
   23MYC    H34  757   1.517   6.657   9.451  1.1565  0.3500  2.0580
   23MYC    H35  758   1.674   6.674   9.395  0.0617 -0.3092  0.9881
   23MYC    C21  759   1.566   6.570   9.251 -0.0897  0.6195  0.2948
   23MYC    H36  760   1.652   6.516   9.211  1.0865  2.2802  0.4835
   23MYC    H37  761   1.470   6.517   9.252 -0.6223  1.5645  0.6799
   23MYC    C22  762   1.540   6.690   9.166 -0.0766  0.1085 -0.3738
   23MYC    H38  763   1.459   6.746   9.215  1.4577  0.6599  1.6650
   23MYC    H39  764   1.623   6.761   9.153 -0.5803  0.8846  0.5410
   23MYC    C23  765   1.493   6.658   9.021  0.4396  0.2818  0.3390
   23MYC    H40  766   1.576   6.625   8.958  0.0094  0.7507 -0.4922
   23MYC    H41  767   1.419   6.579   9.003 -1.7153  2.4501 -1.0347
   23MYC    C24  768   1.437   6.783   8.948 -0.1213  0.4704  0.5759
   23MYC    H42  769   1.357   6.839   8.998  1.7630  1.7547  2.3410
   23MYC    H43  770   1.518   6.857   8.958  0.6473 -0.4057  0.9785
   23MYC    C25  771   1.395   6.750   8.807  0.1150 -0.1915 -0.3686
   23MYC    H44  772   1.473   6.700   8.749 -1.0403  0.7908 -2.8816
   23MYC    H45  773   1.316   6.675   8.811 -1.1161  1.1172  0.8957
   23MYC    C26  774   1.344   6.871   8.718  0.0793 -0.9839  0.2849
   23MYC    H46  775   1.278   6.930   8.783  1.8363  1.8671 -0.3553
   23MYC    H47  776   1.426   6.943   8.714  0.7896 -1.8411 -2.2500
   23MYC    C27  777   1.294   6.845   8.574  0.4785  0.4723  0.4181
   23MYC    H48  778   1.366   6.792   8.511 -1.0213  0.4037 -1.3106
   23MYC    H49  779   1.215   6.769   8.586  1.1573 -0.1853  0.8711
   23MYC    C28  780   1.245   6.967   8.498  0.1683 -0.2732 -0.9134
   23MYC    H50  781   1.177   7.020   8.566  0.3419 -1.1222 -0.0551
   23MYC    H51  782   1.329   7.027   8.462 -0.5148  1.1748 -0.1887
   23MYC    C29  783   1.165   6.942   8.374  0.2396 -0.0240  0.1727
   23MYC    H52  784   1.232   6.912   8.292  1.7403  1.0045  0.9808
   23MYC    H53  785   1.094   6.862   8.398 -0.0111  0.5171  1.3040
   23MYC    C30  786   1.068   7.060   8.337  0.3664  0.8763  0.2089
   23MYC    H54  787   1.000   7.101   8.413 -2.0063 -0.0185 -1.3029
   23MYC    H55  788   1.133   7.140   8.298 -1.7964  2.4802 -0.3082
   23MYC    C31  789   0.972   7.030   8.222 -0.1726 -0.4984  0.1640
   23MYC    H56  790   1.027   6.986   8.137 -1.7343  0.2413 -1.2905
   23MYC    H57  791   0.909   6.955   8.271  2.8570 -2.3348  1.5412
   23MYC    C32  792   0.883   7.147   8.171  0.1281  0.1020  0.3424
   23MYC    H58  793   0.821   7.180   8.255  1.9125  1.3909  1.2143
   23MYC    H59  794   0.945   7.234   8.148 -0.5356  0.3569 -0.5502
   23MYC    C33  795   0.824   7.105   8.033 -0.1680  0.1981  0.7825
   23MYC    H60  796   0.763   7.186   7.990 -0.1379 -0.1894  0.0054
   23MYC    H61  797   0.903   7.087   7.960 -1.0067  0.1777 -0.1455
   23MYC    C34  798   0.736   6.974   8.036 -0.0853 -0.0628  0.3242
   23MYC    H62  799   0.785   6.877   8.054 -0.7565 -0.2798  1.0436
   23MYC    H63  800   0.668   6.981   8.122 -0.4899  1.6752 -0.0971
   23MYC    C35  801   0.651   6.949   7.911 -0.0126 -0.7483  0.1072
   23MYC    H64  802   0.624   7.053   7.887 -1.7889 -1.2505 -0.1820
   23MYC    H65  803   0.713   6.918   7.827  1.1295 -0.9406  0.9893
   23MYC    C36  804   0.529   6.849   7.927  0.3693 -0.3820 -0.7150
   23MYC    H66  805   0.450   6.898   7.985  2.5036 -1.8645  3.9001
   23MYC    H67  806   0.494   6.841   7.823  0.9645 -0.6421 -0.9032
   23MYC    C37  807   0.573   6.713   7.983 -0.0945  0.6823  0.5588
   23MYC    H68  808   0.653   6.666   7.925  0.6444  1.7650  0.6787
   23MYC    H69  809   0.602   6.734   8.087  2.7923 -0.2922  0.0237
   23MYC    C38  810   0.447   6.617   7.991 -0.2937 -0.4406  0.1550
   23MYC    H70  811   0.460   6.540   8.067 -0.1070 -0.5378  0.0260
   23MYC    H71  812   0.360   6.674   8.025  0.4036  0.2962  0.7367
   23MYC    C39  813   0.414   6.545   7.853  1.6580 -0.3076  0.1323
   23MYC    H72  814   0.391   6.605   7.764  2.1499 -0.1717  0.0930
   23MYC    H73  815   0.511   6.504   7.822  1.1729 -0.0913 -1.8386
   23MYC    C40  816   0.296   6.446   7.864 -0.3793 -0.5015 -0.3197
   23MYC    H74  817   0.297   6.389   7.770  2.2423 -1.9561  0.4848
   23MYC    H75  818   0.320   6.381   7.949 -0.2708 -0.5650 -0.3979
   23MYC    C41  819   0.162   6.526   7.889  0.1601 -0.3513  0.2345
   23MYC    H76  820   0.176   6.572   7.988  2.9355  0.7394 -0.5613
   23MYC    H77  821   0.143   6.600   7.811 -0.1089  1.3744  1.8631
   23MYC    C42  822   0.033   6.443   7.888  0.2958  0.1952  0.0610
   23MYC    H78  823  -0.051   6.513   7.900  0.0685 -0.2321  1.0729
   23MYC    H79  824   0.027   6.392   7.792  1.2031 -2.1914  1.1925
   23MYC    C43  825   0.008   6.340   8.007  0.1017 -1.0726  0.2863
   23MYC    H80  826  -0.093   6.301   8.024 -0.8210  1.8954  2.6231
   23MYC    H81  827   0.032   6.392   8.101 -0.7222 -0.3831  0.1248
   23MYC    H82  828   0.077   6.256   7.996  0.6487 -0.9823  2.5664
   24MYC   HH15  829   3.133   6.107   7.104 -1.3824 -0.5324 -0.3486
   24MYC    C80  830   3.102   6.211   7.119  0.4612  0.0056  0.0192
   24MYC   H100  831   3.192   6.254   7.164  0.9903 -0.6048 -0.4268
   24MYC   H101  832   3.084   6.247   7.017  1.3490 -2.0793 -0.9419
   24MYC    C79  833   2.983   6.237   7.215 -0.2485  1.2197 -0.2555
   24MYC   H102  834   2.891   6.191   7.176 -0.2609  2.1857 -1.4081
   24MYC   H103  835   2.976   6.346   7.217 -1.3843  1.1454  0.0146
   24MYC    C78  836   3.000   6.179   7.363  0.2416  0.0515 -0.5884
   24MYC   HH14  837   3.051   6.082   7.358 -1.6658 -1.1299  1.0538
   24MYC   H104  838   2.904   6.163   7.414 -0.1439  0.2988 -1.2168
   24MYC    C77  839   3.085   6.263   7.460 -0.5239  0.4406 -0.6437
   24MYC   H106  840   3.056   6.368   7.456 -0.8407  0.4336  0.9949
   24MYC   H107  841   3.191   6.245   7.440 -0.0294  0.6985  1.5518
   24MYC    C76  842   3.069   6.223   7.615 -0.6888 -0.5443 -0.0745
   24MYC   H108  843   3.111   6.122   7.616 -1.4440 -0.8875 -1.1769
   24MYC   H109  844   2.966   6.218   7.652 -0.7270 -0.0188 -0.1055
   24MYC    C75  845   3.145   6.320   7.711 -1.0527 -0.6453  0.2791
   24MYC   H110  846   3.124   6.423   7.680  2.1298 -0.6121 -2.3242
   24MYC   H111  847   3.255   6.315   7.706 -0.9469  0.5770  0.9374
   24MYC    C74  848   3.119   6.289   7.860 -0.2636  0.2153  0.0294
   24MYC   H112  849   3.011   6.290   7.877 -0.0941 -0.4974  1.2699
   24MYC   H113  850   3.165   6.360   7.930 -0.8231  0.8404 -0.2239
   24MYC    C73  851   3.177   6.156   7.905 -0.3114  0.0780 -0.1978
   24MYC   HH13  852   3.280   6.148   7.868 -0.4788 -0.2450 -0.6116
   24MYC   H114  853   3.136   6.076   7.842  3.2887 -0.7428 -1.7402
   24MYC    C72  854   3.160   6.120   8.053  0.0528  1.0968  0.3855
   24MYC   H115  855   3.208   6.178   8.133 -0.0138  0.1687  1.1158
   24MYC   H116  856   3.198   6.017   8.053 -3.0184 -0.1775 -1.4781
   24MYC    C71  857   3.010   6.100   8.097  0.0824 -0.1575  0.2320
   24MYC   H117  858   2.973   6.017   8.035  0.6305 -1.2211  1.2991
   24MYC   H118  859   2.959   6.195   8.076 -0.5888 -0.7374 -0.8802
   24MYC    C70  860   2.993   6.058   8.240 -0.1885 -0.2778  0.1461
   24MYC   H119  861   3.045   6.136   8.296  0.6421 -0.2578 -0.6248
   24MYC   H120  862   3.040   5.961   8.263  1.4193  0.2369 -0.8018
   24MYC    C69  863   2.848   6.058   8.293  0.1793 -0.2641  0.0893
   24MYC   H121  864   2.787   6.006   8.218  0.9635  0.1433 -0.8594
   24MYC   H122  865   2.817   6.162   8.310 -2.1863 -1.1405  1.5103
   24MYC    C68  866   2.830   5.996   8.427  0.7146  0.3698 -0.4038
   24MYC   HH12  867   2.850   5.888   8.433 -0.4186  0.1901  0.7683
   24MYC   H123  868   2.721   5.999   8.444  0.6637  2.1476 -0.9093
   24MYC    C67  869   2.892   6.074   8.547  0.3092 -0.1981 -0.1675
   24MYC   H124  870   2.869   6.181   8.538  0.1720 -0.0920  1.2814
   24MYC   H125  871   3.001   6.069   8.535  0.2992  0.1417 -0.4137
   24MYC    C66  872   2.840   6.019   8.686  0.4056 -0.0947  0.0723
   24MYC   H126  873   2.901   6.057   8.770  2.3365 -1.9816 -0.3786
   24MYC   H127  874   2.862   5.912   8.676  1.1808 -0.0037  0.7112
   24MYC    C65  875   2.696   6.036   8.722  1.1861 -0.0598  0.1180
   24MYC   H128  876   2.631   6.004   8.640  1.3497 -1.0669  0.3669
   24MYC   H129  877   2.671   6.143   8.718 -0.6003 -0.4833 -2.5714
   24MYC    C64  878   2.645   5.965   8.848 -0.0185 -0.6841 -0.2395
   24MYC   H130  879   2.683   5.862   8.840  1.4279 -0.1558 -0.5290
   24MYC   H131  880   2.536   5.961   8.841 -0.3244  2.8211  0.7650
   24MYC    C63  881   2.684   6.025   8.979 -0.0289 -0.2289 -0.6591
   24MYC   HH11  882   2.663   6.132   8.980  0.2753 -0.1649 -1.0369
   24MYC   H132  883   2.792   6.015   8.995  0.0634 -0.2980 -1.3091
   24MYC    C62  884   2.599   5.968   9.096 -0.2392  0.2148  0.2688
   24MYC   H133  885   2.661   5.971   9.187 -1.5835 -3.9528  1.5960
   24MYC   H134  886   2.565   5.867   9.070 -0.9490  0.5223 -0.0339
   24MYC    C61  887   2.473   6.044   9.133 -0.1300  0.9102 -0.6775
   24MYC   H135  888   2.432   5.989   9.219  1.0015  0.1075 -0.6210
   24MYC   H136  889   2.397   6.042   9.054 -2.3086 -1.2411  1.3004
   24MYC    C60  890   2.500   6.181   9.177  0.4625  0.5021 -0.6907
   24MYC   H137  891   2.530   6.247   9.096  0.9172  1.8187  0.5064
   24MYC    C58  892   2.409   6.230   9.286  0.6560 -0.0183  0.6467
   24MYC   H138  893   2.358   6.162   9.354 -0.4022  0.3670  0.2600
   24MYC    C59  894   2.558   6.216   9.313 -0.4636 -1.1101 -0.1061
   24MYC   H139  895   2.615   6.309   9.324  0.3480 -1.5692 -0.3412
   24MYC   H140  896   2.589   6.143   9.387  0.5199 -0.1607  0.4529
   24MYC    C57  897   2.336   6.360   9.266 -0.0127  0.0254 -0.0959
   24MYC   HH10  898   2.252   6.350   9.196  0.9047 -1.2290 -1.0674
   24MYC   H141  899   2.407   6.418   9.206  0.2273 -0.7537 -0.5894
   24MYC    C56  900   2.294   6.436   9.396 -0.6236 -0.5152  0.1076
   24MYC   H142  901   2.253   6.531   9.359 -1.2234 -0.1652  1.6006
   24MYC   H143  902   2.382   6.458   9.458  2.0687 -0.2385 -3.4806
   24MYC    C55  903   2.186   6.365   9.479  0.0819  0.0582 -0.1744
   24MYC   H144  904   2.203   6.263   9.515 -0.4482  0.1424  0.3358
   24MYC   H145  905   2.105   6.350   9.407 -0.0264  2.8927 -0.7840
   24MYC    C54  906   2.132   6.453   9.592 -0.7530  0.1493  0.0212
   24MYC   H146  907   2.036   6.407   9.617  0.4055 -1.5387  1.6083
   24MYC   H147  908   2.103   6.556   9.570  2.7760  1.4441  0.8607
   24MYC    C53  909   2.213   6.430   9.724 -0.0400  0.2460  0.5881
   24MYC   H148  910   2.312   6.473   9.707  0.6603 -0.4855  2.5544
   24MYC   H149  911   2.237   6.325   9.743  0.9963  0.4152  0.2629
   24MYC    C52  912   2.145   6.497   9.857  0.3083 -0.1373  0.3653
   24MYC    H99  913   2.055   6.441   9.886  0.4657  0.3728  1.9403
   24MYC   H150  914   2.122   6.600   9.829 -2.0835 -1.2815 -2.4476
   24MYC    C51  915   2.240   6.503   9.978 -0.2025 -0.2591  0.0145
   24MYC    H97  916   2.337   6.548   9.955 -0.0946  0.4974  1.7836
   24MYC    H98  917   2.270   6.399   9.991 -0.6422 -0.3076  0.6589
   24MYC    C50  918   2.190   6.573  10.102  0.1285 -0.7811 -0.4334
   24MYC    H95  919   2.183   6.681  10.082 -0.3748 -0.6810  0.2484
   24MYC    H96  920   2.268   6.563  10.179 -3.0709 -1.2299  3.0320
   24MYC    C49  921   2.071   6.511  10.174 -0.3849 -0.4701  1.2837
   24MYC    H93  922   2.083   6.402  10.181 -0.5517 -1.0678 -4.1222
   24MYC    H94  923   1.981   6.533  10.116  1.2562  0.3662 -1.0603
   24MYC    C48  924   2.037   6.564  10.315 -0.4823 -0.0358  0.5440
   24MYC    H91  925   1.928   6.560  10.322 -0.4766  0.8513  1.3239
   24MYC    H92  926   2.072   6.668  10.310 -2.0032  0.5173  0.7702
   24MYC    C47  927   2.101   6.483  10.427 -0.0909  0.5255  0.6271
   24MYC    H89  928   2.209   6.485  10.406 -0.2223 -1.1626 -0.4134
   24MYC    H90  929   2.079   6.376  10.420  1.8976  0.0372  1.0912
   24MYC    C46  930   2.070   6.541  10.568 -0.5913 -0.3361  0.7961
   24MYC    H87  931   2.094   6.647  10.561  0.0826 -0.5663 -0.6939
   24MYC    H88  932   2.125   6.493  10.650 -1.9632 -0.1511  1.8649
   24MYC    C45  933   1.916   6.542  10.608  0.1472 -0.3444 -0.5220
   24MYC    H85  934   1.881   6.442  10.635 -0.1733  0.1093  0.8032
   24MYC    H86  935   1.847   6.574  10.529 -0.2252 -0.0180 -0.0683
   24MYC    C44  936   1.900   6.624  10.733  0.1361 -0.8948  0.3014
   24MYC    H83  937   1.791   6.635  10.742 -0.2722 -2.6403 -1.6825
   24MYC    H84  938   1.941   6.724  10.715 -2.4812  0.0556 -1.0153
   24MYC    C18  939   1.971   6.562  10.859 -0.0512  0.5181  0.8430
   24MYC    H31  940   1.955   6.455  10.859 -0.8009  0.6009 -0.7447
   24MYC    C17  941   2.101   6.623  10.905 -0.4051 -0.5158 -0.2039
   24MYC    H30  942   2.128   6.718  10.861 -1.2261  0.6712  1.7609
   24MYC    C19  943   1.976   6.629  10.995 -0.1139  0.6107  0.4221
   24MYC    H32  944   1.927   6.726  11.005  2.0035  1.5200  4.5852
   24MYC    H33  945   1.962   6.562  11.079  0.7050  1.1535  1.0133
   24MYC    C16  946   2.219   6.536  10.936  0.7325 -0.6217  0.3653
   24MYC    H28  947   2.245   6.480  10.845 -0.5849 -1.0871  0.2471
   24MYC    H29  948   2.181   6.472  11.016  0.2429  0.8629  1.3549
   24MYC    C15  949   2.338   6.618  10.981 -0.0143  0.1447 -0.1835
   24MYC    H26  950   2.418   6.549  11.010 -0.1815  0.6629  1.6360
   24MYC    H27  951   2.310   6.671  11.073 -0.3886  0.2003 -0.3306
   24MYC    C14  952   2.387   6.734  10.882  0.1387 -0.1481 -0.2964
   24MYC    H24  953   2.488   6.760  10.915  0.2444  0.7065 -1.2562
   24MYC    H25  954   2.324   6.823  10.895 -0.5379 -0.9551  3.0670
   24MYC    C13  955   2.402   6.694  10.738 -0.4427 -0.2183 -0.0679
   24MYC    H22  956   2.314   6.653  10.687 -1.4600  1.3104  0.3943
   24MYC    H23  957   2.481   6.618  10.730  0.3476  0.3538  1.8669
   24MYC    C12  958   2.442   6.811  10.648 -0.8485  0.2529  0.4567
   24MYC    H20  959   2.537   6.847  10.692 -2.0192  0.4496  3.0384
   24MYC    H21  960   2.364   6.888  10.648 -0.9892  0.1156 -0.2523
   24MYC    C11  961   2.457   6.764  10.496 -0.5736  1.1596 -0.2796
   24MYC    H18  962   2.364   6.723  10.455  0.1424  0.7829 -1.5812
   24MYC    H19  963   2.517   6.672  10.496 -1.4280  0.5680 -1.9755
   24MYC    C10  964   2.508   6.868  10.389 -0.2598  0.7663 -0.0574
   24MYC    H16  965   2.547   6.808  10.306  0.7609  2.7547 -1.0997
   24MYC    H17  966   2.595   6.922  10.429 -0.1728  2.1281 -1.9385
   24MYC     C9  967   2.411   6.979  10.353  0.6320  0.1226  0.3090
   24MYC    H14  968   2.458   7.062  10.301  1.5135  0.1356  1.1073
   24MYC    H15  969   2.354   7.011  10.441  0.2791  0.6933 -0.1228
   24MYC     C8  970   2.297   6.928  10.259  0.0060  0.0035 -0.1120
   24MYC    H12  971   2.242   6.848  10.310  0.1626  0.3062  0.5392
   24MYC    H13  972   2.348   6.885  10.172 -1.1171  0.3083 -0.9306
   24MYC     C7  973   2.198   7.025  10.219  0.5044 -0.4191 -0.2756
   24MYC    H10  974   2.248   7.110  10.172 -1.5764  0.1264 -1.6627
   24MYC    H11  975   2.146   7.054  10.311  1.6968 -0.5151  0.4461
   24MYC     C6  976   2.102   6.979  10.108  0.4747 -0.3693  0.0222
   24MYC     H8  977   2.020   7.052  10.104  0.3278 -0.4946  0.5786
   24MYC     H9  978   2.040   6.892  10.133  0.1705 -0.5108 -1.1664
   24MYC     C5  979   2.171   6.980   9.969 -0.3671 -0.1596  0.4552
   24MYC     H6  980   2.264   6.922   9.969 -0.1403  0.1786 -1.0246
   24MYC     H7  981   2.197   7.086   9.956  1.8869 -1.0061 -3.6316
   24MYC     C4  982   2.080   6.926   9.852 -0.6915 -0.0445 -0.0448
   24MYC     H4  983   1.990   6.988   9.844  1.1545  3.0270  1.0600
   24MYC     H5  984   2.042   6.826   9.877 -1.2542 -0.1880 -1.3890
   24MYC     C2  985   2.150   6.934   9.711 -0.1521  0.1513  0.2977
   24MYC     H2  986   2.073   6.924   9.634 -0.7668  1.0772  0.7747
   24MYC     O3  987   2.191   7.066   9.693  0.0436 -0.2388 -0.0529
   24MYC     H3  988   2.277   7.077   9.737  0.6133 -0.7248 -1.0114
   24MYC     C1  989   2.265   6.842   9.662 -0.1699  0.4225 -0.2904
   24MYC     H1  990   2.244   6.735   9.675  1.1500  0.3209  1.4220
   24MYC    C81  991   2.393   6.855   9.749 -0.8521  0.2623 -1.1972
   24MYC    O82  992   2.466   6.958   9.751 -0.9389  0.2660  0.2169
   24MYC    O83  993   2.419   6.742   9.821  0.1024  0.1323  0.5740
   24MYC   H105  994   2.511   6.739   9.850  0.1608  0.1161  0.3871
   24MYC    C20  995   2.307   6.877   9.515 -0.1747  0.0892  0.8407
   24MYC    H34  996   2.217   6.860   9.456  0.5919 -2.8459  0.3553
   24MYC    H35  997   2.325   6.985   9.508 -0.3271  0.0020 -2.3803
   24MYC    C21  998   2.422   6.801   9.448 -0.0388 -0.3229  0.1606
   24MYC    H36  999   2.512   6.802   9.511 -0.7652  2.2410  1.2959
   24MYC    H37 1000   2.398   6.694   9.443  1.1134 -0.5510 -2.2104
   24MYC    C22 1001   2.461   6.841   9.304  0.2598 -0.1733 -0.6199
   24MYC    H38 1002   2.384   6.831   9.227  1.1941 -0.7662 -1.5119
   24MYC    H39 1003   2.487   6.947   9.305 -0.7502  0.0787 -0.0525
   24MYC    C23 1004   2.596   6.783   9.245  0.2857 -0.7976 -0.5697
   24MYC    H40 1005   2.622   6.849   9.162  0.7199  0.2394  0.3617
   24MYC    H41 1006   2.669   6.804   9.324 -1.8784 -1.0889  1.6516
   24MYC    C24 1007   2.588   6.641   9.205 -0.6958  0.1110  0.4646
   24MYC    H42 1008   2.571   6.584   9.298 -0.3218  0.1412  0.5538
   24MYC    H43 1009   2.507   6.628   9.133 -1.8389  0.0721  1.7006
   24MYC    C25 1010   2.727   6.587   9.151 -0.2122  0.2889 -0.5717
   24MYC    H44 1011   2.792   6.602   9.239 -1.2545 -0.8105  0.4220
   24MYC    H45 1012   2.722   6.478   9.141 -0.8838  0.1126  1.2305
   24MYC    C26 1013   2.784   6.650   9.025  0.1058  0.6679  0.4407
   24MYC    H46 1014   2.781   6.757   9.050  0.3584  1.3572 -2.1022
   24MYC    H47 1015   2.886   6.614   9.007 -0.1303 -0.6770  1.6366
   24MYC    C27 1016   2.700   6.613   8.905 -0.5463 -0.9371  0.0314
   24MYC    H48 1017   2.697   6.506   8.885 -0.3164 -0.6174 -1.8922
   24MYC    H49 1018   2.597   6.650   8.913  0.4271  1.7216  2.3884
   24MYC    C28 1019   2.761   6.690   8.789 -0.1385  0.2177 -0.7555
   24MYC    H50 1020   2.740   6.797   8.799  0.4239  0.2472  0.2771
   24MYC    H51 1021   2.870   6.682   8.775 -0.0072 -0.3912  0.4550
   24MYC    C29 1022   2.691   6.632   8.665  0.6816 -0.4481 -0.4437
   24MYC    H52 1023   2.722   6.528   8.651  2.1454  0.0145 -0.8745
   24MYC    H53 1024   2.582   6.633   8.657  0.6901  0.4282 -0.5763
   24MYC    C30 1025   2.732   6.704   8.529  0.1252 -0.4751 -0.3471
   24MYC    H54 1026   2.704   6.810   8.535 -1.2162 -0.8877  1.3734
   24MYC    H55 1027   2.840   6.691   8.517  0.0474 -1.2034 -0.3051
   24MYC    C31 1028   2.653   6.653   8.406 -0.2292 -0.0416 -0.2385
   24MYC    H56 1029   2.668   6.545   8.394 -0.8124 -0.2326  0.6554
   24MYC    H57 1030   2.544   6.656   8.420 -0.4357 -3.0234 -0.6043
   24MYC    C32 1031   2.693   6.729   8.280  0.3594  0.3672 -0.0307
   24MYC    H58 1032   2.701   6.836   8.306 -0.4431  0.5084 -0.3339
   24MYC    H59 1033   2.791   6.694   8.247  0.9879  2.4278 -0.5234
   24MYC    C33 1034   2.595   6.711   8.161 -0.1411 -0.1797  0.5616
   24MYC    H60 1035   2.593   6.606   8.129 -0.3570  0.4830 -1.8197
   24MYC    H61 1036   2.491   6.731   8.187 -0.5936 -3.4886  1.7663
   24MYC    C34 1037   2.628   6.807   8.041 -0.8039 -0.3487 -0.1112
   24MYC    H62 1038   2.719   6.778   7.987 -1.9722 -0.1754 -2.2910
   24MYC    H63 1039   2.551   6.792   7.964  0.9899 -0.8420 -1.8991
   24MYC    C35 1040   2.632   6.967   8.070  0.4079 -0.6384  0.5627
   24MYC    H64 1041   2.717   6.983   8.138 -0.5866 -5.0798  3.2350
   24MYC    H65 1042   2.652   7.027   7.980 -0.6935  0.1797  0.8295
   24MYC    C36 1043   2.505   7.022   8.143  0.0318  0.5832 -0.3083
   24MYC    H66 1044   2.417   6.973   8.101  0.2511 -0.2742  0.2108
   24MYC    H67 1045   2.515   6.984   8.245 -0.0534  0.0075 -0.5079
   24MYC    C37 1046   2.478   7.176   8.136 -0.5756 -0.3434 -0.3279
   24MYC    H68 1047   2.560   7.239   8.173 -1.3935  0.4192  0.2447
   24MYC    H69 1048   2.483   7.201   8.030  1.3368  0.7392 -0.0334
   24MYC    C38 1049   2.347   7.215   8.213 -1.0068  0.6886 -0.3979
   24MYC    H70 1050   2.258   7.178   8.160 -1.7017  2.7993 -0.7971
   24MYC    H71 1051   2.354   7.178   8.316 -0.8906 -1.0563 -0.9918
   24MYC    C39 1052   2.326   7.368   8.217  0.4668 -0.1723  0.6218
   24MYC    H72 1053   2.410   7.403   8.277  1.4702 -0.3072 -0.6696
   24MYC    H73 1054   2.341   7.425   8.125 -0.0846  1.0996  1.2793
   24MYC    C40 1055   2.189   7.422   8.282 -0.5550  0.1862 -0.1586
   24MYC    H74 1056   2.180   7.385   8.385  2.2759 -1.8523 -0.5429
   24MYC    H75 1057   2.195   7.531   8.294 -1.7309  0.4114 -1.3188
   24MYC    C41 1058   2.049   7.383   8.215  0.1075 -0.6211 -0.7726
   24MYC    H76 1059   2.032   7.280   8.248 -0.2671  0.3241  2.3118
   24MYC    H77 1060   1.970   7.445   8.260  1.8383  0.9564  0.2089
   24MYC    C42 1061   2.052   7.380   8.061  0.3160 -0.1024 -0.0882
   24MYC    H78 1062   2.139   7.323   8.026  0.4932 -0.0590  0.2753
   24MYC    H79 1063   1.960   7.332   8.025  0.2085  1.8519 -2.7614
   24MYC    C43 1064   2.057   7.518   7.998  0.2859  0.1883  0.2242
   24MYC    H80 1065   2.156   7.554   7.966 -0.0425  0.4804 -0.4813
   24MYC    H81 1066   2.005   7.592   8.060  0.6447  0.1967  0.5180
   24MYC    H82 1067   2.000   7.495   7.907  0.4611  2.1237 -0.4144
   25MYC   HH15 1068   3.344   5.781   7.080  0.7603 -0.3844 -0.0022
   25MYC    C80 1069   3.341   5.673   7.098 -0.4041 -0.2740  0.5663
   25MYC   H100 1070   3.330   5.633   6.997  1.5008  0.3403  0.0862
   25MYC   H101 1071   3.434   5.627   7.133  0.9358 -0.8171 -3.2978
   25MYC    C79 1072   3.215   5.624   7.171  0.6271 -0.1016  0.1390
   25MYC   H102 1073   3.218   5.516   7.191 -1.9207 -0.4804 -1.1307
   25MYC   H103 1074   3.136   5.630   7.096  0.7910 -0.5958 -0.0842
   25MYC    C78 1075   3.193   5.704   7.297 -0.6263  0.6612  0.1979
   25MYC   HH14 1076   3.212   5.809   7.273 -1.3399  0.5207 -1.1256
   25MYC   H104 1077   3.261   5.661   7.371 -0.2840 -1.0630 -1.0437
   25MYC    C77 1078   3.050   5.690   7.344  0.0151  0.2680  0.1171
   25MYC   H106 1079   3.008   5.589   7.341  2.2488 -0.9121  3.3610
   25MYC   H107 1080   2.991   5.751   7.274 -0.2985  0.6719  0.7175
   25MYC    C76 1081   3.037   5.743   7.492 -0.5607  0.6293  0.3754
   25MYC   H108 1082   2.931   5.759   7.513 -0.0841  0.7548  3.0064
   25MYC   H109 1083   3.071   5.847   7.491 -1.8669  1.1047 -2.1931
   25MYC    C75 1084   3.097   5.655   7.605 -0.7680  0.1294 -0.4848
   25MYC   H110 1085   3.203   5.637   7.587 -0.3350  2.1854 -0.1809
   25MYC   H111 1086   3.043   5.559   7.609  1.3030 -1.0631  0.2266
   25MYC    C74 1087   3.088   5.737   7.735  0.1160  0.5751 -0.0378
   25MYC   H112 1088   2.986   5.767   7.761  0.7170  0.7550  2.4345
   25MYC   H113 1089   3.155   5.823   7.727  0.8813 -0.1712 -2.4736
   25MYC    C73 1090   3.128   5.643   7.853 -0.1006  0.6233 -0.8515
   25MYC   HH13 1091   3.221   5.591   7.825 -0.1387 -1.5822  2.4671
   25MYC   H114 1092   3.052   5.564   7.859 -1.5617  1.9990 -0.8198
   25MYC    C72 1093   3.148   5.699   7.997 -0.3277  0.6085  0.8438
   25MYC   H115 1094   3.055   5.749   8.027 -0.9397  0.7614 -1.1957
   25MYC   H116 1095   3.225   5.777   7.996  0.6280 -0.2668 -1.1827
   25MYC    C71 1096   3.187   5.599   8.103  0.3494 -0.1876  0.1346
   25MYC   H117 1097   3.273   5.536   8.079  1.2687  1.1491 -0.1698
   25MYC   H118 1098   3.107   5.524   8.111  0.6974 -0.3946  2.1226
   25MYC    C70 1099   3.206   5.666   8.238 -0.1308 -0.2302  0.4318
   25MYC   H119 1100   3.176   5.771   8.230  1.9101  0.4554  1.2440
   25MYC   H120 1101   3.314   5.668   8.257  0.5939 -1.3772 -2.7926
   25MYC    C69 1102   3.129   5.597   8.355 -0.1232  0.0087 -0.2088
   25MYC   H121 1103   3.168   5.497   8.374 -2.7710 -1.4271 -1.8248
   25MYC   H122 1104   3.023   5.580   8.337 -0.0511 -0.4393 -0.2202
   25MYC    C68 1105   3.145   5.674   8.485  0.4261 -0.0721 -0.9705
   25MYC   HH12 1106   3.114   5.778   8.469  1.4471  0.1477 -1.5690
   25MYC   H123 1107   3.246   5.649   8.520 -0.5753 -4.1259 -0.4933
   25MYC    C67 1108   3.054   5.626   8.607  0.6414 -0.9574 -0.0119
   25MYC   H124 1109   3.079   5.524   8.637 -0.2913 -0.7173  1.7040
   25MYC   H125 1110   2.950   5.644   8.579  0.9878 -0.5761 -1.1320
   25MYC    C66 1111   3.094   5.707   8.735  0.2077 -0.1262  0.2052
   25MYC   H126 1112   3.066   5.810   8.711 -0.1459 -0.7035 -2.0327
   25MYC   H127 1113   3.199   5.706   8.765  1.2880  0.2028 -3.1671
   25MYC    C65 1114   3.009   5.674   8.860 -0.7227 -0.0568 -0.4372
   25MYC   H128 1115   3.057   5.583   8.899 -2.2377 -0.0837  1.4745
   25MYC   H129 1116   2.905   5.641   8.847 -1.6459  2.2212  0.6589
   25MYC    C64 1117   3.017   5.778   8.975 -0.1184  0.0498  0.6340
   25MYC   H130 1118   2.982   5.877   8.941  0.5556 -0.9201 -3.4912
   25MYC   H131 1119   3.124   5.794   8.990  0.0705  2.2545 -2.2003
   25MYC    C63 1120   2.936   5.738   9.104 -0.9382 -0.1671  1.0405
   25MYC   HH11 1121   2.972   5.637   9.128 -1.4408 -0.4187  0.7326
   25MYC   H132 1122   2.832   5.729   9.073 -0.0669  0.4156 -2.4394
   25MYC    C62 1123   2.966   5.842   9.211 -0.2619 -0.1553 -0.9286
   25MYC   H133 1124   2.949   5.945   9.176 -0.0903  0.7250  1.4237
   25MYC   H134 1125   3.073   5.825   9.227  0.0122  2.1718  0.1970
   25MYC    C61 1126   2.873   5.808   9.328  0.0233 -1.0172  0.1491
   25MYC   H135 1127   2.881   5.709   9.375 -0.7419 -0.8426  0.6710
   25MYC   H136 1128   2.771   5.805   9.289  0.4080  0.1078 -1.0063
   25MYC    C60 1129   2.875   5.906   9.450 -0.0733  0.5042  0.5348
   25MYC   H137 1130   2.855   6.010   9.429  2.4150  1.4444  2.3512
   25MYC    C58 1131   2.857   5.869   9.594 -0.0754  0.0833  0.4742
   25MYC   H138 1132   2.826   5.765   9.605  1.0254 -0.1214  2.0068
   25MYC    C59 1133   2.994   5.894   9.548  0.4460 -0.4674  0.2117
   25MYC   H139 1134   3.040   5.986   9.583  0.4101 -0.0450 -0.8243
   25MYC   H140 1135   3.059   5.809   9.530 -0.0916 -0.3080 -3.1553
   25MYC    C57 1136   2.787   5.979   9.681 -0.2537  0.0182 -0.5504
   25MYC   HH10 1137   2.686   5.980   9.640  0.3574  1.3929 -2.1319
   25MYC   H141 1138   2.819   6.078   9.649 -1.7330  1.0091  0.8743
   25MYC    C56 1139   2.806   5.973   9.837 -0.0492  0.3730 -0.2983
   25MYC   H142 1140   2.914   5.971   9.855  0.0103  3.1418 -0.0035
   25MYC   H143 1141   2.756   5.881   9.871 -1.1745  1.4873  1.1981
   25MYC    C55 1142   2.731   6.091   9.914 -0.6021  0.7274  0.3407
   25MYC   H144 1143   2.751   6.186   9.864 -0.5078  0.7467  0.4139
   25MYC   H145 1144   2.787   6.106  10.007 -1.3530  1.3490  0.7065
   25MYC    C54 1145   2.579   6.077   9.948  0.3620 -0.5599  0.3295
   25MYC   H146 1146   2.561   5.978   9.992 -0.1742 -0.5374  0.1644
   25MYC   H147 1147   2.521   6.065   9.856  0.3159 -0.9731  0.4108
   25MYC    C53 1148   2.511   6.191  10.024  0.4998 -0.4143 -0.3749
   25MYC   H148 1149   2.404   6.167  10.026  0.3882  0.0949  1.0003
   25MYC   H149 1150   2.531   6.283   9.968 -1.0240 -0.6505 -1.3714
   25MYC    C52 1151   2.550   6.204  10.172  0.3266  0.8291 -0.1046
   25MYC    H99 1152   2.659   6.213  10.186  0.3405 -1.3375  1.7622
   25MYC   H150 1153   2.504   6.115  10.217  3.1540 -0.2964  0.7744
   25MYC    C51 1154   2.498   6.322  10.246  0.2726 -0.4532 -0.5981
   25MYC    H97 1155   2.392   6.342  10.226  0.4916  0.3681 -0.9933
   25MYC    H98 1156   2.549   6.412  10.208 -0.8258  0.0537 -0.9132
   25MYC    C50 1157   2.526   6.322  10.398  0.1365  0.3029 -1.1838
   25MYC    H95 1158   2.507   6.422  10.437  1.3942 -0.2532  0.9950
   25MYC    H96 1159   2.631   6.298  10.418  0.3592  0.1283 -2.4559
   25MYC    C49 1160   2.442   6.228  10.486  0.2408 -0.1025 -0.3891
   25MYC    H93 1161   2.466   6.124  10.461 -0.5997 -0.4964  0.3771
   25MYC    H94 1162   2.336   6.241  10.463 -0.2953 -2.1761  0.7014
   25MYC    C48 1163   2.470   6.252  10.635 -0.5301  0.1939  0.1548
   25MYC    H91 1164   2.433   6.351  10.667  0.6194  0.1726  1.6906
   25MYC    H92 1165   2.578   6.254  10.653 -0.4960 -2.9786  0.7503
   25MYC    C47 1166   2.412   6.149  10.738  0.1274  0.1674  0.0208
   25MYC    H89 1167   2.443   6.048  10.708 -1.8470 -0.6103  0.4349
   25MYC    H90 1168   2.307   6.142  10.708  0.3098 -2.8185 -0.2085
   25MYC    C46 1169   2.436   6.193  10.882  0.0162 -0.7939 -0.1581
   25MYC    H87 1170   2.428   6.302  10.871 -2.7024 -0.8122  0.8039
   25MYC    H88 1171   2.541   6.179  10.911  0.6509  2.4996 -0.4940
   25MYC    C45 1172   2.336   6.124  10.972  0.3451  0.1938 -0.2673
   25MYC    H85 1173   2.319   6.017  10.958 -1.2215  0.3712  0.0041
   25MYC    H86 1174   2.236   6.164  10.949  0.5744  1.3914  0.7172
   25MYC    C44 1175   2.359   6.151  11.125 -0.5261  0.6830 -0.2262
   25MYC    H83 1176   2.275   6.130  11.192  1.3529 -1.2965  1.7094
   25MYC    H84 1177   2.380   6.258  11.129 -1.4146  0.9155 -1.3214
   25MYC    C18 1178   2.489   6.092  11.184 -0.0621  0.0197 -0.8316
   25MYC    H31 1179   2.551   6.036  11.114  0.3223  1.0060 -1.2988
   25MYC    C17 1180   2.556   6.167  11.297  0.0548  0.3134 -0.7261
   25MYC    H30 1181   2.501   6.253  11.333 -0.1205 -0.8474  1.9735
   25MYC    C19 1182   2.489   6.035  11.326 -0.1796  0.1920 -0.4669
   25MYC    H32 1183   2.401   6.039  11.389  1.4851  0.7630  1.9728
   25MYC    H33 1184   2.558   5.953  11.343 -0.4180 -0.3156 -1.8414
   25MYC    C16 1185   2.707   6.184  11.314 -1.1333 -0.3529 -0.0649
   25MYC    H28 1186   2.763   6.101  11.269 -0.7044  0.1583 -0.4815
   25MYC    H29 1187   2.751   6.180  11.414  0.7823  0.2822 -0.8408
   25MYC    C15 1188   2.753   6.317  11.253  0.0346  0.2978  0.4931
   25MYC    H26 1189   2.862   6.318  11.260 -0.0120 -0.0838  1.3281
   25MYC    H27 1190   2.713   6.404  11.307  0.8195  1.2736 -0.4524
   25MYC    C14 1191   2.704   6.326  11.101  0.6104  0.0848 -0.6979
   25MYC    H24 1192   2.595   6.334  11.093  0.1616 -1.3472  2.3229
   25MYC    H25 1193   2.726   6.231  11.051  0.5732  0.3943 -1.3073
   25MYC    C13 1194   2.766   6.444  11.017 -0.0785  0.3700 -0.4147
   25MYC    H22 1195   2.875   6.447  11.028  0.0514  2.7606 -1.6563
   25MYC    H23 1196   2.736   6.538  11.064  1.7011 -0.7315  3.2166
   25MYC    C12 1197   2.731   6.449  10.861  0.7385  0.1628  0.1824
   25MYC    H20 1198   2.623   6.458  10.842  0.7067  0.2219  0.3900
   25MYC    H21 1199   2.751   6.353  10.810 -0.8897  0.2043 -0.5976
   25MYC    C11 1200   2.821   6.551  10.789  0.3743 -0.1992 -0.4596
   25MYC    H18 1201   2.921   6.543  10.833 -0.2241 -1.4648  0.7420
   25MYC    H19 1202   2.780   6.648  10.819  0.9099 -0.7239  2.1504
   25MYC    C10 1203   2.818   6.561  10.637 -0.3701 -0.2105 -0.2936
   25MYC    H16 1204   2.878   6.649  10.614  0.0521 -0.0690  1.2807
   25MYC    H17 1205   2.713   6.572  10.606 -0.2916  1.9312  0.1038
   25MYC     C9 1206   2.866   6.437  10.573 -0.0653 -0.0106  0.4987
   25MYC    H14 1207   2.800   6.351  10.586  1.6970 -1.5336 -0.0854
   25MYC    H15 1208   2.956   6.407  10.627 -1.0153 -1.4620  1.3275
   25MYC     C8 1209   2.893   6.447  10.422  0.0873  0.5921 -0.0333
   25MYC    H12 1210   2.943   6.543  10.404 -2.1499  1.7561 -0.3998
   25MYC    H13 1211   2.797   6.461  10.371  0.7267 -1.2822 -1.8812
   25MYC     C7 1212   2.971   6.323  10.358  0.1314 -0.4378 -0.1423
   25MYC    H10 1213   2.897   6.246  10.336 -0.4777  0.5176 -1.6273
   25MYC    H11 1214   3.048   6.288  10.427  0.6414  0.2408 -0.3548
   25MYC     C6 1215   3.042   6.362  10.222  0.5747 -0.4273  0.0600
   25MYC     H8 1216   3.078   6.272  10.171 -1.5070 -0.7395 -0.9675
   25MYC     H9 1217   3.126   6.430  10.239  0.7133 -1.1979  3.0432
   25MYC     C5 1218   2.934   6.438  10.136 -0.2723 -0.3345  0.3205
   25MYC     H6 1219   2.913   6.537  10.176 -0.8237 -0.7305  1.0348
   25MYC     H7 1220   2.843   6.376  10.139 -0.4886  0.0289  2.0035
   25MYC     C4 1221   2.961   6.469   9.987  0.2288  0.6680 -0.3470
   25MYC     H4 1222   3.023   6.385   9.955  1.5604 -0.2726  3.9606
   25MYC     H5 1223   3.029   6.554   9.976  0.5722  0.2210 -1.8317
   25MYC     C2 1224   2.824   6.495   9.916  0.1521  0.2524  0.6383
   25MYC     H2 1225   2.765   6.405   9.939 -1.8130  0.7744 -1.9054
   25MYC     O3 1226   2.754   6.610   9.969  0.6775  0.0196 -0.0321
   25MYC     H3 1227   2.824   6.662  10.012  0.1234  1.0521 -0.3379
   25MYC     C1 1228   2.835   6.503   9.760  0.0748 -0.1267 -0.6009
   25MYC     H1 1229   2.882   6.601   9.745 -1.9642  0.7868 -1.3938
   25MYC    C81 1230   2.693   6.514   9.695  0.6154 -0.0841 -0.4733
   25MYC    O82 1231   2.619   6.416   9.674 -0.0959  0.3051 -0.5948
   25MYC    O83 1232   2.669   6.627   9.632  0.3307 -0.4169  0.0720
   25MYC   H105 1233   2.581   6.617   9.593  0.2422 -0.7213  0.3467
   25MYC    C20 1234   2.923   6.405   9.690 -0.3986  0.2479 -0.5026
   25MYC    H34 1235   3.027   6.411   9.724 -1.1131 -0.3414  1.9124
   25MYC    H35 1236   2.895   6.305   9.724 -0.8592  0.5008 -0.1358
   25MYC    C21 1237   2.925   6.414   9.535  0.0410 -0.1940  0.5240
   25MYC    H36 1238   2.823   6.400   9.499 -0.6404  0.0486  2.2824
   25MYC    H37 1239   2.949   6.519   9.510 -0.1209 -0.2728  0.0239
   25MYC    C22 1240   3.015   6.310   9.461 -0.0236 -0.1936 -0.1386
   25MYC    H38 1241   3.117   6.312   9.501  0.3598 -3.5021 -0.6479
   25MYC    H39 1242   2.981   6.208   9.477 -4.2487  0.4503 -3.2800
   25MYC    C23 1243   3.008   6.339   9.309 -0.3575  0.3247  0.5454
   25MYC    H40 1244   2.904   6.321   9.279 -0.1312  1.0466 -0.7824
   25MYC    H41 1245   3.039   6.441   9.280  0.8651 -0.4800 -1.2164
   25MYC    C24 1246   3.083   6.222   9.230  0.5654  0.2068  0.0735
   25MYC    H42 1247   3.189   6.248   9.238  1.1762 -1.4229 -1.8167
   25MYC    H43 1248   3.065   6.126   9.279 -0.1189  0.8723  1.1596
   25MYC    C25 1249   3.053   6.212   9.077  0.0725  0.1680  0.8005
   25MYC    H44 1250   3.085   6.110   9.052 -1.1464 -0.1507  0.4304
   25MYC    H45 1251   2.944   6.203   9.067  0.0881 -0.0519  0.8124
   25MYC    C26 1252   3.119   6.312   8.977 -0.7141 -0.2450 -1.4066
   25MYC    H46 1253   3.099   6.412   9.017 -0.5543 -1.1750  1.1947
   25MYC    H47 1254   3.226   6.291   8.985 -0.9220 -0.7075  0.8024
   25MYC    C27 1255   3.070   6.281   8.838 -0.3569  0.2141  0.4542
   25MYC    H48 1256   3.104   6.184   8.801 -3.1133 -1.1652  1.2717
   25MYC    H49 1257   2.961   6.288   8.835 -0.4899 -1.5273  0.4521
   25MYC    C28 1258   3.117   6.394   8.742  0.7431  0.0325 -0.0044
   25MYC    H50 1259   3.087   6.488   8.790 -1.0076  0.2487 -1.3822
   25MYC    H51 1260   3.226   6.399   8.733  0.6322  2.5533 -0.8578
   25MYC    C29 1261   3.056   6.382   8.601 -0.2295 -0.1633  0.1766
   25MYC    H52 1262   3.099   6.289   8.564 -0.2831 -0.8825  1.8206
   25MYC    H53 1263   2.947   6.383   8.605 -0.2785  1.5071 -0.7370
   25MYC    C30 1264   3.094   6.493   8.505 -0.8459 -0.1982  0.0920
   25MYC    H54 1265   3.058   6.589   8.543 -2.3933  0.0639 -1.8360
   25MYC    H55 1266   3.203   6.500   8.500 -0.4997 -1.8874  3.0647
   25MYC    C31 1267   3.018   6.465   8.373 -0.5741  0.9900  0.3808
   25MYC    H56 1268   3.031   6.359   8.347 -1.6243  1.1925 -1.1057
   25MYC    H57 1269   2.910   6.474   8.391 -0.9050  1.8434 -1.7058
   25MYC    C32 1270   3.082   6.557   8.267 -0.1286 -0.0980  0.5133
   25MYC    H58 1271   3.082   6.663   8.295  1.8417  0.6951 -2.1466
   25MYC    H59 1272   3.188   6.532   8.253 -1.1864 -3.6212 -2.9813
   25MYC    C33 1273   3.026   6.540   8.123 -0.3133  0.5273  0.1200
   25MYC    H60 1274   3.027   6.434   8.095 -0.0716  0.2486  1.1544
   25MYC    H61 1275   2.918   6.556   8.121 -0.5610 -0.8358  0.9176
   25MYC    C34 1276   3.097   6.632   8.021  0.6335  0.0051  0.1554
   25MYC    H62 1277   3.090   6.731   8.069 -1.0002 -0.2751  0.5705
   25MYC    H63 1278   3.202   6.603   8.010  0.4094 -0.9427  0.4481
   25MYC    C35 1279   3.029   6.639   7.881  0.0720 -0.0645 -0.1923
   25MYC    H64 1280   3.010   6.535   7.853  1.7885 -1.0411  1.9100
   25MYC    H65 1281   2.929   6.680   7.898  0.4732  0.7453  0.2966
   25MYC    C36 1282   3.089   6.735   7.771 -0.0971 -0.3421  0.0559
   25MYC    H66 1283   3.184   6.697   7.731 -0.4468 -1.0392 -0.1229
   25MYC    H67 1284   3.016   6.731   7.689  1.6669  0.5820 -1.6634
   25MYC    C37 1285   3.091   6.887   7.805  0.2788  0.4713 -0.0614
   25MYC    H68 1286   2.999   6.924   7.851 -0.3206 -1.6658  0.5682
   25MYC    H69 1287   3.176   6.905   7.872  0.3066  0.7724 -0.1741
   25MYC    C38 1288   3.116   6.970   7.673  0.4188  0.3708 -0.6763
   25MYC    H70 1289   3.212   6.936   7.633 -0.2006 -0.5205 -1.4343
   25MYC    H71 1290   3.044   6.940   7.597 -1.5052  2.7910  0.0411
   25MYC    C39 1291   3.111   7.123   7.692  0.1960  0.5120 -0.3388
   25MYC    H72 1292   3.030   7.158   7.757  0.9830  0.0997  0.8974
   25MYC    H73 1293   3.197   7.145   7.756  0.6233 -1.3177 -0.2166
   25MYC    C40 1294   3.124   7.210   7.562 -0.1418  0.2000 -0.2696
   25MYC    H74 1295   3.113   7.315   7.591  3.2988  0.2506  1.4385
   25MYC    H75 1296   3.231   7.201   7.537 -0.1151 -0.8650  0.1826
   25MYC    C41 1297   3.040   7.184   7.443 -0.1928 -0.2719 -0.0982
   25MYC    H76 1298   3.110   7.205   7.362  2.2637 -1.1657  1.6774
   25MYC    H77 1299   3.014   7.078   7.438 -0.7492 -0.1528  0.1950
   25MYC    C42 1300   2.906   7.262   7.443 -0.3513  0.4633 -0.6253
   25MYC    H78 1301   2.841   7.211   7.371  0.4642  1.0124 -1.7824
   25MYC    H79 1302   2.871   7.262   7.547  1.6474  2.0851  0.1111
   25MYC    C43 1303   2.923   7.408   7.392 -0.2663 -0.5478 -0.8793
   25MYC    H80 1304   2.973   7.476   7.461 -2.7208  0.8123 -0.3212
   25MYC    H81 1305   2.825   7.454   7.373 -0.7236 -1.8276 -1.7733
   25MYC    H82 1306   2.966   7.423   7.292 -2.1889  0.7692 -1.5746
   26MYC   HH15 1307   3.592   6.313   7.337 -1.4185 -0.8120  1.2263
   26MYC    C80 1308   3.515   6.294   7.262 -0.5316 -0.2542  0.1392
   26MYC   H100 1309   3.425   6.332   7.311 -1.2632 -1.3859 -0.2882
   26MYC   H101 1310   3.538   6.339   7.165  0.0163 -0.4916  0.1535
   26MYC    C79 1311   3.508   6.143   7.260  0.6640  0.0105  0.0704
   26MYC   H102 1312   3.603   6.097   7.230 -0.6045 -3.0053  0.2602
   26MYC   H103 1313   3.430   6.115   7.188  1.6611 -0.7562 -0.7615
   26MYC    C78 1314   3.474   6.093   7.398  0.5734 -0.0684 -0.4639
   26MYC   HH14 1315   3.381   6.146   7.421 -0.8699 -2.4261 -0.4874
   26MYC   H104 1316   3.564   6.121   7.454  1.1116  0.3428 -1.5120
   26MYC    C77 1317   3.443   5.940   7.409 -0.7463 -0.9565  0.2826
   26MYC   H106 1318   3.537   5.888   7.390  0.3028  0.4574  1.3299
   26MYC   H107 1319   3.366   5.908   7.339 -1.2010  1.7579 -0.5850
   26MYC    C76 1320   3.398   5.898   7.552  0.7779 -0.3285  0.3275
   26MYC   H108 1321   3.373   5.792   7.558  0.9429 -0.3330  1.0504
   26MYC   H109 1322   3.315   5.959   7.589  0.7149 -0.5567  0.5617
   26MYC    C75 1323   3.505   5.936   7.657 -0.0441  0.2555  0.4246
   26MYC   H110 1324   3.512   6.045   7.668  0.5974  0.4659 -1.6234
   26MYC   H111 1325   3.605   5.896   7.636 -0.6267  0.4008 -3.1591
   26MYC    C74 1326   3.470   5.877   7.794  0.0091  0.4777 -1.3405
   26MYC   H112 1327   3.475   5.768   7.786  0.7144  0.3438  0.3513
   26MYC   H113 1328   3.371   5.898   7.836 -0.0212  1.0703 -1.6983
   26MYC    C73 1329   3.562   5.920   7.908  0.3422 -0.0093 -0.0345
   26MYC   HH13 1330   3.566   6.030   7.915 -0.2557  0.0753 -0.8389
   26MYC   H114 1331   3.664   5.893   7.878  0.4331 -0.1742  0.4203
   26MYC    C72 1332   3.536   5.861   8.046  0.5753  0.2751  0.5841
   26MYC   H115 1333   3.628   5.828   8.096 -0.0885  1.5945  2.8301
   26MYC   H116 1334   3.475   5.771   8.038 -1.9838  1.8881  0.7377
   26MYC    C71 1335   3.456   5.949   8.144  0.1469 -0.1906  0.2375
   26MYC   H117 1336   3.353   5.913   8.156  0.6032 -1.1553  1.4247
   26MYC   H118 1337   3.456   6.051   8.105  0.5898 -0.9943 -2.0277
   26MYC    C70 1338   3.510   5.956   8.289 -0.3470  0.0259  0.7970
   26MYC   H119 1339   3.611   5.997   8.282  0.5210 -2.1506 -0.6437
   26MYC   H120 1340   3.525   5.853   8.325  0.4135 -1.2381 -2.7544
   26MYC    C69 1341   3.413   6.030   8.388 -0.7897 -0.5666  0.1538
   26MYC   H121 1342   3.317   5.980   8.373 -0.3540 -1.8291  1.3435
   26MYC   H122 1343   3.396   6.134   8.358  1.8814 -0.2818 -0.6365
   26MYC    C68 1344   3.452   6.023   8.536 -0.4298  0.3484  0.7097
   26MYC   HH12 1345   3.542   6.084   8.552 -0.4410  0.8229 -0.9019
   26MYC   H123 1346   3.483   5.921   8.560 -0.2265  0.6446  1.8053
   26MYC    C67 1347   3.344   6.060   8.635 -0.0184  0.3943 -0.2297
   26MYC   H124 1348   3.248   6.030   8.591  0.3147  0.2785 -0.8828
   26MYC   H125 1349   3.327   6.165   8.660 -1.1965 -0.5570  3.8118
   26MYC    C66 1350   3.363   5.986   8.765 -0.6904  0.2894 -0.6478
   26MYC   H126 1351   3.385   5.879   8.758  2.9813  0.8540  0.2923
   26MYC   H127 1352   3.266   5.980   8.817 -0.1738 -0.9021  0.2232
   26MYC    C65 1353   3.477   6.049   8.856 -0.3020 -0.1235  0.7175
   26MYC   H128 1354   3.469   6.157   8.874 -1.0470  0.1924 -1.2229
   26MYC   H129 1355   3.572   6.043   8.802 -0.2772 -2.3182  0.9344
   26MYC    C64 1356   3.497   5.973   8.988  0.1886  0.2517  0.0445
   26MYC   H130 1357   3.594   5.997   9.033  0.7913  1.1640 -1.6430
   26MYC   H131 1358   3.515   5.866   8.972  0.4038  0.5050 -1.6269
   26MYC    C63 1359   3.382   6.007   9.085  0.5093  0.5775  0.3040
   26MYC   HH11 1360   3.284   5.992   9.038  1.0415 -2.8555 -0.0055
   26MYC   H132 1361   3.389   6.115   9.101 -0.2438  0.4637  1.5286
   26MYC    C62 1362   3.375   5.944   9.225  0.1981 -0.2600 -0.7872
   26MYC   H133 1363   3.373   5.836   9.205 -1.9532 -0.5574  0.6832
   26MYC   H134 1364   3.280   5.974   9.270 -0.0616 -0.9728 -0.8552
   26MYC    C61 1365   3.497   5.978   9.312 -0.5451  0.1562  0.1433
   26MYC   H135 1366   3.531   6.080   9.287 -0.1955  0.2522  0.9791
   26MYC   H136 1367   3.573   5.910   9.274 -0.5149  0.2372  0.0581
   26MYC    C60 1368   3.474   5.940   9.457  0.1570 -0.0150  0.0870
   26MYC   H137 1369   3.466   5.831   9.459 -1.3439 -0.0165 -2.1413
   26MYC    C58 1370   3.544   6.021   9.566 -1.0939 -0.5996  0.3961
   26MYC   H138 1371   3.605   6.101   9.526 -1.4699 -0.0260  0.9367
   26MYC    C59 1372   3.394   6.033   9.548  0.2216  0.1979  0.4426
   26MYC   H139 1373   3.336   5.975   9.619  1.9713 -1.5703  0.5411
   26MYC   H140 1374   3.350   6.125   9.511 -2.5421  0.0859  3.0920
   26MYC    C57 1375   3.604   5.945   9.675 -0.1269  0.5077 -0.8112
   26MYC   HH10 1376   3.713   5.945   9.659 -0.3154 -2.1079 -2.8407
   26MYC   H141 1377   3.576   5.839   9.677 -0.9730  0.7201  1.0701
   26MYC    C56 1378   3.573   5.994   9.824  0.9872  0.1287  0.5672
   26MYC   H142 1379   3.465   6.016   9.831  1.3813  1.6158  3.5402
   26MYC   H143 1380   3.611   6.097   9.828 -1.5715  1.2096 -0.4079
   26MYC    C55 1381   3.639   5.903   9.930 -0.1688 -0.2579  0.5425
   26MYC   H144 1382   3.748   5.909   9.919 -0.1941 -1.5021 -0.6732
   26MYC   H145 1383   3.600   5.802   9.915 -0.6424  0.2465 -2.3001
   26MYC    C54 1384   3.601   5.963  10.065  0.1847 -0.6675 -0.3073
   26MYC   H146 1385   3.491   5.970  10.073  0.3378  1.0933  0.7521
   26MYC   H147 1386   3.635   6.067  10.068 -2.1619  0.1755 -0.6535
   26MYC    C53 1387   3.644   5.885  10.189 -0.1092  0.0155 -0.0854
   26MYC   H148 1388   3.748   5.857  10.170 -0.4869 -1.9087  0.4789
   26MYC   H149 1389   3.580   5.798  10.206  0.8690 -0.8319 -0.5853
   26MYC    C52 1390   3.633   5.962  10.327 -0.4863 -0.3893  0.8425
   26MYC    H99 1391   3.702   6.047  10.323 -1.5606  0.5787  1.8781
   26MYC   H150 1392   3.679   5.896  10.402 -1.4400 -0.1129  1.6920
   26MYC    C51 1393   3.492   6.000  10.378 -0.0085 -0.2290 -0.1978
   26MYC    H97 1394   3.428   5.912  10.382 -0.2351 -0.0588 -0.0709
   26MYC    H98 1395   3.449   6.062  10.298 -0.6518 -1.2419 -0.6610
   26MYC    C50 1396   3.485   6.095  10.502 -0.1634  0.2102 -0.1627
   26MYC    H95 1397   3.514   6.198  10.479  2.9053 -0.7531 -1.1721
   26MYC    H96 1398   3.550   6.068  10.586  1.0201 -1.4500 -1.5497
   26MYC    C49 1399   3.344   6.093  10.551  0.2247 -0.5186 -0.0274
   26MYC    H93 1400   3.311   5.994  10.585  0.7635 -0.5619  0.3778
   26MYC    H94 1401   3.267   6.116  10.476  2.0531  0.3236 -1.7221
   26MYC    C48 1402   3.321   6.185  10.676  0.1809  0.5617  0.1901
   26MYC    H91 1403   3.326   6.287  10.638  0.6811  1.5193  2.6236
   26MYC    H92 1404   3.386   6.161  10.761  1.9129 -0.4280 -1.3524
   26MYC    C47 1405   3.181   6.171  10.730  0.1499  0.0865  0.3147
   26MYC    H89 1406   3.145   6.068  10.738 -2.7752  1.0030  0.0732
   26MYC    H90 1407   3.107   6.197  10.654 -0.7188 -0.2139  1.0276
   26MYC    C46 1408   3.139   6.261  10.847  0.0953 -0.6543  0.4205
   26MYC    H87 1409   3.033   6.243  10.868 -0.1573  1.7551  1.5098
   26MYC    H88 1410   3.127   6.365  10.814 -2.1975 -1.0578 -0.1822
   26MYC    C45 1411   3.210   6.249  10.986  0.8832  0.7014  0.1741
   26MYC    H85 1412   3.315   6.277  10.994  0.4739  1.9160  1.8601
   26MYC    H86 1413   3.207   6.143  11.017  0.4632  0.3613 -0.9747
   26MYC    C44 1414   3.148   6.322  11.104 -0.2168  0.1202 -0.7220
   26MYC    H83 1415   3.053   6.271  11.126  0.0263 -0.0734 -0.0771
   26MYC    H84 1416   3.114   6.422  11.077 -2.2851 -0.5021 -0.6130
   26MYC    C18 1417   3.231   6.315  11.232 -0.4155 -0.5332 -0.2261
   26MYC    H31 1418   3.330   6.273  11.212  0.6552  1.7227  0.0614
   26MYC    C17 1419   3.202   6.399  11.350 -0.0559 -0.1037  0.6794
   26MYC    H30 1420   3.107   6.450  11.362 -0.8933 -1.6571  0.8899
   26MYC    C19 1421   3.185   6.247  11.360 -0.5138  0.3826 -0.0396
   26MYC    H32 1422   3.091   6.194  11.348  0.2497 -0.6752 -1.6389
   26MYC    H33 1423   3.259   6.183  11.409  0.3822  0.1848 -1.5946
   26MYC    C16 1424   3.319   6.462  11.422 -0.0199 -0.4052 -0.0477
   26MYC    H28 1425   3.404   6.399  11.392 -0.4024 -1.0318  0.1618
   26MYC    H29 1426   3.310   6.450  11.530  3.2296  1.3084  0.5563
   26MYC    C15 1427   3.344   6.607  11.378  0.2035 -0.2438  0.5379
   26MYC    H26 1428   3.359   6.671  11.466  0.2457  2.4473 -1.3223
   26MYC    H27 1429   3.247   6.647  11.346 -0.4957  1.0104  3.8110
   26MYC    C14 1430   3.459   6.634  11.276 -0.2715 -0.0822  0.0517
   26MYC    H24 1431   3.558   6.609  11.315 -0.2516  0.3398  0.2754
   26MYC    H25 1432   3.458   6.742  11.259 -2.4060 -0.3052 -1.7792
   26MYC    C13 1433   3.452   6.567  11.139 -0.1408  0.9803  0.6987
   26MYC    H22 1434   3.350   6.543  11.105 -0.1846 -1.4669  2.2917
   26MYC    H23 1435   3.491   6.466  11.156  0.5582  1.1473  0.1131
   26MYC    C12 1436   3.538   6.634  11.029  0.1053  0.7538  0.1684
   26MYC    H20 1437   3.638   6.613  11.069 -0.7231 -1.7208  1.1883
   26MYC    H21 1438   3.521   6.742  11.029 -0.7231  0.6369  1.0308
   26MYC    C11 1439   3.504   6.569  10.891 -0.4001  0.1141  0.5445
   26MYC    H18 1440   3.397   6.558  10.867 -0.5262 -0.7348  1.4062
   26MYC    H19 1441   3.543   6.467  10.899  0.0375  0.3374  1.5004
   26MYC    C10 1442   3.560   6.634  10.767  0.2625  0.1369  0.4694
   26MYC    H16 1443   3.670   6.626  10.771  0.1153 -3.7091  0.6389
   26MYC    H17 1444   3.527   6.738  10.773  0.1468  0.1168  0.2110
   26MYC     C9 1445   3.510   6.584  10.633 -0.4699  0.7830 -0.4826
   26MYC    H14 1446   3.401   6.594  10.633 -0.5556  0.1404  1.2831
   26MYC    H15 1447   3.509   6.475  10.620  1.4384  0.6653 -0.0170
   26MYC     C8 1448   3.570   6.659  10.504 -0.1140  0.6735  0.2692
   26MYC    H12 1449   3.679   6.642  10.500  0.0578  1.3990  1.4095
   26MYC    H13 1450   3.553   6.765  10.527  1.1487  0.8274  0.5695
   26MYC     C7 1451   3.516   6.617  10.372 -0.2583 -1.1025 -0.2317
   26MYC    H10 1452   3.534   6.699  10.302 -1.5802 -0.0654  0.5979
   26MYC    H11 1453   3.409   6.594  10.373 -0.6008  0.3352 -1.0625
   26MYC     C6 1454   3.583   6.487  10.323 -0.0306  0.4504 -0.2058
   26MYC     H8 1455   3.581   6.417  10.408 -3.2008  0.5170 -0.0850
   26MYC     H9 1456   3.686   6.504  10.292  0.1777 -2.5413 -1.4629
   26MYC     C5 1457   3.510   6.407  10.202 -0.1165  0.7696 -0.5384
   26MYC     H6 1458   3.411   6.377  10.238  0.8830 -0.1791  1.6220
   26MYC     H7 1459   3.565   6.313  10.184  0.3032  0.1542  3.2335
   26MYC     C4 1460   3.490   6.478  10.067 -0.1771 -0.1734 -0.1995
   26MYC     H4 1461   3.578   6.537  10.042 -0.3339  0.5185  0.8117
   26MYC     H5 1462   3.428   6.568  10.069 -1.0364 -0.7329 -0.9729
   26MYC     C2 1463   3.454   6.393   9.946  0.5804  0.4299 -0.1238
   26MYC     H2 1464   3.514   6.301   9.942  1.3003  0.9498 -2.2000
   26MYC     O3 1465   3.319   6.349   9.954  0.0037  0.6454  0.3511
   26MYC     H3 1466   3.263   6.407   9.901  0.8272  2.1625  1.0718
   26MYC     C1 1467   3.475   6.469   9.811  1.0062  0.6696 -0.1624
   26MYC     H1 1468   3.577   6.509   9.807  1.4502 -0.4534 -0.1779
   26MYC    C81 1469   3.385   6.588   9.803  0.1605  0.7140  0.3849
   26MYC    O82 1470   3.266   6.580   9.808  0.4331 -0.4271 -0.0658
   26MYC    O83 1471   3.449   6.706   9.802 -0.7506 -0.3501  0.5301
   26MYC   H105 1472   3.382   6.774   9.821  0.1781  0.2430  1.8380
   26MYC    C20 1473   3.473   6.375   9.689  0.0900 -0.1890  0.3784
   26MYC    H34 1474   3.544   6.296   9.715 -0.2672 -0.7535 -0.3286
   26MYC    H35 1475   3.375   6.326   9.693 -0.5619  1.1050  1.0930
   26MYC    C21 1476   3.506   6.436   9.547  0.0930 -0.0380  0.4999
   26MYC    H36 1477   3.585   6.511   9.554 -0.6419  0.8691 -0.4670
   26MYC    H37 1478   3.547   6.357   9.483 -0.7047 -0.5271  0.5707
   26MYC    C22 1479   3.388   6.515   9.479  0.1410  0.0418 -0.0532
   26MYC    H38 1480   3.305   6.443   9.482  0.0754  0.1343  2.1485
   26MYC    H39 1481   3.360   6.597   9.546 -1.2479  0.8073 -1.4956
   26MYC    C23 1482   3.414   6.574   9.345  0.2738  0.5168 -0.4800
   26MYC    H40 1483   3.321   6.615   9.304 -0.3128  0.9600  1.2013
   26MYC    H41 1484   3.483   6.658   9.357 -0.6830  1.8083 -3.1785
   26MYC    C24 1485   3.477   6.469   9.243  0.1853  0.1073 -0.1884
   26MYC    H42 1486   3.578   6.434   9.268  0.4717  0.9369 -0.1666
   26MYC    H43 1487   3.415   6.381   9.265 -2.1039  2.3071  3.1925
   26MYC    C25 1488   3.475   6.523   9.093 -0.1993 -0.2096 -0.8690
   26MYC    H44 1489   3.369   6.532   9.068 -0.3582 -1.7043 -0.8674
   26MYC    H45 1490   3.520   6.622   9.087 -3.1655  1.2584 -0.4782
   26MYC    C26 1491   3.524   6.432   8.986 -0.1224  0.7679 -0.9763
   26MYC    H46 1492   3.628   6.404   9.006 -0.6392 -2.7243 -2.4098
   26MYC    H47 1493   3.459   6.344   8.983 -0.0336  0.6193  0.5622
   26MYC    C27 1494   3.524   6.505   8.847  0.4790  0.6014 -0.2896
   26MYC    H48 1495   3.420   6.538   8.843 -0.0450 -0.2227  3.0301
   26MYC    H49 1496   3.578   6.600   8.849  1.5853 -0.0138  0.1457
   26MYC    C28 1497   3.561   6.427   8.719 -0.3595 -0.6201 -0.1027
   26MYC    H50 1498   3.669   6.414   8.729 -0.4829 -1.7183 -0.1384
   26MYC    H51 1499   3.526   6.324   8.727  1.6153 -1.2478  1.3154
   26MYC    C29 1500   3.530   6.496   8.578  0.0518 -0.1294  0.9568
   26MYC    H52 1501   3.453   6.573   8.581  0.9678  0.9432 -1.0196
   26MYC    H53 1502   3.612   6.564   8.552 -1.3166  1.1969 -0.0304
   26MYC    C30 1503   3.507   6.396   8.449  0.2722 -0.3642  0.3709
   26MYC    H54 1504   3.590   6.325   8.439 -0.7172 -1.5249  0.0858
   26MYC    H55 1505   3.420   6.334   8.473 -0.3394  0.7142  1.0251
   26MYC    C31 1506   3.484   6.460   8.314 -0.5846 -0.1137 -0.2881
   26MYC    H56 1507   3.410   6.538   8.336  1.9999  2.7027 -0.9585
   26MYC    H57 1508   3.577   6.502   8.274  0.6969  0.0810  2.6264
   26MYC    C32 1509   3.441   6.351   8.212  0.3074 -0.1478 -0.9964
   26MYC    H58 1510   3.497   6.258   8.230 -0.1834 -0.1140  0.9461
   26MYC    H59 1511   3.334   6.335   8.228 -0.0084  1.8410 -0.8634
   26MYC    C33 1512   3.458   6.393   8.064 -0.0455 -0.0893 -0.2273
   26MYC    H60 1513   3.416   6.314   8.001  2.3179 -0.4134 -1.4950
   26MYC    H61 1514   3.401   6.480   8.031  0.2741 -0.7692 -2.7403
   26MYC    C34 1515   3.604   6.419   8.019 -0.6182 -0.1390 -0.8387
   26MYC    H62 1516   3.636   6.519   8.050 -2.8420  0.3309  0.1489
   26MYC    H63 1517   3.668   6.352   8.077 -0.2693 -1.0287 -2.2030
   26MYC    C35 1518   3.632   6.402   7.867 -0.3263  1.1209 -0.7356
   26MYC    H64 1519   3.740   6.416   7.860 -0.2736  0.6529 -0.8768
   26MYC    H65 1520   3.612   6.297   7.843  1.3766  0.4700  0.4578
   26MYC    C36 1521   3.559   6.499   7.769 -0.2531 -0.2257  0.4114
   26MYC    H66 1522   3.453   6.479   7.786  0.0818 -0.7719  1.9927
   26MYC    H67 1523   3.586   6.600   7.803 -1.2114 -0.5855  2.3952
   26MYC    C37 1524   3.610   6.471   7.627 -0.1227  0.5537 -0.0086
   26MYC    H68 1525   3.719   6.458   7.627 -0.4095 -2.3673 -0.2978
   26MYC    H69 1526   3.571   6.375   7.592  1.2710  0.9455 -2.9412
   26MYC    C38 1527   3.560   6.560   7.519 -0.1306 -0.1377 -0.2692
   26MYC    H70 1528   3.616   6.653   7.530 -1.0143  0.3242  0.4880
   26MYC    H71 1529   3.607   6.532   7.424 -1.4317 -0.2789 -0.8954
   26MYC    C39 1530   3.407   6.573   7.518 -0.3853 -0.0337  0.6154
   26MYC    H72 1531   3.360   6.475   7.533  0.6912 -0.5963  0.4221
   26MYC    H73 1532   3.378   6.638   7.602  1.6971 -0.7624  1.9663
   26MYC    C40 1533   3.365   6.648   7.389  0.5609 -0.2507  0.1408
   26MYC    H74 1534   3.393   6.754   7.390 -1.6276  0.3571  0.8213
   26MYC    H75 1535   3.409   6.587   7.309  0.2515 -2.4672  1.5701
   26MYC    C41 1536   3.212   6.636   7.381  0.0059  0.3826  0.0016
   26MYC    H76 1537   3.170   6.535   7.384 -2.2386  1.2685  3.0237
   26MYC    H77 1538   3.166   6.690   7.465 -2.2565 -2.7442  0.9499
   26MYC    C42 1539   3.165   6.700   7.252  0.3808 -0.5145  0.1587
   26MYC    H78 1540   3.210   6.799   7.242  0.9434 -0.7540  0.2365
   26MYC    H79 1541   3.217   6.649   7.170 -0.1685  0.9785 -1.1538
   26MYC    C43 1542   3.011   6.702   7.238 -0.0113 -0.4481  0.4973
   26MYC    H80 1543   2.976   6.598   7.236 -0.0115 -0.4737 -2.1275
   26MYC    H81 1544   2.983   6.759   7.148 -0.2836  0.0329  0.8836
   26MYC    H82 1545   2.977   6.761   7.323 -0.3480  1.2061 -0.7384
   27MYC   HH15 1546   4.390   6.103   6.942 -1.6418  0.2397  1.0766
   27MYC    C80 1547   4.358   6.190   6.884 -0.4327  0.5617  0.8544
   27MYC   H100 1548   4.354   6.163   6.778 -0.2738  1.0138  0.7316
   27MYC   H101 1549   4.252   6.197   6.911 -0.4031 -0.6732  1.3607
   27MYC    C79 1550   4.434   6.319   6.922 -0.4562  0.5240 -0.0624
   27MYC   H102 1551   4.362   6.401   6.912  0.7705  1.3089 -4.0598
   27MYC   H103 1552   4.517   6.343   6.854  0.8574 -1.3817  0.7613
   27MYC    C78 1553   4.494   6.316   7.064 -0.8795  0.2941 -0.3310
   27MYC   HH14 1554   4.579   6.385   7.070  0.3351 -1.2030  0.5139
   27MYC   H104 1555   4.536   6.218   7.090  0.8131  0.5906 -1.7849
   27MYC    C77 1556   4.386   6.341   7.175 -0.5163 -0.4638  0.5845
   27MYC   H106 1557   4.323   6.251   7.178  0.4205 -1.1513  0.3031
   27MYC   H107 1558   4.315   6.422   7.160 -1.2163 -0.7580  2.1382
   27MYC    C76 1559   4.446   6.368   7.318 -0.3033 -0.3295  0.1965
   27MYC   H108 1560   4.495   6.466   7.316 -0.1621 -0.4090 -0.3384
   27MYC   H109 1561   4.533   6.305   7.338  1.5345  2.2084  0.7023
   27MYC    C75 1562   4.347   6.357   7.434  0.3358  0.8591  0.5464
   27MYC   H110 1563   4.329   6.250   7.450 -0.0267  0.8229 -0.1092
   27MYC   H111 1564   4.257   6.418   7.418  0.0898  1.6097  3.9248
   27MYC    C74 1565   4.405   6.397   7.571 -0.2850 -0.2696  0.3598
   27MYC   H112 1566   4.450   6.497   7.562 -2.0658  0.5328 -0.1274
   27MYC   H113 1567   4.497   6.340   7.585  1.1564  0.4018 -4.3319
   27MYC    C73 1568   4.318   6.393   7.697 -0.1087  0.7976  0.3237
   27MYC   HH13 1569   4.288   6.287   7.700  1.6252  0.2254 -1.1322
   27MYC   H114 1570   4.232   6.461   7.691 -1.2221 -0.7020 -4.0073
   27MYC    C72 1571   4.379   6.422   7.840 -1.6692  0.8302 -0.2701
   27MYC   H115 1572   4.429   6.519   7.849  0.1509  0.2876 -3.0238
   27MYC   H116 1573   4.471   6.363   7.850 -1.6159  0.9373 -0.1289
   27MYC    C71 1574   4.290   6.398   7.962  0.1223 -0.0690 -0.4361
   27MYC   H117 1575   4.252   6.295   7.959  0.9901 -0.4010 -0.3177
   27MYC   H118 1576   4.211   6.472   7.951 -1.0798 -1.4335 -1.3662
   27MYC    C70 1577   4.375   6.400   8.092  0.2278 -0.1322 -0.2431
   27MYC   H119 1578   4.423   6.497   8.107  1.8326 -0.8723 -0.4246
   27MYC   H120 1579   4.458   6.329   8.095 -1.2600 -1.9793 -0.9845
   27MYC    C69 1580   4.294   6.373   8.228 -0.9162 -0.0439  0.2987
   27MYC   H121 1581   4.268   6.267   8.235  0.3418 -0.3934  0.0617
   27MYC   H122 1582   4.202   6.431   8.241 -0.6120  0.6937 -0.7235
   27MYC    C68 1583   4.378   6.417   8.354 -0.1245 -0.1565  0.3148
   27MYC   HH12 1584   4.411   6.518   8.331 -0.2073 -0.7143 -2.6543
   27MYC   H123 1585   4.469   6.356   8.352  1.2666  1.8709 -1.0291
   27MYC    C67 1586   4.308   6.404   8.491  0.3581 -0.4901 -0.3027
   27MYC   H124 1587   4.290   6.297   8.508  1.1548 -0.4816  0.7214
   27MYC   H125 1588   4.209   6.450   8.481  0.6336 -0.2889 -2.7317
   27MYC    C66 1589   4.378   6.478   8.614  0.4627  0.1902  1.0630
   27MYC   H126 1590   4.387   6.583   8.584  0.8233 -0.2101 -0.2957
   27MYC   H127 1591   4.487   6.464   8.605  0.5863  2.1125 -1.4827
   27MYC    C65 1592   4.308   6.469   8.750 -0.2722 -0.3792 -1.4549
   27MYC   H128 1593   4.330   6.377   8.805 -0.9544  0.4568  0.3029
   27MYC   H129 1594   4.200   6.470   8.734 -0.6156 -0.8450  0.5981
   27MYC    C64 1595   4.347   6.582   8.848 -0.7935 -1.3038 -0.7806
   27MYC   H130 1596   4.350   6.676   8.791  0.6990 -1.5358 -1.1479
   27MYC   H131 1597   4.448   6.557   8.884 -0.0034 -0.3289 -2.2058
   27MYC    C63 1598   4.247   6.606   8.963 -0.1292 -0.0620  0.2316
   27MYC   HH11 1599   4.212   6.506   8.988  0.0781  0.0173  0.8645
   27MYC   H132 1600   4.167   6.669   8.921  0.2643  0.0742 -0.3337
   27MYC    C62 1601   4.343   6.661   9.081 -0.3268 -0.2656 -0.4847
   27MYC   H133 1602   4.379   6.763   9.068 -0.2515  0.3389  3.3951
   27MYC   H134 1603   4.431   6.597   9.090  0.2290  0.6698  1.0300
   27MYC    C61 1604   4.267   6.645   9.212  0.3174  0.3708 -0.1428
   27MYC   H135 1605   4.202   6.557   9.215  1.4755 -0.5794 -1.7431
   27MYC   H136 1606   4.198   6.730   9.209  0.6826  0.6457 -2.9112
   27MYC    C60 1607   4.355   6.650   9.330  0.0995  0.2056 -0.2562
   27MYC   H137 1608   4.388   6.753   9.344  0.0086  0.3376 -0.9603
   27MYC    C58 1609   4.318   6.580   9.462 -0.8756  0.1778 -0.3410
   27MYC   H138 1610   4.224   6.524   9.460  1.0977 -3.4338 -1.8056
   27MYC    C59 1611   4.428   6.524   9.375 -0.5733 -0.5458 -0.0103
   27MYC   H139 1612   4.532   6.550   9.394 -1.0730  0.7558  1.1956
   27MYC   H140 1613   4.414   6.428   9.328 -1.1092 -0.0215 -0.9559
   27MYC    C57 1614   4.349   6.651   9.593 -0.2379  0.0888  0.5843
   27MYC   HH10 1615   4.294   6.746   9.580  1.4393  0.9351 -0.8536
   27MYC   H141 1616   4.457   6.673   9.600 -0.4852  1.4380  0.4850
   27MYC    C56 1617   4.305   6.575   9.720  0.1411  0.4518 -0.4201
   27MYC   H142 1618   4.372   6.492   9.746 -0.7230 -1.0332 -2.5554
   27MYC   H143 1619   4.206   6.533   9.698  0.1595  0.0768  0.1867
   27MYC    C55 1620   4.282   6.670   9.844  0.2797  0.0531  0.0778
   27MYC   H144 1621   4.214   6.614   9.909  1.5274 -1.0780  0.4476
   27MYC   H145 1622   4.243   6.770   9.818  0.9120  0.6091  1.2187
   27MYC    C54 1623   4.411   6.701   9.921 -0.2492  0.3309 -0.0639
   27MYC   H146 1624   4.492   6.736   9.856  0.6679 -1.1158  0.2489
   27MYC   H147 1625   4.447   6.602   9.954  0.4788  2.1607  5.6616
   27MYC    C53 1626   4.412   6.791  10.049  0.4733 -0.1229 -0.7105
   27MYC   H148 1627   4.345   6.740  10.118 -0.4649  1.2459 -0.5675
   27MYC   H149 1628   4.358   6.886  10.034 -1.3951 -0.5962  2.3095
   27MYC    C52 1629   4.549   6.808  10.100 -0.6058 -0.0760 -0.2660
   27MYC    H99 1630   4.614   6.827  10.014 -1.7683 -0.0676 -1.1733
   27MYC   H150 1631   4.596   6.722  10.148  0.6523  1.1782  0.8540
   27MYC    C51 1632   4.566   6.936  10.189  0.4484  0.4733 -0.6452
   27MYC    H97 1633   4.520   7.026  10.147 -3.6805  1.5781  5.1081
   27MYC    H98 1634   4.673   6.948  10.211  0.2291  0.7231  0.3154
   27MYC    C50 1635   4.479   6.930  10.314  0.3447  0.0579 -0.0548
   27MYC    H95 1636   4.374   6.943  10.284  0.1929  1.4947  0.9622
   27MYC    H96 1637   4.514   7.018  10.369 -0.9188  1.2120 -0.9925
   27MYC    C49 1638   4.495   6.805  10.403  0.0944 -0.3181 -1.0549
   27MYC    H93 1639   4.573   6.826  10.477  0.1695  0.3305 -1.3144
   27MYC    H94 1640   4.521   6.711  10.354  0.7474 -0.7708  0.1039
   27MYC    C48 1641   4.381   6.777  10.501 -0.4680 -1.1116 -0.1711
   27MYC    H91 1642   4.285   6.780  10.449 -0.9302  1.0265  0.7362
   27MYC    H92 1643   4.376   6.867  10.563  0.7089 -0.0217 -1.5626
   27MYC    C47 1644   4.397   6.650  10.591 -0.4770 -0.3656 -1.1178
   27MYC    H89 1645   4.340   6.656  10.684  0.2009  0.3797 -0.7330
   27MYC    H90 1646   4.505   6.638  10.605 -0.5762 -2.0658 -1.5720
   27MYC    C46 1647   4.352   6.521  10.513 -0.0171 -0.0540 -0.0529
   27MYC    H87 1648   4.386   6.516  10.408 -1.7511  0.5029 -0.6678
   27MYC    H88 1649   4.244   6.516  10.500 -0.0480 -0.9337  0.4454
   27MYC    C45 1650   4.410   6.389  10.571  0.2937 -0.0964 -0.4390
   27MYC    H85 1651   4.517   6.401  10.590  0.9551 -3.5611 -1.4084
   27MYC    H86 1652   4.396   6.305  10.502  1.2071 -1.1731  0.6447
   27MYC    C44 1653   4.335   6.352  10.706 -0.0690  0.1939  0.2324
   27MYC    H83 1654   4.231   6.384  10.691 -1.1392 -2.9202  0.1885
   27MYC    H84 1655   4.387   6.418  10.776  1.0590  1.0533 -1.3473
   27MYC    C18 1656   4.355   6.207  10.749 -1.0108 -0.0693 -0.1375
   27MYC    H31 1657   4.455   6.185  10.786  0.1189  1.4950 -2.0640
   27MYC    C17 1658   4.246   6.141  10.822 -0.3111 -0.5099 -0.5552
   27MYC    H30 1659   4.150   6.192  10.832 -0.8942 -1.1537 -2.4434
   27MYC    C19 1660   4.278   6.087  10.691 -0.2023  0.7307  0.0719
   27MYC    H32 1661   4.209   6.102  10.607 -1.3596 -1.0654  0.6394
   27MYC    H33 1662   4.325   5.990  10.695  1.4115  1.4916  0.1959
   27MYC    C16 1663   4.285   6.076  10.956  0.5831  0.0727 -0.8893
   27MYC    H28 1664   4.335   6.152  11.017  0.4350 -0.8434  0.4207
   27MYC    H29 1665   4.371   6.014  10.927  2.0782  1.8290 -0.4253
   27MYC    C15 1666   4.175   6.001  11.038  0.4052 -0.7946 -0.4670
   27MYC    H26 1667   4.229   5.939  11.111  0.9407  0.8261  0.6003
   27MYC    H27 1668   4.120   5.937  10.969 -0.0290 -0.4300 -0.4647
   27MYC    C14 1669   4.081   6.098  11.116 -0.1277 -0.1739 -0.1271
   27MYC    H24 1670   4.132   6.148  11.199 -0.3177  1.4825 -0.9609
   27MYC    H25 1671   4.022   6.023  11.169 -0.9159  0.2826 -0.3429
   27MYC    C13 1672   3.977   6.187  11.045 -0.5592  0.7676  0.3993
   27MYC    H22 1673   4.020   6.278  11.003 -0.9778 -0.2687 -2.5154
   27MYC    H23 1674   3.911   6.227  11.123  0.6953  1.0059  1.3617
   27MYC    C12 1675   3.878   6.111  10.950 -0.5405 -0.1323  0.3940
   27MYC    H20 1676   3.828   6.031  11.007 -1.0347 -0.6256 -0.6981
   27MYC    H21 1677   3.931   6.063  10.867  0.0695  1.8410 -0.3995
   27MYC    C11 1678   3.773   6.204  10.886 -0.1487  0.2716  0.0015
   27MYC    H18 1679   3.734   6.260  10.972 -2.3151  0.8202 -1.2594
   27MYC    H19 1680   3.685   6.150  10.848 -1.2542  1.3861  0.9011
   27MYC    C10 1681   3.824   6.296  10.776 -0.2931  0.4403  0.2013
   27MYC    H16 1682   3.905   6.360  10.812  0.9731 -0.1144 -1.5604
   27MYC    H17 1683   3.742   6.365  10.753 -0.6747 -0.2677 -0.6044
   27MYC     C9 1684   3.870   6.220  10.651  0.2259  0.6775 -0.3144
   27MYC    H14 1685   3.787   6.161  10.609 -0.6792  1.6481  0.0578
   27MYC    H15 1686   3.943   6.142  10.674  0.5161  0.6384 -1.3060
   27MYC     C8 1687   3.921   6.318  10.544 -0.0277 -0.6830 -0.0365
   27MYC    H12 1688   3.999   6.375  10.597 -0.6005 -1.7196  2.0378
   27MYC    H13 1689   3.829   6.373  10.520 -1.3652 -1.6444  2.5108
   27MYC     C7 1690   3.982   6.251  10.424 -0.2995 -0.0322  0.2911
   27MYC    H10 1691   3.895   6.201  10.380  1.1996 -2.7842  0.2744
   27MYC    H11 1692   4.054   6.171  10.442 -1.8838 -1.3933  0.7574
   27MYC     C6 1693   4.027   6.355  10.308  0.8577  0.3969 -0.2161
   27MYC     H8 1694   4.120   6.408  10.332  1.6429 -0.1798 -1.8275
   27MYC     H9 1695   3.952   6.434  10.316  3.3146  2.9872 -1.1276
   27MYC     C5 1696   4.044   6.285  10.174  0.4805 -0.5725 -0.1996
   27MYC     H6 1697   3.946   6.237  10.162  1.9620 -3.3613 -2.2142
   27MYC     H7 1698   4.117   6.204  10.186  1.2371 -0.0008 -0.8462
   27MYC     C4 1699   4.109   6.383  10.060  0.4152  0.4847 -0.1429
   27MYC     H4 1700   4.204   6.423  10.097  0.8513  0.4657 -1.2180
   27MYC     H5 1701   4.042   6.467  10.036  0.4276  0.5223 -0.0439
   27MYC     C2 1702   4.151   6.314   9.928 -0.1115  0.2264  0.0715
   27MYC     H2 1703   4.195   6.399   9.874  0.8889  0.8842  1.8186
   27MYC     O3 1704   4.261   6.218   9.958 -0.5408 -0.3673  0.5278
   27MYC     H3 1705   4.222   6.155  10.021 -2.6259  1.3204  1.0537
   27MYC     C1 1706   4.048   6.257   9.824 -0.0011 -0.2956  0.1705
   27MYC     H1 1707   3.989   6.344   9.794  0.1280 -0.9922 -2.2954
   27MYC    C81 1708   3.946   6.156   9.888 -0.2188 -0.7941 -0.4473
   27MYC    O82 1709   3.979   6.049   9.932 -0.2759 -0.3250  0.2358
   27MYC    O83 1710   3.821   6.198   9.894  0.4750  0.6435  0.2055
   27MYC   H105 1711   3.777   6.117   9.925 -0.6034 -0.7101 -4.1280
   27MYC    C20 1712   4.114   6.209   9.684  0.6105 -0.4226 -0.7901
   27MYC    H34 1713   4.179   6.290   9.649 -0.2867  0.3867 -0.6292
   27MYC    H35 1714   4.170   6.118   9.708 -0.2690 -0.3020  2.1938
   27MYC    C21 1715   4.020   6.167   9.571 -0.2825 -0.3916  0.5399
   27MYC    H36 1716   4.092   6.124   9.500 -1.7776 -1.3522 -0.4484
   27MYC    H37 1717   3.963   6.083   9.611 -2.0501  0.6445  0.2882
   27MYC    C22 1718   3.923   6.280   9.528 -0.2500  0.0452  0.5307
   27MYC    H38 1719   3.851   6.327   9.596 -0.3824  1.7107 -0.6754
   27MYC    H39 1720   3.983   6.367   9.497 -0.0636 -0.7715 -1.5514
   27MYC    C23 1721   3.844   6.251   9.393  0.2097  0.5781 -0.3030
   27MYC    H40 1722   3.798   6.152   9.408  2.2779 -0.4225 -0.2255
   27MYC    H41 1723   3.764   6.325   9.383 -1.2990 -1.2059 -2.4948
   27MYC    C24 1724   3.926   6.238   9.265  0.9494 -0.8454 -0.1733
   27MYC    H42 1725   3.972   6.336   9.249  0.3632 -0.8962 -2.6502
   27MYC    H43 1726   4.008   6.169   9.288  1.2283  0.2166  2.3667
   27MYC    C25 1727   3.845   6.203   9.135 -0.2104  0.0143 -0.3333
   27MYC    H44 1728   3.818   6.097   9.135 -0.7345  0.1421  0.2642
   27MYC    H45 1729   3.748   6.252   9.141  0.7751  1.9797  0.3932
   27MYC    C26 1730   3.914   6.235   9.000  0.8746  0.2179 -0.0222
   27MYC    H46 1731   3.921   6.344   8.996  0.1113  0.2410 -1.6040
   27MYC    H47 1732   4.011   6.185   8.997  1.0146  0.3763  1.1637
   27MYC    C27 1733   3.846   6.181   8.870  0.2188  0.2318  0.1075
   27MYC    H48 1734   3.847   6.073   8.890  2.1008 -0.1754 -1.8580
   27MYC    H49 1735   3.746   6.224   8.855 -0.0546 -0.3388  0.2409
   27MYC    C28 1736   3.931   6.202   8.746  0.0220 -0.5451 -0.1090
   27MYC    H50 1737   3.948   6.310   8.746 -1.5372 -0.2737  0.2732
   27MYC    H51 1738   4.026   6.153   8.768 -0.8799 -0.9442  3.4704
   27MYC    C29 1739   3.869   6.152   8.610 -0.3900  0.5724 -0.4256
   27MYC    H52 1740   3.871   6.043   8.606  1.3449  0.5299  0.4816
   27MYC    H53 1741   3.762   6.173   8.601 -1.1012 -2.1669  0.8097
   27MYC    C30 1742   3.944   6.204   8.486  0.1147  0.2998 -0.2458
   27MYC    H54 1743   3.936   6.313   8.471 -3.1417  0.3765  1.2187
   27MYC    H55 1744   4.050   6.175   8.483 -0.0831 -0.4262 -0.2279
   27MYC    C31 1745   3.872   6.146   8.361 -0.1704  0.0009 -0.3115
   27MYC    H56 1746   3.853   6.038   8.361 -2.2334  0.2686 -2.5428
   27MYC    H57 1747   3.769   6.185   8.356 -1.2625 -2.7720 -2.8345
   27MYC    C32 1748   3.930   6.184   8.224  0.0047  0.3385 -0.5735
   27MYC    H58 1749   3.900   6.289   8.216 -0.0734  0.1950 -3.1681
   27MYC    H59 1750   4.040   6.178   8.220 -0.0063 -2.7184  0.9955
   27MYC    C33 1751   3.878   6.116   8.098  0.8721 -0.7230 -0.1522
   27MYC    H60 1752   3.879   6.007   8.108 -0.7843 -0.6055  1.9834
   27MYC    H61 1753   3.774   6.148   8.087  0.7550 -1.8193 -3.3773
   27MYC    C34 1754   3.963   6.166   7.981 -0.2480  0.3972  1.3141
   27MYC    H62 1755   3.940   6.271   7.960 -0.2452 -0.0454 -1.2038
   27MYC    H63 1756   4.069   6.141   7.993  0.0529 -0.2005 -1.6661
   27MYC    C35 1757   3.911   6.098   7.849  0.5200  0.4070 -0.2759
   27MYC    H64 1758   3.907   5.988   7.851 -1.6398  0.4409 -0.5207
   27MYC    H65 1759   3.805   6.123   7.834  0.4075 -0.4415 -1.0491
   27MYC    C36 1760   3.993   6.143   7.734  0.6765 -0.2165 -0.6165
   27MYC    H66 1761   4.006   6.251   7.752 -0.1026 -0.2792  0.4307
   27MYC    H67 1762   4.095   6.103   7.741  0.5877 -0.5312 -1.0931
   27MYC    C37 1763   3.922   6.116   7.598 -0.1654 -0.3952  0.4201
   27MYC    H68 1764   3.892   6.011   7.590 -1.2294  0.0477 -2.6711
   27MYC    H69 1765   3.834   6.181   7.597  0.3453  0.3703  1.7257
   27MYC    C38 1766   4.005   6.163   7.471  0.0436  0.0690 -0.2669
   27MYC    H70 1767   4.026   6.269   7.491  1.7680 -0.0854 -1.1378
   27MYC    H71 1768   4.095   6.104   7.455  0.1940  0.3467 -0.4538
   27MYC    C39 1769   3.922   6.157   7.339 -0.4820 -0.2586  0.2876
   27MYC    H72 1770   3.886   6.055   7.320 -2.0539  0.6855 -2.2608
   27MYC    H73 1771   3.824   6.206   7.347 -1.5188 -1.9375 -1.2238
   27MYC    C40 1772   3.999   6.218   7.219 -0.0049  0.0952 -0.4726
   27MYC    H74 1773   4.045   6.309   7.260 -0.4268  1.0375 -2.0117
   27MYC    H75 1774   4.086   6.157   7.190  1.1345  0.6262  1.6749
   27MYC    C41 1775   3.914   6.243   7.088  0.3943 -0.9819  0.7998
   27MYC    H76 1776   3.832   6.312   7.110 -1.9677 -2.7387 -1.9052
   27MYC    H77 1777   3.972   6.286   7.006 -0.3167 -0.3548  0.6143
   27MYC    C42 1778   3.842   6.117   7.029  0.5765  0.8596  0.6250
   27MYC    H78 1779   3.917   6.056   6.976 -0.5482 -0.8879  0.9574
   27MYC    H79 1780   3.806   6.043   7.101 -1.2067 -0.6678 -1.6844
   27MYC    C43 1781   3.721   6.155   6.928 -0.4257  0.2119  0.3209
   27MYC    H80 1782   3.762   6.195   6.835 -0.0455  1.8828  1.1603
   27MYC    H81 1783   3.657   6.229   6.975 -0.5504 -0.0558  0.5781
   27MYC    H82 1784   3.654   6.072   6.903  1.7225 -0.9899 -1.9314
   28MYC   HH15 1785   5.330   6.176   7.030  1.0408  0.5096 -1.9247
   28MYC    C80 1786   5.254   6.249   6.998 -0.1793  0.0503 -0.2035
   28MYC   H100 1787   5.273   6.285   6.897  0.0349 -0.4986 -0.3658
   28MYC   H101 1788   5.152   6.211   7.012 -0.4775  1.5015  2.0589
   28MYC    C79 1789   5.290   6.360   7.099 -0.1018 -0.5258  0.1781
   28MYC   H102 1790   5.244   6.453   7.061  1.0454  1.4444  3.2614
   28MYC   H103 1791   5.399   6.372   7.101 -0.1153 -0.1833 -0.5305
   28MYC    C78 1792   5.235   6.322   7.231  0.6302  0.8016  0.0915
   28MYC   HH14 1793   5.238   6.214   7.247  1.0542  0.8408  0.2872
   28MYC   H104 1794   5.130   6.354   7.217  0.1756 -0.7592 -0.2554
   28MYC    C77 1795   5.289   6.400   7.349 -0.2624 -0.1414 -0.7365
   28MYC   H106 1796   5.302   6.507   7.329  0.6849 -0.3983 -1.6151
   28MYC   H107 1797   5.394   6.369   7.361 -0.2953 -0.1716 -0.5329
   28MYC    C76 1798   5.198   6.384   7.471 -0.1996 -0.5678 -0.5947
   28MYC   H108 1799   5.173   6.281   7.500 -0.4850  0.0325  1.4952
   28MYC   H109 1800   5.099   6.422   7.443  0.3474  2.6587  1.2984
   28MYC    C75 1801   5.251   6.468   7.588  0.3870  0.3279 -0.5450
   28MYC   H110 1802   5.214   6.571   7.586  0.4689  0.3728 -0.0343
   28MYC   H111 1803   5.360   6.467   7.579  0.3310 -2.0947 -1.7008
   28MYC    C74 1804   5.229   6.397   7.725 -0.3087 -1.1360 -0.2103
   28MYC   H112 1805   5.270   6.296   7.732  1.9558 -0.2067  1.0393
   28MYC   H113 1806   5.119   6.393   7.728 -0.3938  0.5391  0.8445
   28MYC    C73 1807   5.273   6.475   7.858  0.0249  0.1611 -0.0905
   28MYC   HH13 1808   5.248   6.579   7.835  0.2958  0.3618  0.5105
   28MYC   H114 1809   5.381   6.463   7.872  0.3614 -1.2737 -3.0112
   28MYC    C72 1810   5.181   6.422   7.976 -1.1530 -0.1680 -0.2532
   28MYC   H115 1811   5.169   6.313   7.972 -0.6893 -0.1924 -2.0052
   28MYC   H116 1812   5.077   6.445   7.950 -0.8077 -0.7815 -2.4260
   28MYC    C71 1813   5.216   6.474   8.121  0.2187 -0.6987 -0.2416
   28MYC   H117 1814   5.235   6.582   8.113  0.5538 -0.8955 -2.7132
   28MYC   H118 1815   5.313   6.434   8.153 -1.0864 -2.6109  1.6909
   28MYC    C70 1816   5.123   6.441   8.236 -0.0020  0.0964 -0.0457
   28MYC   H119 1817   5.084   6.339   8.232  0.2835 -0.0830  1.2032
   28MYC   H120 1818   5.033   6.504   8.232 -2.1574 -2.5370  2.2765
   28MYC    C69 1819   5.179   6.469   8.381  0.1267 -0.6310  0.5728
   28MYC   H121 1820   5.221   6.570   8.392  0.6643 -0.7347 -0.3390
   28MYC   H122 1821   5.268   6.406   8.390  0.9964  0.4153 -0.3864
   28MYC    C68 1822   5.077   6.434   8.490 -0.2351 -0.4729 -0.5739
   28MYC   HH12 1823   5.063   6.325   8.497  2.7265 -1.0336 -1.7388
   28MYC   H123 1824   4.980   6.475   8.462 -0.0572 -0.4466 -1.1774
   28MYC    C67 1825   5.108   6.496   8.628 -1.0475 -0.1348  0.7498
   28MYC   H124 1826   5.019   6.475   8.688 -0.0635 -0.6388  2.0790
   28MYC   H125 1827   5.115   6.603   8.603  1.7622 -0.3019  0.5068
   28MYC    C66 1828   5.237   6.424   8.684  0.0903 -0.0128  0.0960
   28MYC   H126 1829   5.323   6.431   8.616  0.3919 -0.3714  0.4376
   28MYC   H127 1830   5.205   6.321   8.697  0.4618 -0.1111  0.2318
   28MYC    C65 1831   5.276   6.476   8.822  0.1012  0.2033  0.0224
   28MYC   H128 1832   5.190   6.493   8.888  0.0478 -1.2816  0.3579
   28MYC   H129 1833   5.317   6.577   8.808 -0.8893  0.5061 -0.8926
   28MYC    C64 1834   5.388   6.398   8.884  0.5176  0.2109 -0.1757
   28MYC   H130 1835   5.481   6.404   8.827  0.8130 -0.2241  0.2420
   28MYC   H131 1836   5.369   6.290   8.887 -2.4002  0.6580  0.4354
   28MYC    C63 1837   5.423   6.448   9.027  0.1087  0.3248 -0.1232
   28MYC   HH11 1838   5.342   6.441   9.101  0.0937 -1.6081 -0.2750
   28MYC   H132 1839   5.460   6.552   9.031  1.5047 -0.1570  2.6029
   28MYC    C62 1840   5.554   6.363   9.069  0.0602  0.0242 -0.0543
   28MYC   H133 1841   5.633   6.375   8.994  1.8631 -0.0745  1.7533
   28MYC   H134 1842   5.528   6.256   9.068  0.3032 -0.0326 -0.2881
   28MYC    C61 1843   5.629   6.424   9.194 -0.1376  0.5390  0.6153
   28MYC   H135 1844   5.628   6.532   9.176 -1.4190  0.4905  0.2452
   28MYC   H136 1845   5.731   6.384   9.192 -0.0163  0.8293 -1.0495
   28MYC    C60 1846   5.564   6.394   9.337  0.1187 -0.2451  0.4190
   28MYC   H137 1847   5.597   6.300   9.380 -1.3353 -1.2726 -0.5989
   28MYC    C58 1848   5.552   6.491   9.451  0.4698 -0.0507  0.0593
   28MYC   H138 1849   5.591   6.592   9.443 -2.2682  1.0342 -0.6290
   28MYC    C59 1850   5.429   6.472   9.368 -0.3133  0.5489 -0.6640
   28MYC   H139 1851   5.354   6.412   9.418 -0.1121  0.6924 -0.1900
   28MYC   H140 1852   5.397   6.556   9.306  1.1801  1.2385 -0.5433
   28MYC    C57 1853   5.549   6.438   9.596 -1.1478 -0.1595 -0.0155
   28MYC   HH10 1854   5.638   6.375   9.608 -0.7440  0.1307 -1.3331
   28MYC   H141 1855   5.464   6.367   9.599  0.3598 -2.0294  0.3902
   28MYC    C56 1856   5.543   6.540   9.709 -0.2474  0.0510 -0.1778
   28MYC   H142 1857   5.466   6.613   9.684 -0.8764  0.5330  2.8380
   28MYC   H143 1858   5.636   6.597   9.699 -0.6979  0.7332 -0.5159
   28MYC    C55 1859   5.526   6.491   9.854  0.1406 -0.4233  0.2136
   28MYC   H144 1860   5.616   6.434   9.877  0.2896 -1.8083 -3.2479
   28MYC   H145 1861   5.439   6.423   9.860  0.6264 -1.0912 -0.2220
   28MYC    C54 1862   5.499   6.613   9.949  0.1952 -0.0172 -0.0262
   28MYC   H146 1863   5.406   6.669   9.935  1.1609  2.4700  2.4504
   28MYC   H147 1864   5.580   6.683   9.925 -0.5605  1.0084  0.3173
   28MYC    C53 1865   5.503   6.575  10.105  0.4814 -0.2599 -0.1899
   28MYC   H148 1866   5.595   6.523  10.133  0.2329  0.8064  3.1485
   28MYC   H149 1867   5.421   6.507  10.130  0.8986 -0.3835  0.8853
   28MYC    C52 1868   5.487   6.695  10.205  0.1022  0.1560  0.0147
   28MYC    H99 1869   5.383   6.728  10.203 -0.5122 -1.5264  1.1944
   28MYC   H150 1870   5.558   6.771  10.170  1.7975 -1.2480  0.2481
   28MYC    C51 1871   5.522   6.674  10.347 -0.1977 -0.4874 -0.4330
   28MYC    H97 1872   5.630   6.655  10.348 -0.1864 -0.8437  2.7091
   28MYC    H98 1873   5.478   6.577  10.374 -1.2660  0.2765  0.6630
   28MYC    C50 1874   5.508   6.778  10.460 -0.5096 -0.0392  0.3205
   28MYC    H95 1875   5.409   6.826  10.453 -0.6156 -0.4232 -1.1015
   28MYC    H96 1876   5.584   6.852  10.433 -1.0568  0.3190 -0.2567
   28MYC    C49 1877   5.545   6.728  10.600  0.4909  0.2830  0.5316
   28MYC    H93 1878   5.545   6.815  10.666 -1.1056  0.6709  0.0707
   28MYC    H94 1879   5.648   6.692  10.606  0.5582  0.2771 -0.4835
   28MYC    C48 1880   5.437   6.629  10.664  0.1752  0.2024 -0.7369
   28MYC    H91 1881   5.443   6.531  10.615 -0.7064 -0.6381  0.7544
   28MYC    H92 1882   5.336   6.671  10.657 -0.2095 -0.4884  0.3315
   28MYC    C47 1883   5.472   6.625  10.814  0.0740 -0.1883 -0.1834
   28MYC    H89 1884   5.450   6.722  10.860 -1.0251 -0.1924 -0.6571
   28MYC    H90 1885   5.581   6.615  10.816  0.2630  0.9357 -2.3060
   28MYC    C46 1886   5.418   6.492  10.892  0.0061 -0.3345 -0.2778
   28MYC    H87 1887   5.461   6.483  10.993 -0.1368 -1.3247 -0.2936
   28MYC    H88 1888   5.444   6.402  10.835  1.9963  0.2004 -0.2653
   28MYC    C45 1889   5.266   6.502  10.901  0.1218  0.2523  0.3246
   28MYC    H85 1890   5.227   6.538  10.806 -1.0940  1.4900  1.2627
   28MYC    H86 1891   5.240   6.576  10.978  0.6987 -0.5631  1.3387
   28MYC    C44 1892   5.192   6.377  10.947 -0.2901 -0.7662 -0.0605
   28MYC    H83 1893   5.206   6.361  11.054 -1.5641 -1.0466  0.0838
   28MYC    H84 1894   5.228   6.291  10.890 -0.6993 -0.6822 -0.4591
   28MYC    C18 1895   5.039   6.389  10.924 -0.1898  0.1509 -0.2369
   28MYC    H31 1896   5.015   6.411  10.820 -1.4824 -2.0016 -0.4571
   28MYC    C17 1897   4.941   6.308  11.013 -0.3423  0.5636  0.6339
   28MYC    H30 1898   4.984   6.254  11.097 -0.4007  0.6848  0.7424
   28MYC    C19 1899   4.947   6.455  11.022 -0.5175 -0.1047  0.0314
   28MYC    H32 1900   5.003   6.503  11.101 -1.7991 -1.6530  2.0048
   28MYC    H33 1901   4.872   6.522  10.982 -0.3496 -0.6130 -1.1941
   28MYC    C16 1902   4.826   6.233  10.937  0.6113  0.2747 -0.2483
   28MYC    H28 1903   4.778   6.291  10.857 -0.2889 -0.6082 -0.3674
   28MYC    H29 1904   4.747   6.224  11.013 -0.4817 -1.5074 -1.5206
   28MYC    C15 1905   4.872   6.092  10.901  0.6715  0.5252  0.0392
   28MYC    H26 1906   4.887   6.038  10.996  1.7648 -0.8043 -0.8600
   28MYC    H27 1907   4.965   6.092  10.843  0.6500  1.8795 -0.0310
   28MYC    C14 1908   4.764   6.013  10.829 -0.2793 -0.2910 -0.0588
   28MYC    H24 1909   4.672   6.011  10.888  0.1522  0.1313  0.6405
   28MYC    H25 1910   4.781   5.905  10.827 -0.6627 -0.3549  0.1725
   28MYC    C13 1911   4.755   6.074  10.684  0.5351  0.2410  0.1851
   28MYC    H22 1912   4.859   6.085  10.651  0.5257  0.1138  0.1160
   28MYC    H23 1913   4.706   6.172  10.699 -0.5093 -0.3223  0.5789
   28MYC    C12 1914   4.673   5.995  10.580 -0.6440  0.3350  0.3501
   28MYC    H20 1915   4.572   5.987  10.622 -0.2146  0.5969  1.4797
   28MYC    H21 1916   4.717   5.896  10.563  0.8901  1.0421  0.0306
   28MYC    C11 1917   4.669   6.066  10.440 -1.1237  0.2785  0.7504
   28MYC    H18 1918   4.767   6.091  10.399 -1.7365  0.9198 -0.3853
   28MYC    H19 1919   4.609   6.158  10.429 -1.2895 -0.1448 -3.5192
   28MYC    C10 1920   4.607   5.965  10.338  0.4220  0.1820 -1.1082
   28MYC    H16 1921   4.501   5.969  10.364  1.1764 -1.7590  2.9105
   28MYC    H17 1922   4.631   5.859  10.351  1.8160  0.5601 -0.3738
   28MYC     C9 1923   4.619   6.002  10.184 -1.1467  0.7058 -0.2362
   28MYC    H14 1924   4.725   6.022  10.165 -0.7445 -0.0778  1.0323
   28MYC    H15 1925   4.560   6.092  10.163  0.1931  1.9893  1.1595
   28MYC     C8 1926   4.574   5.902  10.076 -0.7269 -0.0845  0.1974
   28MYC    H12 1927   4.577   5.796  10.103 -0.9185  0.5564  3.0651
   28MYC    H13 1928   4.643   5.912   9.991 -1.5176  0.0533 -0.4419
   28MYC     C7 1929   4.440   5.923  10.001 -0.2967  0.8265 -0.9637
   28MYC    H10 1930   4.436   6.021   9.951  0.2633  0.0666 -2.5757
   28MYC    H11 1931   4.360   5.910  10.074  0.6472 -2.7568 -0.3932
   28MYC     C6 1932   4.415   5.812   9.897 -1.0719  0.8007  0.5084
   28MYC     H8 1933   4.325   5.822   9.836 -2.0469 -3.2974  0.9975
   28MYC     H9 1934   4.404   5.716   9.948  0.3429 -0.8144 -2.0713
   28MYC     C5 1935   4.528   5.811   9.788 -0.2141  0.2722 -0.0782
   28MYC     H6 1936   4.500   5.727   9.724  0.4277 -1.2078  1.4821
   28MYC     H7 1937   4.627   5.779   9.822 -0.6100  1.7022  2.7279
   28MYC     C4 1938   4.532   5.944   9.698  0.7550  0.4190 -0.7656
   28MYC     H4 1939   4.591   6.022   9.748 -0.1905  1.4754 -1.2374
   28MYC     H5 1940   4.434   5.993   9.700  0.8597  0.6097  0.0987
   28MYC     C2 1941   4.608   5.943   9.561 -0.0992 -0.3814  0.3281
   28MYC     H2 1942   4.714   5.918   9.573  0.0337 -0.2322 -0.4774
   28MYC     O3 1943   4.541   5.859   9.475  0.2678 -0.2027  0.3008
   28MYC     H3 1944   4.512   5.904   9.394  0.7904  0.0035  0.2267
   28MYC     C1 1945   4.616   6.085   9.495 -0.1416  0.5023 -0.3594
   28MYC     H1 1946   4.661   6.160   9.561  1.3650 -0.5675 -0.0969
   28MYC    C81 1947   4.472   6.144   9.459 -0.5745 -0.3713 -0.3473
   28MYC    O82 1948   4.384   6.089   9.392  0.3417 -0.5274  0.1451
   28MYC    O83 1949   4.441   6.250   9.536 -0.2861  0.4296  0.0568
   28MYC   H105 1950   4.350   6.276   9.514 -0.2600 -0.6102 -1.4605
   28MYC    C20 1951   4.709   6.089   9.370 -0.2272 -0.3623 -0.4959
   28MYC    H34 1952   4.812   6.070   9.401 -1.0352 -0.3586  2.5762
   28MYC    H35 1953   4.676   6.009   9.303  2.3177 -0.3445 -1.8707
   28MYC    C21 1954   4.710   6.227   9.294  0.5219 -0.7330  0.2476
   28MYC    H36 1955   4.609   6.269   9.284 -0.1802 -2.6172 -0.9532
   28MYC    H37 1956   4.763   6.300   9.357  0.0581 -0.7920  0.7146
   28MYC    C22 1957   4.761   6.211   9.151  1.2592  0.1419  0.4859
   28MYC    H38 1958   4.869   6.190   9.151  0.9167 -2.1128  2.4430
   28MYC    H39 1959   4.699   6.124   9.124 -1.1826  1.1110  2.5937
   28MYC    C23 1960   4.733   6.332   9.057  0.6035  0.2748  0.5225
   28MYC    H40 1961   4.634   6.376   9.072  0.6641  1.3028 -1.7003
   28MYC    H41 1962   4.793   6.416   9.094 -1.4057  2.7303 -1.3662
   28MYC    C24 1963   4.755   6.309   8.901  0.2347  0.4286  0.1315
   28MYC    H42 1964   4.750   6.407   8.852 -0.0551  0.4891  0.2813
   28MYC    H43 1965   4.852   6.261   8.887 -0.1261 -0.8662  1.7526
   28MYC    C25 1966   4.654   6.212   8.845 -0.1674  0.1951  0.5318
   28MYC    H44 1967   4.606   6.149   8.922  3.4804 -1.2084  1.8641
   28MYC    H45 1968   4.579   6.277   8.799  0.8634  0.6937 -0.4615
   28MYC    C26 1969   4.706   6.131   8.732 -0.2166  0.5801  0.4474
   28MYC    H46 1970   4.806   6.091   8.751  0.4229  2.3611  1.0524
   28MYC    H47 1971   4.639   6.044   8.724 -1.0591  1.1934  0.6690
   28MYC    C27 1972   4.730   6.202   8.594  0.6337  0.0666 -0.7949
   28MYC    H48 1973   4.640   6.260   8.572  0.6224  0.1378 -0.5632
   28MYC    H49 1974   4.817   6.268   8.605  1.6418 -1.5658  2.4615
   28MYC    C28 1975   4.760   6.106   8.476  0.3466  0.1265 -0.3168
   28MYC    H50 1976   4.863   6.070   8.485  0.1577 -0.0079  1.6751
   28MYC    H51 1977   4.704   6.013   8.491  0.7568  0.0544  0.8752
   28MYC    C29 1978   4.750   6.167   8.333  0.3862  0.3959 -0.3340
   28MYC    H52 1979   4.649   6.207   8.313  0.1110  0.7125  1.4828
   28MYC    H53 1980   4.810   6.259   8.337 -0.0230  0.6586 -0.0464
   28MYC    C30 1981   4.793   6.086   8.204  0.6280 -0.3761 -0.7445
   28MYC    H54 1982   4.880   6.022   8.226 -0.2666 -1.2341  0.4338
   28MYC    H55 1983   4.726   5.999   8.196  0.2608 -0.3714  1.6229
   28MYC    C31 1984   4.812   6.174   8.079  1.1238 -0.6395 -0.4973
   28MYC    H56 1985   4.719   6.230   8.072  2.1935  0.9999 -2.5418
   28MYC    H57 1986   4.896   6.243   8.093 -2.7581  4.8749 -1.0683
   28MYC    C32 1987   4.828   6.087   7.951  0.9495 -0.0402  0.0694
   28MYC    H58 1988   4.921   6.029   7.959  2.6016  2.5891  1.5060
   28MYC    H59 1989   4.739   6.023   7.949  0.3002  0.8606 -0.0481
   28MYC    C33 1990   4.828   6.185   7.823  0.4757  0.3492 -0.2989
   28MYC    H60 1991   4.743   6.253   7.828  0.6853  0.5433  1.1490
   28MYC    H61 1992   4.915   6.251   7.822 -0.4643  1.6172 -0.6963
   28MYC    C34 1993   4.832   6.108   7.688  0.3285 -0.1951 -0.6965
   28MYC    H62 1994   4.929   6.057   7.693  1.1277  1.3737  0.9214
   28MYC    H63 1995   4.764   6.021   7.690 -0.2788  0.2700 -0.6946
   28MYC    C35 1996   4.819   6.188   7.565  0.0262  0.0019  0.8878
   28MYC    H64 1997   4.713   6.216   7.561 -0.9318 -3.2239 -1.8839
   28MYC    H65 1998   4.881   6.277   7.574  0.7090  0.1320 -3.1918
   28MYC    C36 1999   4.852   6.097   7.442 -0.1739  0.0225  0.5924
   28MYC    H66 2000   4.953   6.056   7.457 -1.2111 -1.3692  5.1041
   28MYC    H67 2001   4.782   6.013   7.439  0.6184 -0.6671  1.1634
   28MYC    C37 2002   4.845   6.168   7.299  0.6061  0.5487  0.9577
   28MYC    H68 2003   4.745   6.211   7.289  0.4835  0.1510  0.4477
   28MYC    H69 2004   4.926   6.242   7.301 -0.1751  1.4844 -0.6298
   28MYC    C38 2005   4.872   6.071   7.183  0.1069 -0.5611 -0.0048
   28MYC    H70 2006   4.979   6.048   7.180  0.7867  2.2124  0.0508
   28MYC    H71 2007   4.812   5.980   7.194 -1.1890  0.0407 -1.5443
   28MYC    C39 2008   4.832   6.139   7.045  0.6925  0.7313  0.0706
   28MYC    H72 2009   4.725   6.115   7.051  1.2891 -1.9605  1.7681
   28MYC    H73 2010   4.855   6.245   7.055 -0.5395  0.8782  1.8663
   28MYC    C40 2011   4.891   6.063   6.922  0.5321 -0.9283  0.0947
   28MYC    H74 2012   5.001   6.059   6.920  0.5551 -0.2350 -1.1157
   28MYC    H75 2013   4.864   5.957   6.920 -1.3357 -0.4890  0.2444
   28MYC    C41 2014   4.852   6.123   6.787 -0.3175  0.1823 -0.5435
   28MYC    H76 2015   4.866   6.232   6.784 -0.5267  0.2156 -0.3984
   28MYC    H77 2016   4.911   6.069   6.713  1.0204  1.8512 -0.7493
   28MYC    C42 2017   4.707   6.099   6.751  0.2206 -0.4224  0.3846
   28MYC    H78 2018   4.684   5.991   6.748 -0.3812 -0.2939  0.1863
   28MYC    H79 2019   4.643   6.147   6.825  0.1854 -0.1197  0.1590
   28MYC    C43 2020   4.663   6.159   6.612 -0.0841  0.3234  0.1671
   28MYC    H80 2021   4.554   6.164   6.617 -0.2380 -2.3124  1.2412
   28MYC    H81 2022   4.689   6.091   6.531 -1.1018  1.8802 -1.5436
   28MYC    H82 2023   4.703   6.260   6.599 -0.1779  0.1898 -1.3174
   29MYC   HH15 2024   5.833   5.771   6.734  0.5754 -0.5836 -1.5249
   29MYC    C80 2025   5.855   5.680   6.792  0.9093  0.4303  0.0079
   29MYC   H100 2026   5.797   5.609   6.731  0.5702 -1.0810  1.9951
   29MYC   H101 2027   5.960   5.650   6.788  1.2308  1.3913  0.8951
   29MYC    C79 2028   5.806   5.679   6.934  0.2833 -0.1866 -0.0609
   29MYC   H102 2029   5.887   5.726   6.991  0.2697 -2.9357  2.4671
   29MYC   H103 2030   5.789   5.576   6.968 -1.3879  0.5826  1.5644
   29MYC    C78 2031   5.676   5.767   6.943  0.0776  0.0967 -0.0407
   29MYC   HH14 2032   5.610   5.745   6.858  0.7681  2.2394 -1.2054
   29MYC   H104 2033   5.712   5.867   6.914  0.5668  0.6660  2.2811
   29MYC    C77 2034   5.613   5.754   7.085  0.2650 -0.5053 -0.5148
   29MYC   H106 2035   5.693   5.771   7.158 -1.2437  0.9456  0.8904
   29MYC   H107 2036   5.576   5.653   7.107  3.5994 -1.7077  0.1465
   29MYC    C76 2037   5.502   5.855   7.098  1.0538 -0.1018  0.3099
   29MYC   H108 2038   5.426   5.826   7.024 -0.0946 -0.4569  1.5818
   29MYC   H109 2039   5.527   5.961   7.091 -3.1122  1.1078  0.7533
   29MYC    C75 2040   5.423   5.836   7.227  0.6035  0.0351 -0.4771
   29MYC   H110 2041   5.484   5.824   7.317  0.4718 -2.2805 -0.6534
   29MYC   H111 2042   5.361   5.746   7.221  1.1807 -0.2931 -3.3158
   29MYC    C74 2043   5.322   5.943   7.256 -0.5872 -0.6371  0.2037
   29MYC   H112 2044   5.251   5.939   7.172  1.4111  0.9690 -1.6452
   29MYC   H113 2045   5.377   6.037   7.264  0.3367 -1.2564  1.5451
   29MYC    C73 2046   5.251   5.935   7.388 -0.0426 -1.0422 -0.2542
   29MYC   HH13 2047   5.187   5.848   7.407  0.8043 -1.0283  3.5668
   29MYC   H114 2048   5.176   6.014   7.392  0.4525 -0.6052  1.0543
   29MYC    C72 2049   5.324   5.956   7.515 -0.6015 -0.5619  0.1642
   29MYC   H115 2050   5.375   6.052   7.507  0.8400 -1.3675 -0.9946
   29MYC   H116 2051   5.402   5.879   7.515 -0.8309 -0.9304 -2.6968
   29MYC    C71 2052   5.234   5.954   7.641 -0.1596  0.5423  0.3370
   29MYC   H117 2053   5.185   5.856   7.648  1.7683 -0.4179  1.0812
   29MYC   H118 2054   5.159   6.033   7.654 -1.6975 -0.8558  0.3404
   29MYC    C70 2055   5.322   5.962   7.773  0.4965 -0.3395  0.4972
   29MYC   H119 2056   5.380   6.055   7.774  0.0269 -0.0263 -0.3900
   29MYC   H120 2057   5.395   5.882   7.758 -0.6719 -1.4571  0.6286
   29MYC    C69 2058   5.239   5.954   7.903  0.6083  0.3575 -0.5207
   29MYC   H121 2059   5.171   5.868   7.906  1.6245 -0.4754 -0.6344
   29MYC   H122 2060   5.187   6.049   7.915  1.4920  0.8427 -0.4707
   29MYC    C68 2061   5.341   5.938   8.027  0.3204 -0.8498 -0.4678
   29MYC   HH12 2062   5.411   6.023   8.026 -1.8995  1.1027  0.2346
   29MYC   H123 2063   5.396   5.844   8.015  0.6020 -0.6515 -0.7664
   29MYC    C67 2064   5.279   5.936   8.176  0.0061 -0.7164 -0.2704
   29MYC   H124 2065   5.361   5.923   8.249 -0.2078  1.5571  0.4758
   29MYC   H125 2066   5.214   5.849   8.166  0.7117 -1.4613  1.2108
   29MYC    C66 2067   5.196   6.067   8.218 -0.5677  0.3141 -0.1738
   29MYC   H126 2068   5.125   6.097   8.140  0.3403  0.6355 -0.8834
   29MYC   H127 2069   5.267   6.150   8.218  0.5595 -0.6203  0.9987
   29MYC    C65 2070   5.120   6.058   8.349  0.5697  0.6671  0.5117
   29MYC   H128 2071   5.057   5.969   8.336  0.3497  1.0869 -1.7093
   29MYC   H129 2072   5.067   6.152   8.369 -1.7349 -0.6480  0.9685
   29MYC    C64 2073   5.200   6.043   8.481  0.4227  0.4585  0.2705
   29MYC   H130 2074   5.264   6.130   8.504  0.2865  0.4809  0.5638
   29MYC   H131 2075   5.270   5.959   8.476  1.0633  0.9303  1.0129
   29MYC    C63 2076   5.114   6.036   8.609  0.2985  0.1160  0.7026
   29MYC   HH11 2077   5.049   5.948   8.608 -1.6555  1.4861 -0.8464
   29MYC   H132 2078   5.043   6.119   8.608 -0.3863 -0.3880  2.5072
   29MYC    C62 2079   5.206   6.027   8.743 -0.7021 -0.2149 -0.7513
   29MYC   H133 2080   5.263   6.119   8.759 -1.3208  0.1984 -0.8810
   29MYC   H134 2081   5.285   5.952   8.733 -1.3996 -0.6529 -4.2031
   29MYC    C61 2082   5.121   6.017   8.878 -0.2862  0.3202  0.4588
   29MYC   H135 2083   5.100   5.911   8.894 -1.6373  0.4999 -0.0246
   29MYC   H136 2084   5.026   6.071   8.867  1.5058  3.7232  0.1410
   29MYC    C60 2085   5.191   6.067   9.003  0.0600 -0.4553  0.1816
   29MYC   H137 2086   5.170   6.173   9.019  1.7867  0.2774 -1.8929
   29MYC    C58 2087   5.205   5.995   9.131 -0.8261  0.5171  0.0929
   29MYC   H138 2088   5.160   5.897   9.139  0.3906 -0.0741  0.0251
   29MYC    C59 2089   5.325   6.011   9.042  0.4947  0.0995  0.0359
   29MYC   H139 2090   5.395   6.087   9.072  0.7176 -0.2594  0.4314
   29MYC   H140 2091   5.365   5.919   9.001  1.9505  0.5404  0.4176
   29MYC    C57 2092   5.219   6.055   9.275 -0.4541  0.3488  0.2524
   29MYC   HH10 2093   5.129   6.034   9.334 -1.1957 -2.6902 -1.7290
   29MYC   H141 2094   5.212   6.164   9.262  0.3812  0.1695 -2.4203
   29MYC    C56 2095   5.350   6.015   9.354  0.1417  0.8185 -0.4121
   29MYC   H142 2096   5.428   6.064   9.295 -0.2311  1.1401 -0.6438
   29MYC   H143 2097   5.369   5.907   9.357  3.8528  1.2035 -3.2535
   29MYC    C55 2098   5.344   6.071   9.501  0.6238  0.3577  0.8801
   29MYC   H144 2099   5.246   6.041   9.539  0.8698 -1.9663 -0.1548
   29MYC   H145 2100   5.355   6.180   9.491  1.5772  0.1343 -1.1102
   29MYC    C54 2101   5.459   6.028   9.599  0.4205 -0.4145 -0.4373
   29MYC   H146 2102   5.559   6.044   9.558  0.4879 -0.6692 -0.3782
   29MYC   H147 2103   5.463   5.919   9.609  1.4575 -0.4455 -1.0501
   29MYC    C53 2104   5.443   6.102   9.733 -0.0686  0.0229 -0.3534
   29MYC   H148 2105   5.338   6.086   9.760  0.8188 -4.3701  1.2384
   29MYC   H149 2106   5.442   6.212   9.726 -0.3422  0.0556  0.0922
   29MYC    C52 2107   5.527   6.044   9.844  0.1445  0.4271  0.8498
   29MYC    H99 2108   5.629   6.056   9.804 -0.3756  0.9890 -0.3638
   29MYC   H150 2109   5.516   5.935   9.845  4.0115 -0.1721 -1.2759
   29MYC    C51 2110   5.511   6.116   9.980 -0.0086  0.0795 -0.3661
   29MYC    H97 2111   5.402   6.120   9.992  0.2345 -0.8232  3.2923
   29MYC    H98 2112   5.551   6.217   9.985 -1.2406  0.6043 -0.6650
   29MYC    C50 2113   5.568   6.028  10.088  0.2666 -0.2679  0.0064
   29MYC    H95 2114   5.674   6.009  10.069 -0.4656 -1.9117 -3.1570
   29MYC    H96 2115   5.520   5.930  10.099  0.4363 -0.6865 -2.4018
   29MYC    C49 2116   5.552   6.090  10.226  0.1030  0.3257  0.5528
   29MYC    H93 2117   5.568   6.016  10.306  1.4752  1.2645  1.1983
   29MYC    H94 2118   5.452   6.133  10.238  0.1869  0.8033 -0.3938
   29MYC    C48 2119   5.644   6.207  10.258 -0.0052  0.7469 -0.0377
   29MYC    H91 2120   5.631   6.293  10.191 -0.4289  0.3993 -0.4043
   29MYC    H92 2121   5.748   6.177  10.239  0.2090  1.7844 -0.6222
   29MYC    C47 2122   5.639   6.255  10.408  0.2755 -0.4052  0.1666
   29MYC    H89 2123   5.610   6.166  10.466 -1.2498 -0.2541 -0.3042
   29MYC    H90 2124   5.548   6.314  10.428  0.1802 -0.5117  0.0529
   29MYC    C46 2125   5.768   6.320  10.449  0.0326  0.1613 -0.3706
   29MYC    H87 2126   5.784   6.408  10.385 -0.3125  1.6928  1.5221
   29MYC    H88 2127   5.859   6.262  10.430 -0.4607 -0.8602  0.3392
   29MYC    C45 2128   5.779   6.381  10.592 -0.2950 -0.0337 -0.0588
   29MYC    H85 2129   5.787   6.297  10.662 -0.7918 -0.8680 -0.9633
   29MYC    H86 2130   5.684   6.436  10.602 -0.3802  0.2753 -2.1231
   29MYC    C44 2131   5.891   6.483  10.611 -0.5229 -0.6380  0.0677
   29MYC    H83 2132   5.879   6.524  10.712  0.5534 -0.8283  0.2899
   29MYC    H84 2133   5.885   6.558  10.531 -1.5929 -0.4604  0.3008
   29MYC    C18 2134   6.028   6.418  10.605  0.1343  0.0250  0.0767
   29MYC    H31 2135   6.052   6.355  10.520  0.6716  2.1474 -1.4418
   29MYC    C17 2136   6.154   6.496  10.637  0.3546  0.4587  0.5776
   29MYC    H30 2137   6.148   6.597  10.675  1.0992  0.7860 -0.1418
   29MYC    C19 2138   6.107   6.385  10.734 -0.3321 -0.0108  0.6615
   29MYC    H32 2139   6.070   6.413  10.832 -2.7050 -0.1995 -0.1227
   29MYC    H33 2140   6.167   6.295  10.734  0.4248  0.4509 -1.0336
   29MYC    C16 2141   6.278   6.477  10.566 -1.0373  0.2198 -0.0788
   29MYC    H28 2142   6.302   6.376  10.529  0.8156  1.0200 -1.2699
   29MYC    H29 2143   6.360   6.498  10.636 -0.6724  0.6108 -0.6089
   29MYC    C15 2144   6.299   6.570  10.444 -0.0641  0.0794  0.2258
   29MYC    H26 2145   6.400   6.613  10.451  0.2210 -0.8253  3.1193
   29MYC    H27 2146   6.245   6.664  10.458  0.9043  0.2922  3.2826
   29MYC    C14 2147   6.296   6.494  10.306 -0.4717 -0.3794  1.4436
   29MYC    H24 2148   6.375   6.419  10.294 -0.9648 -0.5808 -1.4707
   29MYC    H25 2149   6.338   6.568  10.236  0.4884  0.7635  3.1567
   29MYC    C13 2150   6.167   6.428  10.259  0.2809  0.6662  0.3247
   29MYC    H22 2151   6.079   6.493  10.268  0.1070  0.1605  2.6979
   29MYC    H23 2152   6.158   6.340  10.322  1.6332  0.7521  0.6795
   29MYC    C12 2153   6.175   6.382  10.107 -0.0240  0.3989 -0.2377
   29MYC    H20 2154   6.267   6.327  10.085  0.1232 -0.3142  1.9535
   29MYC    H21 2155   6.186   6.476  10.052 -0.0992  0.4939 -0.0924
   29MYC    C11 2156   6.057   6.284  10.072 -0.3021 -0.3542 -0.0047
   29MYC    H18 2157   5.959   6.334  10.067  0.3820  1.0578  0.1885
   29MYC    H19 2158   6.060   6.205  10.149 -0.6250 -2.3227 -1.9054
   29MYC    C10 2159   6.070   6.236   9.925 -0.0400  0.2499  0.0286
   29MYC    H16 2160   6.167   6.185   9.924 -0.2105 -0.1318  1.2154
   29MYC    H17 2161   6.072   6.318   9.853 -1.6967  0.2536 -0.0544
   29MYC     C9 2162   5.955   6.152   9.896  0.6533  0.0238 -0.5752
   29MYC    H14 2163   5.859   6.203   9.913  0.3820  0.1424 -2.2825
   29MYC    H15 2164   5.955   6.067   9.966  0.7998  0.3921 -0.1213
   29MYC     C8 2165   5.953   6.097   9.747 -0.7230 -0.2766 -0.3989
   29MYC    H12 2166   5.866   6.034   9.726 -2.8469  2.4734 -0.4588
   29MYC    H13 2167   6.037   6.027   9.741 -0.2905  0.2181 -0.1972
   29MYC     C7 2168   5.974   6.191   9.635  0.6769 -0.2182  0.2551
   29MYC    H10 2169   6.072   6.239   9.645  0.2741  0.4265  1.2836
   29MYC    H11 2170   5.900   6.270   9.648  2.0078  1.3126 -1.1194
   29MYC     C6 2171   5.964   6.128   9.492  0.5165 -1.0816 -0.5608
   29MYC     H8 2172   5.869   6.074   9.486  0.0352 -0.4532  0.9972
   29MYC     H9 2173   6.037   6.049   9.471  0.5984 -1.1169 -0.1523
   29MYC     C5 2174   5.977   6.236   9.372 -0.3763  0.0211  0.7651
   29MYC     H6 2175   6.076   6.280   9.383 -2.0998  4.3762  0.9179
   29MYC     H7 2176   5.921   6.330   9.386 -0.2699  0.5306 -1.8074
   29MYC     C4 2177   5.944   6.178   9.229 -0.3564  0.0344 -0.0708
   29MYC     H4 2178   5.837   6.156   9.214 -0.4542  0.8619 -0.6627
   29MYC     H5 2179   5.994   6.081   9.222  0.8024  0.2558  3.3155
   29MYC     C2 2180   5.977   6.278   9.118  0.2208 -0.6015 -0.0302
   29MYC     H2 2181   5.919   6.369   9.139  0.2149 -0.7852  0.7668
   29MYC     O3 2182   6.115   6.319   9.118 -0.6826  0.1177  0.1150
   29MYC     H3 2183   6.171   6.240   9.124  1.5100  1.6997  1.8301
   29MYC     C1 2184   5.938   6.225   8.975  0.1958 -0.5872  0.2555
   29MYC     H1 2185   5.842   6.172   8.981  0.0774 -0.6557 -1.4944
   29MYC    C81 2186   6.028   6.111   8.929  0.4177 -0.3584 -0.6158
   29MYC    O82 2187   6.139   6.117   8.889 -0.0290 -0.0829  0.2562
   29MYC    O83 2188   5.980   5.991   8.969 -0.2879  0.1442 -0.1183
   29MYC   H105 2189   6.064   5.946   8.991 -0.7977 -2.1350 -2.3328
   29MYC    C20 2190   5.933   6.337   8.873  0.0702 -0.2842  0.1366
   29MYC    H34 2191   5.871   6.419   8.912  0.5001  0.9760 -1.6692
   29MYC    H35 2192   6.033   6.374   8.851  0.3313 -1.0251  0.0577
   29MYC    C21 2193   5.867   6.304   8.733 -0.0005  0.4993 -0.0678
   29MYC    H36 2194   5.868   6.393   8.669 -0.3128 -0.1227 -0.9550
   29MYC    H37 2195   5.939   6.233   8.693 -0.1107 -0.8515  1.9941
   29MYC    C22 2196   5.719   6.256   8.728  0.4419 -0.1518  0.2751
   29MYC    H38 2197   5.714   6.163   8.784  0.6079 -1.4405 -1.7533
   29MYC    H39 2198   5.654   6.325   8.782 -1.8470 -0.9472 -1.2963
   29MYC    C23 2199   5.659   6.224   8.595 -0.3829 -0.0101  0.5871
   29MYC    H40 2200   5.725   6.156   8.538 -0.1046 -0.3587  1.3099
   29MYC    H41 2201   5.571   6.160   8.598 -1.6128  1.5709 -0.4233
   29MYC    C24 2202   5.617   6.348   8.514  0.0612 -0.2942  1.1106
   29MYC    H42 2203   5.544   6.404   8.573  0.6709 -0.9890  2.5545
   29MYC    H43 2204   5.705   6.414   8.504  1.8199 -2.4079  1.8493
   29MYC    C25 2205   5.567   6.320   8.368  0.2341  0.1806 -0.3992
   29MYC    H44 2206   5.473   6.264   8.381  0.4320 -0.0230  0.1900
   29MYC    H45 2207   5.539   6.417   8.326 -0.0767  0.4802  0.4829
   29MYC    C26 2208   5.662   6.242   8.273  0.6747 -0.6280  0.2397
   29MYC    H46 2209   5.757   6.296   8.281  0.5087 -0.4197  0.8242
   29MYC    H47 2210   5.662   6.138   8.307 -0.8693 -1.6913 -2.6387
   29MYC    C27 2211   5.614   6.228   8.130  0.0569  0.5029 -0.2661
   29MYC    H48 2212   5.509   6.199   8.114  0.0629  0.6304 -0.5503
   29MYC    H49 2213   5.610   6.326   8.081 -1.0114  2.4357  3.3472
   29MYC    C28 2214   5.704   6.133   8.050 -0.2075  0.3872 -0.0110
   29MYC    H50 2215   5.808   6.163   8.064  0.1064 -0.6505 -0.0421
   29MYC    H51 2216   5.701   6.034   8.098 -3.6823  0.0969 -0.5535
   29MYC    C29 2217   5.686   6.132   7.893  0.1566 -0.3145 -0.3155
   29MYC    H52 2218   5.749   6.052   7.853  0.0206 -0.4881 -0.1880
   29MYC    H53 2219   5.586   6.090   7.876  0.9727 -4.1089  2.8043
   29MYC    C30 2220   5.714   6.263   7.819  0.6903  0.2790  0.6561
   29MYC    H54 2221   5.661   6.342   7.874 -0.4792 -0.1171  0.1505
   29MYC    H55 2222   5.815   6.301   7.836 -0.7236  5.4133 -0.4039
   29MYC    C31 2223   5.686   6.264   7.668 -0.6223 -0.1836 -0.6613
   29MYC    H56 2224   5.587   6.222   7.645 -0.5361 -0.3981 -0.6402
   29MYC    H57 2225   5.679   6.371   7.643  1.5725  0.2990  0.5453
   29MYC    C32 2226   5.793   6.200   7.575  0.0469 -0.5167  0.9162
   29MYC    H58 2227   5.884   6.261   7.571  1.0565 -2.0314 -0.2480
   29MYC    H59 2228   5.815   6.108   7.630 -1.4849  0.0381  2.5770
   29MYC    C33 2229   5.732   6.172   7.434  0.3736 -0.2898  0.1614
   29MYC    H60 2230   5.804   6.108   7.382 -0.5879 -0.1081 -1.4783
   29MYC    H61 2231   5.634   6.123   7.441  0.6888 -1.1577 -1.1579
   29MYC    C34 2232   5.704   6.309   7.354  0.5247 -0.1091 -0.5071
   29MYC    H62 2233   5.654   6.391   7.407 -0.9418 -1.8923  1.0156
   29MYC    H63 2234   5.800   6.362   7.348  0.9654 -0.8764 -0.3348
   29MYC    C35 2235   5.639   6.298   7.212  0.5686  0.4958 -0.0452
   29MYC    H64 2236   5.549   6.237   7.227  0.4091  0.8192  0.3373
   29MYC    H65 2237   5.614   6.397   7.171  0.5036  0.1597 -0.8398
   29MYC    C36 2238   5.725   6.223   7.103  0.2703 -0.0294 -0.5603
   29MYC    H66 2239   5.824   6.270   7.097 -0.1191  0.9412  0.3287
   29MYC    H67 2240   5.733   6.118   7.133  1.6402  0.1482 -0.2421
   29MYC    C37 2241   5.665   6.226   6.963 -0.0467 -0.3886  0.1274
   29MYC    H68 2242   5.577   6.161   6.960  0.4324 -1.0184 -0.4111
   29MYC    H69 2243   5.624   6.326   6.941 -0.0616  0.1566  2.3691
   29MYC    C38 2244   5.766   6.176   6.854  0.6763 -0.7953 -0.2352
   29MYC    H70 2245   5.857   6.236   6.836 -0.4853  0.9623 -0.4841
   29MYC    H71 2246   5.805   6.078   6.881  0.7809 -0.5459  0.5257
   29MYC    C39 2247   5.699   6.188   6.720 -0.0144 -0.0426  0.0953
   29MYC    H72 2248   5.631   6.103   6.706  0.5102 -0.4779  0.1557
   29MYC    H73 2249   5.652   6.286   6.707  1.2658  0.5252 -0.4662
   29MYC    C40 2250   5.804   6.173   6.607  0.0930  0.0223 -0.6160
   29MYC    H74 2251   5.875   6.255   6.617 -0.5647  0.3510  2.0790
   29MYC    H75 2252   5.867   6.086   6.630 -1.3493 -0.3895  2.1653
   29MYC    C41 2253   5.741   6.162   6.465  0.0632 -0.5632 -0.2639
   29MYC    H76 2254   5.673   6.246   6.446  0.4186 -0.1215  0.3600
   29MYC    H77 2255   5.826   6.183   6.399  0.1103 -1.1157 -0.3772
   29MYC    C42 2256   5.662   6.029   6.431 -0.2040 -0.5473  0.0888
   29MYC    H78 2257   5.573   6.031   6.494 -0.1702 -0.4654  0.1334
   29MYC    H79 2258   5.637   6.032   6.324  0.9149 -1.5231 -0.2207
   29MYC    C43 2259   5.743   5.901   6.462  0.1331  0.2179  0.0366
   29MYC    H80 2260   5.674   5.822   6.434  0.1502 -0.1925  1.0995
   29MYC    H81 2261   5.756   5.889   6.570  0.1405 -1.1986 -0.1076
   29MYC    H82 2262   5.842   5.884   6.417  0.8276 -0.9809  1.8861
   30MYC   HH15 2263   5.926   0.741   6.722  1.7433 -1.1514  0.7210
   30MYC    C80 2264   5.827   0.702   6.750  0.8169  0.3942 -0.2487
   30MYC   H100 2265   5.757   0.785   6.766 -0.6531 -0.7639 -0.4882
   30MYC   H101 2266   5.779   0.640   6.674  2.6637  0.3957 -1.4833
   30MYC    C79 2267   5.843   0.620   6.880 -1.0097  0.1847  0.5408
   30MYC   H102 2268   5.918   0.543   6.858 -0.6255 -0.3167  3.2964
   30MYC   H103 2269   5.751   0.564   6.902 -0.1839 -1.2676  0.4184
   30MYC    C78 2270   5.880   0.703   7.007  0.1801 -0.3382 -0.1205
   30MYC   HH14 2271   5.827   0.799   7.012 -1.8391 -1.4023 -0.3173
   30MYC   H104 2272   5.986   0.730   7.006  0.7946 -2.5701  0.3488
   30MYC    C77 2273   5.859   0.630   7.138 -0.1427  0.5707 -0.0950
   30MYC   H106 2274   5.908   0.532   7.138  1.5043  1.3480 -0.1771
   30MYC   H107 2275   5.753   0.606   7.142  0.0425 -0.5805 -1.4689
   30MYC    C76 2276   5.922   0.705   7.258  0.1637 -0.5584  0.2058
   30MYC   H108 2277   5.882   0.807   7.261  0.0365 -0.6113  2.7153
   30MYC   H109 2278   6.027   0.721   7.231  0.6050 -1.9427  0.9879
   30MYC    C75 2279   5.900   0.644   7.392  0.6249  0.6149  0.0316
   30MYC   H110 2280   5.962   0.554   7.386  0.4256  0.3610  1.5139
   30MYC   H111 2281   5.799   0.603   7.399  0.9546 -0.9149 -2.7488
   30MYC    C74 2282   5.942   0.723   7.518 -0.1153 -1.1397 -0.3640
   30MYC   H112 2283   5.884   0.816   7.523  1.0650 -0.3129 -1.4123
   30MYC   H113 2284   6.048   0.747   7.502 -0.0283 -1.2744  0.0100
   30MYC    C73 2285   5.916   0.644   7.654  0.0028  0.2412 -0.0390
   30MYC   HH13 2286   5.941   0.542   7.625  1.4553  1.1425 -2.2435
   30MYC   H114 2287   5.812   0.640   7.687  0.1643 -2.4267  0.3117
   30MYC    C72 2288   5.995   0.701   7.777  0.2944  0.8332 -0.1528
   30MYC   H115 2289   5.967   0.805   7.799 -0.4782  0.1597  2.4039
   30MYC   H116 2290   6.102   0.698   7.752  0.1643 -1.5019 -0.6142
   30MYC    C71 2291   5.986   0.620   7.913  0.3998  0.3822  0.0306
   30MYC   H117 2292   6.026   0.519   7.905 -0.4758  0.0793 -0.7163
   30MYC   H118 2293   5.880   0.608   7.938  0.6095  0.2086  0.8495
   30MYC    C70 2294   6.056   0.703   8.022 -0.1988 -0.1759 -0.1336
   30MYC   H119 2295   5.989   0.787   8.041 -1.0232 -1.0136  0.8156
   30MYC   H120 2296   6.151   0.750   7.994 -0.4729  1.8612  2.0576
   30MYC    C69 2297   6.076   0.632   8.149 -0.6535 -0.1101  0.3870
   30MYC   H121 2298   6.145   0.548   8.131  0.3548  0.1011  2.8849
   30MYC   H122 2299   5.978   0.591   8.174 -0.8022  0.6220  1.0400
   30MYC    C68 2300   6.132   0.710   8.269 -0.1765  0.4853 -0.0760
   30MYC   HH12 2301   6.065   0.796   8.283  0.4239  1.1665 -1.3167
   30MYC   H123 2302   6.229   0.747   8.234 -0.6970  1.1108 -0.8881
   30MYC    C67 2303   6.140   0.631   8.401 -0.3604 -0.6428  0.1258
   30MYC   H124 2304   6.210   0.548   8.391  1.1469  0.1960  2.7777
   30MYC   H125 2305   6.038   0.594   8.417 -0.6474 -0.2672 -0.7900
   30MYC    C66 2306   6.192   0.702   8.526 -0.8107  0.2110  0.4653
   30MYC   H126 2307   6.144   0.800   8.532  1.2298  1.3282 -0.5055
   30MYC   H127 2308   6.295   0.735   8.509 -1.3673  0.9092 -1.8310
   30MYC    C65 2309   6.184   0.619   8.652 -0.0319 -0.3554  0.4171
   30MYC   H128 2310   6.227   0.522   8.626 -1.1201 -0.5293 -0.8434
   30MYC   H129 2311   6.080   0.598   8.682  0.0975 -1.2535  0.2609
   30MYC    C64 2312   6.250   0.681   8.774  0.9761  0.1858 -0.3760
   30MYC   H130 2313   6.179   0.747   8.826 -0.9320 -0.7229 -1.7220
   30MYC   H131 2314   6.334   0.740   8.736  0.8257 -0.1338 -1.2174
   30MYC    C63 2315   6.294   0.579   8.883 -0.6549 -0.0789  0.0840
   30MYC   HH11 2316   6.361   0.506   8.836  1.5136  1.3259  0.8353
   30MYC   H132 2317   6.206   0.521   8.913 -1.5775  0.9289 -0.6286
   30MYC    C62 2318   6.366   0.649   8.997  0.9884  0.3384 -0.0260
   30MYC   H133 2319   6.296   0.727   9.031  0.3808 -0.7253  1.2264
   30MYC   H134 2320   6.452   0.708   8.964  0.3200  0.9778 -0.6650
   30MYC    C61 2321   6.415   0.543   9.102  0.3453 -0.4230  0.2891
   30MYC   H135 2322   6.504   0.491   9.064  0.2987 -0.0215 -0.3955
   30MYC   H136 2323   6.339   0.466   9.117  0.5334 -1.2287 -2.3732
   30MYC    C60 2324   6.462   0.605   9.237  0.0996  0.8402 -0.7123
   30MYC   H137 2325   6.382   0.636   9.304 -0.2121  1.1248 -1.2098
   30MYC    C58 2326   6.587   0.562   9.313 -1.2845  0.1159  0.2629
   30MYC   H138 2327   6.652   0.489   9.265 -2.7975 -1.4634  0.5308
   30MYC    C59 2328   6.589   0.693   9.226  0.4166 -0.2519 -0.3554
   30MYC   H139 2329   6.584   0.790   9.275  1.7865 -0.4712  0.2672
   30MYC   H140 2330   6.643   0.688   9.132 -0.8381 -0.6603 -1.0749
   30MYC    C57 2331   6.588   0.558   9.470 -0.5243  0.3134 -0.0015
   30MYC   HH10 2332   6.522   0.478   9.506  2.9561 -2.1803  1.4820
   30MYC   H141 2333   6.553   0.650   9.518 -0.2862  0.7576 -0.6576
   30MYC    C56 2334   6.726   0.522   9.540  0.4901  0.1302  0.6558
   30MYC   H142 2335   6.801   0.592   9.503 -1.4949  0.8715 -2.3481
   30MYC   H143 2336   6.747   0.416   9.524 -0.5923 -0.1401  0.9172
   30MYC    C55 2337   6.701   0.527   9.689  0.3747 -0.1056 -0.4025
   30MYC   H144 2338   6.612   0.471   9.719 -0.2137 -0.1557 -2.1693
   30MYC   H145 2339   6.683   0.632   9.717 -1.2402 -0.7495  1.1975
   30MYC    C54 2340   6.829   0.475   9.770 -0.3971  0.5763  0.1333
   30MYC   H146 2341   6.917   0.522   9.724 -1.2346  1.9130 -0.1795
   30MYC   H147 2342   6.844   0.368   9.754 -1.2896  0.1469  1.9194
   30MYC    C53 2343   6.821   0.499   9.921 -0.3185  0.1085  0.1520
   30MYC   H148 2344   6.901   0.431   9.951 -0.3813 -0.3476 -0.6982
   30MYC   H149 2345   6.725   0.461   9.956  0.7601 -1.1620  1.8728
   30MYC    C52 2346   6.850   0.642   9.977 -0.1078 -0.3148 -0.2677
   30MYC    H99 2347   6.790   0.721   9.930  2.3895  2.7454  1.3236
   30MYC   H150 2348   6.954   0.672   9.959 -0.9535  1.7429 -2.1150
   30MYC    C51 2349   6.821   0.645  10.126 -0.3548 -0.0832 -1.0032
   30MYC    H97 2350   6.718   0.610  10.141 -0.5499  1.2910  1.3193
   30MYC    H98 2351   6.821   0.746  10.168 -0.8854 -0.6418  0.4088
   30MYC    C50 2352   6.906   0.552  10.212 -0.5942 -0.6546  0.6054
   30MYC    H95 2353   7.014   0.567  10.205 -0.4978 -1.3599  0.4931
   30MYC    H96 2354   6.903   0.448  10.176 -2.9101 -0.4420 -0.0039
   30MYC    C49 2355   6.866   0.560  10.365  0.3420 -0.3415 -0.7753
   30MYC    H93 2356   6.909   0.471  10.411 -0.8328 -1.3865 -1.6106
   30MYC    H94 2357   6.757   0.552  10.379  0.6193 -1.0413  1.3103
   30MYC    C48 2358   6.927   0.676  10.451  0.2807 -0.1496  0.1761
   30MYC    H91 2359   6.884   0.775  10.429 -2.4667 -1.1185  0.7229
   30MYC    H92 2360   7.035   0.671  10.440  0.5329 -0.3844  2.3863
   30MYC    C47 2361   6.886   0.648  10.601 -0.1537 -0.1981  0.9821
   30MYC    H89 2362   6.931   0.553  10.632  0.5906 -0.0209  0.4780
   30MYC    H90 2363   6.778   0.657  10.617 -0.0804  1.7527  0.7161
   30MYC    C46 2364   6.946   0.744  10.694 -0.5258  0.4292  0.3197
   30MYC    H87 2365   6.918   0.848  10.674 -0.1179  0.7340  1.2554
   30MYC    H88 2366   7.055   0.743  10.692 -0.4901  0.9135 -2.7203
   30MYC    C45 2367   6.921   0.714  10.843  0.2099 -0.2758  0.0880
   30MYC    H85 2368   6.977   0.625  10.873  1.8917  1.5603  2.9308
   30MYC    H86 2369   6.814   0.691  10.852  0.5223 -1.2096  1.8457
   30MYC    C44 2370   6.970   0.830  10.932  0.4560 -0.5597 -0.0747
   30MYC    H83 2371   6.939   0.811  11.035  1.0944 -2.1417 -0.1472
   30MYC    H84 2372   6.911   0.919  10.906 -0.1533 -1.0280 -0.3144
   30MYC    C18 2373   7.119   0.849  10.926 -0.0016 -0.1970 -0.1351
   30MYC    H31 2374   7.164   0.750  10.933  0.8539  0.1572 -0.5913
   30MYC    C17 2375   7.184   0.959  10.845 -0.1490 -0.0054  0.2014
   30MYC    H30 2376   7.110   1.020  10.793 -0.4346 -0.0504  0.5527
   30MYC    C19 2377   7.187   0.961  10.993 -0.9074 -0.0408  0.0012
   30MYC    H32 2378   7.133   1.049  11.029 -1.5070  0.0329 -1.0518
   30MYC    H33 2379   7.270   0.944  11.061 -1.5399  0.2372  0.8791
   30MYC    C16 2380   7.308   0.931  10.764 -0.2153  0.2226  0.5504
   30MYC    H28 2381   7.341   0.829  10.785  0.2153  0.3041  0.2700
   30MYC    H29 2382   7.388   1.001  10.790 -0.6833  0.5417  1.1659
   30MYC    C15 2383   7.292   0.953  10.614  0.7946 -0.5670  0.9072
   30MYC    H26 2384   7.277   1.059  10.595 -2.1246 -1.1799 -0.7394
   30MYC    H27 2385   7.204   0.902  10.573  1.5806 -0.5237 -0.9332
   30MYC    C14 2386   7.416   0.923  10.518  0.7575  0.1310  0.0221
   30MYC    H24 2387   7.446   0.821  10.546  1.4128  0.9968  2.7756
   30MYC    H25 2388   7.500   0.983  10.553 -0.4113  0.5357  2.3219
   30MYC    C13 2389   7.395   0.948  10.369 -0.2157  0.3327 -0.5985
   30MYC    H22 2390   7.485   0.914  10.316  0.1429  2.1546 -1.2447
   30MYC    H23 2391   7.379   1.054  10.348  1.3577  0.3316 -2.0735
   30MYC    C12 2392   7.271   0.873  10.317 -0.0460 -0.2862 -0.0652
   30MYC    H20 2393   7.181   0.934  10.331  0.2489  0.0070  0.6339
   30MYC    H21 2394   7.256   0.779  10.372  0.0520  0.2583  0.9173
   30MYC    C11 2395   7.293   0.840  10.164  0.2244  0.2508 -0.3912
   30MYC    H18 2396   7.354   0.916  10.114 -1.0373 -0.1162 -2.6138
   30MYC    H19 2397   7.198   0.856  10.111  1.3287  1.9778 -1.9767
   30MYC    C10 2398   7.357   0.707  10.142  0.3269  0.2930  0.6473
   30MYC    H16 2399   7.293   0.630  10.188  1.0854 -1.5769 -1.2231
   30MYC    H17 2400   7.452   0.700  10.195  0.1462 -2.2284  0.7758
   30MYC     C9 2401   7.394   0.678   9.999 -0.3834 -0.0533  0.0954
   30MYC    H14 2402   7.464   0.757   9.969 -0.6205  0.1224  0.0042
   30MYC    H15 2403   7.311   0.688   9.928 -2.1426  1.6752  2.2314
   30MYC     C8 2404   7.465   0.543   9.980 -0.4960  0.3532  1.3132
   30MYC    H12 2405   7.550   0.550  10.049 -0.1646 -0.5958  1.0213
   30MYC    H13 2406   7.490   0.515   9.877  0.3626 -0.9219  1.8324
   30MYC     C7 2407   7.384   0.422  10.021  0.1828  0.0571 -0.1548
   30MYC    H10 2408   7.382   0.421  10.130  3.0485 -0.4912 -0.0356
   30MYC    H11 2409   7.439   0.333   9.987 -1.4682 -1.2419  0.4320
   30MYC     C6 2410   7.237   0.403   9.948  0.6145  0.5209 -0.1509
   30MYC     H8 2411   7.254   0.397   9.840  4.1665 -2.2450  0.4027
   30MYC     H9 2412   7.170   0.486   9.975  0.1757  0.0644  0.1810
   30MYC     C5 2413   7.160   0.271   9.984  0.2769  0.3839 -0.6326
   30MYC     H6 2414   7.059   0.273   9.941 -1.0749 -0.6308  2.2794
   30MYC     H7 2415   7.141   0.267  10.092  1.8941 -2.2644 -0.3719
   30MYC     C4 2416   7.218   0.130   9.929 -0.4504 -0.4436  0.1270
   30MYC     H4 2417   7.160   0.044   9.965  0.0220 -1.1029 -0.6320
   30MYC     H5 2418   7.322   0.115   9.962 -0.7888 -2.0182  0.5575
   30MYC     C2 2419   7.216   0.128   9.775 -0.2476 -0.0110 -0.3015
   30MYC     H2 2420   7.291   0.200   9.741  1.3538 -1.3196  0.3410
   30MYC     O3 2421   7.279   0.007   9.730  0.2941 -0.1085 -0.0810
   30MYC     H3 2422   7.370   0.012   9.763  0.1932 -3.1979  1.0486
   30MYC     C1 2423   7.089   0.165   9.692 -0.0592  0.5055  0.0001
   30MYC     H1 2424   7.056   0.265   9.723 -0.0547  0.4775  0.0972
   30MYC    C81 2425   6.974   0.057   9.704  0.3882 -0.1588  0.6669
   30MYC    O82 2426   6.983  -0.059   9.680 -0.3066  0.4275 -0.2800
   30MYC    O83 2427   6.876   0.108   9.780 -0.2025 -0.0812 -0.0033
   30MYC   H105 2428   6.825   0.030   9.809 -0.4507 -0.0674 -0.4013
   30MYC    C20 2429   7.135   0.186   9.547  0.4316  0.0785 -0.4634
   30MYC    H34 2430   7.234   0.230   9.530  0.7777 -0.0908  0.9752
   30MYC    H35 2431   7.173   0.089   9.514 -0.6550 -0.5441  0.0424
   30MYC    C21 2432   7.025   0.236   9.448 -0.6570  0.1902  0.4344
   30MYC    H36 2433   7.049   0.177   9.359  0.2953  2.5682 -0.9771
   30MYC    H37 2434   6.917   0.216   9.454 -1.1662  2.1656 -1.1247
   30MYC    C22 2435   7.036   0.381   9.396  0.6507 -0.7628  0.8579
   30MYC    H38 2436   7.008   0.457   9.471 -3.8232  2.8960 -3.7993
   30MYC    H39 2437   7.137   0.407   9.363 -0.2095  1.1829 -0.4279
   30MYC    C23 2438   6.956   0.417   9.262 -0.3535 -0.4907 -0.7266
   30MYC    H40 2439   6.859   0.367   9.277  0.9807 -2.8748  0.4945
   30MYC    H41 2440   6.936   0.525   9.250 -0.5927 -0.3670  0.5922
   30MYC    C24 2441   7.046   0.383   9.141  1.3326 -0.2066  0.0195
   30MYC    H42 2442   7.122   0.461   9.128 -0.9928  1.9500 -1.3631
   30MYC    H43 2443   7.102   0.290   9.157  2.2725  0.3461  0.0144
   30MYC    C25 2444   6.968   0.353   9.016 -0.1766  0.7780  0.7725
   30MYC    H44 2445   7.035   0.323   8.935  0.0871  1.3469  0.7733
   30MYC    H45 2446   6.907   0.263   9.021  0.2352  0.5104  1.0274
   30MYC    C26 2447   6.889   0.474   8.964  0.4586  0.5189 -0.0857
   30MYC    H46 2448   6.808   0.516   9.026 -0.8493 -2.0764  0.1446
   30MYC    H47 2449   6.962   0.553   8.947 -0.0254  0.6484 -1.6795
   30MYC    C27 2450   6.825   0.446   8.827 -0.0898 -0.2792  0.1567
   30MYC    H48 2451   6.893   0.405   8.751 -0.7844  0.6091 -0.9770
   30MYC    H49 2452   6.748   0.368   8.832 -3.0621  2.3829 -0.6276
   30MYC    C28 2453   6.769   0.577   8.765 -0.2710 -0.2238  0.2512
   30MYC    H50 2454   6.724   0.634   8.847 -2.2008 -3.2743  1.4997
   30MYC    H51 2455   6.856   0.630   8.724  0.0806 -1.9190 -1.3223
   30MYC    C29 2456   6.657   0.579   8.655  0.7216  0.0523  0.8475
   30MYC    H52 2457   6.579   0.506   8.675 -0.0025  1.4378  3.6482
   30MYC    H53 2458   6.608   0.676   8.664  0.9361 -0.0250  4.1628
   30MYC    C30 2459   6.703   0.556   8.515 -0.5392 -0.1694 -0.6168
   30MYC    H54 2460   6.764   0.642   8.484 -0.3595 -1.1944 -3.3950
   30MYC    H55 2461   6.775   0.474   8.513 -1.1524 -0.7157 -0.4356
   30MYC    C31 2462   6.591   0.548   8.403 -0.3294  0.3822 -0.6744
   30MYC    H56 2463   6.539   0.453   8.413  0.9364 -0.2247  0.5049
   30MYC    H57 2464   6.518   0.627   8.424 -2.7441 -1.3753 -1.9744
   30MYC    C32 2465   6.640   0.560   8.258 -0.3736 -0.2205 -0.2405
   30MYC    H58 2466   6.678   0.661   8.239 -1.3501  0.2487  0.2143
   30MYC    H59 2467   6.714   0.483   8.235 -0.0290  0.1264 -0.2950
   30MYC    C33 2468   6.516   0.542   8.166 -0.0588 -0.2652 -0.8677
   30MYC    H60 2469   6.463   0.448   8.184 -0.0560 -0.1695 -0.3408
   30MYC    H61 2470   6.437   0.611   8.196 -0.3897 -0.7769 -0.5421
   30MYC    C34 2471   6.562   0.555   8.016  0.1064 -0.0618 -0.2119
   30MYC    H62 2472   6.586   0.659   7.992  0.0821 -0.2035 -0.8560
   30MYC    H63 2473   6.647   0.486   8.000 -1.6875 -2.0687 -1.7386
   30MYC    C35 2474   6.459   0.497   7.911  0.9190 -0.7578 -0.2915
   30MYC    H64 2475   6.456   0.388   7.912 -1.0774 -0.7275  1.2722
   30MYC    H65 2476   6.360   0.528   7.943  0.7600 -1.8289  0.2893
   30MYC    C36 2477   6.478   0.565   7.761  0.7441  0.2919 -0.8624
   30MYC    H66 2478   6.451   0.671   7.761  0.3957  0.2086 -0.1045
   30MYC    H67 2479   6.584   0.554   7.734  0.5534  0.4471 -1.7007
   30MYC    C37 2480   6.393   0.485   7.662 -0.0636 -0.1636  0.2977
   30MYC    H68 2481   6.442   0.387   7.657 -1.1336 -0.7034  0.1260
   30MYC    H69 2482   6.292   0.472   7.704  0.7174 -4.4354  1.2788
   30MYC    C38 2483   6.396   0.552   7.526  0.1847  0.5988 -0.4326
   30MYC    H70 2484   6.355   0.653   7.540  1.0607  1.1215 -1.4763
   30MYC    H71 2485   6.502   0.556   7.498  0.5467 -1.8157  0.3932
   30MYC    C39 2486   6.331   0.468   7.409 -0.3387  0.0101 -0.1622
   30MYC    H72 2487   6.376   0.368   7.396  0.9488  0.5739 -0.1837
   30MYC    H73 2488   6.225   0.447   7.425 -0.8423  1.1141 -1.8162
   30MYC    C40 2489   6.337   0.543   7.273  0.6780  0.2025 -0.5031
   30MYC    H74 2490   6.285   0.640   7.280  1.9868  0.8190  1.3073
   30MYC    H75 2491   6.441   0.566   7.249  0.6244 -1.6440 -2.9420
   30MYC    C41 2492   6.268   0.462   7.160 -0.6907  0.1767  0.4441
   30MYC    H76 2493   6.312   0.362   7.168  2.6323  1.6021  2.1042
   30MYC    H77 2494   6.161   0.441   7.173 -1.1791  0.3577 -2.6946
   30MYC    C42 2495   6.289   0.516   7.017  0.5188  0.2944  0.3916
   30MYC    H78 2496   6.241   0.614   7.010 -3.6164 -1.3455  2.8040
   30MYC    H79 2497   6.398   0.524   7.003  0.3438  0.8386 -0.7445
   30MYC    C43 2498   6.236   0.431   6.896  0.4909  0.8965 -0.5209
   30MYC    H80 2499   6.127   0.444   6.888  0.6735  2.8771 -0.1641
   30MYC    H81 2500   6.262   0.324   6.899 -0.3093  0.7182  0.9685
   30MYC    H82 2501   6.285   0.477   6.810  0.2658 -1.9430 -2.3179
   31MYC   HH15 2502   0.229   0.989   7.156 -0.7426 -1.6327  0.1140
   31MYC    C80 2503   0.296   0.930   7.092  0.4529 -0.0387 -0.2021
   31MYC   H100 2504   0.266   0.961   6.992 -0.6103 -2.4211 -0.7123
   31MYC   H101 2505   0.404   0.942   7.105  0.3080 -0.2802  1.5449
   31MYC    C79 2506   0.268   0.786   7.128 -0.1903 -0.6389  0.2750
   31MYC   H102 2507   0.317   0.720   7.056  1.6858  0.8471  0.1121
   31MYC   H103 2508   0.159   0.774   7.134 -0.3932  1.4721  2.1419
   31MYC    C78 2509   0.321   0.744   7.264  0.5871 -0.4603  0.3180
   31MYC   HH14 2510   0.428   0.734   7.244 -0.0485 -0.3468 -4.2308
   31MYC   H104 2511   0.283   0.645   7.290 -1.0444 -0.6522 -2.3820
   31MYC    C77 2512   0.287   0.840   7.379  0.1585  0.1272  0.2094
   31MYC   H106 2513   0.179   0.858   7.387 -0.0062 -0.2436 -0.9624
   31MYC   H107 2514   0.323   0.942   7.364  0.5000  0.1668  1.2110
   31MYC    C76 2515   0.345   0.767   7.513  0.3852 -0.6933 -0.6195
   31MYC   H108 2516   0.448   0.733   7.499  0.7717 -1.0626  2.5277
   31MYC   H109 2517   0.289   0.674   7.532 -1.9438  0.8831  0.6553
   31MYC    C75 2518   0.332   0.852   7.641 -0.2314  0.6864 -0.2392
   31MYC   H110 2519   0.224   0.872   7.645 -0.6307 -0.2755 -3.3484
   31MYC   H111 2520   0.365   0.955   7.629 -0.0337  0.7313  0.5870
   31MYC    C74 2521   0.387   0.790   7.775  0.0808 -0.1857  0.7765
   31MYC   H112 2522   0.492   0.769   7.750 -0.0083  0.0849  0.1589
   31MYC   H113 2523   0.338   0.693   7.787 -1.1428  0.4807  1.3472
   31MYC    C73 2524   0.367   0.866   7.909 -0.7037  0.1691 -0.1136
   31MYC   HH13 2525   0.263   0.873   7.941 -1.0275 -0.4904 -0.9716
   31MYC   H114 2526   0.396   0.970   7.895  0.1745 -0.1876 -1.0944
   31MYC    C72 2527   0.449   0.803   8.022  0.0332  0.2398 -0.3223
   31MYC   H115 2528   0.552   0.776   7.994  0.1382 -0.6825  0.8709
   31MYC   H116 2529   0.415   0.702   8.046 -0.4886  0.1051 -1.5690
   31MYC    C71 2530   0.446   0.895   8.150  0.3785  0.3433 -0.2570
   31MYC   H117 2531   0.344   0.917   8.184  0.3029  0.4204 -0.5295
   31MYC   H118 2532   0.476   0.995   8.115 -2.2145  1.2613 -0.0911
   31MYC    C70 2533   0.537   0.850   8.267  0.8086 -0.5216  0.6506
   31MYC   H119 2534   0.639   0.836   8.230  0.3967 -1.6000 -0.1252
   31MYC   H120 2535   0.508   0.751   8.302 -0.1444 -1.6383 -2.8972
   31MYC    C69 2536   0.541   0.967   8.381 -0.2376  0.5665  0.1226
   31MYC   H121 2537   0.439   0.969   8.423 -0.6497  2.9705 -0.8127
   31MYC   H122 2538   0.555   1.068   8.340 -0.7232  0.8465  0.6291
   31MYC    C68 2539   0.659   0.926   8.473  0.0343  0.1946  0.1865
   31MYC   HH12 2540   0.679   1.007   8.543  1.9851  0.1553 -0.2705
   31MYC   H123 2541   0.752   0.907   8.418 -0.9783 -0.3594 -1.3996
   31MYC    C67 2542   0.624   0.789   8.551  0.2255 -0.4207  0.6797
   31MYC   H124 2543   0.612   0.705   8.481 -1.7317  0.1625  0.2499
   31MYC   H125 2544   0.530   0.784   8.607  0.8889 -3.2400  1.7391
   31MYC    C66 2545   0.726   0.740   8.653 -1.2827 -0.1296  0.7510
   31MYC   H126 2546   0.829   0.723   8.618 -1.2406 -1.5482  1.4996
   31MYC   H127 2547   0.696   0.638   8.678 -1.2219 -0.5070 -0.6498
   31MYC    C65 2548   0.723   0.827   8.783 -0.7389 -0.1564  0.3118
   31MYC   H128 2549   0.620   0.834   8.819 -1.4547  0.6568 -1.7553
   31MYC   H129 2550   0.767   0.925   8.764  0.4377 -0.8453 -0.6826
   31MYC    C64 2551   0.813   0.754   8.886 -0.0572  0.0924 -0.8674
   31MYC   H130 2552   0.913   0.738   8.843  0.3048  0.9652 -0.3713
   31MYC   H131 2553   0.761   0.662   8.918  2.7906 -1.3917 -0.1645
   31MYC    C63 2554   0.831   0.835   9.018  0.2541  0.2426  0.1900
   31MYC   HH11 2555   0.751   0.905   9.045  0.1546  1.3907 -2.7155
   31MYC   H132 2556   0.902   0.919   9.008 -0.9964  1.1370 -1.6872
   31MYC    C62 2557   0.865   0.738   9.139 -0.6182  0.7085 -0.4596
   31MYC   H133 2558   0.958   0.687   9.111  0.5037  1.9667  0.8408
   31MYC   H134 2559   0.786   0.664   9.155 -0.2580  0.2474 -0.7837
   31MYC    C61 2560   0.882   0.805   9.270 -0.2472 -0.4974 -0.4763
   31MYC   H135 2561   0.777   0.825   9.298 -0.6583  1.7119 -3.1558
   31MYC   H136 2562   0.916   0.906   9.248 -2.6460  0.7767  1.2058
   31MYC    C60 2563   0.959   0.716   9.380  0.1202 -0.1488  0.1963
   31MYC   H137 2564   1.064   0.707   9.355  0.2351  0.4366  0.4442
   31MYC    C58 2565   0.936   0.744   9.523 -0.7705 -0.5770  0.5833
   31MYC   H138 2566   0.878   0.834   9.535 -3.3882 -2.0006 -0.6187
   31MYC    C59 2567   0.879   0.616   9.463  0.2544  0.3029 -0.1330
   31MYC   H139 2568   0.925   0.519   9.475 -0.0007  0.3546  1.4274
   31MYC   H140 2569   0.775   0.607   9.433  0.1938  0.3793  0.0506
   31MYC    C57 2570   1.048   0.730   9.624  0.2323 -0.8092  0.2548
   31MYC   HH10 2571   1.103   0.635   9.620  2.4057  0.4366 -0.9853
   31MYC   H141 2572   0.997   0.749   9.720 -1.7073  0.8922 -1.0262
   31MYC    C56 2573   1.159   0.840   9.624  0.3193  0.2093  0.6180
   31MYC   H142 2574   1.117   0.935   9.588  0.4340  0.1440  0.3135
   31MYC   H143 2575   1.242   0.812   9.559 -0.7116  1.3834 -1.3252
   31MYC    C55 2576   1.212   0.874   9.768  0.8012  0.0249  0.1780
   31MYC   H144 2577   1.243   0.778   9.811  0.9762  0.0517  0.1152
   31MYC   H145 2578   1.122   0.914   9.817  2.3563  0.1125  3.2359
   31MYC    C54 2579   1.328   0.973   9.773  0.1954 -0.3695  0.1605
   31MYC   H146 2580   1.333   1.044   9.690  2.0151  0.7973  1.1718
   31MYC   H147 2581   1.419   0.913   9.763  0.7310  0.6481 -1.4955
   31MYC    C53 2582   1.347   1.038   9.901  0.3289 -0.4026  0.4815
   31MYC   H148 2583   1.447   1.084   9.896 -0.0669  0.5007  0.7413
   31MYC   H149 2584   1.329   0.968   9.983 -3.3987 -0.0695  0.0996
   31MYC    C52 2585   1.248   1.153   9.939  0.3351 -0.2164  0.3920
   31MYC    H99 2586   1.145   1.116   9.948  0.2456  0.1297  0.8510
   31MYC   H150 2587   1.245   1.218   9.851 -0.1977 -0.3316  0.3206
   31MYC    C51 2588   1.292   1.238  10.062  0.4699  0.0565  0.0454
   31MYC    H97 2589   1.226   1.326  10.069  0.2620 -0.1736  1.4276
   31MYC    H98 2590   1.389   1.283  10.037 -0.5327  1.3567 -1.7252
   31MYC    C50 2591   1.291   1.174  10.196  0.0865  0.5602 -0.1696
   31MYC    H95 2592   1.370   1.100  10.210 -0.1126  0.3839  0.0317
   31MYC    H96 2593   1.201   1.111  10.200  1.0476 -1.3261 -3.6192
   31MYC    C49 2594   1.301   1.272  10.317  0.1737  0.1000  0.6311
   31MYC    H93 2595   1.220   1.346  10.314  0.0047 -0.1014 -0.8251
   31MYC    H94 2596   1.388   1.338  10.306  0.8658 -0.9228 -0.2333
   31MYC    C48 2597   1.305   1.203  10.448  0.1837 -0.0694  0.5132
   31MYC    H91 2598   1.387   1.133  10.432 -0.2345 -0.1946 -1.2954
   31MYC    H92 2599   1.215   1.143  10.467  0.9849 -1.2979  0.4997
   31MYC    C47 2600   1.321   1.308  10.570 -0.0021 -0.0100 -0.0929
   31MYC    H89 2601   1.226   1.353  10.600  0.3842  0.4811  0.4238
   31MYC    H90 2602   1.384   1.387  10.526 -1.6665  1.0150 -0.7358
   31MYC    C46 2603   1.386   1.249  10.699 -0.3176  0.5619 -0.0328
   31MYC    H87 2604   1.396   1.326  10.776  1.3982 -0.1466  0.4982
   31MYC    H88 2605   1.492   1.233  10.675 -0.5308 -0.3999 -0.3842
   31MYC    C45 2606   1.326   1.118  10.756 -0.5617 -0.4503  0.3599
   31MYC    H85 2607   1.345   1.042  10.680  1.9089 -1.2045  1.6160
   31MYC    H86 2608   1.219   1.128  10.780 -1.0111  0.4839 -1.8186
   31MYC    C44 2609   1.413   1.082  10.877  1.0840  0.9213 -0.4624
   31MYC    H83 2610   1.443   1.171  10.933  1.0341  0.6360  0.0195
   31MYC    H84 2611   1.501   1.026  10.843  3.3209  0.9496  4.4694
   31MYC    C18 2612   1.330   0.985  10.966 -0.7567  0.0679 -0.4263
   31MYC    H31 2613   1.309   0.894  10.909 -1.7297 -0.0490  0.1075
   31MYC    C17 2614   1.369   0.963  11.117 -0.1332 -0.2171 -0.0045
   31MYC    H30 2615   1.444   1.022  11.170 -0.3889 -0.0020  0.1212
   31MYC    C19 2616   1.233   1.026  11.074 -0.1642 -0.2471  0.8429
   31MYC    H32 2617   1.226   1.131  11.101 -1.3548 -0.0321 -0.1877
   31MYC    H33 2618   1.147   0.959  11.079  0.2766 -1.2653 -2.7163
   31MYC    C16 2619   1.370   0.819  11.169 -0.4293  0.5854  0.2957
   31MYC    H28 2620   1.321   0.747  11.102 -2.5641  1.8814  0.3703
   31MYC    H29 2621   1.315   0.813  11.263  0.5261 -0.7856  0.8005
   31MYC    C15 2622   1.509   0.761  11.179 -0.6682 -0.8070  0.3326
   31MYC    H26 2623   1.500   0.672  11.243 -2.3728 -1.4500 -0.7337
   31MYC    H27 2624   1.584   0.827  11.223  0.7756 -0.9398 -1.7933
   31MYC    C14 2625   1.577   0.720  11.050 -0.0194 -0.4134  0.0148
   31MYC    H24 2626   1.607   0.809  10.994 -0.3065 -0.2129  0.1772
   31MYC    H25 2627   1.495   0.670  10.996 -1.7471  0.4611  1.7087
   31MYC    C13 2628   1.691   0.619  11.055  0.1976  0.1304  0.0799
   31MYC    H22 2629   1.657   0.532  11.113 -2.2009  2.0875  1.8548
   31MYC    H23 2630   1.771   0.655  11.121  0.6654  0.6946 -0.7798
   31MYC    C12 2631   1.757   0.585  10.923 -0.1247  0.4361  0.0972
   31MYC    H20 2632   1.859   0.549  10.939  0.1410 -0.7612 -3.3915
   31MYC    H21 2633   1.772   0.676  10.865  1.1571  0.5461  0.5767
   31MYC    C11 2634   1.677   0.489  10.831 -0.1787 -0.1357  0.1578
   31MYC    H18 2635   1.571   0.502  10.858  0.0490 -0.2514  1.1362
   31MYC    H19 2636   1.691   0.383  10.853 -1.5802 -0.7163 -1.4700
   31MYC    C10 2637   1.686   0.507  10.678  0.3390  0.4163  0.3569
   31MYC    H16 2638   1.632   0.425  10.629  0.5189  1.5949 -1.9369
   31MYC    H17 2639   1.786   0.487  10.638  0.1185  1.8813 -1.0419
   31MYC     C9 2640   1.622   0.638  10.613 -0.2072  0.2544  0.3756
   31MYC    H14 2641   1.629   0.632  10.504 -3.2588 -0.9050  0.1657
   31MYC    H15 2642   1.671   0.730  10.647 -0.1965  0.8108 -1.0798
   31MYC     C8 2643   1.468   0.664  10.635  0.0930  0.3663  0.0730
   31MYC    H12 2644   1.452   0.677  10.743 -2.7227 -0.4968 -0.1569
   31MYC    H13 2645   1.401   0.582  10.608  0.9155  0.2042 -1.5837
   31MYC     C7 2646   1.411   0.796  10.569 -0.0778 -0.0452 -0.7207
   31MYC    H10 2647   1.479   0.869  10.614 -1.3355  1.0564 -0.5687
   31MYC    H11 2648   1.308   0.803  10.605  0.6239 -2.6427  2.3306
   31MYC     C6 2649   1.405   0.802  10.417  0.1223  0.1700 -1.0141
   31MYC     H8 2650   1.507   0.801  10.377  0.3710 -0.2135 -0.3724
   31MYC     H9 2651   1.361   0.900  10.394 -0.3959  0.0533 -0.5597
   31MYC     C5 2652   1.325   0.688  10.345  0.4863  0.7053 -0.2818
   31MYC     H6 2653   1.268   0.738  10.265 -1.8418 -0.0859  0.7807
   31MYC     H7 2654   1.246   0.657  10.415 -0.7615  0.1015 -1.8720
   31MYC     C4 2655   1.400   0.563  10.285 -0.1483 -0.1333  0.7967
   31MYC     H4 2656   1.336   0.475  10.293  1.4459 -1.2728  1.6417
   31MYC     H5 2657   1.481   0.543  10.357  1.3533  1.2188 -0.4357
   31MYC     C2 2658   1.466   0.582  10.149 -0.3879 -1.0492  0.3935
   31MYC     H2 2659   1.388   0.611  10.078  0.7814 -0.4665 -0.6945
   31MYC     O3 2660   1.558   0.677  10.163 -0.7322 -1.0638 -0.0067
   31MYC     H3 2661   1.616   0.637  10.230 -0.1288  0.0317  0.1497
   31MYC     C1 2662   1.534   0.453  10.094 -0.9324 -0.0860 -0.1394
   31MYC     H1 2663   1.462   0.370  10.088  2.4692 -3.2963 -0.0578
   31MYC    C81 2664   1.643   0.413  10.199 -0.0988  0.8682  0.4996
   31MYC    O82 2665   1.744   0.474  10.213 -0.2590  0.0747 -0.0306
   31MYC    O83 2666   1.614   0.301  10.269 -0.2475 -0.1655 -0.4225
   31MYC   H105 2667   1.695   0.292  10.322  0.0155 -2.4050 -1.1319
   31MYC    C20 2668   1.589   0.467   9.949 -0.2851  0.0792  0.1653
   31MYC    H34 2669   1.662   0.548   9.958 -0.8841  0.7795 -1.0339
   31MYC    H35 2670   1.634   0.370   9.924 -0.6685  0.0718 -0.5177
   31MYC    C21 2671   1.486   0.503   9.843 -0.5181  0.1052  0.2471
   31MYC    H36 2672   1.411   0.424   9.835 -1.7010  1.2416 -0.2552
   31MYC    H37 2673   1.436   0.594   9.879  1.8413  1.0071  1.5132
   31MYC    C22 2674   1.546   0.546   9.704  0.0370  0.4682 -0.1643
   31MYC    H38 2675   1.569   0.653   9.711  0.4181  0.4061 -0.4086
   31MYC    H39 2676   1.642   0.497   9.680 -0.7508 -0.8040 -0.8111
   31MYC    C23 2677   1.440   0.549   9.593 -0.7893  0.4185 -0.4555
   31MYC    H40 2678   1.409   0.445   9.585  0.4265  0.1880 -3.5004
   31MYC    H41 2679   1.348   0.594   9.634 -0.0273 -1.3644  3.5893
   31MYC    C24 2680   1.486   0.606   9.460  0.4537  0.4488  0.1780
   31MYC    H42 2681   1.509   0.713   9.466  0.8007  0.4017 -0.3169
   31MYC    H43 2682   1.572   0.549   9.422  0.4380 -0.5410  1.5281
   31MYC    C25 2683   1.376   0.590   9.355  0.3735 -0.2050  0.8324
   31MYC    H44 2684   1.342   0.486   9.347  1.9479 -0.8251  1.7315
   31MYC    H45 2685   1.296   0.660   9.383  1.1997  0.7018  0.9794
   31MYC    C26 2686   1.420   0.631   9.213  0.2196  0.0773  0.1392
   31MYC    H46 2687   1.465   0.729   9.232 -2.6755  1.3156  1.2169
   31MYC    H47 2688   1.499   0.570   9.167  1.9023  2.0519  0.2536
   31MYC    C27 2689   1.296   0.648   9.124 -0.3040 -0.0867  0.0018
   31MYC    H48 2690   1.249   0.551   9.103 -1.0048 -0.4860  2.9324
   31MYC    H49 2691   1.236   0.725   9.173  0.2480 -0.5999  1.5404
   31MYC    C28 2692   1.333   0.707   8.986  0.5294 -0.3599  0.3946
   31MYC    H50 2693   1.400   0.794   8.993 -1.3470  1.1324  0.4762
   31MYC    H51 2694   1.392   0.635   8.928  1.7391 -0.4194  1.6309
   31MYC    C29 2695   1.211   0.760   8.910  0.0855  0.3794 -0.1932
   31MYC    H52 2696   1.138   0.680   8.894 -0.0345  0.5251 -0.3696
   31MYC    H53 2697   1.174   0.834   8.983  0.9973  1.4400 -0.7638
   31MYC    C30 2698   1.253   0.829   8.779 -0.4580  0.0753 -0.1045
   31MYC    H54 2699   1.336   0.899   8.791 -0.2328 -0.1130 -0.5477
   31MYC    H55 2700   1.294   0.748   8.717 -2.8412 -1.5642  0.2897
   31MYC    C31 2701   1.137   0.891   8.706  0.5316  0.2028 -0.1303
   31MYC    H56 2702   1.077   0.801   8.689  3.5444 -1.5470 -2.6505
   31MYC    H57 2703   1.090   0.961   8.775 -1.7730  1.3671 -2.7151
   31MYC    C32 2704   1.169   0.975   8.579  0.8463 -0.2503 -0.4359
   31MYC    H58 2705   1.194   1.075   8.616 -0.0618  0.9011 -2.7519
   31MYC    H59 2706   1.258   0.940   8.525  0.5651 -1.8057  0.0776
   31MYC    C33 2707   1.050   1.013   8.487 -0.5995  0.3335  0.0463
   31MYC    H60 2708   1.016   0.940   8.413 -2.2694  0.8697  0.2366
   31MYC    H61 2709   0.965   1.016   8.556 -1.0502  1.2917 -0.5196
   31MYC    C34 2710   1.057   1.159   8.431  0.0606  0.0816 -0.1640
   31MYC    H62 2711   1.066   1.240   8.504  0.1564  0.4981 -0.6332
   31MYC    H63 2712   1.139   1.158   8.358 -0.3022  0.6619 -0.5871
   31MYC    C35 2713   0.928   1.192   8.348 -0.3732  0.3864  0.3165
   31MYC    H64 2714   0.844   1.143   8.399  1.9017 -1.0786  3.0067
   31MYC    H65 2715   0.913   1.300   8.350  1.0751  0.6619 -1.3134
   31MYC    C36 2716   0.928   1.126   8.209 -0.5499  0.7053  0.0450
   31MYC    H66 2717   1.006   1.174   8.148 -1.9152  2.4909 -0.4012
   31MYC    H67 2718   0.955   1.020   8.216 -1.3112  0.3817 -1.4239
   31MYC    C37 2719   0.800   1.145   8.129  0.3728 -0.4562  0.0481
   31MYC    H68 2720   0.722   1.086   8.178  0.5348 -1.1627 -0.5298
   31MYC    H69 2721   0.782   1.253   8.129  0.1898 -0.4850 -0.2626
   31MYC    C38 2722   0.812   1.092   7.989 -0.0747 -0.9854  0.5312
   31MYC    H70 2723   0.912   1.114   7.949 -0.4192 -2.6987 -1.4631
   31MYC    H71 2724   0.795   0.984   7.989  0.0489 -1.0228 -0.6058
   31MYC    C39 2725   0.716   1.154   7.885 -0.0513  0.5264  0.1104
   31MYC    H72 2726   0.621   1.166   7.937  0.5074  0.9137  1.0740
   31MYC    H73 2727   0.742   1.259   7.868  1.9492  0.2549  1.1915
   31MYC    C40 2728   0.709   1.071   7.741  0.5611  1.0676 -0.0920
   31MYC    H74 2729   0.808   1.045   7.702  0.6026 -2.3211  1.8793
   31MYC    H75 2730   0.669   0.975   7.774  1.5329  0.4003 -0.8076
   31MYC    C41 2731   0.637   1.131   7.615 -0.3837  0.3571 -0.5792
   31MYC    H76 2732   0.536   1.171   7.630  0.1300  1.8849 -1.0448
   31MYC    H77 2733   0.685   1.229   7.602 -0.3835  0.5410  0.7079
   31MYC    C42 2734   0.648   1.049   7.487 -0.2135  0.0067  0.0243
   31MYC    H78 2735   0.755   1.035   7.466 -0.5554 -2.7937 -0.2139
   31MYC    H79 2736   0.603   0.951   7.507 -0.1746  0.4145  2.3934
   31MYC    C43 2737   0.569   1.119   7.377  0.3751  0.1882 -0.3486
   31MYC    H80 2738   0.553   1.054   7.290  0.3499  0.8648 -0.8656
   31MYC    H81 2739   0.646   1.194   7.356  0.7988  0.6672  2.5060
   31MYC    H82 2740   0.476   1.168   7.408  0.0106  0.9497 -2.4385
   32MYC   HH15 2741   1.868   0.039   7.775  0.8205 -2.3487 -0.1005
   32MYC    C80 2742   1.783   0.040   7.706  0.2390  0.2015  0.5767
   32MYC   H100 2743   1.824   0.053   7.605 -0.2570 -1.4050  0.1375
   32MYC   H101 2744   1.742  -0.058   7.733 -0.3608  1.0248  2.9285
   32MYC    C79 2745   1.678   0.152   7.745 -0.1157  0.1474  0.7765
   32MYC   H102 2746   1.590   0.148   7.680  0.1367  0.5297  0.4028
   32MYC   H103 2747   1.729   0.247   7.726  1.1374 -0.4214  1.1639
   32MYC    C78 2748   1.625   0.145   7.894 -0.4193 -0.6623 -0.5520
   32MYC   HH14 2749   1.716   0.173   7.948 -0.4889  1.5163 -1.4658
   32MYC   H104 2750   1.607   0.041   7.925  3.2904 -2.3614 -3.2462
   32MYC    C77 2751   1.511   0.254   7.928  0.2244 -0.3568  0.0015
   32MYC   H106 2752   1.413   0.228   7.886 -1.7033  2.9674  1.9165
   32MYC   H107 2753   1.527   0.355   7.887  1.2054  0.4872  2.2760
   32MYC    C76 2754   1.481   0.259   8.083 -0.2070  0.2484 -0.0659
   32MYC   H108 2755   1.451   0.163   8.125  1.5855  0.0473  0.8385
   32MYC   H109 2756   1.401   0.333   8.099 -0.7732  0.1448 -2.1066
   32MYC    C75 2757   1.611   0.317   8.162  0.0247  0.3831  0.6372
   32MYC   H110 2758   1.626   0.417   8.121 -0.9268  0.3604  0.1862
   32MYC   H111 2759   1.698   0.251   8.163 -0.4300 -0.2302  1.0705
   32MYC    C74 2760   1.577   0.344   8.306  0.4028  0.5824  0.1571
   32MYC   H112 2761   1.536   0.253   8.351 -0.3233  0.4640 -0.7371
   32MYC   H113 2762   1.493   0.413   8.314 -0.7360 -0.7550  0.0233
   32MYC    C73 2763   1.704   0.384   8.388  0.1103  0.3432  1.1161
   32MYC   HH13 2764   1.775   0.455   8.344  1.7945 -1.9840 -0.0901
   32MYC   H114 2765   1.771   0.297   8.395  2.5017  2.1273  1.8962
   32MYC    C72 2766   1.657   0.418   8.534 -0.4819  0.2631 -0.2246
   32MYC   H115 2767   1.605   0.332   8.577 -0.6824  0.5275  0.0682
   32MYC   H116 2768   1.577   0.493   8.536 -1.9527 -1.2493  0.3012
   32MYC    C71 2769   1.769   0.450   8.628 -0.5652  0.1320 -0.2962
   32MYC   H117 2770   1.742   0.532   8.695  0.4727 -1.4260  2.1640
   32MYC   H118 2771   1.857   0.482   8.570 -0.9697 -1.3017 -1.7959
   32MYC    C70 2772   1.809   0.336   8.715 -0.1655  0.3636  0.1194
   32MYC   H119 2773   1.856   0.252   8.663  0.4987  0.2259  0.9181
   32MYC   H120 2774   1.721   0.288   8.759 -1.9367  0.8278 -2.6829
   32MYC    C69 2775   1.911   0.381   8.826  0.0413 -0.0749 -0.3683
   32MYC   H121 2776   1.859   0.457   8.887  1.1329  0.0751  0.3985
   32MYC   H122 2777   2.001   0.434   8.795 -0.2430  0.1715 -0.7853
   32MYC    C68 2778   1.948   0.264   8.917 -0.7093 -0.0815  0.1412
   32MYC   HH12 2779   1.984   0.183   8.852 -1.2959 -0.4108  0.2184
   32MYC   H123 2780   1.854   0.227   8.960  0.0061 -2.4708 -0.1979
   32MYC    C67 2781   2.056   0.296   9.038  0.4992  0.1809  0.0681
   32MYC   H124 2782   2.145   0.323   8.980 -0.8035  1.4496 -1.4899
   32MYC   H125 2783   2.071   0.199   9.086  0.8567  0.7342  1.1093
   32MYC    C66 2784   2.012   0.403   9.140  0.7434 -0.2678 -0.0113
   32MYC   H126 2785   1.955   0.487   9.098 -0.6893 -1.5817 -0.7653
   32MYC   H127 2786   2.107   0.446   9.176  0.7935 -0.5871  0.2380
   32MYC    C65 2787   1.942   0.349   9.267 -0.1788 -1.0377  0.3110
   32MYC   H128 2788   2.009   0.279   9.319  1.5420 -0.1754 -0.6621
   32MYC   H129 2789   1.853   0.302   9.224  1.1315 -1.1926 -2.4789
   32MYC    C64 2790   1.917   0.458   9.378 -0.0254 -0.4499 -0.3450
   32MYC   H130 2791   2.018   0.489   9.406 -0.2200 -0.9910  1.0475
   32MYC   H131 2792   1.868   0.414   9.466  0.6290  1.5516  1.0824
   32MYC    C63 2793   1.840   0.587   9.332 -0.0925  0.2795 -0.0984
   32MYC   HH11 2794   1.745   0.567   9.282 -0.6339  2.5102 -0.0525
   32MYC   H132 2795   1.906   0.640   9.262 -0.3138  0.3540 -0.2512
   32MYC    C62 2796   1.819   0.682   9.454  0.2880  1.2017  0.0874
   32MYC   H133 2797   1.916   0.684   9.505  0.4282  0.6684 -0.1386
   32MYC   H134 2798   1.749   0.636   9.524  0.6654  1.2608  0.5072
   32MYC    C61 2799   1.779   0.821   9.394 -0.3360 -0.4220  0.1356
   32MYC   H135 2800   1.701   0.817   9.317 -0.3746 -0.9934  0.2036
   32MYC   H136 2801   1.866   0.866   9.344 -1.3060  2.0198  0.4683
   32MYC    C60 2802   1.733   0.924   9.503  0.1702  0.3078  0.8861
   32MYC   H137 2803   1.643   0.889   9.554 -0.4359 -0.4632 -0.6441
   32MYC    C58 2804   1.829   0.986   9.602 -0.2946 -0.5151 -0.0564
   32MYC   H138 2805   1.935   0.966   9.592 -0.3222 -0.8368  0.2788
   32MYC    C59 2806   1.769   1.074   9.485 -0.7543 -0.3301 -0.0619
   32MYC   H139 2807   1.704   1.154   9.517  1.0033  1.2483 -0.2390
   32MYC   H140 2808   1.827   1.094   9.395  0.2145 -2.7370 -0.0489
   32MYC    C57 2809   1.787   1.003   9.746  0.5005 -0.5241 -0.4413
   32MYC   HH10 2810   1.678   1.004   9.745  0.4583 -1.8957  0.4939
   32MYC   H141 2811   1.827   1.102   9.774 -1.8418  0.3201  0.1178
   32MYC    C56 2812   1.838   0.892   9.842 -0.1806 -0.3332 -0.3717
   32MYC   H142 2813   1.945   0.914   9.847 -0.3441  0.6905 -1.1107
   32MYC   H143 2814   1.837   0.793   9.795  0.6411 -0.2151 -0.6652
   32MYC    C55 2815   1.782   0.885   9.989 -0.3684 -0.4179  0.3732
   32MYC   H144 2816   1.826   0.798  10.039 -0.5207 -0.1063  1.0645
   32MYC   H145 2817   1.674   0.868   9.978  0.1163 -2.9341 -1.2254
   32MYC    C54 2818   1.807   1.008  10.082  0.2877 -0.4663  0.3757
   32MYC   H146 2819   1.743   1.091  10.049  1.5321  0.5761  0.5101
   32MYC   H147 2820   1.913   1.029  10.065  0.4692 -0.9859  0.8527
   32MYC    C53 2821   1.775   0.982  10.234 -0.3173 -0.4361  0.0276
   32MYC   H148 2822   1.687   0.917  10.235 -0.7062  0.0730 -0.2154
   32MYC   H149 2823   1.735   1.077  10.271 -0.8316 -0.2972 -0.8564
   32MYC    C52 2824   1.895   0.935  10.326 -0.0520 -0.5152 -0.0762
   32MYC    H99 2825   1.972   1.012  10.341 -0.4210 -0.3249  0.9331
   32MYC   H150 2826   1.939   0.844  10.285 -0.3914 -1.4384  1.5066
   32MYC    C51 2827   1.842   0.878  10.455  0.8595 -0.1274  0.0132
   32MYC    H97 2828   1.796   0.784  10.424 -0.2702  0.4568 -0.1203
   32MYC    H98 2829   1.763   0.944  10.494  1.6941  1.9803 -1.6316
   32MYC    C50 2830   1.941   0.854  10.567  0.3929  0.1177  0.6578
   32MYC    H95 2831   1.885   0.831  10.658  0.1891  5.4284  2.1785
   32MYC    H96 2832   1.993   0.947  10.591 -1.8846  2.0395 -1.3459
   32MYC    C49 2833   2.042   0.735  10.549  0.2353 -0.7429 -0.2986
   32MYC    H93 2834   2.081   0.734  10.447  2.1625  0.4829  0.3613
   32MYC    H94 2835   1.983   0.643  10.551 -0.1804 -0.5233 -1.7647
   32MYC    C48 2836   2.161   0.718  10.648  0.1790 -0.1939 -0.6231
   32MYC    H91 2837   2.243   0.789  10.634  1.0157 -0.8171  0.8051
   32MYC    H92 2838   2.216   0.628  10.616 -1.7347 -1.1051 -1.4985
   32MYC    C47 2839   2.113   0.722  10.804 -0.1862  0.1191 -0.1322
   32MYC    H89 2840   2.039   0.645  10.829 -1.0228  0.7555 -0.6237
   32MYC    H90 2841   2.072   0.823  10.815  0.8788  0.5723 -0.1887
   32MYC    C46 2842   2.225   0.722  10.914  0.2949 -0.5352  0.2151
   32MYC    H87 2843   2.301   0.644  10.906 -0.4448 -1.2322 -0.1938
   32MYC    H88 2844   2.165   0.697  11.002  2.5267  1.5252  2.4776
   32MYC    C45 2845   2.297   0.858  10.932  0.0989 -0.7790 -0.0653
   32MYC    H85 2846   2.227   0.942  10.920  0.7239 -0.0073  1.4226
   32MYC    H86 2847   2.379   0.858  10.860  0.0651 -0.2933 -0.1059
   32MYC    C44 2848   2.351   0.866  11.085 -0.5850  0.5180 -0.1295
   32MYC    H83 2849   2.399   0.771  11.114 -0.9596  0.8314  1.6685
   32MYC    H84 2850   2.272   0.895  11.156 -0.5682  1.6293 -0.5508
   32MYC    C18 2851   2.459   0.978  11.100 -0.3360  0.1495 -0.1959
   32MYC    H31 2852   2.544   0.961  11.035 -0.7294  1.0240 -0.9644
   32MYC    C17 2853   2.414   1.124  11.113  0.5475 -0.0510 -1.0478
   32MYC    H30 2854   2.309   1.146  11.130  0.8460 -0.3717  1.5641
   32MYC    C19 2855   2.469   1.038  11.234 -0.0788 -0.4070  0.3551
   32MYC    H32 2856   2.393   1.025  11.311 -0.3791 -0.2418  0.0916
   32MYC    H33 2857   2.560   1.085  11.270 -0.1106  2.5896 -2.8980
   32MYC    C16 2858   2.488   1.234  11.050  0.3023 -0.2144 -0.0183
   32MYC    H28 2859   2.592   1.203  11.039 -0.3612 -3.1104  1.0859
   32MYC    H29 2860   2.493   1.316  11.123  2.2740 -1.5440  1.4386
   32MYC    C15 2861   2.430   1.272  10.911  0.4168 -0.2752 -0.0735
   32MYC    H26 2862   2.483   1.363  10.882 -0.3139  0.2627  0.2543
   32MYC    H27 2863   2.325   1.303  10.916  1.0012  1.7341  1.0652
   32MYC    C14 2864   2.451   1.168  10.808  0.2963 -0.6118  0.7329
   32MYC    H24 2865   2.392   1.077  10.821  0.3470 -0.5886  1.1638
   32MYC    H25 2866   2.554   1.130  10.803  0.6280  0.3474  0.0560
   32MYC    C13 2867   2.423   1.221  10.667  0.4189 -0.0278 -0.0893
   32MYC    H22 2868   2.491   1.302  10.638 -0.0128 -0.4865 -2.6100
   32MYC    H23 2869   2.327   1.273  10.682  0.7556  0.2244  1.3675
   32MYC    C12 2870   2.397   1.120  10.555  0.1615 -0.2239  0.4243
   32MYC    H20 2871   2.344   1.034  10.596  0.4149  1.2990  4.3388
   32MYC    H21 2872   2.493   1.084  10.516 -0.6618  0.2172 -2.2356
   32MYC    C11 2873   2.340   1.169  10.416  0.1255  0.2279  0.0386
   32MYC    H18 2874   2.423   1.213  10.359  1.7514  1.3776  3.0514
   32MYC    H19 2875   2.269   1.247  10.444 -0.2618 -0.5361  1.2231
   32MYC    C10 2876   2.264   1.062  10.324  0.0752 -0.3882  0.1419
   32MYC    H16 2877   2.202   1.103  10.244 -1.5232 -1.1981  0.9189
   32MYC    H17 2878   2.186   1.030  10.394  0.3314  0.8520  1.0379
   32MYC     C9 2879   2.339   0.941  10.271  0.5641  0.0835 -0.2796
   32MYC    H14 2880   2.282   0.885  10.196 -0.5549 -0.2749  0.8117
   32MYC    H15 2881   2.363   0.876  10.356 -2.9510 -1.4480 -0.2642
   32MYC     C8 2882   2.465   0.997  10.200  0.0100  0.4923 -1.0765
   32MYC    H12 2883   2.547   1.016  10.271 -0.4558  1.6043 -0.8191
   32MYC    H13 2884   2.445   1.095  10.156 -1.2032  1.4660  1.4420
   32MYC     C7 2885   2.504   0.897  10.094  0.1825  0.3504 -0.0133
   32MYC    H10 2886   2.474   0.792  10.108  2.0649 -0.2946 -0.5496
   32MYC    H11 2887   2.612   0.881  10.079  0.0021 -0.3560 -0.6526
   32MYC     C6 2888   2.440   0.946   9.960  0.0283  0.3302  0.0275
   32MYC     H8 2889   2.463   1.050   9.934  0.8845 -0.3165 -2.0188
   32MYC     H9 2890   2.333   0.942   9.986  0.0146  0.1389 -0.0615
   32MYC     C5 2891   2.462   0.851   9.843 -0.3498  0.3867 -0.2005
   32MYC     H6 2892   2.382   0.777   9.834 -1.2449  1.5860 -3.0550
   32MYC     H7 2893   2.549   0.784   9.834 -1.5804 -1.0352 -2.4598
   32MYC     C4 2894   2.469   0.922   9.710 -0.4328 -0.7579 -0.0534
   32MYC     H4 2895   2.513   0.853   9.637  0.3054 -1.6618  1.2075
   32MYC     H5 2896   2.531   1.012   9.717 -2.1019  0.7412 -2.7689
   32MYC     C2 2897   2.322   0.959   9.650  0.2630 -0.4749 -0.0101
   32MYC     H2 2898   2.257   0.871   9.654 -1.2713  0.5854 -0.5852
   32MYC     O3 2899   2.263   1.069   9.716 -0.1197  0.0604 -0.5446
   32MYC     H3 2900   2.307   1.150   9.683  1.3254 -0.4611  0.0427
   32MYC     C1 2901   2.333   1.012   9.498 -0.8386 -0.4946 -0.7401
   32MYC     H1 2902   2.394   0.939   9.444  2.0535 -0.2949  1.9338
   32MYC    C81 2903   2.423   1.146   9.485 -0.0387 -0.7670  0.1447
   32MYC    O82 2904   2.394   1.250   9.542  0.1742 -0.3672  0.1353
   32MYC    O83 2905   2.536   1.138   9.408 -0.2379  0.1650 -0.0291
   32MYC   H105 2906   2.573   1.227   9.422 -1.4929  0.4669  1.6480
   32MYC    C20 2907   2.205   1.012   9.409 -0.4910 -0.3903 -0.2010
   32MYC    H34 2908   2.196   0.904   9.391  1.0661 -0.4608 -0.8016
   32MYC    H35 2909   2.125   1.055   9.469  1.0363 -2.3168  3.5050
   32MYC    C21 2910   2.209   1.078   9.267  0.1461 -0.7886  0.3537
   32MYC    H36 2911   2.242   1.181   9.285 -3.3266  0.6678 -0.7086
   32MYC    H37 2912   2.284   1.036   9.199 -1.0561 -0.1004 -1.4973
   32MYC    C22 2913   2.072   1.086   9.196 -0.0483 -0.3210  0.2311
   32MYC    H38 2914   2.030   0.987   9.175  2.1443 -1.7597  2.0829
   32MYC    H39 2915   2.003   1.125   9.271  0.2432 -1.6719  1.2452
   32MYC    C23 2916   2.064   1.167   9.066 -0.3526  0.4316  0.1353
   32MYC    H40 2917   1.962   1.194   9.038  0.6730  1.5548 -2.9393
   32MYC    H41 2918   2.109   1.264   9.090 -2.5836  1.3006  1.0516
   32MYC    C24 2919   2.148   1.102   8.952 -0.2619  0.1629 -0.4145
   32MYC    H42 2920   2.247   1.074   8.989 -0.3412 -1.2423 -1.2089
   32MYC    H43 2921   2.106   1.004   8.925  0.6091  0.3481 -2.6097
   32MYC    C25 2922   2.171   1.197   8.832  0.1330  0.0482 -0.6017
   32MYC    H44 2923   2.212   1.294   8.861  3.3285 -0.5590 -2.6446
   32MYC    H45 2924   2.246   1.152   8.766 -0.9769 -1.0912 -1.1391
   32MYC    C26 2925   2.059   1.205   8.736  0.0542  0.1062 -0.5229
   32MYC    H46 2926   2.025   1.108   8.697  0.2070 -0.4544  0.6877
   32MYC    H47 2927   1.973   1.244   8.792  1.2398 -0.5262  1.8842
   32MYC    C27 2928   2.086   1.285   8.608 -0.2890 -0.0812  0.2004
   32MYC    H48 2929   2.094   1.393   8.628  2.3695  0.2261 -1.9730
   32MYC    H49 2930   2.192   1.266   8.589 -0.4712 -1.7727  0.7347
   32MYC    C28 2931   1.993   1.262   8.485 -0.2449  0.1007 -0.0235
   32MYC    H50 2932   2.038   1.321   8.404 -2.8105  3.6709  0.8869
   32MYC    H51 2933   1.992   1.156   8.457 -0.7737  0.7258 -2.6225
   32MYC    C29 2934   1.856   1.308   8.501  0.3397  0.6662 -0.5258
   32MYC    H52 2935   1.801   1.249   8.576 -0.2664  0.1179 -1.3786
   32MYC    H53 2936   1.870   1.412   8.531  2.1027 -0.3499  2.6273
   32MYC    C30 2937   1.764   1.289   8.368  0.3929 -0.5005  0.8468
   32MYC    H54 2938   1.758   1.180   8.353  2.5697 -0.3661 -1.7787
   32MYC    H55 2939   1.667   1.328   8.401 -0.9410 -0.5565 -2.6743
   32MYC    C31 2940   1.797   1.368   8.233 -0.4064  0.4568 -0.0542
   32MYC    H56 2941   1.827   1.470   8.258 -0.8653  0.5278  0.2127
   32MYC    H57 2942   1.879   1.316   8.182  0.3317  0.6137  0.9510
   32MYC    C32 2943   1.672   1.353   8.134  0.1304  0.1386  0.5175
   32MYC    H58 2944   1.641   1.248   8.129 -0.2021  0.2681 -0.2429
   32MYC    H59 2945   1.585   1.397   8.184  2.0625  1.6055  2.8206
   32MYC    C33 2946   1.701   1.416   7.994 -0.2859  1.5397  0.8250
   32MYC    H60 2947   1.677   1.521   8.014 -1.8542  1.4133 -0.1716
   32MYC    H61 2948   1.800   1.401   7.950 -0.9942  0.0570 -0.3612
   32MYC    C34 2949   1.596   1.391   7.882 -0.2292  0.6487  0.6256
   32MYC    H62 2950   1.498   1.361   7.919 -0.8858  2.3597  0.3431
   32MYC    H63 2951   1.578   1.489   7.838  0.3042  1.3088  1.8129
   32MYC    C35 2952   1.618   1.284   7.773  0.3297  0.7522 -1.0232
   32MYC    H64 2953   1.533   1.281   7.704  1.3904  0.3366 -2.3497
   32MYC    H65 2954   1.692   1.318   7.701  1.2435 -1.0816 -1.0163
   32MYC    C36 2955   1.649   1.144   7.824 -0.3053  0.4748  0.0648
   32MYC    H66 2956   1.721   1.152   7.905  1.0650 -0.8180 -0.9670
   32MYC    H67 2957   1.565   1.103   7.882  1.0742 -0.1430  1.6979
   32MYC    C37 2958   1.687   1.047   7.709  0.6241 -0.7862 -0.5364
   32MYC    H68 2959   1.780   1.079   7.660 -1.5819  4.5702 -1.9743
   32MYC    H69 2960   1.701   0.946   7.749  0.9419 -0.1501  1.0064
   32MYC    C38 2961   1.583   1.022   7.598  0.6861  0.3827  0.5588
   32MYC    H70 2962   1.561   1.122   7.559  0.8649 -0.6234 -2.4468
   32MYC    H71 2963   1.625   0.977   7.507  0.3779  2.4876 -0.6913
   32MYC    C39 2964   1.446   0.955   7.643  0.4720  0.3329 -0.2067
   32MYC    H72 2965   1.401   1.015   7.723  0.7999 -0.9394  0.9710
   32MYC    H73 2966   1.369   0.971   7.567  1.4438  0.4449 -1.1817
   32MYC    C40 2967   1.452   0.806   7.678 -0.0389 -0.3579 -0.0405
   32MYC    H74 2968   1.484   0.748   7.590 -1.5845  0.5694 -1.2690
   32MYC    H75 2969   1.528   0.806   7.756 -2.7641  1.1535  2.8148
   32MYC    C41 2970   1.326   0.759   7.748 -0.5005 -0.4501 -0.5125
   32MYC    H76 2971   1.311   0.825   7.834  1.6705 -2.0817  1.2412
   32MYC    H77 2972   1.248   0.775   7.672 -0.5693  1.7303 -0.0533
   32MYC    C42 2973   1.326   0.613   7.808  0.2001 -0.0154  0.3559
   32MYC    H78 2974   1.351   0.545   7.725 -2.5922 -0.2433 -0.3908
   32MYC    H79 2975   1.406   0.606   7.882  0.3306  1.1107  0.3429
   32MYC    C43 2976   1.192   0.561   7.868 -0.1940  0.4640  0.1740
   32MYC    H80 2977   1.125   0.532   7.786 -1.0231 -0.2039  1.0635
   32MYC    H81 2978   1.138   0.637   7.925 -0.4944 -0.2813  0.8972
   32MYC    H82 2979   1.208   0.468   7.925  0.2412 -0.2041 -0.9802
   33MYC   HH15 2980   3.630   0.599   7.119 -0.2322  3.5023  0.4084
   33MYC    C80 2981   3.731   0.606   7.164  0.0870  0.3872  0.3695
   33MYC   H100 2982   3.812   0.560   7.106  0.7835  1.2867  0.6055
   33MYC   H101 2983   3.752   0.713   7.174 -3.5143  1.4414 -1.3888
   33MYC    C79 2984   3.732   0.529   7.296 -0.5189 -0.2617  0.3049
   33MYC   H102 2985   3.834   0.501   7.322 -0.1755  0.4934 -0.1864
   33MYC   H103 2986   3.679   0.434   7.282 -1.6627  0.5793 -1.5453
   33MYC    C78 2987   3.686   0.601   7.417  0.0654  0.1905 -0.1458
   33MYC   HH14 2988   3.583   0.634   7.400 -0.5295 -1.7224 -0.4710
   33MYC   H104 2989   3.742   0.694   7.435  1.7534 -1.0044  1.0960
   33MYC    C77 2990   3.689   0.504   7.545  0.0809  0.1485 -0.5466
   33MYC   H106 2991   3.792   0.488   7.579  0.4750  1.2483 -1.1565
   33MYC   H107 2992   3.643   0.407   7.523 -2.5810  1.4667 -1.2452
   33MYC    C76 2993   3.619   0.562   7.667 -0.0881 -0.9729  0.1996
   33MYC   H108 2994   3.515   0.572   7.632 -0.4965 -1.7637  1.1261
   33MYC   H109 2995   3.664   0.660   7.688 -0.0405 -1.2076  1.2682
   33MYC    C75 2996   3.623   0.472   7.792  0.3090 -0.5579  0.1250
   33MYC   H110 2997   3.727   0.454   7.821  0.5629  0.7597  0.0754
   33MYC   H111 2998   3.580   0.373   7.770  1.9915 -1.5173  0.8873
   33MYC    C74 2999   3.552   0.526   7.922  0.8845  0.6809 -0.7920
   33MYC   H112 3000   3.454   0.570   7.901  1.0696  0.5655 -1.9425
   33MYC   H113 3001   3.609   0.616   7.948 -1.6726  2.4369 -0.9293
   33MYC    C73 3002   3.542   0.415   8.033  0.1671  0.5427  0.1621
   33MYC   HH13 3003   3.646   0.386   8.053  0.6854  0.3826 -2.3698
   33MYC   H114 3004   3.498   0.327   7.985  0.0902  0.2116  0.8316
   33MYC    C72 3005   3.458   0.451   8.159 -0.6896 -0.1216  0.4831
   33MYC   H115 3006   3.367   0.502   8.124  3.0887  3.7345 -5.6084
   33MYC   H116 3007   3.516   0.518   8.223  0.4674  1.6799 -2.2629
   33MYC    C71 3008   3.425   0.327   8.241  0.0555 -0.8695 -0.4315
   33MYC   H117 3009   3.520   0.275   8.256 -0.8462 -2.3834  0.2483
   33MYC   H118 3010   3.368   0.259   8.178 -2.1502  0.2465  0.2492
   33MYC    C70 3011   3.367   0.364   8.391  0.3841  0.3586 -0.3268
   33MYC   H119 3012   3.321   0.277   8.439  0.2374 -0.8188 -2.4864
   33MYC   H120 3013   3.275   0.423   8.378 -0.3984 -0.9837 -1.0874
   33MYC    C69 3014   3.459   0.433   8.483 -1.0654 -0.0849 -0.7064
   33MYC   H121 3015   3.519   0.508   8.430  0.8917 -2.7052 -2.5326
   33MYC   H122 3016   3.537   0.358   8.501 -1.3464 -0.3343 -0.5287
   33MYC    C68 3017   3.410   0.497   8.612  0.0582 -0.2148 -0.1095
   33MYC   HH12 3018   3.351   0.587   8.595 -0.6948 -0.7042 -0.1418
   33MYC   H123 3019   3.501   0.526   8.666  1.1610 -1.4280 -1.2511
   33MYC    C67 3020   3.334   0.401   8.713  0.4666 -0.4258  1.1002
   33MYC   H124 3021   3.393   0.312   8.735  0.7799 -0.0140  1.9928
   33MYC   H125 3022   3.242   0.361   8.668  1.3139 -1.5136  0.2768
   33MYC    C66 3023   3.297   0.459   8.848  0.4631  0.2895 -0.8696
   33MYC   H126 3024   3.246   0.554   8.831 -0.4416 -0.3694 -2.0017
   33MYC   H127 3025   3.393   0.480   8.896  0.6608 -0.7468 -0.7940
   33MYC    C65 3026   3.200   0.363   8.924 -0.4134  0.0312  0.9405
   33MYC   H128 3027   3.232   0.260   8.905  0.6757  0.4945  0.1856
   33MYC   H129 3028   3.103   0.373   8.874  0.2017  1.2467 -0.0360
   33MYC    C64 3029   3.194   0.396   9.074  0.2174 -0.1828 -0.0401
   33MYC   H130 3030   3.296   0.413   9.110 -0.0956  1.5145  0.1471
   33MYC   H131 3031   3.168   0.301   9.123  2.4971 -1.5412 -1.2787
   33MYC    C63 3032   3.112   0.523   9.126  0.1170  0.5002 -0.3774
   33MYC   HH11 3033   3.009   0.499   9.097 -0.0411 -0.4459  0.8988
   33MYC   H132 3034   3.146   0.613   9.074 -0.1524  0.8548  0.0531
   33MYC    C62 3035   3.116   0.565   9.277  0.2648 -0.3419 -0.0351
   33MYC   H133 3036   3.080   0.668   9.285 -0.2322 -0.4378 -0.9101
   33MYC   H134 3037   3.216   0.572   9.320  0.0531  0.9785  0.2770
   33MYC    C61 3038   3.029   0.473   9.363 -0.5426 -0.3822 -0.4757
   33MYC   H135 3039   3.073   0.373   9.366  0.0123 -0.1282  1.0439
   33MYC   H136 3040   2.938   0.459   9.305 -1.0571 -2.3696  0.7210
   33MYC    C60 3041   2.993   0.534   9.505  0.0645  0.1819 -0.6644
   33MYC   H137 3042   2.974   0.641   9.498 -0.2963  0.0940 -1.0882
   33MYC    C58 3043   2.932   0.456   9.620 -0.5063 -0.1619  0.1617
   33MYC   H138 3044   2.911   0.358   9.578 -0.2759  0.2610 -0.9705
   33MYC    C59 3045   3.075   0.500   9.633  0.4718 -0.0853  0.4799
   33MYC   H139 3046   3.113   0.588   9.684 -0.9296  0.5252  0.5245
   33MYC   H140 3047   3.150   0.423   9.622 -0.0045 -0.3327 -1.4682
   33MYC    C57 3048   2.812   0.520   9.697 -0.8217 -0.0500 -0.1035
   33MYC   HH10 3049   2.773   0.438   9.758  0.7240 -2.2151 -1.8956
   33MYC   H141 3050   2.740   0.542   9.617  1.1218  0.6040 -1.7677
   33MYC    C56 3051   2.833   0.654   9.784 -0.6618  0.4588  0.0014
   33MYC   H142 3052   2.740   0.712   9.786 -1.3806 -0.6755  1.5478
   33MYC   H143 3053   2.917   0.717   9.753  0.4004 -0.7582  0.3233
   33MYC    C55 3054   2.866   0.615   9.936  0.3761 -0.2472  0.8002
   33MYC   H144 3055   2.779   0.563   9.976 -0.3567 -0.3235 -0.8064
   33MYC   H145 3056   2.870   0.708   9.994 -0.7534  1.0605 -1.0969
   33MYC    C54 3057   2.993   0.528   9.954 -1.2624 -0.1964 -0.0320
   33MYC   H146 3058   3.085   0.586   9.943 -1.2458 -0.1511  0.3408
   33MYC   H147 3059   2.994   0.442   9.886 -2.7223 -2.6010  2.7320
   33MYC    C53 3060   3.003   0.463  10.097 -0.3414  0.1444 -0.0665
   33MYC   H148 3061   2.939   0.375  10.111 -1.2445  0.9988  1.4490
   33MYC   H149 3062   2.962   0.540  10.164 -0.3372  0.3341 -0.2825
   33MYC    C52 3063   3.144   0.418  10.135  0.0704 -0.2962  0.5048
   33MYC    H99 3064   3.201   0.512  10.144 -2.5449  1.4629 -0.1661
   33MYC   H150 3065   3.185   0.372  10.044  0.5720 -1.0131  1.0785
   33MYC    C51 3066   3.156   0.322  10.252  0.4550 -0.4586 -0.5067
   33MYC    H97 3067   3.262   0.303  10.272  0.6488  0.7856 -0.2319
   33MYC    H98 3068   3.092   0.233  10.250  0.3000 -0.4637  1.5478
   33MYC    C50 3069   3.099   0.386  10.388 -0.3147 -0.8120  0.2452
   33MYC    H95 3070   3.105   0.301  10.457 -1.2515  0.5932  2.1296
   33MYC    H96 3071   2.990   0.394  10.379 -0.2044 -0.5177 -1.0517
   33MYC    C49 3072   3.169   0.508  10.448  0.0246  0.2402 -0.1360
   33MYC    H93 3073   3.150   0.592  10.380  2.1590  1.4209  0.6217
   33MYC    H94 3074   3.277   0.497  10.458 -0.1877 -0.1810  2.1626
   33MYC    C48 3075   3.110   0.556  10.581  0.0161  0.6520 -0.3429
   33MYC    H91 3076   3.005   0.523  10.587 -0.1920  1.5450  1.4007
   33MYC    H92 3077   3.091   0.664  10.573  0.4005  0.6744 -0.9907
   33MYC    C47 3078   3.178   0.512  10.720  0.7291  0.5644  0.2279
   33MYC    H89 3079   3.284   0.539  10.711  0.4671  0.8921 -3.4244
   33MYC    H90 3080   3.170   0.405  10.743  1.0585  0.1843 -1.3438
   33MYC    C46 3081   3.116   0.599  10.832 -0.6264  0.0526  0.1050
   33MYC    H87 3082   3.008   0.583  10.832 -0.3499 -2.5162  1.5256
   33MYC    H88 3083   3.128   0.704  10.805 -0.3135 -0.2690 -1.0798
   33MYC    C45 3084   3.183   0.569  10.968 -0.2698  0.3394 -0.4343
   33MYC    H85 3085   3.159   0.646  11.042  1.9662 -0.4490  1.2406
   33MYC    H86 3086   3.292   0.581  10.957 -0.0862  0.3163  1.0885
   33MYC    C44 3087   3.156   0.425  11.037 -0.7997 -0.0264  0.1796
   33MYC    H83 3088   3.235   0.398  11.108 -0.3626  2.0575  0.5740
   33MYC    H84 3089   3.149   0.351  10.957  1.9756 -0.2445  0.0313
   33MYC    C18 3090   3.023   0.428  11.113 -0.4248  0.1615  0.1210
   33MYC    H31 3091   3.008   0.531  11.144  0.3956  1.1060 -2.3418
   33MYC    C17 3092   2.896   0.363  11.057  0.4243 -0.3141  1.0294
   33MYC    H30 3093   2.913   0.291  10.978  1.6010 -0.3306  1.2837
   33MYC    C19 3094   2.969   0.304  11.180 -0.3594  0.2874 -0.6721
   33MYC    H32 3095   3.018   0.208  11.165  0.4427  0.3849  1.1451
   33MYC    H33 3096   2.934   0.302  11.283 -0.1666 -3.2393 -0.5489
   33MYC    C16 3097   2.759   0.415  11.065 -0.7858 -0.6369  0.8912
   33MYC    H28 3098   2.749   0.466  11.161 -2.1831 -0.7263  0.8206
   33MYC    H29 3099   2.692   0.330  11.080  1.0550 -1.7709  3.2995
   33MYC    C15 3100   2.715   0.509  10.951  0.4504 -0.2456  0.5023
   33MYC    H26 3101   2.607   0.494  10.944  0.2410  1.4117 -0.2718
   33MYC    H27 3102   2.763   0.473  10.860  0.6857 -0.7550  0.8250
   33MYC    C14 3103   2.733   0.664  10.962  0.3792 -0.1152 -0.5447
   33MYC    H24 3104   2.840   0.683  10.975  0.4611 -0.6600 -0.3895
   33MYC    H25 3105   2.687   0.683  11.059 -0.8066  0.8449 -1.2747
   33MYC    C13 3106   2.661   0.744  10.852  0.3788 -0.9541  0.3346
   33MYC    H22 3107   2.669   0.852  10.868 -1.7081 -0.7016 -0.0965
   33MYC    H23 3108   2.556   0.716  10.848  0.5798 -1.6866  0.0070
   33MYC    C12 3109   2.722   0.718  10.709  0.3210 -0.2039  0.3522
   33MYC    H20 3110   2.714   0.609  10.701 -1.5258 -0.1454  0.9949
   33MYC    H21 3111   2.825   0.755  10.709  0.6546 -0.9998 -1.3410
   33MYC    C11 3112   2.645   0.780  10.591 -0.8018 -0.5086  0.0418
   33MYC    H18 3113   2.633   0.889  10.599  1.9397 -0.2361  1.4540
   33MYC    H19 3114   2.541   0.746  10.584 -0.4630 -1.7579  0.8061
   33MYC    C10 3115   2.709   0.770  10.451 -0.3849 -0.1293  0.0959
   33MYC    H16 3116   2.643   0.817  10.377  0.7441 -1.6216 -1.9627
   33MYC    H17 3117   2.717   0.665  10.420 -0.9692  0.4401 -2.1815
   33MYC     C9 3118   2.847   0.842  10.439 -0.2676 -0.0822 -0.2299
   33MYC    H14 3119   2.918   0.775  10.489 -1.2704  0.7696  2.5118
   33MYC    H15 3120   2.857   0.936  10.493  0.8377  0.2974 -1.0346
   33MYC     C8 3121   2.896   0.847  10.294  0.2075 -0.1645 -1.3045
   33MYC    H12 3122   2.809   0.876  10.234 -1.2085 -4.1604 -1.5105
   33MYC    H13 3123   2.921   0.748  10.253  2.9873  0.0013 -0.2114
   33MYC     C7 3124   3.020   0.935  10.280  0.0501  0.4522  0.0128
   33MYC    H10 3125   3.089   0.923  10.364  0.2081  2.8948  0.3157
   33MYC    H11 3126   2.990   1.039  10.259  0.5970  0.0930 -2.9268
   33MYC     C6 3127   3.113   0.887  10.163 -0.1364 -0.0798  0.1049
   33MYC     H8 3128   3.134   0.779  10.163 -0.2765 -0.1067 -0.1345
   33MYC     H9 3129   3.205   0.946  10.168 -0.5252  0.4268  2.9105
   33MYC     C5 3130   3.046   0.925  10.031 -0.2541 -0.7457  0.4573
   33MYC     H6 3131   2.937   0.914  10.041 -0.4711  0.0772 -0.7215
   33MYC     H7 3132   3.086   0.859   9.953  0.9183  0.3349  0.1083
   33MYC     C4 3133   3.062   1.076   9.980  1.1767  0.5262  0.0256
   33MYC     H4 3134   3.170   1.094   9.974  2.4139 -4.1242  2.5893
   33MYC     H5 3135   3.016   1.145  10.051  1.6746  2.8924 -1.8454
   33MYC     C2 3136   3.005   1.119   9.840 -0.1264 -0.9214 -0.2630
   33MYC     H2 3137   3.065   1.204   9.805 -1.1369 -1.3188 -3.2915
   33MYC     O3 3138   3.028   1.018   9.744  0.3669  0.0175  0.2594
   33MYC     H3 3139   2.971   0.942   9.762 -1.0411  1.0335  0.2290
   33MYC     C1 3140   2.861   1.177   9.828 -0.0204 -0.2594 -0.3798
   33MYC     H1 3141   2.854   1.270   9.885 -1.7265 -1.0027  0.7186
   33MYC    C81 3142   2.770   1.092   9.908 -0.5422 -0.8410  0.0238
   33MYC    O82 3143   2.746   0.982   9.882  0.7182  0.0645  0.7853
   33MYC    O83 3144   2.730   1.153  10.024 -0.1361  0.1524 -0.8380
   33MYC   H105 3145   2.670   1.096  10.075  0.2148  0.0718 -0.5088
   33MYC    C20 3146   2.819   1.210   9.685 -0.4262 -0.1271  0.1888
   33MYC    H34 3147   2.824   1.118   9.625 -1.0948 -0.2708  0.3419
   33MYC    H35 3148   2.711   1.230   9.688 -0.4373 -0.2911  1.8445
   33MYC    C21 3149   2.890   1.324   9.608 -0.6099 -0.1773  0.8374
   33MYC    H36 3150   2.895   1.418   9.663 -0.0407 -0.8337  1.9400
   33MYC    H37 3151   2.997   1.313   9.584 -0.9304 -2.8602  0.2707
   33MYC    C22 3152   2.826   1.358   9.467 -0.2573  0.4132  0.1137
   33MYC    H38 3153   2.894   1.403   9.395 -1.4051 -0.1343 -1.3586
   33MYC    H39 3154   2.793   1.266   9.417  1.0448 -0.3937  0.6840
   33MYC    C23 3155   2.697   1.444   9.483 -0.6176 -0.3513 -0.5699
   33MYC    H40 3156   2.631   1.419   9.566  2.1536  0.3508  2.0066
   33MYC    H41 3157   2.734   1.541   9.519  2.5308 -1.9170  0.6758
   33MYC    C24 3158   2.631   1.468   9.350  0.8864  0.6504  0.3841
   33MYC    H42 3159   2.697   1.534   9.292 -1.1409  2.0553 -0.4462
   33MYC    H43 3160   2.622   1.371   9.300  0.6166  0.7583  0.2260
   33MYC    C25 3161   2.489   1.539   9.353  0.2611  0.2276  0.1478
   33MYC    H44 3162   2.434   1.490   9.435  2.6845 -2.4823  0.3484
   33MYC    H45 3163   2.509   1.638   9.395  1.8106  1.1691 -2.5615
   33MYC    C26 3164   2.425   1.545   9.212 -0.3387 -0.2039  0.4381
   33MYC    H46 3165   2.483   1.593   9.133 -4.2755  1.2806 -1.8581
   33MYC    H47 3166   2.395   1.443   9.183 -1.7393 -0.1028  1.4312
   33MYC    C27 3167   2.297   1.642   9.225 -0.3136  0.7651 -0.2960
   33MYC    H48 3168   2.228   1.605   9.302  0.7296 -0.9306 -0.1148
   33MYC    H49 3169   2.337   1.740   9.252  2.5169 -0.4391  0.2529
   33MYC    C28 3170   2.220   1.636   9.090  0.0037 -0.4271 -0.5015
   33MYC    H50 3171   2.189   1.534   9.066 -0.9623 -0.1729 -0.3832
   33MYC    H51 3172   2.122   1.682   9.112  0.3747  0.0615  0.1671
   33MYC    C29 3173   2.277   1.722   8.969 -0.2458 -0.8530 -0.2326
   33MYC    H52 3174   2.376   1.763   8.990 -0.2897 -0.3971 -0.8836
   33MYC    H53 3175   2.296   1.668   8.875  0.5141 -0.9805 -0.0106
   33MYC    C30 3176   2.194   1.852   8.933  0.0050 -0.5060  0.2081
   33MYC    H54 3177   2.174   1.917   9.019 -1.8959 -0.7916  0.0151
   33MYC    H55 3178   2.261   1.923   8.882 -0.8189 -0.3071 -0.6346
   33MYC    C31 3179   2.063   1.828   8.858  0.0054 -0.2709  0.6998
   33MYC    H56 3180   2.014   1.734   8.887  3.2080 -1.5729  2.4643
   33MYC    H57 3181   1.985   1.903   8.875  0.3010  0.5988 -1.4671
   33MYC    C32 3182   2.079   1.828   8.703 -0.8242 -0.0662  0.6339
   33MYC    H58 3183   2.129   1.918   8.665  0.3903 -0.7397  0.5760
   33MYC    H59 3184   2.152   1.748   8.683  2.2421  2.7252 -0.1474
   33MYC    C33 3185   1.948   1.806   8.625 -0.2103 -0.5740  0.3386
   33MYC    H60 3186   1.897   1.713   8.651 -0.8724 -0.1136  0.7043
   33MYC    H61 3187   1.874   1.883   8.648 -0.0049 -0.4751  0.6798
   33MYC    C34 3188   1.968   1.819   8.477  0.1124 -0.5793  0.1807
   33MYC    H62 3189   2.014   1.916   8.459 -2.4637  0.2541 -2.7321
   33MYC    H63 3190   2.033   1.740   8.437  1.1428 -0.1706  1.0296
   33MYC    C35 3191   1.834   1.806   8.388  0.3179 -0.5944  0.2071
   33MYC    H64 3192   1.787   1.710   8.409 -0.6535 -0.4601 -1.2096
   33MYC    H65 3193   1.759   1.883   8.412 -0.9809 -2.5183  2.8123
   33MYC    C36 3194   1.874   1.819   8.237  0.3661  0.2961 -0.0864
   33MYC    H66 3195   1.939   1.905   8.218  1.5886 -1.1848 -3.5151
   33MYC    H67 3196   1.928   1.728   8.208 -0.2452 -0.1939  0.2694
   33MYC    C37 3197   1.762   1.814   8.138 -0.3363  0.0382  0.3568
   33MYC    H68 3198   1.702   1.726   8.163 -0.7969  0.1919 -0.1804
   33MYC    H69 3199   1.698   1.902   8.156  1.0357  0.5090  3.7438
   33MYC    C38 3200   1.812   1.804   7.996  0.1596 -0.1694  0.2207
   33MYC    H70 3201   1.877   1.890   7.974  0.8313 -0.6823  0.1777
   33MYC    H71 3202   1.874   1.715   7.982  0.1033 -0.1709 -0.0339
   33MYC    C39 3203   1.699   1.808   7.886 -0.2635  0.6312  1.0138
   33MYC    H72 3204   1.617   1.740   7.909  1.3508 -0.9790  2.2677
   33MYC    H73 3205   1.667   1.913   7.899  0.3490  0.9739 -0.1270
   33MYC    C40 3206   1.737   1.797   7.736 -0.4955  0.3781 -0.8111
   33MYC    H74 3207   1.646   1.792   7.675  0.2446  0.9514 -2.0186
   33MYC    H75 3208   1.787   1.886   7.696 -0.6901  1.2270  0.7893
   33MYC    C41 3209   1.833   1.670   7.711  0.2275 -0.4943  0.0918
   33MYC    H76 3210   1.924   1.687   7.770 -0.2237  0.4808  0.5276
   33MYC    H77 3211   1.776   1.588   7.758 -1.6966  0.8641  0.2532
   33MYC    C42 3212   1.850   1.634   7.565 -0.0487  0.0627  0.6882
   33MYC    H78 3213   1.752   1.633   7.516  1.0999  0.5059 -1.7829
   33MYC    H79 3214   1.904   1.713   7.511 -0.6903 -0.3639 -0.6140
   33MYC    C43 3215   1.915   1.495   7.560 -0.8332 -0.1771 -0.1316
   33MYC    H80 3216   2.007   1.485   7.619 -0.1566 -2.4458 -1.4254
   33MYC    H81 3217   1.955   1.479   7.459 -0.0336 -1.2202  0.3321
   33MYC    H82 3218   1.840   1.421   7.590 -0.4845  0.2429  1.9643
   34MYC   HH15 3219   3.895   0.302   6.911 -0.7951 -3.1326 -1.2204
   34MYC    C80 3220   4.002   0.284   6.924 -0.2740  0.3789  0.6160
   34MYC   H100 3221   4.034   0.233   6.832 -1.6543 -0.9059  0.8079
   34MYC   H101 3222   4.068   0.369   6.942 -1.2528  1.3960 -0.4307
   34MYC    C79 3223   4.029   0.188   7.046 -0.1710  0.6106  0.4774
   34MYC   H102 3224   4.134   0.158   7.046  0.2908  2.1416 -0.0601
   34MYC   H103 3225   3.973   0.095   7.031  1.1992 -0.1493 -0.1094
   34MYC    C78 3226   3.975   0.256   7.173 -0.1279 -0.0004 -0.6313
   34MYC   HH14 3227   3.870   0.281   7.155  0.4529  1.4057 -2.3626
   34MYC   H104 3228   4.025   0.352   7.191 -0.9884  0.2580  0.5582
   34MYC    C77 3229   4.003   0.169   7.301  0.2802 -0.0197 -0.5393
   34MYC   H106 3230   4.107   0.133   7.311  0.5837  0.6605 -1.1647
   34MYC   H107 3231   3.938   0.081   7.313 -2.1238  1.5178 -1.5488
   34MYC    C76 3232   3.978   0.253   7.426  0.3371  0.2745  0.1946
   34MYC   H108 3233   3.881   0.303   7.430  0.7333  0.9946  0.8707
   34MYC   H109 3234   4.050   0.335   7.434 -3.6093  3.9936  1.6100
   34MYC    C75 3235   4.000   0.171   7.556  1.0158 -0.2749 -0.2816
   34MYC   H110 3236   4.103   0.133   7.557  1.4021  0.7283 -0.0745
   34MYC   H111 3237   3.930   0.087   7.552  2.2126 -1.2534 -1.5262
   34MYC    C74 3238   3.984   0.262   7.684 -0.0917 -0.3326  0.5809
   34MYC   H112 3239   3.890   0.319   7.679  0.1172  0.0932  1.4488
   34MYC   H113 3240   4.056   0.344   7.689 -1.2519  0.6772  1.5232
   34MYC    C73 3241   3.979   0.187   7.820  0.1418  0.1954 -0.2559
   34MYC   HH13 3242   4.074   0.135   7.834  0.7000  0.5870 -2.2206
   34MYC   H114 3243   3.907   0.105   7.808  0.9621 -0.9156  1.8649
   34MYC    C72 3244   3.944   0.272   7.941  0.0066 -0.4318  0.1628
   34MYC   H115 3245   3.841   0.306   7.926  0.0656 -1.3034 -2.7358
   34MYC   H116 3246   3.999   0.364   7.964 -2.5047  0.4368  3.6017
   34MYC    C71 3247   3.954   0.179   8.067 -0.5301  0.0712 -0.1418
   34MYC   H117 3248   4.046   0.120   8.068 -0.3934  0.2747 -0.4486
   34MYC   H118 3249   3.874   0.105   8.073 -2.5689  2.2677  2.0142
   34MYC    C70 3250   3.941   0.256   8.196 -0.1107  0.2244 -0.6753
   34MYC   H119 3251   3.862   0.332   8.185 -0.9201 -0.4483  0.3554
   34MYC   H120 3252   4.032   0.317   8.198  0.6938 -0.8750 -1.9479
   34MYC    C69 3253   3.927   0.165   8.319  0.3144  0.1082  0.3800
   34MYC   H121 3254   4.019   0.105   8.318 -0.5481 -1.2845  1.2435
   34MYC   H122 3255   3.839   0.101   8.305  1.5937 -1.0908 -3.0106
   34MYC    C68 3256   3.895   0.244   8.444 -0.5629  0.5301 -2.0422
   34MYC   HH12 3257   3.791   0.278   8.441 -0.9482 -0.2069  0.7085
   34MYC   H123 3258   3.961   0.332   8.456  0.5097 -0.2070 -2.3467
   34MYC    C67 3259   3.910   0.167   8.570 -0.0872  0.3597  0.2024
   34MYC   H124 3260   4.014   0.130   8.570  1.3511  3.6344  3.8502
   34MYC   H125 3261   3.841   0.083   8.558 -2.0617  1.7844  1.1471
   34MYC    C66 3262   3.880   0.252   8.702  0.1390 -0.4273  0.6550
   34MYC   H126 3263   3.784   0.303   8.690 -1.1184 -2.4420  1.6166
   34MYC   H127 3264   3.951   0.335   8.698  0.4505 -0.7033 -2.1549
   34MYC    C65 3265   3.891   0.164   8.829 -0.0239 -0.2108 -0.6369
   34MYC   H128 3266   3.991   0.120   8.839  0.3475  0.8973  0.9271
   34MYC   H129 3267   3.823   0.079   8.817 -1.4484  0.9500 -1.1735
   34MYC    C64 3268   3.848   0.240   8.957 -0.2522 -0.1821 -0.5447
   34MYC   H130 3269   3.752   0.287   8.935  0.3984  1.6600  0.3058
   34MYC   H131 3270   3.916   0.325   8.974 -0.2549 -0.5085  1.2885
   34MYC    C63 3271   3.849   0.162   9.087  0.2221 -0.4609  0.3931
   34MYC   HH11 3272   3.940   0.102   9.096 -0.0799 -0.9920 -0.0408
   34MYC   H132 3273   3.769   0.087   9.083 -1.3428  1.0603  1.6032
   34MYC    C62 3274   3.832   0.260   9.212 -0.0471 -0.4104  0.3636
   34MYC   H133 3275   3.743   0.322   9.196 -0.2377 -1.1988 -1.9792
   34MYC   H134 3276   3.917   0.329   9.217 -0.5051  0.1674  0.2616
   34MYC    C61 3277   3.825   0.188   9.347 -0.3600 -0.2046 -0.4243
   34MYC   H135 3278   3.911   0.119   9.347 -0.0013  0.1654  1.8263
   34MYC   H136 3279   3.724   0.146   9.349 -1.0139  1.2882  2.2928
   34MYC    C60 3280   3.835   0.281   9.468 -0.6246 -0.0629 -0.1162
   34MYC   H137 3281   3.758   0.358   9.467 -0.9609 -0.3957  0.0184
   34MYC    C58 3282   3.870   0.229   9.600 -0.6858  0.5763  0.0645
   34MYC   H138 3283   3.880   0.120   9.600  0.1816  0.6402  1.2308
   34MYC    C59 3284   3.973   0.309   9.515 -0.1486  0.3520  0.2703
   34MYC   H139 3285   3.999   0.406   9.556 -0.1740  0.7930 -0.7301
   34MYC   H140 3286   4.061   0.256   9.481  2.0012  2.7110  1.8152
   34MYC    C57 3287   3.819   0.297   9.722 -0.9168 -0.5086 -0.5889
   34MYC   HH10 3288   3.712   0.276   9.729 -1.1123  0.0975 -1.5322
   34MYC   H141 3289   3.838   0.405   9.727  1.3549 -0.9162  2.3007
   34MYC    C56 3290   3.889   0.251   9.856  0.3640 -0.1778 -0.5282
   34MYC   H142 3291   3.994   0.237   9.828  0.7206  0.7868  0.2863
   34MYC   H143 3292   3.860   0.148   9.882  2.9006 -0.2750  2.4982
   34MYC    C55 3293   3.856   0.327   9.986  0.3430 -0.3130  0.7042
   34MYC   H144 3294   3.747   0.340   9.987  0.3249 -0.2053 -0.7163
   34MYC   H145 3295   3.899   0.428   9.988  1.4501 -0.7725  1.3525
   34MYC    C54 3296   3.905   0.265  10.120 -0.4876 -0.2574 -0.1815
   34MYC   H146 3297   4.012   0.242  10.117 -0.9416 -3.0883  1.6015
   34MYC   H147 3298   3.855   0.168  10.123 -1.1390  0.0517 -0.7092
   34MYC    C53 3299   3.875   0.350  10.249  0.4177  0.2303  0.3965
   34MYC   H148 3300   3.766   0.352  10.252  0.3360  2.1870 -1.2958
   34MYC   H149 3301   3.912   0.453  10.240 -0.3619  0.7510  2.5793
   34MYC    C52 3302   3.944   0.291  10.374  0.1866 -0.0601  0.0858
   34MYC    H99 3303   4.053   0.305  10.365  0.0768  2.0579  1.2879
   34MYC   H150 3304   3.923   0.185  10.391  1.4714  0.0214  2.7412
   34MYC    C51 3305   3.920   0.377  10.503  0.5150 -0.0533 -0.6724
   34MYC    H97 3306   3.813   0.399  10.509  0.5116  0.2773 -1.6974
   34MYC    H98 3307   3.968   0.475  10.492 -0.0582  0.0710 -2.4400
   34MYC    C50 3308   3.966   0.301  10.623 -0.7844 -0.4466 -0.2459
   34MYC    H95 3309   4.070   0.269  10.614 -0.3074  0.8471  0.4381
   34MYC    H96 3310   3.921   0.201  10.617  1.3618 -1.4601 -0.2438
   34MYC    C49 3311   3.928   0.364  10.765  0.2064  0.9087  0.4196
   34MYC    H93 3312   3.820   0.384  10.770  0.0995  0.1336  1.9041
   34MYC    H94 3313   3.971   0.460  10.796 -0.3832  0.9071  1.2918
   34MYC    C48 3314   3.957   0.262  10.880 -0.0248 -0.0081  0.5914
   34MYC    H91 3315   3.933   0.161  10.845 -0.4020 -0.4227  1.9817
   34MYC    H92 3316   3.895   0.280  10.969 -0.3759 -0.9808  0.5625
   34MYC    C47 3317   4.108   0.260  10.917  0.3919  0.5713 -0.1009
   34MYC    H89 3318   4.145   0.361  10.941 -2.2432  1.3314  1.0785
   34MYC    H90 3319   4.161   0.228  10.826 -0.6796  3.7683 -2.0466
   34MYC    C46 3320   4.140   0.177  11.043 -0.0082 -0.1291 -0.0381
   34MYC    H87 3321   4.062   0.100  11.039 -1.3088  0.9765  2.1620
   34MYC    H88 3322   4.121   0.235  11.134  1.2738  2.1601 -1.1163
   34MYC    C45 3323   4.290   0.137  11.059 -0.4257 -0.4070 -0.2345
   34MYC    H85 3324   4.329   0.085  10.970 -2.5678 -0.2420 -1.3467
   34MYC    H86 3325   4.288   0.065  11.141 -2.5499  0.1977  0.3275
   34MYC    C44 3326   4.392   0.248  11.102 -0.2652  0.3736  0.6036
   34MYC    H83 3327   4.481   0.197  11.140  0.4468  1.2489  0.1456
   34MYC    H84 3328   4.352   0.294  11.194  0.7937 -0.5338  1.5488
   34MYC    C18 3329   4.435   0.343  10.991 -0.3867  0.3094  0.6344
   34MYC    H31 3330   4.439   0.298  10.892 -1.7177  1.0819  0.2029
   34MYC    C17 3331   4.390   0.492  11.002 -0.2171  1.0513  0.2153
   34MYC    H30 3332   4.337   0.507  11.096 -0.3812 -2.0947  0.7320
   34MYC    C19 3333   4.537   0.458  11.006  0.0446  0.0134 -0.7753
   34MYC    H32 3334   4.593   0.453  11.099  1.8839 -0.5569 -1.8677
   34MYC    H33 3335   4.609   0.482  10.928  4.0729 -3.2060  1.5676
   34MYC    C16 3336   4.346   0.585  10.878 -0.5888  0.2124 -0.4225
   34MYC    H28 3337   4.262   0.537  10.827 -1.5458  1.0589  0.2956
   34MYC    H29 3338   4.432   0.587  10.809  0.3621 -0.7833  0.6836
   34MYC    C15 3339   4.314   0.731  10.914 -0.7041 -0.1399 -0.4671
   34MYC    H26 3340   4.280   0.777  10.820 -0.1801  1.1682 -0.0395
   34MYC    H27 3341   4.412   0.765  10.950 -0.7478 -0.5497  0.0540
   34MYC    C14 3342   4.202   0.755  11.016 -0.1824  0.2091 -0.5923
   34MYC    H24 3343   4.197   0.864  11.025 -0.7944  0.0497  1.5102
   34MYC    H25 3344   4.237   0.708  11.109 -1.5732 -1.1159 -0.6998
   34MYC    C13 3345   4.058   0.697  10.970  0.5956  0.5685 -0.6546
   34MYC    H22 3346   4.076   0.604  10.914  2.5257  0.7156 -0.3720
   34MYC    H23 3347   4.008   0.773  10.910 -1.9930 -0.5301 -0.0363
   34MYC    C12 3348   3.958   0.677  11.079 -0.4296  0.5987  0.7089
   34MYC    H20 3349   3.932   0.771  11.129 -1.8964  0.7224 -0.2296
   34MYC    H21 3350   4.002   0.615  11.158 -0.9084  0.3021  0.7466
   34MYC    C11 3351   3.822   0.609  11.030  0.1275 -0.6069 -0.0254
   34MYC    H18 3352   3.756   0.616  11.117 -0.3098  1.6246 -0.4726
   34MYC    H19 3353   3.855   0.506  11.016  3.9624  0.2742  1.0882
   34MYC    C10 3354   3.769   0.679  10.898  0.5486 -0.7055 -0.4988
   34MYC    H16 3355   3.838   0.657  10.816  0.5616 -1.0948 -0.3832
   34MYC    H17 3356   3.762   0.786  10.921  1.2183 -0.7684  0.0435
   34MYC     C9 3357   3.627   0.629  10.880 -0.1425  0.4468 -1.1937
   34MYC    H14 3358   3.565   0.639  10.970  2.5526 -0.5560  0.8749
   34MYC    H15 3359   3.622   0.521  10.864  0.2294  0.4351 -1.2354
   34MYC     C8 3360   3.559   0.695  10.754  0.1486  0.1391  1.0658
   34MYC    H12 3361   3.594   0.799  10.741  0.6958 -0.2554 -0.9744
   34MYC    H13 3362   3.451   0.682  10.767  0.1742 -2.7660 -0.7563
   34MYC     C7 3363   3.605   0.631  10.621  0.0744  0.5920 -0.3891
   34MYC    H10 3364   3.568   0.530  10.598  1.0148 -0.2765  1.7160
   34MYC    H11 3365   3.713   0.630  10.606  0.4112  2.3745  1.5373
   34MYC     C6 3366   3.565   0.707  10.495 -0.6701 -0.4390 -0.0843
   34MYC     H8 3367   3.620   0.802  10.495 -0.7511 -0.2462  3.6065
   34MYC     H9 3368   3.457   0.723  10.499 -0.8050 -1.4795  0.6372
   34MYC     C5 3369   3.592   0.621  10.368 -0.1727 -0.2064  0.0816
   34MYC     H6 3370   3.539   0.525  10.371 -0.4887 -0.0901 -1.3169
   34MYC     H7 3371   3.700   0.607  10.354  0.1579  1.2857  0.9461
   34MYC     C4 3372   3.550   0.698  10.241  0.2792  0.1952 -0.2915
   34MYC     H4 3373   3.593   0.798  10.241 -1.6932  1.0991  0.3270
   34MYC     H5 3374   3.443   0.711  10.262  0.2137 -0.4787 -0.1879
   34MYC     C2 3375   3.583   0.628  10.100  0.5077 -0.1319 -0.1896
   34MYC     H2 3376   3.685   0.589  10.100  1.1831  1.4283  1.9069
   34MYC     O3 3377   3.478   0.532  10.076  0.1219 -0.3772  0.0974
   34MYC     H3 3378   3.396   0.581  10.095 -0.1605 -0.1577 -1.5486
   34MYC     C1 3379   3.581   0.723   9.974  0.1581 -0.9342  0.3107
   34MYC     H1 3380   3.651   0.803   9.999 -1.8417  0.5545  1.5372
   34MYC    C81 3381   3.448   0.793   9.954  0.0258  0.9617 -0.2646
   34MYC    O82 3382   3.352   0.733   9.916  0.6032 -0.7862  0.3919
   34MYC    O83 3383   3.445   0.923   9.985  0.1326  0.1332  0.8433
   34MYC   H105 3384   3.368   0.959   9.938  0.5400  1.5910  1.2395
   34MYC    C20 3385   3.622   0.638   9.847 -0.2735  0.5456 -0.5010
   34MYC    H34 3386   3.732   0.631   9.855 -0.3229  1.5912  3.8355
   34MYC    H35 3387   3.577   0.538   9.844  2.8474 -0.9563 -2.1738
   34MYC    C21 3388   3.599   0.701   9.703  0.1250 -0.1385  0.0806
   34MYC    H36 3389   3.496   0.738   9.705  0.7500  1.6957 -0.0157
   34MYC    H37 3390   3.660   0.792   9.695 -1.2812  0.8114 -0.2718
   34MYC    C22 3391   3.636   0.611   9.591 -0.1699  0.0431  0.2893
   34MYC    H38 3392   3.738   0.577   9.611 -0.2192 -0.2621  0.0213
   34MYC    H39 3393   3.566   0.526   9.589 -0.4296  0.2585  0.2115
   34MYC    C23 3394   3.620   0.679   9.461  0.4586  0.0133 -0.1789
   34MYC    H40 3395   3.523   0.730   9.460  1.0225  1.5338  3.7744
   34MYC    H41 3396   3.688   0.765   9.461  2.4175 -1.3735  2.7652
   34MYC    C24 3397   3.626   0.591   9.342  0.1507  0.0486  0.0337
   34MYC    H42 3398   3.725   0.545   9.354  0.0635 -0.5383 -1.2631
   34MYC    H43 3399   3.550   0.513   9.356 -0.2446  0.5509  0.7816
   34MYC    C25 3400   3.608   0.655   9.203 -0.4198  0.1964 -0.6001
   34MYC    H44 3401   3.501   0.665   9.179  0.2460  2.3544 -3.1029
   34MYC    H45 3402   3.638   0.760   9.205 -1.0064  0.5210 -3.6890
   34MYC    C26 3403   3.684   0.582   9.092  0.6032 -0.3724 -0.3661
   34MYC    H46 3404   3.786   0.557   9.121  0.3521  0.2117  1.0874
   34MYC    H47 3405   3.625   0.491   9.071  0.9123 -0.5315 -0.5447
   34MYC    C27 3406   3.682   0.667   8.962 -0.0064  0.3839 -0.4866
   34MYC    H48 3407   3.588   0.721   8.950  1.0458  1.9040 -2.2534
   34MYC    H49 3408   3.742   0.757   8.979  0.4310 -0.2687  1.9358
   34MYC    C28 3409   3.737   0.592   8.841 -0.4142  0.3371  0.4118
   34MYC    H50 3410   3.836   0.552   8.865 -0.5520 -0.8395 -0.8974
   34MYC    H51 3411   3.673   0.506   8.819 -2.5131  0.8673  3.7927
   34MYC    C29 3412   3.743   0.669   8.706  0.9006 -0.0863  0.3830
   34MYC    H52 3413   3.640   0.694   8.680  0.2598 -1.4277  1.5451
   34MYC    H53 3414   3.800   0.761   8.727 -0.1008  1.3169 -2.5370
   34MYC    C30 3415   3.810   0.601   8.591 -0.9307 -0.5514 -0.6398
   34MYC    H54 3416   3.910   0.576   8.626 -0.7921 -0.9082 -1.2637
   34MYC    H55 3417   3.765   0.501   8.592  0.1158 -1.0276  0.8252
   34MYC    C31 3418   3.794   0.682   8.456 -0.0777 -0.4422 -1.5420
   34MYC    H56 3419   3.685   0.690   8.448 -0.0731 -1.4700 -2.8966
   34MYC    H57 3420   3.846   0.779   8.454 -0.4592 -0.2195 -0.9835
   34MYC    C32 3421   3.834   0.606   8.323  0.8696 -1.1422 -0.2949
   34MYC    H58 3422   3.919   0.548   8.360  1.1730  0.3477  1.4906
   34MYC    H59 3423   3.750   0.543   8.291  0.4242 -1.7895  1.9762
   34MYC    C33 3424   3.870   0.701   8.203 -0.4067  0.1299  0.2835
   34MYC    H60 3425   3.779   0.746   8.161 -0.3048  0.6170  0.5834
   34MYC    H61 3426   3.946   0.774   8.230 -1.5407  1.3361  0.3088
   34MYC    C34 3427   3.910   0.627   8.081 -0.4166  0.4839  0.0038
   34MYC    H62 3428   4.001   0.568   8.096  0.8095  2.4040  0.4402
   34MYC    H63 3429   3.836   0.549   8.061 -0.1820  0.1113  0.5470
   34MYC    C35 3430   3.933   0.715   7.949  0.6094  0.0359 -0.2429
   34MYC    H64 3431   3.836   0.744   7.908  0.3353 -0.2750  0.1846
   34MYC    H65 3432   3.994   0.805   7.962  1.6427 -0.6628 -0.1691
   34MYC    C36 3433   4.010   0.645   7.842  0.3983  0.5873  0.2857
   34MYC    H66 3434   4.107   0.635   7.892  0.2456  1.9925  0.9369
   34MYC    H67 3435   3.960   0.549   7.828  0.3437  0.8428 -1.4510
   34MYC    C37 3436   4.005   0.722   7.711  0.2332 -0.1220  0.3346
   34MYC    H68 3437   3.902   0.726   7.675  1.2513  2.4690 -2.8226
   34MYC    H69 3438   4.029   0.828   7.727 -0.6079 -0.2518  2.9493
   34MYC    C38 3439   4.093   0.659   7.600  0.0418  0.3232 -1.0285
   34MYC    H70 3440   4.196   0.668   7.635 -0.2681 -0.1226  0.0300
   34MYC    H71 3441   4.076   0.552   7.582  0.7131 -0.5028  2.5740
   34MYC    C39 3442   4.081   0.734   7.466 -0.1570 -0.1966 -0.1713
   34MYC    H72 3443   3.982   0.717   7.420 -0.3033 -2.3887  0.8256
   34MYC    H73 3444   4.086   0.842   7.480  0.2174 -0.0683 -1.2061
   34MYC    C40 3445   4.197   0.688   7.371  0.1247  0.5940 -0.5591
   34MYC    H74 3446   4.291   0.703   7.425 -0.5230 -1.6207  1.3497
   34MYC    H75 3447   4.192   0.580   7.353  0.9745  0.6032 -0.8914
   34MYC    C41 3448   4.202   0.749   7.237 -0.4760 -0.3714 -0.0712
   34MYC    H76 3449   4.214   0.858   7.235  3.5423 -0.6248  1.5782
   34MYC    H77 3450   4.299   0.737   7.189  0.2041  1.2924  0.8148
   34MYC    C42 3451   4.096   0.696   7.135 -0.5177  0.3442  0.2686
   34MYC    H78 3452   4.095   0.587   7.147  2.1523  0.4297  1.8118
   34MYC    H79 3453   3.999   0.732   7.170 -2.3342 -2.9361 -0.9174
   34MYC    C43 3454   4.109   0.725   6.981  0.1335 -0.1671  0.2590
   34MYC    H80 3455   4.077   0.827   6.959  0.0770 -0.4500 -1.0544
   34MYC    H81 3456   4.038   0.663   6.925  0.5420 -1.3801  1.0403
   34MYC    H82 3457   4.209   0.694   6.949  0.0517 -1.7839  1.4002
   35MYC   HH15 3458   4.640   0.256   6.637  1.4582 -1.2470  0.7018
   35MYC    C80 3459   4.638   0.323   6.724 -0.3194 -1.0466  0.5383
   35MYC   H100 3460   4.737   0.341   6.766 -1.6367 -0.3386  3.6963
   35MYC   H101 3461   4.594   0.413   6.679 -1.1909 -3.6981 -4.7142
   35MYC    C79 3462   4.541   0.266   6.828  0.0312 -0.1783 -0.8662
   35MYC   H102 3463   4.561   0.161   6.853  3.8815  0.4798 -0.5809
   35MYC   H103 3464   4.443   0.274   6.781 -0.0539 -0.2175 -0.6984
   35MYC    C78 3465   4.538   0.355   6.954 -0.2374 -0.4326  0.4535
   35MYC   HH14 3466   4.507   0.455   6.922 -0.1742 -1.2168 -2.3713
   35MYC   H104 3467   4.642   0.370   6.987  0.2167  2.2347 -1.8121
   35MYC    C77 3468   4.469   0.300   7.077  0.4056  0.0868  0.4236
   35MYC   H106 3469   4.499   0.196   7.091  0.3344  0.0769  0.5070
   35MYC   H107 3470   4.365   0.301   7.042  0.6053 -0.1210 -0.2009
   35MYC    C76 3471   4.484   0.386   7.209 -0.6019  0.1417  0.4689
   35MYC   H108 3472   4.458   0.490   7.186 -0.1081  0.1095 -0.2723
   35MYC   H109 3473   4.592   0.389   7.228 -0.5334 -0.7047  0.2264
   35MYC    C75 3474   4.387   0.331   7.329 -1.1486  0.2156  0.5929
   35MYC   H110 3475   4.406   0.223   7.336  1.8650  0.6460  0.5795
   35MYC   H111 3476   4.282   0.341   7.303 -1.8058 -0.3150  2.7938
   35MYC    C74 3477   4.428   0.393   7.464 -0.2226 -0.4300  0.6149
   35MYC   H112 3478   4.435   0.502   7.454  4.0862 -0.4528  1.5706
   35MYC   H113 3479   4.527   0.353   7.487  0.5351  1.4076  0.7212
   35MYC    C73 3480   4.348   0.357   7.581  0.6807 -0.4178  0.6385
   35MYC   HH13 3481   4.314   0.252   7.583 -0.0699 -0.2689 -1.5915
   35MYC   H114 3482   4.248   0.402   7.574  1.0463  0.1790 -1.9969
   35MYC    C72 3483   4.417   0.411   7.709 -0.1839  0.4554 -0.3900
   35MYC   H115 3484   4.438   0.518   7.705  2.2357  0.0806  0.3489
   35MYC   H116 3485   4.510   0.358   7.735  0.2097  1.0400 -0.6088
   35MYC    C71 3486   4.326   0.382   7.832  0.5030  0.0367  0.1442
   35MYC   H117 3487   4.300   0.276   7.822 -0.3903  0.2881 -0.2742
   35MYC   H118 3488   4.242   0.451   7.843  0.6754  0.5012 -1.2258
   35MYC    C70 3489   4.405   0.390   7.967 -0.0832 -0.1751  0.4808
   35MYC   H119 3490   4.454   0.488   7.974  1.6090 -0.8233 -1.1840
   35MYC   H120 3491   4.480   0.310   7.960  0.8294  0.6356  0.6940
   35MYC    C69 3492   4.310   0.378   8.088  0.2830 -0.4866  0.5998
   35MYC   H121 3493   4.266   0.278   8.104 -1.4056  0.2525  0.8022
   35MYC   H122 3494   4.216   0.431   8.067  0.2824 -0.3911  0.8393
   35MYC    C68 3495   4.364   0.430   8.217  0.2794  0.2154 -0.8538
   35MYC   HH12 3496   4.408   0.530   8.207  1.1965 -0.1436 -0.4408
   35MYC   H123 3497   4.455   0.371   8.234  0.6486  1.1841  0.6980
   35MYC    C67 3498   4.262   0.414   8.334 -0.3873 -0.0749 -0.2105
   35MYC   H124 3499   4.235   0.308   8.340 -2.2971  0.2846 -1.4307
   35MYC   H125 3500   4.172   0.472   8.310 -0.8720  0.5905  2.8224
   35MYC    C66 3501   4.322   0.470   8.458  0.1639  0.2329 -0.2065
   35MYC   H126 3502   4.346   0.574   8.433 -0.2673  0.4393  0.2216
   35MYC   H127 3503   4.418   0.423   8.485 -1.0592 -1.5215  1.3966
   35MYC    C65 3504   4.220   0.455   8.570 -0.0928 -0.2440  0.4578
   35MYC   H128 3505   4.184   0.353   8.584 -1.2055  0.0488 -0.1927
   35MYC   H129 3506   4.138   0.521   8.540  0.5663  0.7102  0.6934
   35MYC    C64 3507   4.262   0.513   8.715 -0.2285 -0.2508 -0.0331
   35MYC   H130 3508   4.295   0.617   8.713 -0.6427 -0.1269 -1.4210
   35MYC   H131 3509   4.340   0.448   8.756  0.3223 -0.4220 -1.3041
   35MYC    C63 3510   4.159   0.513   8.827  0.0406  0.7762  0.1336
   35MYC   HH11 3511   4.117   0.412   8.838  0.1749  0.8156  1.0925
   35MYC   H132 3512   4.076   0.565   8.778 -0.1033 -0.6130 -1.1550
   35MYC    C62 3513   4.195   0.561   8.973  0.5213  0.2798 -0.6564
   35MYC   H133 3514   4.222   0.667   8.973  0.3098  0.3655  1.3217
   35MYC   H134 3515   4.282   0.505   9.009 -1.2560 -2.7423 -0.7350
   35MYC    C61 3516   4.070   0.557   9.068 -0.4782  0.1580 -0.2526
   35MYC   H135 3517   4.043   0.453   9.088 -1.0558  0.6142  1.5316
   35MYC   H136 3518   3.985   0.604   9.019  0.1927  0.2808 -1.3227
   35MYC    C60 3519   4.094   0.622   9.211 -0.5651 -0.1728  1.0151
   35MYC   H137 3520   4.012   0.628   9.283 -0.4048 -0.1484  1.1965
   35MYC    C58 3521   4.232   0.607   9.270  0.0736  0.5808 -0.0347
   35MYC   H138 3522   4.307   0.546   9.219  0.3943  0.3291  0.7225
   35MYC    C59 3523   4.186   0.742   9.231  0.1494 -0.0714 -0.1585
   35MYC   H139 3524   4.148   0.810   9.308 -0.3282  0.5892 -0.9560
   35MYC   H140 3525   4.238   0.791   9.149  0.0444  0.1475 -0.0957
   35MYC    C57 3526   4.230   0.564   9.423 -0.1146  0.2566 -0.2935
   35MYC   HH10 3527   4.240   0.455   9.429 -0.7541  0.1515 -0.9922
   35MYC   H141 3528   4.132   0.596   9.460 -1.4202 -0.3125 -3.0032
   35MYC    C56 3529   4.347   0.629   9.511  0.0082 -0.3590  0.6515
   35MYC   H142 3530   4.338   0.739   9.504 -1.2351 -0.1920  3.4390
   35MYC   H143 3531   4.446   0.608   9.468 -0.1442 -0.0892  0.1493
   35MYC    C55 3532   4.344   0.591   9.661 -0.2180  0.7170 -0.0204
   35MYC   H144 3533   4.415   0.649   9.721 -0.4685  0.9659  0.0401
   35MYC   H145 3534   4.372   0.487   9.675 -1.3844  0.5298  1.1731
   35MYC    C54 3535   4.204   0.611   9.724  0.1799 -0.4078 -0.1584
   35MYC   H146 3536   4.205   0.571   9.826 -1.8983 -1.4241 -0.4840
   35MYC   H147 3537   4.140   0.541   9.667  0.6171  0.3210 -1.6011
   35MYC    C53 3538   4.156   0.765   9.732 -0.6921 -0.0653 -0.5315
   35MYC   H148 3539   4.155   0.803   9.629 -1.0981  1.2556 -0.0663
   35MYC   H149 3540   4.228   0.815   9.798 -1.6344  1.9153 -0.9195
   35MYC    C52 3541   4.014   0.782   9.783 -0.2069 -0.5417 -0.1224
   35MYC    H99 3542   3.942   0.733   9.716 -0.5337 -0.3383  0.0755
   35MYC   H150 3543   3.981   0.886   9.779 -2.0873 -1.0841  0.2218
   35MYC    C51 3544   3.993   0.744   9.935  0.5480 -0.5677 -0.0005
   35MYC    H97 3545   4.012   0.636   9.938  0.9371 -0.5216 -0.5824
   35MYC    H98 3546   3.887   0.757   9.959  0.2514 -0.8468 -1.1138
   35MYC    C50 3547   4.085   0.817  10.046 -0.5860  0.5287 -0.1729
   35MYC    H95 3548   4.068   0.925  10.058 -0.9934  0.5056 -0.5288
   35MYC    H96 3549   4.190   0.795  10.023 -0.5532  1.5598 -1.1149
   35MYC    C49 3550   4.057   0.768  10.189 -0.2730 -0.9792  0.5429
   35MYC    H93 3551   4.049   0.659  10.201 -1.5975 -0.9740 -0.1212
   35MYC    H94 3552   3.961   0.811  10.219  0.5878  1.2410  0.3047
   35MYC    C48 3553   4.162   0.812  10.296  0.2843 -0.3854  0.1915
   35MYC    H91 3554   4.174   0.921  10.292 -0.0441 -0.3057  1.1933
   35MYC    H92 3555   4.260   0.772  10.268  0.7295  0.9019 -0.1799
   35MYC    C47 3556   4.120   0.794  10.440  0.2093 -0.2167 -0.0074
   35MYC    H89 3557   4.204   0.801  10.510  0.9705 -0.3719 -0.8821
   35MYC    H90 3558   4.078   0.693  10.448 -0.8198  0.1572 -0.4616
   35MYC    C46 3559   4.005   0.895  10.485 -0.0017 -0.1414 -0.1982
   35MYC    H87 3560   3.918   0.881  10.420 -1.4642  2.0975  1.1634
   35MYC    H88 3561   4.038   0.996  10.458 -0.0542 -0.0698  0.0057
   35MYC    C45 3562   3.970   0.881  10.634  0.4653 -0.2862  0.6507
   35MYC    H85 3563   4.059   0.842  10.684  0.4716 -0.5407  0.4439
   35MYC    H86 3564   3.900   0.796  10.633 -0.0464  0.0906 -1.4581
   35MYC    C44 3565   3.888   0.990  10.716 -0.2323 -0.0809  0.2238
   35MYC    H83 3566   3.865   0.942  10.812 -0.9912 -1.2597 -0.5157
   35MYC    H84 3567   3.792   1.012  10.668  0.2422  1.6998  0.0057
   35MYC    C18 3568   3.973   1.113  10.749  0.0630  0.6119 -0.2612
   35MYC    H31 3569   4.052   1.095  10.822 -0.3259  2.0702  0.5676
   35MYC    C17 3570   4.002   1.225  10.645 -0.1754  0.8377  0.4677
   35MYC    H30 3571   3.951   1.209  10.550 -0.7956 -0.6476  1.0308
   35MYC    C19 3572   3.902   1.241  10.755 -0.2369 -0.5981 -0.4830
   35MYC    H32 3573   3.800   1.255  10.721 -0.5791 -0.5675  0.5350
   35MYC    H33 3574   3.921   1.314  10.834 -0.7052  2.0023 -2.6143
   35MYC    C16 3575   4.115   1.327  10.647  0.1810  0.0318  0.3739
   35MYC    H28 3576   4.084   1.411  10.709  1.6649  1.7876 -1.1291
   35MYC    H29 3577   4.122   1.374  10.548  1.7072  0.0155  0.4434
   35MYC    C15 3578   4.258   1.286  10.694  0.9323  0.7976 -0.5489
   35MYC    H26 3579   4.250   1.244  10.795 -1.7216 -0.3472 -1.1428
   35MYC    H27 3580   4.323   1.374  10.691 -1.1482  2.4662  0.3300
   35MYC    C14 3581   4.304   1.169  10.601 -0.2386 -0.0045 -0.5019
   35MYC    H24 3582   4.290   1.202  10.497  0.4725  0.2563 -0.5178
   35MYC    H25 3583   4.239   1.082  10.615 -0.6156 -0.3016 -3.4611
   35MYC    C13 3584   4.449   1.126  10.612  0.0864  0.2024 -0.2611
   35MYC    H22 3585   4.453   1.082  10.712  0.9377  2.8103  0.9294
   35MYC    H23 3586   4.509   1.217  10.613 -1.6931  1.4140  0.7968
   35MYC    C12 3587   4.497   1.016  10.507 -0.4741 -0.0609 -0.6643
   35MYC    H20 3588   4.497   1.058  10.406 -0.7524  0.5681 -0.4104
   35MYC    H21 3589   4.437   0.924  10.509  1.1203 -1.1400  0.3094
   35MYC    C11 3590   4.636   0.963  10.532  0.0515 -0.0733 -0.6625
   35MYC    H18 3591   4.631   0.943  10.640 -1.8927  0.6519 -0.5723
   35MYC    H19 3592   4.720   1.030  10.510  1.0336 -1.2831 -0.6690
   35MYC    C10 3593   4.670   0.837  10.456 -0.1457  0.6525 -0.7844
   35MYC    H16 3594   4.637   0.847  10.352 -0.5239  0.8432 -0.6512
   35MYC    H17 3595   4.600   0.761  10.494 -0.5796 -0.3941 -3.4836
   35MYC     C9 3596   4.817   0.782  10.468  0.3355  0.5467 -0.6209
   35MYC    H14 3597   4.835   0.775  10.575  1.3156  3.3622 -0.5068
   35MYC    H15 3598   4.886   0.863  10.440  0.0009  1.1091  0.1511
   35MYC     C8 3599   4.850   0.642  10.409  0.1846  0.5729  0.3200
   35MYC    H12 3600   4.818   0.630  10.305 -0.4544  0.1466  0.5618
   35MYC    H13 3601   4.795   0.566  10.465  2.8178 -2.2278 -0.6108
   35MYC     C7 3602   5.006   0.615  10.415  0.3618 -0.3474  0.0129
   35MYC    H10 3603   5.034   0.514  10.383 -0.0630 -0.2066 -0.8245
   35MYC    H11 3604   5.045   0.645  10.513 -2.0806  0.8514  0.6762
   35MYC     C6 3605   5.088   0.713  10.323  0.0515  0.6578  0.2304
   35MYC     H8 3606   5.193   0.682  10.328  0.4114  1.9871  1.3613
   35MYC     H9 3607   5.086   0.815  10.363  1.1873  0.3900  1.0350
   35MYC     C5 3608   5.025   0.720  10.178  0.0588 -0.3576 -0.9083
   35MYC     H6 3609   5.090   0.789  10.122  1.1327 -0.6627 -0.0719
   35MYC     H7 3610   4.924   0.760  10.170  0.2642 -0.0657 -2.3525
   35MYC     C4 3611   5.032   0.583  10.103  0.0528 -0.1760 -0.1588
   35MYC     H4 3612   4.946   0.528  10.146  0.2727 -0.2077  0.2491
   35MYC     H5 3613   5.122   0.524  10.123 -1.8352 -2.7582  1.4699
   35MYC     C2 3614   5.008   0.593   9.948  0.7125 -0.6350  0.5241
   35MYC     H2 3615   4.945   0.680   9.928  0.4104 -0.7628  0.9068
   35MYC     O3 3616   5.130   0.624   9.880  0.5427 -0.0553  0.3347
   35MYC     H3 3617   5.180   0.541   9.867  1.4559 -0.0096  2.9652
   35MYC     C1 3618   4.948   0.464   9.886 -0.4030 -0.1285  0.0968
   35MYC     H1 3619   4.856   0.448   9.944 -0.2864  0.3019  0.4047
   35MYC    C81 3620   5.028   0.329   9.921  0.4134  1.1160  0.3020
   35MYC    O82 3621   5.142   0.302   9.885 -0.1602  0.1154 -0.6057
   35MYC    O83 3622   4.949   0.235   9.974 -0.3596  0.3977 -0.2896
   35MYC   H105 3623   5.013   0.165   9.994 -0.0071  1.0345  0.8893
   35MYC    C20 3624   4.907   0.464   9.734 -0.0457  0.0067  0.2697
   35MYC    H34 3625   4.990   0.491   9.667 -1.2837 -0.4199 -1.5219
   35MYC    H35 3626   4.879   0.363   9.700 -0.2089  0.1781 -0.1048
   35MYC    C21 3627   4.796   0.562   9.708 -0.3680 -0.2993 -0.6860
   35MYC    H36 3628   4.712   0.528   9.769 -0.2628  2.6589  1.2733
   35MYC    H37 3629   4.821   0.654   9.762  2.1593 -0.2936 -1.7308
   35MYC    C22 3630   4.762   0.601   9.555 -0.0232 -0.8790  0.1134
   35MYC    H38 3631   4.693   0.686   9.545 -0.8376 -1.5759 -0.2970
   35MYC    H39 3632   4.850   0.652   9.514 -1.0555  1.6468  0.8443
   35MYC    C23 3633   4.722   0.484   9.465 -0.0365  0.3969 -0.8055
   35MYC    H40 3634   4.791   0.400   9.472 -0.1238  0.2068 -2.0063
   35MYC    H41 3635   4.624   0.452   9.503  0.8884 -3.2718 -1.2262
   35MYC    C24 3636   4.731   0.533   9.316  0.1492 -0.0758  0.6737
   35MYC    H42 3637   4.676   0.625   9.296  1.4063  0.5852  0.1662
   35MYC    H43 3638   4.836   0.551   9.290 -0.0411 -1.3637 -1.1966
   35MYC    C25 3639   4.690   0.428   9.217 -0.0957  0.5188  0.8527
   35MYC    H44 3640   4.757   0.341   9.225  0.2127  0.3216 -2.5320
   35MYC    H45 3641   4.588   0.397   9.238 -0.8169  1.7978 -0.5268
   35MYC    C26 3642   4.701   0.468   9.066 -0.6844  0.0436  0.0938
   35MYC    H46 3643   4.642   0.559   9.047 -0.4494 -0.3731 -3.1714
   35MYC    H47 3644   4.806   0.493   9.049 -0.8529 -0.0099 -1.1703
   35MYC    C27 3645   4.662   0.360   8.958 -0.4921  0.4097  0.1342
   35MYC    H48 3646   4.717   0.268   8.980 -0.5180 -0.0249 -1.4985
   35MYC    H49 3647   4.559   0.323   8.959 -0.7867  0.8029 -3.4411
   35MYC    C28 3648   4.695   0.400   8.813 -0.3128  0.6356 -1.1484
   35MYC    H50 3649   4.622   0.477   8.786  1.2093  2.7195  0.3112
   35MYC    H51 3650   4.799   0.435   8.813  0.4660 -1.5253 -1.2861
   35MYC    C29 3651   4.691   0.282   8.713 -0.4952 -0.8155  0.0913
   35MYC    H52 3652   4.767   0.206   8.736 -0.3928 -0.9767 -0.7421
   35MYC    H53 3653   4.590   0.241   8.718 -0.4180 -0.9367  0.8087
   35MYC    C30 3654   4.726   0.338   8.569  0.0668 -0.3921 -0.5863
   35MYC    H54 3655   4.654   0.416   8.539 -0.2580 -1.2034 -2.0093
   35MYC    H55 3656   4.824   0.386   8.579 -0.3093  0.1558  0.8377
   35MYC    C31 3657   4.738   0.233   8.459  0.1909 -0.5884  0.0661
   35MYC    H56 3658   4.813   0.157   8.481 -1.0372 -1.9580 -0.2931
   35MYC    H57 3659   4.643   0.178   8.465  1.6336 -3.4507 -1.3579
   35MYC    C32 3660   4.763   0.286   8.314  0.1066  0.3759  1.1308
   35MYC    H58 3661   4.697   0.371   8.291 -0.9737 -0.7509 -0.1438
   35MYC    H59 3662   4.867   0.318   8.301  0.0537  0.8727  1.8657
   35MYC    C33 3663   4.728   0.182   8.195  0.1585 -0.0192 -0.0477
   35MYC    H60 3664   4.770   0.086   8.228 -1.6075 -0.7425  0.2083
   35MYC    H61 3665   4.619   0.171   8.190  0.4469 -3.0172 -3.7371
   35MYC    C34 3666   4.786   0.226   8.061 -0.2488  0.0068 -0.3208
   35MYC    H62 3667   4.755   0.329   8.042 -0.0648  0.4172  1.4558
   35MYC    H63 3668   4.895   0.236   8.062 -0.2199 -0.1822  1.3343
   35MYC    C35 3669   4.749   0.131   7.945 -0.4378 -0.7049  0.6694
   35MYC    H64 3670   4.792   0.031   7.960  1.9319 -0.3690 -2.7359
   35MYC    H65 3671   4.640   0.120   7.942 -0.3898 -1.8038  2.1518
   35MYC    C36 3672   4.814   0.184   7.812  0.0622 -0.2500  0.7852
   35MYC    H66 3673   4.792   0.291   7.807  1.6302  0.1232  1.2326
   35MYC    H67 3674   4.923   0.172   7.821 -0.1794 -1.9680  1.8739
   35MYC    C37 3675   4.769   0.125   7.681 -0.4077 -0.1624 -0.3481
   35MYC    H68 3676   4.791   0.018   7.687  1.6723  0.2195 -0.3112
   35MYC    H69 3677   4.663   0.145   7.662 -0.5915  0.2397  0.9843
   35MYC    C38 3678   4.843   0.182   7.558  0.0496 -0.4735 -0.5883
   35MYC    H70 3679   4.823   0.289   7.566  0.3833 -0.3504 -1.3924
   35MYC    H71 3680   4.951   0.180   7.576 -0.1946  0.8306  1.3252
   35MYC    C39 3681   4.793   0.124   7.434  0.2791  0.4855  0.2218
   35MYC    H72 3682   4.803   0.015   7.431 -0.3675  0.4289 -0.0204
   35MYC    H73 3683   4.684   0.140   7.431  0.2547  0.4514  0.7406
   35MYC    C40 3684   4.854   0.192   7.312  0.6740  0.2744 -0.8936
   35MYC    H74 3685   4.805   0.290   7.305  0.4990  0.3387  0.6794
   35MYC    H75 3686   4.962   0.207   7.327  1.1768 -2.2662 -1.5488
   35MYC    C41 3687   4.827   0.106   7.180 -0.4200 -0.8428 -0.6818
   35MYC    H76 3688   4.841   0.002   7.211  1.3784 -0.4116  0.1049
   35MYC    H77 3689   4.726   0.134   7.151  0.1425  1.5322 -0.5868
   35MYC    C42 3690   4.935   0.138   7.072  0.0602  0.5369  0.8504
   35MYC    H78 3691   4.947   0.246   7.062 -0.7115  0.4292 -2.4364
   35MYC    H79 3692   5.029   0.091   7.104  1.0539  1.1394 -1.0203
   35MYC    C43 3693   4.900   0.073   6.938  0.2561 -0.0455 -0.4488
   35MYC    H80 3694   4.996   0.048   6.892  0.9123  0.4714  0.6025
   35MYC    H81 3695   4.844   0.145   6.876 -0.0108  0.6361  0.5560
   35MYC    H82 3696   4.840  -0.016   6.962 -0.6512  0.7567  0.3573
   36MYC   HH15 3697   4.770   1.087   7.592  2.8339 -1.5925 -0.0968
   36MYC    C80 3698   4.813   1.155   7.667 -0.1562 -0.3529  0.6252
   36MYC   H100 3699   4.908   1.165   7.614  0.1833 -0.1758  1.2525
   36MYC   H101 3700   4.765   1.254   7.671  0.1533 -0.2299  1.9999
   36MYC    C79 3701   4.811   1.087   7.807  0.0079  0.1126 -0.3014
   36MYC   H102 3702   4.875   0.997   7.805  1.8621  1.3479  0.6775
   36MYC   H103 3703   4.706   1.058   7.813  0.0834  0.0604  0.8702
   36MYC    C78 3704   4.858   1.175   7.931  0.1070  0.2652  0.6800
   36MYC   HH14 3705   4.801   1.269   7.936  0.7193  0.8246 -1.6635
   36MYC   H104 3706   4.958   1.212   7.907 -0.4165  0.5109 -1.2644
   36MYC    C77 3707   4.850   1.091   8.055  1.1005 -0.1239  0.4556
   36MYC   H106 3708   4.909   1.000   8.038 -1.7394 -1.8140 -0.9635
   36MYC   H107 3709   4.749   1.054   8.072  1.1454 -1.3115 -1.6151
   36MYC    C76 3710   4.899   1.171   8.184 -0.0630 -0.5804  0.0308
   36MYC   H108 3711   4.827   1.252   8.198  0.9837 -0.0306  3.0130
   36MYC   H109 3712   4.998   1.212   8.157 -0.3013  0.2277  0.3544
   36MYC    C75 3713   4.907   1.090   8.314 -0.3629  0.5374 -1.2096
   36MYC   H110 3714   4.953   0.994   8.291 -0.2647  1.2322 -4.3550
   36MYC   H111 3715   4.806   1.059   8.343  1.0224 -3.1323  0.2417
   36MYC    C74 3716   4.962   1.160   8.448 -0.6607 -0.0309  0.0262
   36MYC   H112 3717   4.903   1.250   8.469 -0.7491  0.3240 -1.6069
   36MYC   H113 3718   5.069   1.177   8.435 -0.8520  0.0571 -1.7725
   36MYC    C73 3719   4.939   1.068   8.584  0.1218  0.1642 -0.0807
   36MYC   HH13 3720   4.977   0.967   8.565  0.8583  0.0959  1.5905
   36MYC   H114 3721   4.831   1.055   8.594 -0.1142  1.3084 -0.9529
   36MYC    C72 3722   4.995   1.133   8.720 -0.2282 -0.0938  0.3809
   36MYC   H115 3723   4.959   1.237   8.716  1.5846  0.5819  0.7200
   36MYC   H116 3724   5.104   1.148   8.724 -0.3487  0.5795  2.0178
   36MYC    C71 3725   4.952   1.063   8.850  0.1121  0.2348  0.8435
   36MYC   H117 3726   4.845   1.085   8.858  0.4007  1.8527  0.6523
   36MYC   H118 3727   5.014   1.098   8.933 -0.1622  0.0049  1.1491
   36MYC    C70 3728   4.963   0.906   8.838 -0.2302  0.8459  0.8270
   36MYC   H119 3729   5.042   0.880   8.767  1.5284  0.0761  2.9703
   36MYC   H120 3730   4.874   0.863   8.789  0.4803  1.5786 -1.2353
   36MYC    C69 3731   4.991   0.822   8.961  0.5715  0.0444  0.6107
   36MYC   H121 3732   4.909   0.847   9.029 -0.0478 -0.7008  0.1656
   36MYC   H122 3733   5.086   0.854   9.005  0.4811  0.6695  0.3611
   36MYC    C68 3734   5.008   0.666   8.936 -0.0226 -0.1761 -0.3688
   36MYC   HH12 3735   5.081   0.648   8.856 -0.5903 -1.1105 -0.6859
   36MYC   H123 3736   4.911   0.624   8.906 -0.3094  0.6304 -0.6119
   36MYC    C67 3737   5.057   0.593   9.053  0.0815  0.6640  0.6816
   36MYC   H124 3738   4.980   0.605   9.130 -1.1907  3.6087 -0.9029
   36MYC   H125 3739   5.147   0.647   9.085 -1.0404  2.1828  1.4253
   36MYC    C66 3740   5.076   0.440   9.030 -0.8140  0.0242 -0.0454
   36MYC   H126 3741   5.121   0.426   8.931  0.2346  0.5690  0.3324
   36MYC   H127 3742   4.986   0.381   9.014 -1.2285  0.8979 -1.0640
   36MYC    C65 3743   5.160   0.380   9.149  0.3017 -0.2002  0.4898
   36MYC   H128 3744   5.245   0.444   9.176  1.2518 -0.8470 -0.8540
   36MYC   H129 3745   5.203   0.283   9.119 -1.0899 -0.1393 -1.9366
   36MYC    C64 3746   5.073   0.351   9.277 -0.1527  0.5743  0.2789
   36MYC   H130 3747   4.981   0.302   9.243  1.1275 -1.0619 -1.0206
   36MYC   H131 3748   5.038   0.440   9.330  0.4961  1.0702 -0.1045
   36MYC    C63 3749   5.150   0.249   9.370 -0.1577 -0.7793  0.0910
   36MYC   HH11 3750   5.248   0.288   9.401 -0.4976  1.3680 -1.3184
   36MYC   H132 3751   5.177   0.154   9.322 -0.4033 -1.3313  1.0110
   36MYC    C62 3752   5.071   0.201   9.496 -0.0928  0.0161  0.5365
   36MYC   H133 3753   5.014   0.285   9.538 -1.8979 -0.3685 -1.0048
   36MYC   H134 3754   5.152   0.191   9.569  0.1222  0.0332  0.3012
   36MYC    C61 3755   4.988   0.071   9.487 -0.2433  0.6393  0.4476
   36MYC   H135 3756   5.039   0.006   9.415  0.7398  2.7682 -0.8877
   36MYC   H136 3757   4.885   0.094   9.460 -1.2350  1.8138  4.4680
   36MYC    C60 3758   4.975   0.018   9.627 -0.2143 -0.6912  0.1407
   36MYC   H137 3759   4.956   0.091   9.705  1.3305  1.9486 -1.8046
   36MYC    C58 3760   4.916  -0.120   9.671 -0.0745 -1.0347  0.3271
   36MYC   H138 3761   4.884  -0.187   9.592  0.5106 -1.1810  0.2066
   36MYC    C59 3762   5.067  -0.098   9.668  0.0703  0.4092 -0.1480
   36MYC   H139 3763   5.122  -0.091   9.761  1.2046  1.2638 -0.8530
   36MYC   H140 3764   5.115  -0.158   9.591 -1.2898 -1.3226  0.2995
   36MYC    C57 3765   4.846  -0.130   9.802 -0.6378  0.5007 -0.5041
   36MYC   HH10 3766   4.902  -0.065   9.871  2.2801  0.4486 -2.6444
   36MYC   H141 3767   4.869  -0.230   9.842  3.3983  1.2789 -0.4231
   36MYC    C56 3768   4.697  -0.100   9.810 -0.2534  0.4308 -0.2590
   36MYC   H142 3769   4.645  -0.172   9.745  0.8742 -0.3188 -0.3511
   36MYC   H143 3770   4.677   0.004   9.782  4.3763  2.0306  1.4515
   36MYC    C55 3771   4.639  -0.124   9.939  0.4329  0.3875 -0.7486
   36MYC   H144 3772   4.651  -0.229   9.966  0.6436  0.1730 -1.6414
   36MYC   H145 3773   4.531  -0.106   9.943 -0.0607 -2.2949  0.7527
   36MYC    C54 3774   4.695  -0.043  10.057 -0.1469 -0.4209  0.7944
   36MYC   H146 3775   4.685   0.064  10.031 -0.8135 -0.9172 -1.2092
   36MYC   H147 3776   4.804  -0.048  10.060 -0.1349 -0.4777  0.3505
   36MYC    C53 3777   4.626  -0.062  10.196 -0.1816  0.0682 -0.3137
   36MYC   H148 3778   4.631  -0.166  10.228 -0.7341  0.1289 -0.0109
   36MYC   H149 3779   4.519  -0.037  10.194 -0.5877 -1.3585  1.3053
   36MYC    C52 3780   4.699   0.033  10.303  0.0244 -0.1935 -0.3646
   36MYC    H99 3781   4.628   0.050  10.385  0.5368  1.1573 -0.1733
   36MYC   H150 3782   4.711   0.130  10.254 -1.4974 -0.8208 -2.0996
   36MYC    C51 3783   4.836  -0.015  10.352 -0.4522  0.2168  0.4801
   36MYC    H97 3784   4.887  -0.058  10.265 -2.8239  0.2516 -1.0350
   36MYC    H98 3785   4.828  -0.102  10.417 -0.7088  0.2333  0.4702
   36MYC    C50 3786   4.908   0.101  10.431  0.4154 -0.0073  0.5979
   36MYC    H95 3787   4.922   0.185  10.363 -0.2998 -0.1801  0.2201
   36MYC    H96 3788   5.010   0.065  10.451 -0.3992 -1.9834  1.5379
   36MYC    C49 3789   4.853   0.146  10.560 -0.1593  0.1339 -0.3609
   36MYC    H93 3790   4.835   0.056  10.620 -3.5356  0.6018 -0.4739
   36MYC    H94 3791   4.754   0.176  10.524 -0.4179 -2.4386 -2.0979
   36MYC    C48 3792   4.931   0.253  10.629  0.2028  0.4363 -0.0813
   36MYC    H91 3793   4.975   0.314  10.549 -0.1823  1.2016  0.2816
   36MYC    H92 3794   5.008   0.202  10.688 -0.7413 -0.4220  0.4363
   36MYC    C47 3795   4.835   0.339  10.720  0.0180  0.2179  0.8192
   36MYC    H89 3796   4.765   0.264  10.759  0.3096 -0.4116  0.1358
   36MYC    H90 3797   4.771   0.414  10.672 -0.0174  1.0697  2.1250
   36MYC    C46 3798   4.907   0.400  10.842  0.4666 -0.3761 -0.1440
   36MYC    H87 3799   4.928   0.315  10.908 -1.3809 -1.5848 -1.0016
   36MYC    H88 3800   4.825   0.459  10.885  1.3800 -2.2243  4.8574
   36MYC    C45 3801   5.022   0.492  10.825  0.2603 -0.7482  0.4344
   36MYC    H85 3802   4.997   0.570  10.752  1.3529 -0.2910  0.5295
   36MYC    H86 3803   5.103   0.440  10.772  0.2214 -1.3312  0.9378
   36MYC    C44 3804   5.072   0.568  10.950 -0.0678  0.2026  0.0412
   36MYC    H83 3805   4.990   0.608  11.010 -0.9654 -3.7970  1.8066
   36MYC    H84 3806   5.117   0.658  10.906  2.7989 -1.5483 -0.8961
   36MYC    C18 3807   5.170   0.494  11.032  0.2446  0.1425 -0.3437
   36MYC    H31 3808   5.248   0.447  10.973 -1.0074 -2.1508 -0.3246
   36MYC    C17 3809   5.208   0.554  11.163 -0.1667  0.4134  0.8427
   36MYC    H30 3810   5.148   0.635  11.201 -1.8353 -1.0978  1.5710
   36MYC    C19 3811   5.126   0.426  11.161 -0.1565 -0.3490  0.6962
   36MYC    H32 3812   5.020   0.432  11.183 -0.0101 -0.5368  1.5081
   36MYC    H33 3813   5.170   0.333  11.195  1.0251 -0.8007 -1.8327
   36MYC    C16 3814   5.357   0.560  11.187 -0.6905 -0.1976  1.0632
   36MYC    H28 3815   5.398   0.468  11.145 -1.4370 -0.3026  0.5376
   36MYC    H29 3816   5.377   0.568  11.294  1.6169 -2.4292  0.8947
   36MYC    C15 3817   5.430   0.677  11.120  0.1810 -0.4026  0.8548
   36MYC    H26 3818   5.539   0.678  11.131  0.5027  2.1124 -1.4024
   36MYC    H27 3819   5.392   0.774  11.153  3.6908  1.4432 -0.0015
   36MYC    C14 3820   5.420   0.692  10.967 -0.3298  0.0748  0.1037
   36MYC    H24 3821   5.326   0.736  10.933 -0.5489 -1.9476 -2.2424
   36MYC    H25 3822   5.424   0.597  10.912 -1.7257  0.1180 -0.1088
   36MYC    C13 3823   5.532   0.790  10.913  0.5303 -0.6702 -0.2971
   36MYC    H22 3824   5.628   0.738  10.908 -0.0701 -1.8690  0.1575
   36MYC    H23 3825   5.536   0.874  10.982 -0.3494 -0.5339 -0.3978
   36MYC    C12 3826   5.507   0.852  10.780  1.1846 -0.1982 -0.3499
   36MYC    H20 3827   5.569   0.942  10.770 -1.1179  1.9116  2.6622
   36MYC    H21 3828   5.407   0.895  10.774  1.9229  1.6128 -0.4350
   36MYC    C11 3829   5.511   0.754  10.664  0.2502  0.8618 -0.4773
   36MYC    H18 3830   5.427   0.684  10.671  2.0235 -1.6249 -2.1190
   36MYC    H19 3831   5.602   0.694  10.673  0.5254  1.1865 -1.0393
   36MYC    C10 3832   5.526   0.817  10.515  0.1524  0.4427 -0.2657
   36MYC    H16 3833   5.614   0.882  10.511  0.3838  0.3077  1.7794
   36MYC    H17 3834   5.430   0.861  10.488  0.0714  0.4535  0.0358
   36MYC     C9 3835   5.535   0.692  10.421 -0.6022 -0.0861 -0.1096
   36MYC    H14 3836   5.457   0.622  10.455 -0.7541  1.2833  2.5572
   36MYC    H15 3837   5.632   0.644  10.435 -0.7163 -0.0246  0.9378
   36MYC     C8 3838   5.510   0.729  10.271 -0.0258 -0.1113  0.6730
   36MYC    H12 3839   5.591   0.799  10.248  0.1660 -0.7770 -0.7588
   36MYC    H13 3840   5.411   0.774  10.258 -0.4841 -1.5145 -1.0109
   36MYC     C7 3841   5.514   0.610  10.181 -0.4332  0.2737 -0.1126
   36MYC    H10 3842   5.438   0.543  10.221 -1.5874  2.1688  0.9910
   36MYC    H11 3843   5.612   0.561  10.195 -0.8438 -0.9086 -1.1804
   36MYC     C6 3844   5.489   0.648  10.033 -0.4894  0.6146 -0.6540
   36MYC     H8 3845   5.580   0.702  10.004  0.3464 -1.4221 -2.0271
   36MYC     H9 3846   5.402   0.715  10.034 -1.4647 -0.4960  2.6967
   36MYC     C5 3847   5.473   0.535   9.936  0.1010 -0.2146 -0.5909
   36MYC     H6 3848   5.376   0.484   9.945 -0.1671  0.6077  2.4025
   36MYC     H7 3849   5.552   0.461   9.953  1.3865  1.1665 -0.3559
   36MYC     C4 3850   5.503   0.593   9.785  0.3127 -0.2708 -0.4661
   36MYC     H4 3851   5.606   0.631   9.785 -0.3835  1.9685  2.6807
   36MYC     H5 3852   5.436   0.678   9.772  0.0016 -0.5604 -0.7756
   36MYC     C2 3853   5.484   0.495   9.675 -0.0025 -0.7116  0.0201
   36MYC     H2 3854   5.552   0.413   9.703  1.8435  1.0167  0.9411
   36MYC     O3 3855   5.352   0.453   9.669 -0.0742  0.2088  0.1679
   36MYC     H3 3856   5.292   0.530   9.674  3.0925  2.9121 -0.0890
   36MYC     C1 3857   5.529   0.559   9.540 -0.3333 -0.0119 -1.4778
   36MYC     H1 3858   5.634   0.584   9.553  0.4774 -2.4515 -2.6997
   36MYC    C81 3859   5.445   0.693   9.505  0.0276  0.8397 -0.6290
   36MYC    O82 3860   5.323   0.701   9.505 -0.5168  0.1581  0.9565
   36MYC    O83 3861   5.524   0.801   9.501  0.3083  0.4159 -0.5042
   36MYC   H105 3862   5.460   0.873   9.511  1.7552  2.2059 -3.0558
   36MYC    C20 3863   5.514   0.460   9.419 -0.2743  0.2637 -0.5510
   36MYC    H34 3864   5.525   0.353   9.442  0.4494 -0.0281 -2.1509
   36MYC    H35 3865   5.407   0.468   9.399  0.3077  0.4216 -4.1966
   36MYC    C21 3866   5.578   0.500   9.284  0.5430 -0.0705  0.3329
   36MYC    H36 3867   5.527   0.595   9.262 -0.8441 -0.9570 -0.3868
   36MYC    H37 3868   5.684   0.526   9.297  0.4980  0.7184 -0.6823
   36MYC    C22 3869   5.541   0.398   9.171 -0.3179  0.0450 -0.1522
   36MYC    H38 3870   5.604   0.309   9.171  0.7343  0.7647  0.4289
   36MYC    H39 3871   5.440   0.358   9.187 -0.4167  1.0309  2.1860
   36MYC    C23 3872   5.560   0.472   9.033 -0.1114  0.6449 -1.3287
   36MYC    H40 3873   5.480   0.547   9.042 -1.8295 -1.1803 -0.5998
   36MYC    H41 3874   5.658   0.520   9.036 -0.3987  1.3704  2.5692
   36MYC    C24 3875   5.526   0.370   8.917  0.4476 -1.2736 -0.3681
   36MYC    H42 3876   5.603   0.292   8.923  1.0364 -0.6630  0.1432
   36MYC    H43 3877   5.431   0.315   8.928  0.0286 -0.2403  1.5655
   36MYC    C25 3878   5.543   0.448   8.776 -0.0863  1.2000 -0.0125
   36MYC    H44 3879   5.512   0.553   8.783  0.1073  1.4002 -1.6884
   36MYC    H45 3880   5.650   0.444   8.752 -0.1644 -2.3013 -0.3078
   36MYC    C26 3881   5.466   0.368   8.669  0.0923 -0.5391 -0.1409
   36MYC    H46 3882   5.497   0.264   8.659 -2.4506 -1.2961 -0.8885
   36MYC    H47 3883   5.363   0.367   8.704  1.0299  0.6752  2.9959
   36MYC    C27 3884   5.478   0.414   8.520  0.5307 -0.1220 -0.0738
   36MYC    H48 3885   5.582   0.401   8.485  0.7749  0.1518  0.5449
   36MYC    H49 3886   5.425   0.341   8.457 -2.4934  0.7341  1.3221
   36MYC    C28 3887   5.427   0.555   8.485  0.3901 -0.9995  0.6824
   36MYC    H50 3888   5.465   0.632   8.554 -2.7671  1.3379  0.0397
   36MYC    H51 3889   5.465   0.573   8.384 -0.0029 -2.5668  0.2303
   36MYC    C29 3890   5.278   0.581   8.480  0.2621  0.4506 -0.3500
   36MYC    H52 3891   5.238   0.551   8.578  0.9310 -1.0121 -0.5012
   36MYC    H53 3892   5.258   0.683   8.447  1.9921  0.4442 -1.5331
   36MYC    C30 3893   5.207   0.487   8.372 -0.2995 -0.3338  0.0926
   36MYC    H54 3894   5.250   0.386   8.366 -0.5948 -0.4487 -0.0923
   36MYC    H55 3895   5.100   0.494   8.396 -0.1806 -1.1275  0.9086
   36MYC    C31 3896   5.232   0.545   8.233  0.6590  0.3850  0.4720
   36MYC    H56 3897   5.219   0.653   8.236  2.7035  0.6518  2.2317
   36MYC    H57 3898   5.339   0.529   8.214  0.9553  0.5178  1.9558
   36MYC    C32 3899   5.145   0.481   8.121 -1.0758 -0.7771  0.1924
   36MYC    H58 3900   5.144   0.371   8.125 -1.5061 -0.8145 -0.6900
   36MYC    H59 3901   5.040   0.512   8.132 -0.9760 -0.3988  0.0696
   36MYC    C33 3902   5.178   0.516   7.975  0.3788  0.1063  0.6694
   36MYC    H60 3903   5.101   0.469   7.912  1.3662 -0.4163 -0.1889
   36MYC    H61 3904   5.165   0.622   7.953  2.4647 -0.0827 -2.1072
   36MYC    C34 3905   5.312   0.463   7.926 -0.2525 -0.3904  0.0206
   36MYC    H62 3906   5.388   0.513   7.987  0.0326 -2.5167  1.5257
   36MYC    H63 3907   5.328   0.356   7.946  1.3604 -0.0556  0.6670
   36MYC    C35 3908   5.352   0.500   7.776  0.2094 -0.4376  0.0086
   36MYC    H64 3909   5.352   0.609   7.763  0.6652 -0.1828  1.8304
   36MYC    H65 3910   5.457   0.484   7.748  0.3518  1.1962 -0.5046
   36MYC    C36 3911   5.257   0.441   7.668  0.2818  0.5201  0.0788
   36MYC    H66 3912   5.272   0.332   7.671 -0.7827  0.2914 -1.4433
   36MYC    H67 3913   5.156   0.460   7.707 -0.0748 -0.0295 -0.5410
   36MYC    C37 3914   5.276   0.491   7.531 -0.3680 -0.1733 -0.5322
   36MYC    H68 3915   5.254   0.598   7.538 -0.2477 -0.2681  3.7016
   36MYC    H69 3916   5.380   0.490   7.499  0.5166 -1.1538  2.1240
   36MYC    C38 3917   5.183   0.436   7.424 -0.2416 -0.7671 -0.1703
   36MYC    H70 3918   5.214   0.332   7.410  0.6142 -0.3232 -1.7393
   36MYC    H71 3919   5.079   0.433   7.461 -0.4305  0.6510 -0.5323
   36MYC    C39 3920   5.204   0.517   7.293 -0.2867  0.5218 -0.5542
   36MYC    H72 3921   5.179   0.622   7.312 -0.5084 -0.0828  3.4465
   36MYC    H73 3922   5.307   0.502   7.260 -0.0942  2.8523 -1.2124
   36MYC    C40 3923   5.104   0.465   7.174  0.1330  0.1697 -0.6987
   36MYC    H74 3924   5.137   0.361   7.158  0.4533 -0.1673  1.7080
   36MYC    H75 3925   5.004   0.453   7.216  1.1006 -1.0542  1.4635
   36MYC    C41 3926   5.106   0.562   7.054  0.4380  0.0092  0.6963
   36MYC    H76 3927   5.063   0.652   7.098 -1.6833 -0.3918 -0.4523
   36MYC    H77 3928   5.210   0.584   7.026  0.2233 -1.1265 -1.1295
   36MYC    C42 3929   5.026   0.500   6.939  0.3198  0.1165  0.1887
   36MYC    H78 3930   5.063   0.401   6.909  1.3078  0.0161  1.6294
   36MYC    H79 3931   4.928   0.483   6.984  1.4584 -0.2231  2.7673
   36MYC    C43 3932   5.010   0.599   6.824 -0.0699  0.4090  0.8823
   36MYC    H80 3933   5.092   0.594   6.751 -0.7280  1.7851  0.0072
   36MYC    H81 3934   5.007   0.705   6.851 -0.7001  0.9963 -1.2560
   36MYC    H82 3935   4.922   0.573   6.763 -0.1640 -0.7571  1.4711
   37MYC   HH15 3936   5.363   0.082   6.567 -1.8724 -0.1470 -2.1274
   37MYC    C80 3937   5.429   0.165   6.537 -0.7661 -0.2074 -0.0603
   37MYC   H100 3938   5.491   0.122   6.458 -0.4586  0.2716 -0.0824
   37MYC   H101 3939   5.365   0.244   6.497 -0.6966  0.0651  0.3631
   37MYC    C79 3940   5.512   0.237   6.654 -0.8679  0.0004  0.6201
   37MYC   H102 3941   5.584   0.310   6.615 -0.9725 -0.6517 -0.8714
   37MYC   H103 3942   5.557   0.159   6.716 -2.2820 -0.6216  0.9113
   37MYC    C78 3943   5.418   0.319   6.736  0.9375  0.0245  0.7682
   37MYC   HH14 3944   5.323   0.266   6.749  1.3775 -0.9607  0.0955
   37MYC   H104 3945   5.384   0.401   6.672  0.2917 -0.9370 -0.1713
   37MYC    C77 3946   5.469   0.377   6.864 -0.1805  0.0896  0.6420
   37MYC   H106 3947   5.391   0.445   6.901  1.3678  0.8051  2.8019
   37MYC   H107 3948   5.551   0.446   6.840  0.7122 -0.6330  1.5293
   37MYC    C76 3949   5.505   0.288   6.978 -0.2820 -0.0196 -0.1092
   37MYC   H108 3950   5.581   0.211   6.959 -0.9680 -0.9864  0.9128
   37MYC   H109 3951   5.409   0.244   7.007 -1.0782  1.8008  0.1463
   37MYC    C75 3952   5.568   0.367   7.098  0.5057  0.9301 -0.3012
   37MYC   H110 3953   5.495   0.440   7.135 -0.3276 -0.3760  0.7147
   37MYC   H111 3954   5.661   0.416   7.069  1.0227  1.2995  1.8228
   37MYC    C74 3955   5.597   0.277   7.223  0.0119 -0.5798  0.6085
   37MYC   H112 3956   5.658   0.192   7.189 -0.5090 -1.3236  1.4755
   37MYC   H113 3957   5.505   0.224   7.252 -0.3592 -1.3700 -1.7679
   37MYC    C73 3958   5.657   0.354   7.339 -0.3487  0.3633  0.0037
   37MYC   HH13 3959   5.613   0.453   7.357  1.0961  0.8660  0.9218
   37MYC   H114 3960   5.761   0.376   7.313 -0.6757  2.9400  0.5623
   37MYC    C72 3961   5.643   0.279   7.478  0.0129  0.5195  0.1230
   37MYC   H115 3962   5.706   0.190   7.472 -1.9883 -0.8823 -1.5840
   37MYC   H116 3963   5.545   0.229   7.486  1.5793 -2.5459  2.1703
   37MYC    C71 3964   5.685   0.367   7.598 -0.3993  0.0007 -0.6076
   37MYC   H117 3965   5.635   0.465   7.598  0.6951  0.5752 -0.6238
   37MYC   H118 3966   5.788   0.401   7.584 -0.3663 -0.6269 -2.0597
   37MYC    C70 3967   5.664   0.290   7.732  0.3315  0.9612 -0.5766
   37MYC   H119 3968   5.714   0.192   7.727  0.1719  0.9092 -1.2318
   37MYC   H120 3969   5.557   0.273   7.750  0.7384  0.1284  1.2190
   37MYC    C69 3970   5.706   0.366   7.861  0.1134  0.2934 -0.3638
   37MYC   H121 3971   5.639   0.451   7.881 -2.6131 -2.0128  0.9813
   37MYC   H122 3972   5.811   0.399   7.852  0.4281 -0.7123 -0.4257
   37MYC    C68 3973   5.691   0.277   7.980 -0.3948  0.1818 -0.3120
   37MYC   HH12 3974   5.725   0.173   7.967 -1.2090  0.0863 -1.8998
   37MYC   H123 3975   5.584   0.260   7.989 -0.5065 -0.6028 -2.5082
   37MYC    C67 3976   5.761   0.341   8.095 -0.1387  0.0422 -0.2153
   37MYC   H124 3977   5.716   0.438   8.117  0.4673 -0.1300  2.1555
   37MYC   H125 3978   5.864   0.364   8.066  0.6310 -1.2028  1.3204
   37MYC    C66 3979   5.760   0.266   8.225  0.0270  0.3037 -0.0205
   37MYC   H126 3980   5.811   0.170   8.215 -2.3828 -1.3495  2.1818
   37MYC   H127 3981   5.660   0.239   8.260  1.3789 -3.5574  1.3248
   37MYC    C65 3982   5.821   0.341   8.339  0.0418 -0.1425 -0.0555
   37MYC   H128 3983   5.744   0.417   8.359  0.2588  0.9551 -2.8799
   37MYC   H129 3984   5.914   0.387   8.305  1.5955 -2.8982  0.1877
   37MYC    C64 3985   5.838   0.269   8.477  0.3017  0.2882  0.5676
   37MYC   H130 3986   5.895   0.177   8.462  0.8865  0.6672  0.4573
   37MYC   H131 3987   5.741   0.223   8.502  0.7570 -2.1206 -1.6278
   37MYC    C63 3988   5.901   0.335   8.592 -0.0833  0.0325  0.6193
   37MYC   HH11 3989   5.843   0.423   8.620 -3.4932 -1.7543 -0.2534
   37MYC   H132 3990   6.001   0.363   8.556  0.0423  1.4009  1.9303
   37MYC    C62 3991   5.923   0.250   8.723 -0.1744 -0.4651 -0.4191
   37MYC   H133 3992   5.951   0.146   8.702  0.2146 -0.3753 -0.3451
   37MYC   H134 3993   5.825   0.250   8.771  0.5359 -0.0498  1.1015
   37MYC    C61 3994   6.020   0.311   8.826 -0.4857 -0.7365 -0.0156
   37MYC   H135 3995   5.988   0.415   8.835 -1.1187 -1.0135  1.1922
   37MYC   H136 3996   6.122   0.319   8.787 -0.4688  2.8364  0.5020
   37MYC    C60 3997   6.008   0.253   8.964 -0.5807 -0.7458 -0.1636
   37MYC   H137 3998   6.056   0.155   8.960 -2.4409 -1.7376  0.5296
   37MYC    C58 3999   6.028   0.331   9.099 -1.0947  0.4109  0.1177
   37MYC   H138 4000   6.062   0.432   9.079  0.5683 -0.0772  0.2924
   37MYC    C59 4001   5.891   0.282   9.053 -0.3610 -0.3199  1.1008
   37MYC   H139 4002   5.837   0.198   9.096 -1.1003 -0.2485  0.3273
   37MYC   H140 4003   5.824   0.358   9.014 -0.3399 -0.5178  0.6820
   37MYC    C57 4004   6.100   0.258   9.216  0.0642  0.1256  0.0190
   37MYC   HH10 4005   6.209   0.270   9.212  0.1867  0.2279  2.3549
   37MYC   H141 4006   6.067   0.154   9.211  0.2413 -0.0307  1.5484
   37MYC    C56 4007   6.053   0.315   9.354 -0.1591 -0.3180 -0.1820
   37MYC   H142 4008   6.081   0.421   9.355 -1.5695  0.0773 -0.5176
   37MYC   H143 4009   6.119   0.260   9.423 -1.3682 -0.4523  0.9136
   37MYC    C55 4010   5.901   0.284   9.391  0.0970 -0.2327 -0.4349
   37MYC   H144 4011   5.889   0.179   9.361 -0.8188 -0.4491  0.6223
   37MYC   H145 4012   5.841   0.346   9.324 -2.8050 -1.1253  1.1780
   37MYC    C54 4013   5.843   0.323   9.537 -0.0680  0.5771  0.0239
   37MYC   H146 4014   5.734   0.326   9.535 -0.2169 -1.4784  1.5927
   37MYC   H147 4015   5.880   0.425   9.558 -0.2402  0.8573 -0.9872
   37MYC    C53 4016   5.904   0.248   9.656 -0.5917 -0.8687 -0.6305
   37MYC   H148 4017   6.011   0.240   9.636 -0.5087 -0.0208 -0.5598
   37MYC   H149 4018   5.864   0.146   9.645  2.3114 -2.0053 -1.4890
   37MYC    C52 4019   5.871   0.302   9.796 -0.2905  0.0351 -1.0536
   37MYC    H99 4020   5.768   0.336   9.811 -0.3973 -0.7928  0.2001
   37MYC   H150 4021   5.931   0.393   9.811  0.3446 -0.5179 -0.1294
   37MYC    C51 4022   5.896   0.205   9.914 -0.3860  0.2515  0.2833
   37MYC    H97 4023   6.003   0.179   9.914 -0.5521 -0.4729  0.7005
   37MYC    H98 4024   5.837   0.114   9.907  0.2432 -0.0203 -2.3767
   37MYC    C50 4025   5.881   0.274  10.054 -0.0494 -0.0551  0.0859
   37MYC    H95 4026   5.890   0.194  10.129  1.4991 -0.6614 -0.7079
   37MYC    H96 4027   5.778   0.311  10.065 -0.2419 -0.5602  0.0521
   37MYC    C49 4028   5.980   0.393  10.089  0.5355 -0.0831 -0.2886
   37MYC    H93 4029   5.986   0.460  10.003  0.5755  0.0535 -0.1810
   37MYC    H94 4030   6.081   0.351  10.095  0.2265 -2.0045 -4.6384
   37MYC    C48 4031   5.945   0.482  10.212 -0.3929  0.5530  0.1481
   37MYC    H91 4032   5.844   0.520  10.196 -0.7801 -0.1384  0.8819
   37MYC    H92 4033   6.009   0.571  10.200 -0.8961  0.6976 -1.7734
   37MYC    C47 4034   5.972   0.428  10.351 -0.1411  0.2844  0.3000
   37MYC    H89 4035   6.077   0.400  10.369 -0.2085  0.1855  0.5488
   37MYC    H90 4036   5.909   0.339  10.367  0.0781  0.3360  1.5406
   37MYC    C46 4037   5.927   0.529  10.458 -0.4945  0.3384 -0.0685
   37MYC    H87 4038   5.819   0.549  10.453 -0.1897  2.1104 -0.5498
   37MYC    H88 4039   5.980   0.618  10.420  0.9074 -0.3892  0.1435
   37MYC    C45 4040   5.984   0.501  10.603  0.0045  0.3105  0.7602
   37MYC    H85 4041   5.998   0.596  10.655  1.1412  0.0260  0.9895
   37MYC    H86 4042   6.079   0.446  10.598  0.3992  0.9552  1.0657
   37MYC    C44 4043   5.886   0.425  10.687  0.3190  0.6527 -0.1658
   37MYC    H83 4044   5.852   0.331  10.641  0.2016  0.9059 -0.6049
   37MYC    H84 4045   5.791   0.480  10.697 -0.1528  0.0158 -0.9499
   37MYC    C18 4046   5.944   0.380  10.814 -0.3605 -0.2480  0.6653
   37MYC    H31 4047   6.036   0.326  10.791  0.8253  1.8374  0.2688
   37MYC    C17 4048   5.950   0.461  10.945  0.7196  0.4472 -0.5531
   37MYC    H30 4049   5.894   0.553  10.931 -0.0886  0.0427 -0.0409
   37MYC    C19 4050   5.867   0.328  10.935 -0.0809 -0.9135  0.2950
   37MYC    H32 4051   5.759   0.321  10.928 -0.1982 -2.8334  2.5339
   37MYC    H33 4052   5.909   0.245  10.991  0.9157  0.5639  1.8544
   37MYC    C16 4053   6.069   0.462  11.041  0.2123 -0.7846 -0.0049
   37MYC    H28 4054   6.139   0.380  11.021 -0.3735 -0.7642 -2.4685
   37MYC    H29 4055   6.038   0.446  11.145  0.8503 -1.7585  0.0509
   37MYC    C15 4056   6.165   0.580  11.018  0.0310 -0.7665  0.1850
   37MYC    H26 4057   6.245   0.590  11.093  0.6103  1.1729 -0.6318
   37MYC    H27 4058   6.110   0.675  11.024  0.6869 -0.4571  2.2001
   37MYC    C14 4059   6.238   0.573  10.881  0.3506 -0.0047 -0.1248
   37MYC    H24 4060   6.295   0.666  10.868 -2.1324  1.6435  0.0195
   37MYC    H25 4061   6.159   0.590  10.807 -0.6569  1.5868  1.2228
   37MYC    C13 4062   6.321   0.445  10.846 -0.2685  0.3203 -0.0203
   37MYC    H22 4063   6.249   0.362  10.854 -0.1505  0.2945  0.8740
   37MYC    H23 4064   6.398   0.418  10.919  0.4689  1.9557 -0.1575
   37MYC    C12 4065   6.376   0.441  10.698  0.0175 -0.1007 -0.7998
   37MYC    H20 4066   6.295   0.458  10.626 -1.2718  1.7284  0.9880
   37MYC    H21 4067   6.422   0.344  10.675  0.0176 -0.1788 -0.4754
   37MYC    C11 4068   6.463   0.560  10.657  0.3520 -0.3126 -0.6767
   37MYC    H18 4069   6.553   0.570  10.719  0.4346  2.0929 -1.0495
   37MYC    H19 4070   6.416   0.659  10.664  1.0549  0.0259 -0.6497
   37MYC    C10 4071   6.511   0.562  10.518 -0.3346  0.5136  0.2531
   37MYC    H16 4072   6.573   0.472  10.503 -0.9540  0.1878 -0.4211
   37MYC    H17 4073   6.580   0.648  10.515  1.8559 -1.1313  0.4676
   37MYC     C9 4074   6.397   0.565  10.414  0.5135  0.3732 -0.3594
   37MYC    H14 4075   6.330   0.651  10.427 -2.5836 -1.5986 -1.9580
   37MYC    H15 4076   6.336   0.473  10.413 -0.3956  0.9595 -0.1528
   37MYC     C8 4077   6.464   0.572  10.279  0.4642 -0.1914  0.8343
   37MYC    H12 4078   6.540   0.495  10.259  0.2305 -0.4051  0.7599
   37MYC    H13 4079   6.506   0.673  10.278 -0.1941  0.0905  0.7504
   37MYC     C7 4080   6.360   0.565  10.176  0.1409  0.0218  1.0977
   37MYC    H10 4081   6.294   0.652  10.189  0.3209  0.3651 -0.1298
   37MYC    H11 4082   6.291   0.481  10.186 -0.0788 -0.2298 -1.7439
   37MYC     C6 4083   6.419   0.564  10.035 -0.3791 -0.5159  0.1701
   37MYC     H8 4084   6.471   0.470  10.015  2.2315  0.8946 -0.0537
   37MYC     H9 4085   6.496   0.642  10.036  1.0065 -1.7305  3.8186
   37MYC     C5 4086   6.295   0.587   9.934 -0.2235 -0.0342  0.3756
   37MYC     H6 4087   6.231   0.668   9.971  2.1263  1.9445  0.3315
   37MYC     H7 4088   6.229   0.500   9.943 -1.3136  0.8682  1.5876
   37MYC     C4 4089   6.337   0.593   9.784 -0.3633  0.3208 -0.5210
   37MYC     H4 4090   6.416   0.517   9.784  0.9022  1.5537  1.4122
   37MYC     H5 4091   6.391   0.687   9.766  1.7134 -0.6530  0.2972
   37MYC     C2 4092   6.238   0.572   9.662  0.5900  0.7004  0.4201
   37MYC     H2 4093   6.304   0.566   9.575  1.6254  2.5834  1.0288
   37MYC     O3 4094   6.177   0.438   9.666 -0.0639  0.1146 -0.7092
   37MYC     H3 4095   6.083   0.448   9.643 -0.9866  3.1533  3.1792
   37MYC     C1 4096   6.135   0.689   9.638  0.3412  0.2328 -0.2766
   37MYC     H1 4097   6.206   0.773   9.638 -0.5406  1.0114  0.7694
   37MYC    C81 4098   6.054   0.722   9.762 -0.0683  0.4893  0.2716
   37MYC    O82 4099   5.952   0.664   9.791  0.5320 -0.0700  0.4205
   37MYC    O83 4100   6.093   0.839   9.826 -0.1222 -0.5436  0.7978
   37MYC   H105 4101   6.024   0.855   9.892 -0.9707  0.7554 -0.3606
   37MYC    C20 4102   6.067   0.676   9.503  0.4557  0.2634 -0.3018
   37MYC    H34 4103   6.147   0.681   9.427  1.2717  0.1023  0.5240
   37MYC    H35 4104   6.018   0.578   9.503  1.0778 -0.0742  0.8855
   37MYC    C21 4105   5.956   0.792   9.485  0.0662 -0.0479  0.4779
   37MYC    H36 4106   5.880   0.779   9.563 -0.4243 -1.2840 -0.1825
   37MYC    H37 4107   5.986   0.897   9.481  1.9187 -0.5572  0.1327
   37MYC    C22 4108   5.867   0.756   9.360 -0.1446 -0.3894  0.0973
   37MYC    H38 4109   5.828   0.654   9.371 -1.1908  0.0871  1.0036
   37MYC    H39 4110   5.784   0.827   9.363  0.5718  0.5014 -0.5029
   37MYC    C23 4111   5.942   0.779   9.224  0.6628 -0.3486 -0.0731
   37MYC    H40 4112   5.945   0.889   9.214 -0.4076 -0.2025  0.9227
   37MYC    H41 4113   6.047   0.751   9.233  0.9659  1.3453  3.4894
   37MYC    C24 4114   5.862   0.724   9.099 -0.1429 -0.1685  0.5760
   37MYC    H42 4115   5.876   0.615   9.106  2.4049  0.0061 -0.8614
   37MYC    H43 4116   5.757   0.750   9.117  0.6014  1.4172  3.1966
   37MYC    C25 4117   5.896   0.776   8.961 -0.8497 -0.0949  0.4360
   37MYC    H44 4118   5.903   0.884   8.977 -0.4665 -0.4244  2.8831
   37MYC    H45 4119   5.996   0.749   8.927 -1.2322 -1.8234  0.5530
   37MYC    C26 4120   5.797   0.753   8.847  0.1105 -0.4233 -0.0563
   37MYC    H46 4121   5.795   0.646   8.825  2.1727 -1.0557  2.3444
   37MYC    H47 4122   5.703   0.788   8.892  0.7626  1.8536 -0.3482
   37MYC    C27 4123   5.825   0.832   8.714 -0.1262 -0.1752 -0.6983
   37MYC    H48 4124   5.802   0.938   8.729  0.5325 -0.1874  0.4295
   37MYC    H49 4125   5.932   0.832   8.693 -0.2517  1.4970 -1.5680
   37MYC    C28 4126   5.737   0.775   8.603  0.7069 -0.0774  0.4279
   37MYC    H50 4127   5.748   0.667   8.589 -0.3350 -0.0940 -0.3926
   37MYC    H51 4128   5.630   0.787   8.620 -0.0052 -0.0847 -3.2211
   37MYC    C29 4129   5.784   0.847   8.462 -0.5066 -0.4143 -0.3518
   37MYC    H52 4130   5.787   0.955   8.477  1.9221 -0.5799  0.7397
   37MYC    H53 4131   5.887   0.817   8.442  1.0671  1.8217  3.3798
   37MYC    C30 4132   5.694   0.811   8.357  0.3583 -0.5166  0.2815
   37MYC    H54 4133   5.711   0.703   8.342 -0.2600 -0.3377 -2.0794
   37MYC    H55 4134   5.589   0.827   8.384  1.2459  3.6015  1.9992
   37MYC    C31 4135   5.725   0.876   8.227  0.2260 -0.1761 -0.7119
   37MYC    H56 4136   5.694   0.980   8.237 -1.2375 -0.4381 -2.1808
   37MYC    H57 4137   5.833   0.882   8.208  0.2945  1.3761  0.0562
   37MYC    C32 4138   5.639   0.818   8.112 -0.0609  0.4923  0.2640
   37MYC    H58 4139   5.651   0.709   8.104 -1.0308  0.3976  0.0415
   37MYC    H59 4140   5.534   0.846   8.121 -0.0329  0.5619  0.3695
   37MYC    C33 4141   5.680   0.874   7.971 -0.8656  0.0632 -0.2674
   37MYC    H60 4142   5.662   0.982   7.970  0.3343  0.2728 -0.8522
   37MYC    H61 4143   5.788   0.854   7.960 -0.7471  1.1717 -1.2709
   37MYC    C34 4144   5.607   0.810   7.849  0.3743 -0.0484  0.5392
   37MYC    H62 4145   5.639   0.707   7.826 -0.8375 -0.4391  0.5156
   37MYC    H63 4146   5.500   0.799   7.872 -0.0251  1.8919 -0.2266
   37MYC    C35 4147   5.613   0.889   7.713  0.3281 -0.2651  0.0305
   37MYC    H64 4148   5.561   0.979   7.746 -1.7774 -2.2463  2.5995
   37MYC    H65 4149   5.722   0.898   7.702  0.1329  0.1716 -1.9097
   37MYC    C36 4150   5.536   0.823   7.597 -0.3108 -0.2082 -0.1958
   37MYC    H66 4151   5.562   0.717   7.582  0.7196 -0.0379  0.2914
   37MYC    H67 4152   5.429   0.826   7.624 -0.7026  0.3350 -1.7170
   37MYC    C37 4153   5.554   0.893   7.462  0.6826 -0.2541 -0.1749
   37MYC    H68 4154   5.497   0.987   7.462  1.0097 -0.0481  0.6476
   37MYC    H69 4155   5.658   0.918   7.436 -0.8900  4.5260 -3.2850
   37MYC    C38 4156   5.488   0.806   7.352  0.3929 -0.0805  0.0295
   37MYC    H70 4157   5.526   0.703   7.345  3.7116  1.1278 -1.5062
   37MYC    H71 4158   5.381   0.791   7.374  0.1302 -0.7175 -1.5435
   37MYC    C39 4159   5.508   0.869   7.209  0.0601 -0.7217  0.3081
   37MYC    H72 4160   5.480   0.975   7.209  0.7751 -0.4827 -1.9222
   37MYC    H73 4161   5.611   0.864   7.172 -0.1996  0.2988 -0.6024
   37MYC    C40 4162   5.426   0.804   7.092 -0.5212  0.3476  0.0908
   37MYC    H74 4163   5.446   0.696   7.096  1.7698  0.7630  1.2673
   37MYC    H75 4164   5.319   0.825   7.110 -0.3812  0.9864  0.1870
   37MYC    C41 4165   5.454   0.870   6.949  0.1236  0.2020  0.6988
   37MYC    H76 4166   5.427   0.975   6.964  0.0930  0.2865  0.0773
   37MYC    H77 4167   5.560   0.855   6.924 -0.0676  0.5033 -0.3403
   37MYC    C42 4168   5.371   0.804   6.837 -0.4169 -0.0590 -0.3170
   37MYC    H78 4169   5.374   0.695   6.842  1.0359 -0.0319 -0.0738
   37MYC    H79 4170   5.266   0.833   6.849  0.3593  2.4932  1.0982
   37MYC    C43 4171   5.398   0.860   6.698 -0.2288  1.0081  0.1476
   37MYC    H80 4172   5.337   0.808   6.624  2.4738 -0.4995 -1.1695
   37MYC    H81 4173   5.504   0.837   6.686 -0.6478 -1.3350  0.4611
   37MYC    H82 4174   5.373   0.967   6.707  1.2295  1.2702  1.4665
   38MYC   HH15 4175   6.275   0.942   6.631  0.4052 -2.6109  1.1343
   38MYC    C80 4176   6.168   0.926   6.643 -0.1838  0.0522  0.1466
   38MYC   H100 4177   6.113   0.967   6.556  1.6993  1.2972 -0.5190
   38MYC   H101 4178   6.159   0.817   6.646 -0.5189  0.0574 -0.4677
   38MYC    C79 4179   6.114   0.999   6.776  0.1585  0.2588  0.4972
   38MYC   H102 4180   6.011   0.969   6.799  0.2754  1.4070  2.8610
   38MYC   H103 4181   6.119   1.107   6.758  1.5741  0.3563  1.2943
   38MYC    C78 4182   6.207   0.967   6.897 -0.0559 -1.0718 -0.0971
   38MYC   HH14 4183   6.307   1.001   6.869  0.0653 -0.5778  0.9077
   38MYC   H104 4184   6.211   0.858   6.912 -1.4931 -1.0151  0.9638
   38MYC    C77 4185   6.159   1.029   7.035 -0.4981 -0.5939 -0.3581
   38MYC   H106 4186   6.051   1.023   7.052 -0.7938  0.9461 -1.4700
   38MYC   H107 4187   6.183   1.136   7.042 -0.8705 -0.3887 -1.8579
   38MYC    C76 4188   6.230   0.962   7.155 -0.0628  0.2071  0.1075
   38MYC   H108 4189   6.337   0.983   7.141  0.1754 -0.6949  0.4583
   38MYC   H109 4190   6.216   0.853   7.163 -1.2987  0.4290  1.2397
   38MYC    C75 4191   6.187   1.021   7.294  0.7232  0.0341  0.7579
   38MYC   H110 4192   6.080   1.006   7.313  0.7419  0.1311  0.9345
   38MYC   H111 4193   6.197   1.130   7.292  1.3938 -0.0307 -0.5906
   38MYC    C74 4194   6.282   0.967   7.411  0.8680 -0.3791  0.3267
   38MYC   H112 4195   6.377   1.021   7.401  1.9547 -1.7438  2.5499
   38MYC   H113 4196   6.292   0.858   7.401  0.2232 -0.3173 -1.4691
   38MYC    C73 4197   6.241   1.008   7.558 -0.7249  0.3046  0.2048
   38MYC   HH13 4198   6.162   0.939   7.589 -1.7997  1.4939  0.2019
   38MYC   H114 4199   6.208   1.112   7.557  0.9763  0.8719  1.0021
   38MYC    C72 4200   6.366   0.996   7.653  0.4635 -0.1269 -0.2234
   38MYC   H115 4201   6.442   1.070   7.625 -2.3609  2.5215 -1.4527
   38MYC   H116 4202   6.411   0.897   7.640 -1.4902 -1.0913 -0.0585
   38MYC    C71 4203   6.321   1.021   7.804  0.1427  0.5319  0.3120
   38MYC   H117 4204   6.250   0.942   7.830  0.7325  0.3264  1.3524
   38MYC   H118 4205   6.274   1.120   7.812 -1.9502 -0.4358  0.7104
   38MYC    C70 4206   6.435   1.002   7.906  0.0900  0.4774 -0.4964
   38MYC   H119 4207   6.502   1.088   7.892  0.9872  0.0655  0.9606
   38MYC   H120 4208   6.495   0.912   7.888  0.9742  0.4994  1.9098
   38MYC    C69 4209   6.394   0.996   8.055  0.6092  0.4050 -0.3889
   38MYC   H121 4210   6.337   0.903   8.069  1.1598  0.0907 -0.2104
   38MYC   H122 4211   6.324   1.073   8.091 -0.3373 -0.1533 -0.9868
   38MYC    C68 4212   6.499   0.985   8.162 -0.6642  0.4008 -0.0051
   38MYC   HH12 4213   6.568   1.069   8.149 -0.8550  0.6257  0.4117
   38MYC   H123 4214   6.556   0.895   8.136 -1.4742 -0.8311  2.1722
   38MYC    C67 4215   6.456   0.988   8.309  0.1668  0.0443 -1.1661
   38MYC   H124 4216   6.419   0.889   8.340 -2.4358  1.1447 -0.4320
   38MYC   H125 4217   6.379   1.065   8.320 -0.6305 -0.6765 -1.4927
   38MYC    C66 4218   6.578   1.020   8.402 -0.1060 -0.9034 -0.0323
   38MYC   H126 4219   6.620   1.118   8.379 -0.9722 -0.1902  1.3006
   38MYC   H127 4220   6.658   0.947   8.385 -0.0949 -1.7671  3.0534
   38MYC    C65 4221   6.544   1.025   8.553 -0.2929  0.0883 -0.0029
   38MYC   H128 4222   6.510   0.925   8.584  2.1320 -0.8218 -0.0274
   38MYC   H129 4223   6.468   1.101   8.576 -0.4114 -0.1381  0.3650
   38MYC    C64 4224   6.663   1.050   8.653 -0.6168  0.0379 -0.6824
   38MYC   H130 4225   6.715   1.142   8.623  1.4241 -1.0561 -0.6205
   38MYC   H131 4226   6.731   0.966   8.641  0.1144  0.1066  2.2467
   38MYC    C63 4227   6.616   1.055   8.802  0.3421 -0.2659 -0.0754
   38MYC   HH11 4228   6.547   0.969   8.807  0.9110 -0.8381 -1.5062
   38MYC   H132 4229   6.560   1.146   8.823 -0.6734 -0.7244 -0.6821
   38MYC    C62 4230   6.730   1.045   8.909 -0.0915  0.1603 -0.1598
   38MYC   H133 4231   6.801   1.126   8.889  0.0634  0.5379  1.7358
   38MYC   H134 4232   6.785   0.952   8.887  0.9921  0.4613  1.1273
   38MYC    C61 4233   6.679   1.038   9.052  0.0711  0.4444  0.1564
   38MYC   H135 4234   6.615   0.950   9.070 -2.3081  1.1873 -3.5897
   38MYC   H136 4235   6.607   1.120   9.059 -2.5131 -1.6148 -0.5231
   38MYC    C60 4236   6.782   1.053   9.161 -0.0331 -0.0626 -0.1120
   38MYC   H137 4237   6.756   1.147   9.210  1.6452  0.7486 -0.7040
   38MYC    C58 4238   6.845   0.939   9.238  0.0867 -0.5116 -0.1271
   38MYC   H138 4239   6.834   0.836   9.203  1.6926 -0.4914 -0.8143
   38MYC    C59 4240   6.930   1.021   9.145  0.2971  0.3963 -0.1896
   38MYC   H139 4241   6.998   1.095   9.186 -1.1379  2.3440 -1.1512
   38MYC   H140 4242   6.948   0.981   9.046  0.1879  0.4636 -0.2368
   38MYC    C57 4243   6.865   0.951   9.385 -0.1526  0.0158 -0.0546
   38MYC   HH10 4244   6.773   0.902   9.420 -1.5158  1.2012 -1.7809
   38MYC   H141 4245   6.856   1.055   9.419 -2.5705  0.1218 -0.7960
   38MYC    C56 4246   6.987   0.894   9.448 -0.7218 -0.1498 -0.8085
   38MYC   H142 4247   7.068   0.960   9.416  0.5019 -1.8787 -1.4341
   38MYC   H143 4248   7.005   0.793   9.409  2.4281 -0.0665  0.1568
   38MYC    C55 4249   6.979   0.870   9.604 -0.0071 -0.4547  0.4534
   38MYC   H144 4250   7.082   0.842   9.630  1.2066  1.2856 -2.0596
   38MYC   H145 4251   6.926   0.776   9.624  0.2572 -0.3347  1.8224
   38MYC    C54 4252   6.917   0.975   9.700  0.3011  0.7826  0.6921
   38MYC   H146 4253   6.808   0.962   9.707  0.2811  0.8445  0.4929
   38MYC   H147 4254   6.923   1.078   9.664  0.2387  0.2809 -0.8047
   38MYC    C53 4255   6.981   0.977   9.844  0.5329  0.4347 -0.5137
   38MYC   H148 4256   7.084   1.012   9.855  1.2883 -2.2074  1.9994
   38MYC   H149 4257   7.000   0.872   9.871 -0.0403  0.8692  1.7994
   38MYC    C52 4258   6.890   1.045   9.952  0.1438 -0.5728 -0.3160
   38MYC    H99 4259   6.789   1.003   9.949 -0.8464  1.5628  0.7785
   38MYC   H150 4260   6.868   1.151   9.935 -0.5794 -0.3945  1.4864
   38MYC    C51 4261   6.955   1.033  10.087 -0.4602  0.6549 -0.2533
   38MYC    H97 4262   7.060   1.061  10.077  0.6597 -3.0720 -0.3638
   38MYC    H98 4263   6.955   0.930  10.124  0.5118  1.1358  1.1931
   38MYC    C50 4264   6.886   1.119  10.186  0.0463 -0.8127 -0.0829
   38MYC    H95 4265   6.777   1.107  10.176  0.0398 -0.0293 -1.1123
   38MYC    H96 4266   6.898   1.225  10.160 -2.4332 -0.2341  0.8304
   38MYC    C49 4267   6.923   1.094  10.328  0.0529  0.1238 -0.3653
   38MYC    H93 4268   7.026   1.129  10.343  0.3802 -0.4312 -1.1991
   38MYC    H94 4269   6.909   0.989  10.356  0.7652 -0.4368 -1.9815
   38MYC    C48 4270   6.831   1.186  10.419 -0.1404 -0.3482 -0.1955
   38MYC    H91 4271   6.725   1.172  10.393  0.0961  1.4836 -2.4968
   38MYC    H92 4272   6.855   1.288  10.388 -0.3195 -0.5952 -1.1998
   38MYC    C47 4273   6.860   1.168  10.570 -0.5267 -0.0525  0.2172
   38MYC    H89 4274   6.966   1.186  10.593 -0.8383 -0.1987  1.8965
   38MYC    H90 4275   6.837   1.067  10.605 -0.2793  0.4877  2.0570
   38MYC    C46 4276   6.774   1.277  10.646  0.1382 -0.2401 -0.5262
   38MYC    H87 4277   6.670   1.245  10.651  0.0023  0.1463 -0.8369
   38MYC    H88 4278   6.771   1.371  10.590 -2.0607  0.2915  0.3695
   38MYC    C45 4279   6.825   1.313  10.790  0.6189 -0.0982  1.0331
   38MYC    H85 4280   6.756   1.388  10.830  1.2571  0.8838  0.3627
   38MYC    H86 4281   6.923   1.361  10.778  0.9784 -1.1830 -0.7786
   38MYC    C44 4282   6.840   1.187  10.884 -0.4378 -0.3525 -0.4711
   38MYC    H83 4283   6.916   1.130  10.829  0.5957 -1.0582  1.5597
   38MYC    H84 4284   6.747   1.130  10.892 -0.0293 -0.8928  0.7272
   38MYC    C18 4285   6.896   1.224  11.024 -0.2450 -0.1368 -0.0567
   38MYC    H31 4286   6.965   1.307  11.024  0.3500 -0.6146  0.8857
   38MYC    C17 4287   6.810   1.226  11.150  0.0501  0.8178 -0.6703
   38MYC    H30 4288   6.709   1.187  11.146  0.1510  0.6359 -1.5703
   38MYC    C19 4289   6.914   1.124  11.143 -0.0652  0.4455  0.1164
   38MYC    H32 4290   6.868   1.025  11.135  3.3495 -1.1447 -1.8735
   38MYC    H33 4291   6.993   1.142  11.215 -1.9604  1.1917  2.1290
   38MYC    C16 4292   6.810   1.340  11.242  0.6740 -0.7894  0.9744
   38MYC    H28 4293   6.913   1.375  11.256  0.7159 -0.5415  0.1116
   38MYC    H29 4294   6.769   1.314  11.340 -2.1439  0.5435  0.2490
   38MYC    C15 4295   6.725   1.460  11.186  0.5151  0.1669  0.2367
   38MYC    H26 4296   6.684   1.510  11.275 -0.5288 -0.0023 -0.1307
   38MYC    H27 4297   6.644   1.425  11.121  0.5805 -1.2234  0.8738
   38MYC    C14 4298   6.807   1.560  11.115 -0.0381 -0.1110  0.0477
   38MYC    H24 4299   6.847   1.515  11.023 -1.3979 -1.6376  0.1661
   38MYC    H25 4300   6.885   1.600  11.181  0.1363 -0.3203 -0.0294
   38MYC    C13 4301   6.724   1.675  11.062 -0.6678  0.4487 -0.5672
   38MYC    H22 4302   6.659   1.725  11.135 -0.2300  0.3510 -0.1036
   38MYC    H23 4303   6.671   1.626  10.980 -1.5270  0.1459  0.1640
   38MYC    C12 4304   6.809   1.787  10.996  0.6803  0.1665 -0.7077
   38MYC    H20 4305   6.868   1.841  11.072 -2.8321  0.9304  1.7408
   38MYC    H21 4306   6.733   1.860  10.966  1.6132  2.8360  2.7624
   38MYC    C11 4307   6.907   1.752  10.879  0.5119  0.1559 -0.3349
   38MYC    H18 4308   6.977   1.675  10.915 -1.4646 -1.9784 -0.8430
   38MYC    H19 4309   6.968   1.839  10.851  2.6032 -1.2115 -0.2406
   38MYC    C10 4310   6.853   1.693  10.739 -0.0494 -0.2488 -0.4211
   38MYC    H16 4311   6.778   1.619  10.771  1.2448 -0.9438  1.1521
   38MYC    H17 4312   6.933   1.651  10.678 -0.8712  2.5208 -3.7225
   38MYC     C9 4313   6.773   1.796  10.656  0.5966 -0.9861  0.7409
   38MYC    H14 4314   6.833   1.880  10.619 -0.8738  0.1966  0.9459
   38MYC    H15 4315   6.685   1.822  10.716  1.0210 -0.3297  1.1082
   38MYC     C8 4316   6.728   1.719  10.526 -0.6736  0.2326 -0.3716
   38MYC    H12 4317   6.697   1.620  10.560 -0.9487 -0.0951 -1.5235
   38MYC    H13 4318   6.816   1.708  10.461  0.6557 -2.4563  1.6806
   38MYC     C7 4319   6.613   1.780  10.441 -0.9831 -0.4926 -0.1175
   38MYC    H10 4320   6.646   1.876  10.401 -0.3940 -0.5018  0.3272
   38MYC    H11 4321   6.517   1.796  10.492 -2.0527  0.1580 -2.2286
   38MYC     C6 4322   6.572   1.695  10.322  0.6330 -0.7347  0.3952
   38MYC     H8 4323   6.479   1.739  10.284  1.8056 -0.7309 -2.8304
   38MYC     H9 4324   6.547   1.592  10.351 -0.4845 -0.5126  0.2588
   38MYC     C5 4325   6.675   1.680  10.206 -0.1794 -0.0396 -0.4774
   38MYC     H6 4326   6.771   1.639  10.239  1.2260  3.3509  0.1017
   38MYC     H7 4327   6.693   1.783  10.172 -0.8208 -0.2639 -1.5557
   38MYC     C4 4328   6.612   1.604  10.085  0.1719  0.8676  0.2626
   38MYC     H4 4329   6.516   1.653  10.062  0.3535  0.5560 -1.2420
   38MYC     H5 4330   6.595   1.506  10.130 -1.2403  0.3126 -1.3561
   38MYC     C2 4331   6.699   1.601   9.959 -0.1069  0.3373 -0.0834
   38MYC     H2 4332   6.710   1.704   9.926 -1.8552  0.6983  0.3389
   38MYC     O3 4333   6.825   1.548   9.982  0.0901  0.3234 -0.0887
   38MYC     H3 4334   6.823   1.458   9.946 -1.2819  1.4338 -3.1144
   38MYC     C1 4335   6.621   1.521   9.852  0.1371  0.8859  0.3211
   38MYC     H1 4336   6.526   1.572   9.829  0.4952  1.1283 -0.7002
   38MYC    C81 4337   6.591   1.376   9.901 -0.0041  0.4229  0.3519
   38MYC    O82 4338   6.673   1.306   9.963  0.0542  0.3005  0.2846
   38MYC    O83 4339   6.485   1.321   9.853  1.0892 -0.2305 -0.7634
   38MYC   H105 4340   6.494   1.231   9.889  0.4298  0.3349  0.9036
   38MYC    C20 4341   6.686   1.506   9.711  0.0238 -0.4577  0.5689
   38MYC    H34 4342   6.735   1.604   9.710 -2.2980  0.7773 -0.3889
   38MYC    H35 4343   6.754   1.421   9.702  0.2807 -0.2577  0.5882
   38MYC    C21 4344   6.584   1.497   9.593 -0.0033 -0.4266  0.0285
   38MYC    H36 4345   6.506   1.427   9.622 -1.0712  1.9429  3.5732
   38MYC    H37 4346   6.530   1.593   9.592 -1.3445 -1.1653  0.4656
   38MYC    C22 4347   6.645   1.470   9.449 -0.0723  0.3330 -0.1919
   38MYC    H38 4348   6.733   1.534   9.444 -0.8417  1.5738  1.4157
   38MYC    H39 4349   6.683   1.367   9.447  0.1267  0.3889  0.4591
   38MYC    C23 4350   6.546   1.481   9.341 -0.0504  0.3761 -0.0490
   38MYC    H40 4351   6.453   1.425   9.354 -1.4899  1.9463 -2.6484
   38MYC    H41 4352   6.510   1.584   9.329  0.7023  0.3883 -2.9100
   38MYC    C24 4353   6.602   1.443   9.201  0.5567 -0.1217  0.1665
   38MYC    H42 4354   6.698   1.492   9.181  0.8385 -1.4607 -2.0726
   38MYC    H43 4355   6.631   1.338   9.188 -0.5071 -0.4468  0.3734
   38MYC    C25 4356   6.506   1.487   9.088  0.1422 -0.8619  0.6498
   38MYC    H44 4357   6.418   1.422   9.096 -1.0280  0.7678  1.3438
   38MYC    H45 4358   6.480   1.593   9.092 -0.0316 -0.8364 -0.5657
   38MYC    C26 4359   6.570   1.459   8.947  0.1544 -0.2272  1.2247
   38MYC    H46 4360   6.653   1.528   8.929 -0.8623  0.8756  0.6222
   38MYC    H47 4361   6.617   1.361   8.945  1.2495  0.2537  2.3478
   38MYC    C27 4362   6.465   1.487   8.834  0.6137  0.4116 -0.7089
   38MYC    H48 4363   6.384   1.417   8.852  0.1758  1.6996  3.6897
   38MYC    H49 4364   6.416   1.582   8.860 -1.7951 -0.9811  0.0634
   38MYC    C28 4365   6.517   1.491   8.690 -0.0921  0.3262 -0.5208
   38MYC    H50 4366   6.580   1.579   8.674 -0.7879  1.0680  0.6457
   38MYC    H51 4367   6.585   1.409   8.664 -0.3790 -0.0463 -0.1073
   38MYC    C29 4368   6.404   1.505   8.583  0.3087 -0.0721 -0.1477
   38MYC    H52 4369   6.310   1.452   8.598 -0.5062  1.3620 -0.0047
   38MYC    H53 4370   6.362   1.606   8.579 -0.7628 -0.5335 -0.7257
   38MYC    C30 4371   6.453   1.482   8.437  0.1185  0.1344 -0.4792
   38MYC    H54 4372   6.518   1.568   8.419  2.4610 -0.9998  2.0028
   38MYC    H55 4373   6.506   1.386   8.432 -1.8140 -1.2368  2.4085
   38MYC    C31 4374   6.336   1.498   8.343  0.1632 -0.4240  0.1695
   38MYC    H56 4375   6.265   1.422   8.378  0.7973 -1.1238 -0.0190
   38MYC    H57 4376   6.287   1.596   8.339  1.1630  0.1481  1.4654
   38MYC    C32 4377   6.369   1.455   8.200  0.2121 -1.2768  0.2983
   38MYC    H58 4378   6.462   1.506   8.172 -0.2949  0.7355  1.9813
   38MYC    H59 4379   6.386   1.347   8.199  0.2995 -1.2610 -0.0492
   38MYC    C33 4380   6.272   1.501   8.092 -0.5274 -0.1603  0.5229
   38MYC    H60 4381   6.172   1.465   8.120 -1.0134  0.1801 -0.6826
   38MYC    H61 4382   6.261   1.610   8.096 -1.1854 -0.2156  0.3048
   38MYC    C34 4383   6.314   1.455   7.942 -0.7185  0.3377 -0.3466
   38MYC    H62 4384   6.414   1.499   7.926 -1.0993  1.4000  0.1215
   38MYC    H63 4385   6.336   1.348   7.949  0.4921  0.6833  1.8686
   38MYC    C35 4386   6.208   1.491   7.833 -0.3057 -0.3411 -0.0623
   38MYC    H64 4387   6.110   1.448   7.856 -1.6666  2.8118  0.6448
   38MYC    H65 4388   6.191   1.600   7.836  0.0804 -0.1947 -2.0330
   38MYC    C36 4389   6.252   1.461   7.685 -0.6963  0.3503  0.3094
   38MYC    H66 4390   6.344   1.516   7.662 -0.7623  0.5880  0.6035
   38MYC    H67 4391   6.268   1.354   7.669  0.6185  0.5059  0.4971
   38MYC    C37 4392   6.152   1.510   7.575  0.6194  0.4090 -0.0448
   38MYC    H68 4393   6.055   1.462   7.586  1.0017 -0.2874  0.3765
   38MYC    H69 4394   6.131   1.618   7.581 -1.9099 -0.0981  2.3796
   38MYC    C38 4395   6.220   1.479   7.436  0.0435 -0.2507 -0.1279
   38MYC    H70 4396   6.322   1.519   7.429 -0.7865  2.0618  0.3053
   38MYC    H71 4397   6.220   1.369   7.443 -0.1415 -0.2559 -0.2059
   38MYC    C39 4398   6.137   1.521   7.312 -0.2933 -0.3174  0.1874
   38MYC    H72 4399   6.035   1.484   7.329  0.0999 -1.7183 -0.3978
   38MYC    H73 4400   6.123   1.630   7.313  0.0804 -0.2658 -0.2167
   38MYC    C40 4401   6.183   1.477   7.174  0.2942 -0.0712  0.3193
   38MYC    H74 4402   6.275   1.531   7.149 -0.0351  0.3120 -0.0878
   38MYC    H75 4403   6.189   1.369   7.161 -2.9230 -0.1738 -1.3518
   38MYC    C41 4404   6.086   1.525   7.067  0.1758  0.3374  1.0533
   38MYC    H76 4405   5.981   1.506   7.094 -0.2569  0.4615 -0.4686
   38MYC    H77 4406   6.085   1.635   7.065 -3.7748  0.4662  1.2724
   38MYC    C42 4407   6.125   1.466   6.918  0.1158  0.3067  0.0962
   38MYC    H78 4408   6.156   1.361   6.929 -0.8229 -0.5317 -3.8109
   38MYC    H79 4409   6.038   1.461   6.852  0.7898 -2.2472 -0.7439
   38MYC    C43 4410   6.223   1.563   6.840  0.5648  0.6101 -0.5606
   38MYC    H80 4411   6.196   1.541   6.736  0.1675 -1.8409 -0.0018
   38MYC    H81 4412   6.328   1.536   6.859 -0.3902 -1.9055  1.7471
   38MYC    H82 4413   6.208   1.669   6.861 -0.7919  0.2817  0.1894
   39MYC   HH15 4414   0.281   1.287   7.113  1.4942 -1.0961  0.7864
   39MYC    C80 4415   0.255   1.351   7.198  0.2145 -0.4020 -0.0969
   39MYC   H100 4416   0.339   1.387   7.258 -0.5222  0.3287  0.5187
   39MYC   H101 4417   0.213   1.444   7.157  3.8451  1.2125 -0.4763
   39MYC    C79 4418   0.145   1.274   7.281  0.5280 -0.2395 -0.0386
   39MYC   H102 4419   0.175   1.172   7.307  0.2049  0.3081  2.8131
   39MYC   H103 4420   0.050   1.272   7.225 -0.0211 -0.6522  0.8925
   39MYC    C78 4421   0.122   1.342   7.415  0.1884 -0.4016 -0.0117
   39MYC   HH14 4422   0.024   1.319   7.457 -0.1332  1.7957  0.5937
   39MYC   H104 4423   0.111   1.450   7.395 -0.4708  0.0030  2.3011
   39MYC    C77 4424   0.232   1.307   7.521  0.1711  0.2147  0.4840
   39MYC   H106 4425   0.328   1.317   7.470 -0.2820  1.4054 -0.1833
   39MYC   H107 4426   0.217   1.204   7.555  0.7242  0.0257  0.1664
   39MYC    C76 4427   0.234   1.394   7.656  0.3722  0.3856  0.4013
   39MYC   H108 4428   0.131   1.395   7.693  0.3343  1.2765  0.2854
   39MYC   H109 4429   0.272   1.496   7.644  1.6533 -0.2223 -1.1730
   39MYC    C75 4430   0.319   1.325   7.775  0.0205  0.5077 -0.4811
   39MYC   H110 4431   0.425   1.351   7.771  0.4902 -0.9232  1.2476
   39MYC   H111 4432   0.308   1.216   7.766  0.6727  0.4111 -0.1409
   39MYC    C74 4433   0.282   1.382   7.911  0.7904  0.3001 -0.5394
   39MYC   H112 4434   0.172   1.373   7.911  0.7537  0.5521  1.0252
   39MYC   H113 4435   0.318   1.485   7.919 -0.8615  0.8752 -0.1288
   39MYC    C73 4436   0.329   1.298   8.029  0.3013  0.1275  0.6669
   39MYC   HH13 4437   0.426   1.256   7.999  0.4149 -0.9194  2.4075
   39MYC   H114 4438   0.268   1.208   8.041  0.1362 -0.3205 -2.5327
   39MYC    C72 4439   0.352   1.376   8.152 -0.1599  0.7261 -1.3485
   39MYC   H115 4440   0.258   1.423   8.184 -0.6523 -0.0403 -1.6280
   39MYC   H116 4441   0.417   1.462   8.131  0.7581  0.8553  1.6343
   39MYC    C71 4442   0.420   1.302   8.259 -0.0848 -0.2924  0.0465
   39MYC   H117 4443   0.516   1.268   8.219  0.3695  1.2354 -0.2407
   39MYC   H118 4444   0.367   1.211   8.287  1.1575 -1.2127 -0.4900
   39MYC    C70 4445   0.439   1.390   8.382 -0.7314  0.3372 -0.6568
   39MYC   H119 4446   0.341   1.433   8.400 -1.1432 -0.2131 -1.5223
   39MYC   H120 4447   0.494   1.482   8.359  0.2111  0.1251  0.6185
   39MYC    C69 4448   0.502   1.320   8.507 -0.2322 -0.5505  0.3345
   39MYC   H121 4449   0.604   1.290   8.482 -0.1164 -1.0670  1.3677
   39MYC   H122 4450   0.447   1.225   8.512 -2.3420  0.5739 -0.1962
   39MYC    C68 4451   0.508   1.385   8.652 -0.6121 -0.7034 -0.0310
   39MYC   HH12 4452   0.565   1.314   8.713  0.3455 -0.9727 -1.2003
   39MYC   H123 4453   0.414   1.401   8.705  0.5335 -1.0087  2.1844
   39MYC    C67 4454   0.577   1.525   8.646 -0.1065 -1.1405 -0.6051
   39MYC   H124 4455   0.493   1.592   8.623  0.6495  0.0071 -0.1365
   39MYC   H125 4456   0.646   1.530   8.561  1.8025 -0.6581  0.9087
   39MYC    C66 4457   0.644   1.564   8.781  0.2294  0.2674 -0.5950
   39MYC   H126 4458   0.729   1.495   8.789  0.3513  0.3524 -1.1268
   39MYC   H127 4459   0.575   1.525   8.857 -0.4750  0.0190 -1.3428
   39MYC    C65 4460   0.679   1.708   8.790  0.1748  0.0534 -0.2029
   39MYC   H128 4461   0.590   1.766   8.819 -0.0608 -0.0478 -0.7153
   39MYC   H129 4462   0.709   1.741   8.690  0.2823 -0.4815 -0.3476
   39MYC    C64 4463   0.782   1.752   8.890  0.0345 -0.3136  0.7940
   39MYC   H130 4464   0.813   1.854   8.867 -2.2288  0.2959  0.1712
   39MYC   H131 4465   0.864   1.681   8.873 -0.3451 -0.7259  0.6764
   39MYC    C63 4466   0.751   1.733   9.044 -0.0136 -0.0732  0.3402
   39MYC   HH11 4467   0.760   1.628   9.073 -0.4936  0.4685  2.6358
   39MYC   H132 4468   0.651   1.767   9.070  0.0757  0.0235  0.5584
   39MYC    C62 4469   0.850   1.809   9.132  0.2621 -0.5465  0.4151
   39MYC   H133 4470   0.809   1.911   9.129  0.7635 -0.3507 -2.2487
   39MYC   H134 4471   0.953   1.815   9.094 -1.0169  1.5203 -3.2039
   39MYC    C61 4472   0.836   1.769   9.283  0.3110 -0.1304  0.8480
   39MYC   H135 4473   0.850   1.660   9.291 -2.4064 -0.5982  0.2162
   39MYC   H136 4474   0.732   1.788   9.311 -0.6618 -3.0387 -0.4212
   39MYC    C60 4475   0.924   1.850   9.379 -0.4388  0.0232 -0.3408
   39MYC   H137 4476   0.903   1.956   9.375  4.3523  1.1397 -2.2937
   39MYC    C58 4477   0.951   1.797   9.521  0.9727 -0.3789 -0.3598
   39MYC   H138 4478   0.909   1.699   9.543  0.2930 -0.2952 -1.1955
   39MYC    C59 4479   1.062   1.804   9.430 -0.2276 -0.3325  0.4183
   39MYC   H139 4480   1.136   1.879   9.456  0.2739 -1.3803  2.1141
   39MYC   H140 4481   1.112   1.717   9.389  0.8459 -0.6134  2.2611
   39MYC    C57 4482   0.930   1.888   9.640 -0.1110  0.5520 -0.0604
   39MYC   HH10 4483   0.824   1.912   9.660 -0.4046 -1.0152  0.4298
   39MYC   H141 4484   0.981   1.980   9.612 -0.6904  0.7996 -0.3145
   39MYC    C56 4485   0.998   1.828   9.773 -0.1504 -0.2600  0.5032
   39MYC   H142 4486   1.090   1.776   9.743  0.7875  1.0441  1.0152
   39MYC   H143 4487   0.929   1.753   9.811  2.7039 -3.5426 -0.2896
   39MYC    C55 4488   1.035   1.952   9.862  0.1158  0.2792 -0.3690
   39MYC   H144 4489   0.941   1.975   9.913  0.2673 -2.1911  1.2330
   39MYC   H145 4490   1.050   2.047   9.810 -2.1946  0.4660 -0.7923
   39MYC    C54 4491   1.148   1.924   9.962 -0.1386  0.0815 -0.0720
   39MYC   H146 4492   1.142   1.994  10.047  2.9645  0.8798 -0.4067
   39MYC   H147 4493   1.249   1.955   9.932  0.3039  0.3762  1.6056
   39MYC    C53 4494   1.171   1.783  10.016 -0.5810  0.4273  0.3398
   39MYC   H148 4495   1.200   1.721   9.930  0.0201  1.9974 -0.6432
   39MYC   H149 4496   1.085   1.732  10.062  0.4449 -0.6967  1.0680
   39MYC    C52 4497   1.278   1.777  10.131  0.0731 -0.1012 -0.3603
   39MYC    H99 4498   1.230   1.819  10.220  0.8177  0.3585 -0.1665
   39MYC   H150 4499   1.363   1.844  10.111  2.2941 -2.8489 -0.7710
   39MYC    C51 4500   1.329   1.637  10.167 -0.1650 -0.6645 -0.1104
   39MYC    H97 4501   1.375   1.595  10.077  0.5299  0.6037 -0.3782
   39MYC    H98 4502   1.251   1.567  10.198  0.1222 -1.4669 -1.1585
   39MYC    C50 4503   1.436   1.661  10.280 -0.2176 -0.5417 -0.4549
   39MYC    H95 4504   1.516   1.731  10.255 -1.8852  2.5300  2.1224
   39MYC    H96 4505   1.486   1.565  10.299  1.1705 -0.0122 -1.2242
   39MYC    C49 4506   1.386   1.734  10.416 -0.5318  0.4677 -0.0307
   39MYC    H93 4507   1.298   1.675  10.444  0.2111 -1.9757 -2.3881
   39MYC    H94 4508   1.359   1.837  10.393  1.6962  0.6416 -2.2388
   39MYC    C48 4509   1.493   1.732  10.527 -0.5387 -0.1701  0.3759
   39MYC    H91 4510   1.555   1.822  10.522 -0.2315 -0.3510  0.9480
   39MYC    H92 4511   1.536   1.631  10.516 -1.4592 -0.4482 -1.0544
   39MYC    C47 4512   1.423   1.751  10.662  0.4002 -0.5848  0.0946
   39MYC    H89 4513   1.357   1.665  10.675 -1.9419  1.2520  1.0028
   39MYC    H90 4514   1.362   1.842  10.667  0.5729 -0.4671  0.0767
   39MYC    C46 4515   1.529   1.777  10.772 -0.0186  0.1293  0.0277
   39MYC    H87 4516   1.477   1.799  10.866 -0.9626 -1.8607  0.0349
   39MYC    H88 4517   1.593   1.863  10.753 -0.7586  1.1604  1.9222
   39MYC    C45 4518   1.617   1.650  10.806 -0.5608  0.3359  0.4654
   39MYC    H85 4519   1.704   1.693  10.856 -0.4823 -0.0973  0.7029
   39MYC    H86 4520   1.651   1.601  10.714 -1.7409 -1.3492  0.8752
   39MYC    C44 4521   1.546   1.549  10.894  0.2068  0.3145  0.1318
   39MYC    H83 4522   1.602   1.456  10.877  0.7722  0.4782  1.0388
   39MYC    H84 4523   1.447   1.533  10.849  0.9235  3.3789 -2.8814
   39MYC    C18 4524   1.537   1.585  11.041  1.1423 -0.3730 -0.7845
   39MYC    H31 4525   1.468   1.666  11.063  1.2170 -0.5352  0.0721
   39MYC    C17 4526   1.556   1.470  11.140 -0.1214  0.1258 -0.3471
   39MYC    H30 4527   1.596   1.376  11.105  0.2556  0.0611  0.2386
   39MYC    C19 4528   1.660   1.582  11.136  0.7031 -1.2002  0.4035
   39MYC    H32 4529   1.753   1.564  11.083 -0.1073 -1.7493 -0.8629
   39MYC    H33 4530   1.659   1.642  11.226 -2.4604 -1.3197  0.5608
   39MYC    C16 4531   1.488   1.451  11.277 -0.5003  0.3162 -0.4017
   39MYC    H28 4532   1.477   1.541  11.339  0.2153 -0.3330  0.6806
   39MYC    H29 4533   1.545   1.373  11.327 -0.5973 -0.2119 -1.1016
   39MYC    C15 4534   1.357   1.376  11.262  1.0824  0.7627 -0.2289
   39MYC    H26 4535   1.320   1.311  11.342 -2.7403 -0.8149 -2.9183
   39MYC    H27 4536   1.372   1.306  11.179  1.1869  3.4167 -2.5880
   39MYC    C14 4537   1.243   1.475  11.219 -0.9200  0.2544  0.1580
   39MYC    H24 4538   1.283   1.549  11.148 -1.1368  0.7460  0.5444
   39MYC    H25 4539   1.221   1.532  11.310  1.2201 -0.4613  1.1914
   39MYC    C13 4540   1.116   1.399  11.170  0.0512  0.8523 -0.7906
   39MYC    H22 4541   1.086   1.330  11.249 -0.8876  3.0713  0.9100
   39MYC    H23 4542   1.133   1.339  11.080  0.5809  0.3480 -0.3555
   39MYC    C12 4543   0.994   1.491  11.160  0.0073  0.8826  0.3705
   39MYC    H20 4544   1.019   1.577  11.097  0.3887 -0.2794 -1.1144
   39MYC    H21 4545   0.972   1.526  11.262 -1.7205  1.7738 -0.2675
   39MYC    C11 4546   0.858   1.429  11.125  0.1254 -0.3365  0.3801
   39MYC    H18 4547   0.783   1.506  11.148  0.3522 -0.0041  0.0298
   39MYC    H19 4548   0.841   1.351  11.200 -0.7304  0.9919  1.6121
   39MYC    C10 4549   0.840   1.363  10.982  0.6878 -0.2934 -0.3916
   39MYC    H16 4550   0.763   1.285  10.990 -0.1351  0.4797 -0.6307
   39MYC    H17 4551   0.926   1.296  10.974 -1.3310 -3.3355  1.2674
   39MYC     C9 4552   0.809   1.460  10.865  0.1335 -0.0145 -0.5005
   39MYC    H14 4553   0.897   1.520  10.842 -0.2692 -0.3259 -3.1983
   39MYC    H15 4554   0.716   1.516  10.885  0.5451  0.6960 -0.5408
   39MYC     C8 4555   0.788   1.380  10.732 -0.4363  0.4797 -1.1189
   39MYC    H12 4556   0.698   1.318  10.739 -0.4000  0.5766  1.5235
   39MYC    H13 4557   0.858   1.297  10.721 -0.5220  0.1162  0.7402
   39MYC     C7 4558   0.800   1.460  10.605  0.1269  0.2125  0.2684
   39MYC    H10 4559   0.896   1.512  10.602  0.3881 -0.3023 -0.6978
   39MYC    H11 4560   0.729   1.542  10.602  0.3413  0.3848 -0.0722
   39MYC     C6 4561   0.790   1.373  10.483  0.2031 -0.0586  0.8742
   39MYC     H8 4562   0.706   1.305  10.497  1.5904 -2.8249 -2.5321
   39MYC     H9 4563   0.873   1.302  10.469  1.2464  0.8747  2.0445
   39MYC     C5 4564   0.772   1.454  10.352 -0.5325 -0.6389 -0.2178
   39MYC     H6 4565   0.855   1.524  10.346  0.0035 -1.1159  1.3021
   39MYC     H7 4566   0.683   1.519  10.354 -0.9930 -1.2749  0.4461
   39MYC     C4 4567   0.783   1.384  10.216  0.1302  0.6791 -0.6088
   39MYC     H4 4568   0.726   1.291  10.206 -1.5918  1.7756 -1.4205
   39MYC     H5 4569   0.890   1.359  10.220 -0.0413  0.1298  1.6745
   39MYC     C2 4570   0.762   1.474  10.093  0.5803 -0.1823 -0.1254
   39MYC     H2 4571   0.669   1.532  10.104  0.1147 -0.7537 -0.9234
   39MYC     O3 4572   0.879   1.558  10.073 -0.2938  0.2182 -0.0605
   39MYC     H3 4573   0.923   1.580  10.157  0.5777 -2.3521  0.2262
   39MYC     C1 4574   0.737   1.393   9.961 -0.0749  0.1261  0.2914
   39MYC     H1 4575   0.643   1.341   9.984  0.1840 -0.0469  0.9563
   39MYC    C81 4576   0.844   1.279   9.942  0.5017 -0.4352  0.1716
   39MYC    O82 4577   0.821   1.162   9.960 -0.1663 -0.1087  0.4762
   39MYC    O83 4578   0.955   1.325   9.880 -0.1647  0.1570  0.0962
   39MYC   H105 4579   1.011   1.247   9.862  1.1207  0.5889  1.9572
   39MYC    C20 4580   0.709   1.479   9.832 -0.3016  0.1737  0.9027
   39MYC    H34 4581   0.626   1.547   9.858  1.3317  1.8429  1.9694
   39MYC    H35 4582   0.788   1.551   9.808 -1.7865  1.5414 -0.0882
   39MYC    C21 4583   0.662   1.384   9.723  0.9331  0.1104  0.3929
   39MYC    H36 4584   0.744   1.319   9.692  1.5295  1.0239  0.0276
   39MYC    H37 4585   0.581   1.320   9.760  0.2852  1.0849  0.7197
   39MYC    C22 4586   0.617   1.462   9.596  0.2072 -0.1137 -0.5052
   39MYC    H38 4587   0.541   1.534   9.627 -0.6332 -0.6377 -1.3038
   39MYC    H39 4588   0.696   1.526   9.554 -0.0308 -0.7944 -2.0635
   39MYC    C23 4589   0.554   1.373   9.484 -0.2155 -0.1272 -0.4022
   39MYC    H40 4590   0.477   1.306   9.525  2.5531 -2.5944  1.1627
   39MYC    H41 4591   0.496   1.437   9.417  1.8243  1.9859 -0.2646
   39MYC    C24 4592   0.652   1.298   9.398  0.0743 -0.6877  0.7580
   39MYC    H42 4593   0.706   1.228   9.463  1.2839 -2.0862 -1.6170
   39MYC    H43 4594   0.590   1.235   9.334  1.1864 -0.0374 -1.0554
   39MYC    C25 4595   0.766   1.377   9.330 -0.9361  0.0648  0.5567
   39MYC    H44 4596   0.728   1.442   9.249 -1.7851 -4.0896 -2.7584
   39MYC    H45 4597   0.818   1.441   9.402  1.8072 -0.3668 -0.9343
   39MYC    C26 4598   0.874   1.283   9.272  0.6326  1.1011  0.0837
   39MYC    H46 4599   0.910   1.211   9.347 -2.1058 -0.0238  0.4219
   39MYC    H47 4600   0.833   1.216   9.196  2.7104 -0.7529  0.4966
   39MYC    C27 4601   0.999   1.349   9.214 -0.5187  0.3241  0.8884
   39MYC    H48 4602   0.959   1.419   9.139  1.9542  1.1845  0.2975
   39MYC    H49 4603   1.048   1.416   9.285 -0.4348  2.4470 -1.0360
   39MYC    C28 4604   1.104   1.252   9.146  0.5109  0.4606 -0.2110
   39MYC    H50 4605   1.062   1.199   9.060  0.4585 -1.4049  0.8937
   39MYC    H51 4606   1.187   1.311   9.106  0.0915  0.0832 -1.6775
   39MYC    C29 4607   1.163   1.144   9.252  0.2375  0.1599 -0.4791
   39MYC    H52 4608   1.180   1.191   9.349  1.7730  2.7285 -1.8897
   39MYC    H53 4609   1.091   1.061   9.253 -0.8800  1.1064  0.1815
   39MYC    C30 4610   1.288   1.072   9.195  1.1256 -0.3659  0.2122
   39MYC    H54 4611   1.295   0.969   9.233 -2.1970 -0.7540  0.0847
   39MYC    H55 4612   1.276   1.053   9.087 -1.0257 -1.0762  0.5216
   39MYC    C31 4613   1.416   1.144   9.213  0.3465 -0.0157 -0.1932
   39MYC    H56 4614   1.399   1.248   9.184 -0.1242 -0.2145 -0.6485
   39MYC    H57 4615   1.440   1.143   9.320  1.1247 -0.0480 -0.3626
   39MYC    C32 4616   1.536   1.081   9.148 -0.3353  1.2170  0.6062
   39MYC    H58 4617   1.621   1.142   9.182 -1.1056  3.3663 -1.0433
   39MYC    H59 4618   1.539   0.976   9.178  0.6383  1.0683  0.0467
   39MYC    C33 4619   1.533   1.070   9.001 -0.0487  0.0278  0.6061
   39MYC    H60 4620   1.444   1.015   8.970 -1.8389  1.3035  3.1162
   39MYC    H61 4621   1.510   1.170   8.962 -0.9065 -0.1125  0.7289
   39MYC    C34 4622   1.658   1.009   8.926 -0.0044 -0.0136  0.5455
   39MYC    H62 4623   1.742   1.072   8.958  0.0656  0.4397 -0.4878
   39MYC    H63 4624   1.656   0.906   8.964 -2.1378  0.6221  2.3321
   39MYC    C35 4625   1.654   1.005   8.773  0.3287 -0.0283  0.7042
   39MYC    H64 4626   1.549   1.014   8.744  0.1979  0.9898  1.4142
   39MYC    H65 4627   1.697   1.098   8.734 -1.3171 -0.0789 -1.4118
   39MYC    C36 4628   1.734   0.886   8.717 -0.1018  0.0144 -0.1175
   39MYC    H66 4629   1.837   0.890   8.754 -0.4845 -2.1927  1.3597
   39MYC    H67 4630   1.686   0.793   8.748 -1.5085  0.9757  0.7447
   39MYC    C37 4631   1.729   0.888   8.559  0.0710 -0.3637  0.0766
   39MYC    H68 4632   1.726   0.993   8.527 -0.9523 -0.5829 -0.5750
   39MYC    H69 4633   1.816   0.850   8.505 -0.7697  0.7946 -2.2141
   39MYC    C38 4634   1.610   0.810   8.494  0.2788  0.0246  0.2400
   39MYC    H70 4635   1.628   0.705   8.521 -2.4797 -0.8146 -0.8327
   39MYC    H71 4636   1.510   0.831   8.533  0.6451  1.1543  0.6215
   39MYC    C39 4637   1.598   0.843   8.349  0.2772  0.2624 -0.0712
   39MYC    H72 4638   1.567   0.948   8.348  1.0350  0.6313  2.8385
   39MYC    H73 4639   1.702   0.836   8.314  1.2667  0.7855  2.4614
   39MYC    C40 4640   1.510   0.747   8.261  0.5437  0.7078 -0.4174
   39MYC    H74 4641   1.573   0.659   8.245  0.9122  0.4025  2.2035
   39MYC    H75 4642   1.430   0.702   8.321  1.9765 -2.6097 -0.7863
   39MYC    C41 4643   1.462   0.821   8.144  0.4521  0.5179 -0.2831
   39MYC    H76 4644   1.555   0.860   8.100  0.2090  0.4642 -0.8493
   39MYC    H77 4645   1.433   0.749   8.066  0.5625 -0.4624  0.5546
   39MYC    C42 4646   1.350   0.928   8.172 -0.4136  0.1369 -0.2438
   39MYC    H78 4647   1.264   0.865   8.197  0.9340 -1.1331  1.4299
   39MYC    H79 4648   1.374   0.986   8.262 -1.7316 -1.2634  1.0786
   39MYC    C43 4649   1.327   1.026   8.053  0.1903 -0.1575 -0.1437
   39MYC    H80 4650   1.341   0.994   7.949 -0.2391  0.8297 -0.5177
   39MYC    H81 4651   1.396   1.111   8.062 -1.0147  0.7654  0.6694
   39MYC    H82 4652   1.229   1.074   8.060 -0.6534 -1.9699  1.4539
   40MYC   HH15 4653   0.476   1.708   7.517 -1.0768  0.5192  2.2977
   40MYC    C80 4654   0.581   1.690   7.542 -0.6054  0.3633  0.3654
   40MYC   H100 4655   0.606   1.590   7.505  0.9844  0.6405  0.6160
   40MYC   H101 4656   0.641   1.767   7.493  0.9589  0.7055  2.6470
   40MYC    C79 4657   0.588   1.696   7.697  0.7506  0.0164  0.7772
   40MYC   H102 4658   0.509   1.638   7.746  0.1573 -0.5336 -0.7829
   40MYC   H103 4659   0.589   1.802   7.722 -0.3530  0.7001 -1.8049
   40MYC    C78 4660   0.719   1.642   7.746 -0.6369  0.3855  0.6328
   40MYC   HH14 4661   0.790   1.723   7.727  0.1386 -0.6707 -1.2853
   40MYC   H104 4662   0.766   1.558   7.693  1.5908  1.5400  0.6443
   40MYC    C77 4663   0.721   1.598   7.894 -0.2093 -1.1267 -0.2440
   40MYC   H106 4664   0.822   1.567   7.927  0.1261  0.0631 -0.1180
   40MYC   H107 4665   0.662   1.506   7.897 -1.5731 -0.2625  1.9440
   40MYC    C76 4666   0.656   1.701   7.990  0.2027  0.3082  0.3332
   40MYC   H108 4667   0.564   1.656   8.028 -0.4144  1.7809  0.6674
   40MYC   H109 4668   0.628   1.792   7.935 -0.9076 -0.2591 -0.0604
   40MYC    C75 4669   0.758   1.755   8.097  0.1867  0.6215 -0.1216
   40MYC   H110 4670   0.719   1.847   8.142  2.5765  2.0800 -0.8058
   40MYC   H111 4671   0.849   1.792   8.049 -0.4566  1.2080 -0.9043
   40MYC    C74 4672   0.797   1.663   8.221  0.3478  0.7085  0.8867
   40MYC   H112 4673   0.835   1.566   8.184  1.4043  1.1312  0.8259
   40MYC   H113 4674   0.713   1.650   8.290  0.7264  0.1561  1.2539
   40MYC    C73 4675   0.902   1.717   8.313  0.6841  0.0208 -0.7007
   40MYC   HH13 4676   0.867   1.807   8.363  3.0130  1.2905 -1.2080
   40MYC   H114 4677   0.987   1.749   8.251  1.1692  0.1756  0.0437
   40MYC    C72 4678   0.950   1.617   8.429  0.6574  0.0729  0.6061
   40MYC   H115 4679   1.023   1.555   8.375  0.0709  1.4234 -1.8906
   40MYC   H116 4680   0.868   1.564   8.479  1.6607 -1.6338  0.5265
   40MYC    C71 4681   1.033   1.688   8.535  0.3456  0.1356 -0.2253
   40MYC   H117 4682   0.973   1.766   8.582 -1.7330 -1.5484  0.0810
   40MYC   H118 4683   1.126   1.732   8.497  0.6247 -0.6895 -0.5276
   40MYC    C70 4684   1.070   1.588   8.647 -0.2958  0.3438 -0.5910
   40MYC   H119 4685   1.114   1.494   8.611  0.3011  0.6217 -0.5982
   40MYC   H120 4686   0.981   1.564   8.708 -1.2548  4.3058 -0.1013
   40MYC    C69 4687   1.170   1.655   8.757 -0.2967 -0.3852  0.4617
   40MYC   H121 4688   1.134   1.755   8.784 -0.4635 -0.7424  1.6220
   40MYC   H122 4689   1.270   1.666   8.714  0.5678  0.2707  2.5084
   40MYC    C68 4690   1.195   1.567   8.884 -0.4682 -0.0729 -0.1016
   40MYC   HH12 4691   1.230   1.467   8.857 -0.0646  0.0918 -0.1866
   40MYC   H123 4692   1.105   1.546   8.943 -0.4156  3.5727  1.5473
   40MYC    C67 4693   1.291   1.643   8.972 -0.7069  0.4248  0.3526
   40MYC   H124 4694   1.263   1.747   8.993 -0.7881  0.5492 -0.3662
   40MYC   H125 4695   1.379   1.667   8.912 -0.4798  0.1031  0.5547
   40MYC    C66 4696   1.329   1.564   9.096  0.1093  0.3361 -0.1319
   40MYC   H126 4697   1.371   1.468   9.065  1.0955  0.5553  0.4949
   40MYC   H127 4698   1.236   1.539   9.149 -0.1288 -0.3532 -0.8633
   40MYC    C65 4699   1.429   1.639   9.198  0.8088  0.6885 -0.2123
   40MYC   H128 4700   1.371   1.728   9.225 -1.6294 -0.6050 -0.8621
   40MYC   H129 4701   1.516   1.662   9.136 -1.1458 -0.6182 -3.7724
   40MYC    C64 4702   1.466   1.541   9.313 -0.0252 -0.9361  0.1535
   40MYC   H130 4703   1.554   1.570   9.373  0.0102 -0.3266 -0.1884
   40MYC   H131 4704   1.490   1.447   9.262  0.3363 -0.6613 -0.1927
   40MYC    C63 4705   1.345   1.521   9.409  0.4089  0.6280 -0.1759
   40MYC   HH11 4706   1.264   1.482   9.347 -0.5140 -2.1523  2.5100
   40MYC   H132 4707   1.315   1.618   9.450 -0.1656 -0.3981  1.9518
   40MYC    C62 4708   1.356   1.415   9.518  0.7556  0.7730 -0.2500
   40MYC   H133 4709   1.421   1.339   9.473 -0.6454 -1.1188  0.7550
   40MYC   H134 4710   1.265   1.354   9.530  2.2444 -1.9019 -1.5931
   40MYC    C61 4711   1.403   1.464   9.656  0.9260 -0.0121 -0.8372
   40MYC   H135 4712   1.444   1.377   9.708  1.0018 -0.3973 -1.5317
   40MYC   H136 4713   1.316   1.501   9.713  1.1655 -1.5902  0.6407
   40MYC    C60 4714   1.501   1.575   9.668  0.9817 -0.0045  0.0076
   40MYC   H137 4715   1.479   1.654   9.597 -2.2651 -2.1102 -1.5934
   40MYC    C58 4716   1.558   1.612   9.805  0.3197  0.2877  0.3294
   40MYC   H138 4717   1.542   1.552   9.895 -1.4722  1.5540  0.9074
   40MYC    C59 4718   1.647   1.555   9.700 -0.7828  0.3569  0.5046
   40MYC   H139 4719   1.722   1.620   9.657 -0.7264  0.4371  0.7222
   40MYC   H140 4720   1.679   1.452   9.713 -1.5286 -0.2361 -1.8201
   40MYC    C57 4721   1.570   1.760   9.842 -0.6840  0.6258 -0.1521
   40MYC   HH10 4722   1.474   1.802   9.874 -1.3591 -0.7017 -0.3684
   40MYC   H141 4723   1.614   1.818   9.760  1.2034  0.7867  0.9036
   40MYC    C56 4724   1.667   1.780   9.958  0.1960  0.3446 -0.8251
   40MYC   H142 4725   1.771   1.757   9.931 -0.1563 -2.1836 -0.2457
   40MYC   H143 4726   1.638   1.716  10.042  0.5506  2.6844  1.1774
   40MYC    C55 4727   1.674   1.925  10.018  0.2129  0.2026 -0.1998
   40MYC   H144 4728   1.592   1.939  10.089  0.7060 -0.8700  0.6204
   40MYC   H145 4729   1.664   2.001   9.941 -2.1202 -0.8851 -1.0617
   40MYC    C54 4730   1.802   1.961  10.094  0.2282 -0.3011 -0.7598
   40MYC   H146 4731   1.809   2.067  10.121  2.7397 -0.1487 -1.6838
   40MYC   H147 4732   1.896   1.956  10.037 -0.0302  0.9494 -1.3136
   40MYC    C53 4733   1.831   1.872  10.213  0.2453  0.5621  0.6332
   40MYC   H148 4734   1.838   1.767  10.181  0.8032  0.5972  0.6304
   40MYC   H149 4735   1.747   1.894  10.279 -0.9333  1.2014 -1.0135
   40MYC    C52 4736   1.968   1.899  10.288 -0.3370 -0.0371 -0.1813
   40MYC    H99 4737   1.993   2.005  10.298 -0.1119 -0.0743 -0.3489
   40MYC   H150 4738   2.042   1.868  10.213 -0.9304 -3.1281  0.3891
   40MYC    C51 4739   1.991   1.808  10.415 -0.2814 -0.0266 -0.0764
   40MYC    H97 4740   1.980   1.703  10.388  0.1839 -0.3136  0.7969
   40MYC    H98 4741   1.915   1.817  10.493 -1.2573  0.6616 -1.0746
   40MYC    C50 4742   2.132   1.836  10.471 -0.2418 -0.6117  0.8280
   40MYC    H95 4743   2.146   1.944  10.481 -0.8366 -0.4465  0.0293
   40MYC    H96 4744   2.212   1.815  10.399  1.0274  0.9333  1.7333
   40MYC    C49 4745   2.165   1.774  10.604 -0.0101  0.7121 -0.0647
   40MYC    H93 4746   2.098   1.819  10.678 -1.6072 -0.2447 -0.8728
   40MYC    H94 4747   2.264   1.809  10.635 -1.0056  0.9399  3.2566
   40MYC    C48 4748   2.157   1.617  10.610 -0.0353  0.1067 -0.9503
   40MYC    H91 4749   2.217   1.576  10.527 -0.2552 -1.2808 -0.4468
   40MYC    H92 4750   2.052   1.591  10.592 -0.8805  2.3185  0.4497
   40MYC    C47 4751   2.207   1.554  10.742  0.1956  0.5554 -0.6199
   40MYC    H89 4752   2.315   1.560  10.759  0.0344  3.5984 -0.2915
   40MYC    H90 4753   2.172   1.451  10.727 -1.3611  1.1777 -1.4289
   40MYC    C46 4754   2.137   1.609  10.873 -0.0799  0.0357 -0.1948
   40MYC    H87 4755   2.030   1.623  10.855  0.0625 -0.0569 -1.1735
   40MYC    H88 4756   2.191   1.701  10.896  2.3818 -1.1595 -0.8404
   40MYC    C45 4757   2.148   1.521  10.987  0.8057 -0.3987 -0.3568
   40MYC    H85 4758   2.251   1.489  11.006 -0.3449 -3.1788  2.1582
   40MYC    H86 4759   2.109   1.421  10.961 -0.4081 -0.6314  2.0588
   40MYC    C44 4760   2.086   1.582  11.115 -0.3635 -0.1612  0.6418
   40MYC    H83 4761   2.001   1.641  11.078 -0.1766  0.1624  0.7165
   40MYC    H84 4762   2.159   1.649  11.162  0.7427 -0.6368 -0.3726
   40MYC    C18 4763   2.051   1.478  11.221  0.4551 -0.0201  0.1641
   40MYC    H31 4764   1.978   1.409  11.177  0.7482 -0.5862  0.5476
   40MYC    C17 4765   2.141   1.435  11.331  0.4687 -0.3605  0.3285
   40MYC    H30 4766   2.234   1.490  11.325 -0.5620  1.3521 -0.7004
   40MYC    C19 4767   2.020   1.516  11.368 -0.0770 -0.4824  0.0221
   40MYC    H32 4768   2.035   1.615  11.408 -0.0963 -0.2183 -0.6119
   40MYC    H33 4769   1.950   1.453  11.422  0.3958 -1.9958 -1.0449
   40MYC    C16 4770   2.161   1.291  11.387 -0.4816 -0.1006 -0.1624
   40MYC    H28 4771   2.126   1.284  11.491  1.1913  2.2685  0.6381
   40MYC    H29 4772   2.268   1.274  11.404 -0.6472  0.1249  1.2079
   40MYC    C15 4773   2.101   1.181  11.292 -0.4175  0.1449 -0.1416
   40MYC    H26 4774   2.156   1.086  11.295  1.1270  0.9922 -0.6319
   40MYC    H27 4775   2.112   1.221  11.190 -2.4514  0.4841 -0.2843
   40MYC    C14 4776   1.948   1.138  11.328 -0.0656  0.3125 -0.7291
   40MYC    H24 4777   1.882   1.223  11.348 -1.5476 -1.0719  0.5501
   40MYC    H25 4778   1.946   1.075  11.418  0.0682 -0.3458 -1.1779
   40MYC    C13 4779   1.875   1.051  11.228  0.6816 -1.0051  0.3988
   40MYC    H22 4780   1.785   1.016  11.279 -0.4404  0.3781 -0.5466
   40MYC    H23 4781   1.925   0.963  11.185 -0.3732 -1.4302  0.0166
   40MYC    C12 4782   1.818   1.144  11.118 -0.6223 -0.5148 -0.2926
   40MYC    H20 4783   1.889   1.221  11.087 -0.7901 -0.5146 -0.6855
   40MYC    H21 4784   1.740   1.205  11.165  0.7908 -0.2457  1.8195
   40MYC    C11 4785   1.776   1.066  10.989 -0.3190  0.3190 -0.9244
   40MYC    H18 4786   1.715   1.132  10.927 -1.1414 -0.4444 -0.9520
   40MYC    H19 4787   1.709   0.988  11.028  0.0767  0.9881  1.2503
   40MYC    C10 4788   1.898   1.009  10.911 -0.0347 -0.4401 -0.3587
   40MYC    H16 4789   1.862   0.944  10.830  1.6871 -2.3831  0.3473
   40MYC    H17 4790   1.949   0.943  10.982 -3.9871 -3.0896  0.3125
   40MYC     C9 4791   2.005   1.114  10.863 -0.1243 -1.0242 -0.3754
   40MYC    H14 4792   2.082   1.073  10.798  0.7565  1.4672 -1.0150
   40MYC    H15 4793   2.061   1.140  10.953  0.1766 -0.3675 -0.7454
   40MYC     C8 4794   1.938   1.242  10.799 -0.0592 -0.3075  0.3202
   40MYC    H12 4795   2.025   1.305  10.778  1.6607 -2.4713  0.5957
   40MYC    H13 4796   1.870   1.292  10.869 -2.0408 -0.0980 -1.6556
   40MYC     C7 4797   1.863   1.222  10.656 -0.1577 -0.8589  0.4958
   40MYC    H10 4798   1.787   1.143  10.661  0.6879 -1.6932  0.5326
   40MYC    H11 4799   1.927   1.198  10.570 -1.7715  3.5585 -2.2834
   40MYC     C6 4800   1.797   1.357  10.620 -0.2350  0.8193 -0.1533
   40MYC     H8 4801   1.866   1.438  10.648  0.5745  0.6662 -1.5841
   40MYC     H9 4802   1.710   1.378  10.684  0.1324  0.8631  0.3429
   40MYC     C5 4803   1.755   1.379  10.466 -0.4714  0.4414  0.0557
   40MYC     H6 4804   1.699   1.472  10.458  1.1504  1.4463 -0.0219
   40MYC     H7 4805   1.690   1.302  10.422  0.0350  0.6011 -0.9978
   40MYC     C4 4806   1.879   1.386  10.371  0.1906  0.1940 -0.2396
   40MYC     H4 4807   1.938   1.297  10.395 -3.0982 -2.5948 -1.6590
   40MYC     H5 4808   1.943   1.469  10.404 -1.0493  0.9505  0.3633
   40MYC     C2 4809   1.838   1.401  10.227 -0.2868 -0.5812  0.8811
   40MYC     H2 4810   1.772   1.316  10.209  0.1494 -0.7358 -0.0353
   40MYC     O3 4811   1.766   1.519  10.211 -0.4157 -0.2235 -0.0324
   40MYC     H3 4812   1.815   1.596  10.244 -0.8956  0.4130 -0.7680
   40MYC     C1 4813   1.959   1.391  10.124 -0.2136  0.7215 -0.5678
   40MYC     H1 4814   2.012   1.305  10.166 -0.8770  1.3232  1.6495
   40MYC    C81 4815   2.055   1.512  10.142  0.6528 -0.3029  0.4859
   40MYC    O82 4816   2.040   1.627  10.097  0.4866  0.4769  0.2120
   40MYC    O83 4817   2.173   1.487  10.207 -0.2859 -0.1455 -0.3646
   40MYC   H105 4818   2.217   1.567  10.240 -0.2379 -1.2895  2.6894
   40MYC    C20 4819   1.914   1.362   9.984  0.0798  0.1335  0.4869
   40MYC    H34 4820   1.861   1.266   9.983 -1.7165  1.0573  2.3941
   40MYC    H35 4821   1.828   1.427   9.965 -0.6026 -1.3686 -2.1388
   40MYC    C21 4822   2.033   1.370   9.879 -0.5981  0.1129  0.1706
   40MYC    H36 4823   2.124   1.422   9.912 -0.8643  0.6039  0.1386
   40MYC    H37 4824   2.076   1.269   9.874 -0.3800  0.0907  1.8794
   40MYC    C22 4825   1.997   1.411   9.744  0.5953  0.2740  0.2254
   40MYC    H38 4826   1.904   1.360   9.717 -0.7729  1.7003  1.9119
   40MYC    H39 4827   1.971   1.518   9.741  1.6533  0.5228 -1.4038
   40MYC    C23 4828   2.116   1.387   9.636  0.9991 -0.2822 -0.3719
   40MYC    H40 4829   2.211   1.419   9.680  2.0568 -1.6997 -1.5604
   40MYC    H41 4830   2.137   1.280   9.634 -1.0642 -0.7746  1.0271
   40MYC    C24 4831   2.092   1.456   9.502  0.3724  0.1569 -0.3748
   40MYC    H42 4832   2.080   1.561   9.528 -0.6566 -0.6479  2.8731
   40MYC    H43 4833   2.177   1.431   9.438 -0.0864  0.8655 -1.2803
   40MYC    C25 4834   1.958   1.413   9.434 -0.1419  0.8714 -1.0508
   40MYC    H44 4835   1.957   1.304   9.426  0.0251  0.8872 -1.2955
   40MYC    H45 4836   1.868   1.448   9.486  0.1990  0.0438  0.1483
   40MYC    C26 4837   1.957   1.472   9.292  0.3501  0.6963  0.0044
   40MYC    H46 4838   1.967   1.582   9.298  0.7828  0.6542  0.1240
   40MYC    H47 4839   2.049   1.433   9.247 -0.7267 -1.2296 -0.6171
   40MYC    C27 4840   1.825   1.442   9.212 -0.1875  0.3614 -0.3398
   40MYC    H48 4841   1.801   1.335   9.201  0.7537 -0.1048  1.6162
   40MYC    H49 4842   1.742   1.479   9.273 -1.5666 -0.9571 -1.3200
   40MYC    C28 4843   1.820   1.504   9.076  0.3242 -0.0453  0.2064
   40MYC    H50 4844   1.821   1.614   9.083 -0.2632  0.0556 -1.0182
   40MYC    H51 4845   1.916   1.486   9.028 -0.5701 -0.7086 -1.4060
   40MYC    C29 4846   1.715   1.445   8.989  0.1373  0.4137  0.2049
   40MYC    H52 4847   1.759   1.345   8.981  4.5584  2.1165  0.6047
   40MYC    H53 4848   1.617   1.432   9.037  0.1748  0.8363  0.4096
   40MYC    C30 4849   1.687   1.518   8.856 -0.3352 -0.1335 -0.3200
   40MYC    H54 4850   1.655   1.613   8.901 -0.6436 -1.6350  2.9397
   40MYC    H55 4851   1.779   1.533   8.799 -0.5415  3.5859  0.0582
   40MYC    C31 4852   1.579   1.457   8.773  0.0648  0.7347  1.0231
   40MYC    H56 4853   1.617   1.356   8.752  0.1873  0.7613  1.1151
   40MYC    H57 4854   1.488   1.437   8.831  0.5419  0.9684  1.8710
   40MYC    C32 4855   1.542   1.536   8.639 -0.2574 -0.5114 -1.1749
   40MYC    H58 4856   1.487   1.626   8.668  0.9667  0.3714 -1.5079
   40MYC    H59 4857   1.632   1.562   8.582  1.2592 -0.9141  0.9056
   40MYC    C33 4858   1.432   1.464   8.558  0.4487 -0.3683 -0.3253
   40MYC    H60 4859   1.458   1.365   8.520  1.0911 -0.1629 -0.4449
   40MYC    H61 4860   1.343   1.452   8.620  0.7339  0.2707  0.2275
   40MYC    C34 4861   1.384   1.539   8.439 -0.7352 -0.2192  1.1011
   40MYC    H62 4862   1.329   1.629   8.465 -1.7354 -0.8854  1.3324
   40MYC    H63 4863   1.473   1.565   8.380 -0.8209  0.7877  1.3984
   40MYC    C35 4864   1.301   1.451   8.345 -0.0386  0.1529 -0.2029
   40MYC    H64 4865   1.355   1.359   8.317  2.0100  1.0028  0.7502
   40MYC    H65 4866   1.209   1.411   8.390 -1.4015 -1.0765 -3.7372
   40MYC    C36 4867   1.262   1.515   8.213 -0.6552  0.0433  0.3653
   40MYC    H66 4868   1.201   1.605   8.226  0.1033  0.3556  2.1919
   40MYC    H67 4869   1.360   1.542   8.172 -1.9375  0.6392 -2.4795
   40MYC    C37 4870   1.188   1.423   8.107  0.6233  0.7231  0.0078
   40MYC    H68 4871   1.256   1.349   8.063  1.4867  1.4234  0.1533
   40MYC    H69 4872   1.112   1.365   8.161 -1.9316  4.2591  0.5618
   40MYC    C38 4873   1.126   1.502   7.991  0.1919 -0.3663 -0.3345
   40MYC    H70 4874   1.053   1.573   8.034 -0.4677 -1.6005  0.6484
   40MYC    H71 4875   1.209   1.564   7.956 -0.4318  0.5087 -0.2960
   40MYC    C39 4876   1.077   1.421   7.870  0.7900  0.2703 -0.3042
   40MYC    H72 4877   1.156   1.350   7.845  2.7936  1.9618  0.8657
   40MYC    H73 4878   0.987   1.369   7.905  1.6482 -0.8489  0.3130
   40MYC    C40 4879   1.058   1.497   7.739 -0.1551  0.4969 -0.2856
   40MYC    H74 4880   0.994   1.584   7.754 -1.6660 -0.7659  0.9928
   40MYC    H75 4881   1.154   1.528   7.696  0.3007 -0.1059  0.2723
   40MYC    C41 4882   0.995   1.410   7.626  0.1508 -0.2351  0.9166
   40MYC    H76 4883   1.050   1.317   7.611  0.4307 -0.0239  0.6085
   40MYC    H77 4884   0.894   1.384   7.658 -0.4997 -0.5711 -1.3107
   40MYC    C42 4885   0.974   1.501   7.495  0.0154  0.8212  0.0996
   40MYC    H78 4886   0.925   1.594   7.524 -1.4536  0.7153 -1.7980
   40MYC    H79 4887   1.068   1.530   7.446  0.4713  0.3423  0.6717
   40MYC    C43 4888   0.884   1.423   7.390  0.5515 -0.0867  0.2775
   40MYC    H80 4889   0.781   1.420   7.427  0.8121 -2.9150  1.0266
   40MYC    H81 4890   0.914   1.319   7.371 -0.6350 -0.6313  1.2355
   40MYC    H82 4891   0.869   1.484   7.300  1.5590  0.2353  0.3147
   41MYC   HH15 4892   2.670   0.923   9.451  1.3026  0.5301 -0.2375
   41MYC    C80 4893   2.722   0.828   9.438  0.3153 -0.0494 -0.0307
   41MYC   H100 4894   2.828   0.855   9.448  0.2841 -0.4636  1.8428
   41MYC   H101 4895   2.699   0.753   9.515 -0.6373 -2.1400 -2.2093
   41MYC    C79 4896   2.699   0.760   9.297  0.1634 -0.1699 -0.1972
   41MYC   H102 4897   2.594   0.727   9.290  1.1855 -4.5400  1.7080
   41MYC   H103 4898   2.755   0.666   9.297  0.8409  0.1278 -3.1360
   41MYC    C78 4899   2.744   0.845   9.168  0.5401  0.2751  0.1778
   41MYC   HH14 4900   2.818   0.921   9.195 -1.7316  2.2577  1.2485
   41MYC   H104 4901   2.655   0.905   9.144 -0.1750 -0.3283  1.2676
   41MYC    C77 4902   2.794   0.764   9.044 -0.0095  0.3070 -0.6000
   41MYC   H106 4903   2.739   0.670   9.051 -0.0206  0.2674 -1.2395
   41MYC   H107 4904   2.902   0.751   9.057  0.2152  1.0256 -1.7019
   41MYC    C76 4905   2.765   0.833   8.915  0.4437  0.6201  0.9053
   41MYC   H108 4906   2.790   0.940   8.916  1.5671  0.3899  0.0675
   41MYC   H109 4907   2.657   0.823   8.901  0.7932  0.2274 -2.3755
   41MYC    C75 4908   2.828   0.775   8.791  0.6227 -0.4272  0.5055
   41MYC   H110 4909   2.935   0.801   8.796  0.4153  0.6485 -0.1832
   41MYC   H111 4910   2.796   0.825   8.699  0.8800 -0.3963  0.4300
   41MYC    C74 4911   2.823   0.621   8.768  1.1092 -0.2111 -0.2681
   41MYC   H112 4912   2.720   0.601   8.736  0.9225 -0.3809  0.4220
   41MYC   H113 4913   2.837   0.573   8.866 -0.6915  2.5528  1.4789
   41MYC    C73 4914   2.923   0.567   8.664 -0.3769  0.1411  0.0476
   41MYC   HH13 4915   2.911   0.458   8.662  2.7917 -0.3213  0.7330
   41MYC   H114 4916   3.025   0.579   8.702  0.1788 -1.0501 -0.9668
   41MYC    C72 4917   2.916   0.621   8.522 -0.3794 -0.3129 -0.1691
   41MYC   H115 4918   2.954   0.724   8.532  0.7811 -0.6710 -0.7052
   41MYC   H116 4919   2.816   0.639   8.480 -0.9912  0.2814  1.4858
   41MYC    C71 4920   3.003   0.541   8.415 -0.1174 -0.5698  1.2093
   41MYC   H117 4921   2.964   0.441   8.390 -0.0523 -0.5537  1.0389
   41MYC   H118 4922   3.091   0.499   8.465  0.4717 -2.4848 -1.2321
   41MYC    C70 4923   3.045   0.603   8.284 -0.6403 -0.2034  0.3129
   41MYC   H119 4924   2.959   0.647   8.231 -0.8134 -0.6458  0.2264
   41MYC   H120 4925   3.088   0.525   8.220  1.0965  0.0201  1.1400
   41MYC    C69 4926   3.154   0.714   8.301  0.3072 -0.1387 -0.3602
   41MYC   H121 4927   3.237   0.684   8.366  0.6934  1.8577  0.1304
   41MYC   H122 4928   3.103   0.798   8.349 -0.3069 -0.5192 -0.3404
   41MYC    C68 4929   3.205   0.775   8.172 -0.7652 -0.7961  0.3132
   41MYC   HH12 4930   3.128   0.818   8.108 -2.4373 -1.0870  2.0441
   41MYC   H123 4931   3.259   0.698   8.115  0.5131 -1.8564  2.7852
   41MYC    C67 4932   3.311   0.888   8.201  0.9034 -0.0144  0.4369
   41MYC   H124 4933   3.281   0.962   8.276  1.3269 -0.1746  0.7695
   41MYC   H125 4934   3.319   0.943   8.107 -2.9316 -0.8346 -0.5544
   41MYC    C66 4935   3.463   0.855   8.239 -0.3280 -0.3214 -0.1820
   41MYC   H126 4936   3.510   0.832   8.143  1.5704  1.1621  0.3481
   41MYC   H127 4937   3.471   0.768   8.305  0.9016 -0.5870 -0.6524
   41MYC    C65 4938   3.548   0.977   8.303  0.1386  0.2785 -0.1104
   41MYC   H128 4939   3.546   1.066   8.239  1.3207  1.4381  1.3970
   41MYC   H129 4940   3.652   0.943   8.316 -0.2076 -0.0213  2.3103
   41MYC    C64 4941   3.512   1.001   8.457 -0.3999 -0.0090 -0.0096
   41MYC   H130 4942   3.517   0.906   8.511 -1.3469 -0.8378 -1.3291
   41MYC   H131 4943   3.408   1.035   8.470  0.7753  3.7038  1.0925
   41MYC    C63 4944   3.591   1.111   8.534 -0.4094  0.9102  0.0369
   41MYC   HH11 4945   3.549   1.211   8.517 -0.7724  0.8942  0.8198
   41MYC   H132 4946   3.690   1.114   8.485 -0.2168  0.2721  0.3714
   41MYC    C62 4947   3.613   1.092   8.687  0.4138  1.0865  0.5674
   41MYC   H133 4948   3.703   1.145   8.720  0.1702  0.7471  1.8142
   41MYC   H134 4949   3.636   0.986   8.695 -0.2552  0.8149 -0.7592
   41MYC    C61 4950   3.500   1.147   8.775 -0.4732  0.6092 -0.3134
   41MYC   H135 4951   3.407   1.093   8.751 -1.5102  1.5114  1.4460
   41MYC   H136 4952   3.476   1.247   8.739 -0.4149  1.2965  1.4371
   41MYC    C60 4953   3.520   1.131   8.923  0.0206 -0.0838 -0.6200
   41MYC   H137 4954   3.595   1.198   8.964 -1.1626  0.9374 -0.0400
   41MYC    C58 4955   3.395   1.115   9.014 -0.0843 -0.6322  0.8323
   41MYC   H138 4956   3.295   1.112   8.971  0.9948 -2.5667 -1.7496
   41MYC    C59 4957   3.481   0.995   8.989 -0.7192  0.4357  0.4930
   41MYC   H139 4958   3.540   0.960   9.073 -1.2273  0.7215  0.9754
   41MYC   H140 4959   3.433   0.918   8.930  0.5861  1.3592 -1.9344
   41MYC    C57 4960   3.400   1.182   9.152 -0.3421  0.1940 -0.1115
   41MYC   HH10 4961   3.359   1.279   9.122  0.4647  0.4140 -0.5267
   41MYC   H141 4962   3.503   1.207   9.179  0.1247 -1.2764 -0.4394
   41MYC    C56 4963   3.308   1.117   9.259 -0.2483  0.0091  0.7700
   41MYC   H142 4964   3.322   1.009   9.243 -1.4109 -0.4061  2.3225
   41MYC   H143 4965   3.207   1.154   9.238  0.1210  0.7499  0.2657
   41MYC    C55 4966   3.334   1.147   9.407  0.4721  0.7225 -0.4738
   41MYC   H144 4967   3.260   1.083   9.457 -0.1648  0.8781 -1.2026
   41MYC   H145 4968   3.314   1.251   9.435  0.8562  0.6113  0.2381
   41MYC    C54 4969   3.476   1.115   9.464 -0.6168 -0.2081 -0.1044
   41MYC   H146 4970   3.545   1.184   9.413  0.8381  0.9995  3.2213
   41MYC   H147 4971   3.507   1.013   9.437 -0.0740  0.9600 -4.7776
   41MYC    C53 4972   3.489   1.143   9.614 -0.1286  0.1613  0.3265
   41MYC   H148 4973   3.571   1.086   9.660  2.1787  2.5896 -0.4838
   41MYC   H149 4974   3.394   1.110   9.657 -1.2535  3.1462  0.3790
   41MYC    C52 4975   3.525   1.286   9.647  0.1935 -0.3938 -0.8502
   41MYC    H99 4976   3.451   1.354   9.603 -1.2218  0.4071  2.4350
   41MYC   H150 4977   3.622   1.310   9.603  0.6118  1.0696  0.7693
   41MYC    C51 4978   3.525   1.328   9.792  0.1836  0.7912 -0.3607
   41MYC    H97 4979   3.584   1.419   9.805  1.0635  0.2134 -0.2795
   41MYC    H98 4980   3.570   1.246   9.849 -0.7662  0.1616 -0.4880
   41MYC    C50 4981   3.379   1.343   9.842  0.4132 -0.9489 -0.4749
   41MYC    H95 4982   3.305   1.265   9.823 -0.4317 -0.2658 -0.0853
   41MYC    H96 4983   3.348   1.437   9.794  0.6461  0.0921  1.2849
   41MYC    C49 4984   3.378   1.385   9.991 -0.3153  0.1680 -0.5141
   41MYC    H93 4985   3.431   1.480  10.003  0.7102 -0.1481 -2.2152
   41MYC    H94 4986   3.420   1.298  10.042  1.0501  1.2818  0.3127
   41MYC    C48 4987   3.238   1.406  10.051  0.1472  0.2354 -0.2479
   41MYC    H91 4988   3.164   1.326  10.034 -0.2515  0.5710 -0.1106
   41MYC    H92 4989   3.201   1.486   9.986 -1.7659  0.4326  0.9917
   41MYC    C47 4990   3.233   1.454  10.203 -0.2264  0.5562 -0.2440
   41MYC    H89 4991   3.139   1.496  10.241  0.3006  0.5932  1.0761
   41MYC    H90 4992   3.309   1.530  10.222 -0.2613  0.3760  0.6510
   41MYC    C46 4993   3.257   1.337  10.306 -0.3140 -0.7436 -0.0075
   41MYC    H87 4994   3.348   1.280  10.281  1.0554  0.9507  0.9349
   41MYC    H88 4995   3.175   1.265  10.296  1.3623 -2.6635 -0.7810
   41MYC    C45 4996   3.267   1.387  10.442 -0.5051 -0.5554 -0.5120
   41MYC    H85 4997   3.167   1.405  10.484  0.2902 -0.4418  1.4311
   41MYC    H86 4998   3.330   1.477  10.434 -0.4704 -0.4210  0.9405
   41MYC    C44 4999   3.332   1.269  10.530  0.5784  0.2448  0.2716
   41MYC    H83 5000   3.421   1.229  10.479  0.8189  1.3665 -0.2048
   41MYC    H84 5001   3.269   1.179  10.532  0.1428  0.5601  0.6811
   41MYC    C18 5002   3.373   1.309  10.678  0.2385  0.1862 -0.2100
   41MYC    H31 5003   3.293   1.359  10.732 -1.4801 -0.9692 -1.5604
   41MYC    C17 5004   3.476   1.224  10.749  0.8105  0.4810 -0.2639
   41MYC    H30 5005   3.529   1.142  10.702  0.8649  1.3994 -1.9006
   41MYC    C19 5006   3.509   1.368  10.714  0.6210  0.0817 -0.6537
   41MYC    H32 5007   3.578   1.382  10.631  0.9509 -2.1873 -0.8215
   41MYC    H33 5008   3.517   1.442  10.793  1.0979  1.4280 -1.9257
   41MYC    C16 5009   3.450   1.188  10.893  0.0893 -0.3412 -0.0430
   41MYC    H28 5010   3.360   1.238  10.931 -0.2171 -0.4143 -0.6599
   41MYC    H29 5011   3.538   1.222  10.949  1.4064 -0.4613 -1.9300
   41MYC    C15 5012   3.432   1.038  10.917  0.8049 -0.0296  0.1454
   41MYC    H26 5013   3.401   1.014  11.019  0.4544  0.6617  0.2024
   41MYC    H27 5014   3.523   0.979  10.896  0.8294  0.1405 -0.2477
   41MYC    C14 5015   3.311   0.968  10.835  0.3564 -0.0779  0.4066
   41MYC    H24 5016   3.285   0.876  10.889 -2.4079  0.5839  0.3335
   41MYC    H25 5017   3.342   0.954  10.730  1.8282  3.5149  0.2038
   41MYC    C13 5018   3.181   1.053  10.841 -0.2437  0.5771 -0.7637
   41MYC    H22 5019   3.181   1.139  10.774 -3.2869  1.5620  0.3041
   41MYC    H23 5020   3.169   1.103  10.938  0.6938  1.9160 -1.3150
   41MYC    C12 5021   3.047   0.974  10.804 -0.2213 -0.3667 -0.0144
   41MYC    H20 5022   3.026   0.914  10.893 -1.4471 -3.8627 -2.4359
   41MYC    H21 5023   3.061   0.894  10.731 -0.0471  1.6755 -2.3568
   41MYC    C11 5024   2.922   1.062  10.770  0.6705  0.3867  0.0886
   41MYC    H18 5025   2.875   1.093  10.864 -3.2376  0.5985 -1.7243
   41MYC    H19 5026   2.846   0.992  10.734  1.2027  0.4169 -1.1541
   41MYC    C10 5027   2.941   1.188  10.674 -0.0549 -0.5959 -0.3002
   41MYC    H16 5028   2.982   1.157  10.577 -0.4106 -0.9214 -0.3479
   41MYC    H17 5029   2.998   1.272  10.715 -2.3917  0.1612  1.6578
   41MYC     C9 5030   2.812   1.259  10.636  0.1777 -0.3069  0.0651
   41MYC    H14 5031   2.771   1.316  10.720 -0.5656 -0.2595 -0.3257
   41MYC    H15 5032   2.731   1.190  10.607 -0.9562  1.5103 -1.3042
   41MYC     C8 5033   2.835   1.351  10.514  0.0593  0.3299 -0.5346
   41MYC    H12 5034   2.920   1.316  10.454 -0.1214 -3.4582  1.2021
   41MYC    H13 5035   2.870   1.446  10.557  0.0603 -0.0400  0.2889
   41MYC     C7 5036   2.701   1.369  10.432 -0.4004 -0.4708  0.0851
   41MYC    H10 5037   2.624   1.408  10.499  0.6405 -0.6961  1.4580
   41MYC    H11 5038   2.658   1.272  10.401 -3.2598  0.6523  0.1987
   41MYC     C6 5039   2.710   1.459  10.305  0.0080  0.1384  0.7410
   41MYC     H8 5040   2.742   1.395  10.222  2.2359  2.2382 -0.1277
   41MYC     H9 5041   2.793   1.529  10.323  2.5377 -2.8602  1.6105
   41MYC     C5 5042   2.574   1.521  10.256 -0.4941  0.5730 -0.1715
   41MYC     H6 5043   2.539   1.603  10.320 -0.9575 -1.2281  2.0081
   41MYC     H7 5044   2.495   1.446  10.262  1.7879 -1.9324  0.6552
   41MYC     C4 5045   2.583   1.576  10.116 -0.2067 -0.0754 -0.2057
   41MYC     H4 5046   2.623   1.495  10.053  1.4530 -0.4404  1.2453
   41MYC     H5 5047   2.646   1.665  10.122 -2.2464  1.8388 -3.9198
   41MYC     C2 5048   2.441   1.612  10.061 -0.4719 -0.1302 -0.0082
   41MYC     H2 5049   2.374   1.528  10.081  1.7994 -1.5556  2.2895
   41MYC     O3 5050   2.393   1.721  10.143  0.6670 -0.5816  0.9551
   41MYC     H3 5051   2.432   1.803  10.109 -1.6848  0.4436  0.5217
   41MYC     C1 5052   2.441   1.651   9.908  0.5210  0.3187  0.8031
   41MYC     H1 5053   2.454   1.554   9.860  0.4894  0.5615  0.3021
   41MYC    C81 5054   2.556   1.744   9.881 -0.1946 -0.0436 -0.0033
   41MYC    O82 5055   2.559   1.855   9.931 -0.1681 -0.3346 -0.1491
   41MYC    O83 5056   2.668   1.672   9.845  0.0927 -0.9576 -0.2036
   41MYC   H105 5057   2.743   1.730   9.867 -0.1099 -1.8009  3.3517
   41MYC    C20 5058   2.306   1.712   9.850  0.3608  0.2664 -0.7399
   41MYC    H34 5059   2.221   1.644   9.864  0.0997  0.4051 -1.6235
   41MYC    H35 5060   2.264   1.788   9.917  1.3334  0.3509 -0.2047
   41MYC    C21 5061   2.305   1.767   9.706  0.4070 -0.2469 -0.8985
   41MYC    H36 5062   2.376   1.851   9.706  0.7230 -0.5067 -0.3787
   41MYC    H37 5063   2.339   1.688   9.638 -1.1092 -2.2563  0.5763
   41MYC    C22 5064   2.153   1.806   9.664  0.1460  0.2386 -0.0358
   41MYC    H38 5065   2.086   1.720   9.675 -1.1296  1.1399 -0.4190
   41MYC    H39 5066   2.110   1.873   9.740  0.9836  1.7005 -0.7987
   41MYC    C23 5067   2.128   1.865   9.526 -0.2360 -0.3949  0.0660
   41MYC    H40 5068   2.204   1.944   9.523 -0.8348  0.1681 -0.5114
   41MYC    H41 5069   2.145   1.797   9.441 -2.7644 -0.8319 -0.1567
   41MYC    C24 5070   1.986   1.924   9.526 -0.4119  0.2217  0.1830
   41MYC    H42 5071   1.974   1.987   9.615  0.6866  1.2814 -0.3769
   41MYC    H43 5072   1.988   1.982   9.433 -0.3365 -2.7267 -1.7654
   41MYC    C25 5073   1.875   1.816   9.517 -0.2753 -0.2325 -0.5485
   41MYC    H44 5074   1.892   1.764   9.422 -0.3028  0.2034 -0.7926
   41MYC    H45 5075   1.876   1.741   9.597  0.3210 -1.5279 -1.7290
   41MYC    C26 5076   1.729   1.884   9.514 -0.1929  0.2535  0.1220
   41MYC    H46 5077   1.641   1.819   9.518 -1.3878  1.7595 -0.7387
   41MYC    H47 5078   1.730   1.957   9.596  2.7300 -0.4271  0.8261
   41MYC    C27 5079   1.693   1.980   9.403  0.3433 -0.0704  1.2012
   41MYC    H48 5080   1.606   2.040   9.430  0.8039 -0.2483  3.2964
   41MYC    H49 5081   1.770   2.058   9.404  0.5133 -0.1287 -1.1315
   41MYC    C28 5082   1.675   1.917   9.262  0.4461  0.8717 -0.5708
   41MYC    H50 5083   1.772   1.874   9.234  0.5129 -0.1293  1.0640
   41MYC    H51 5084   1.605   1.834   9.270  0.3266  0.9865 -0.4258
   41MYC    C29 5085   1.632   2.013   9.144  0.3213  0.0085 -0.7504
   41MYC    H52 5086   1.553   2.081   9.177  0.7195  0.2341 -0.2372
   41MYC    H53 5087   1.719   2.074   9.116  0.0647  0.2979 -0.9148
   41MYC    C30 5088   1.587   1.936   9.021 -0.0913  0.3044 -0.1045
   41MYC    H54 5089   1.667   1.864   9.004  0.4730  1.6042 -4.1281
   41MYC    H55 5090   1.489   1.892   9.042 -0.0278  0.1573 -0.1223
   41MYC    C31 5091   1.563   2.016   8.890 -0.1772  0.0985 -1.0715
   41MYC    H56 5092   1.491   2.098   8.904  2.3487  2.4215 -0.7880
   41MYC    H57 5093   1.655   2.072   8.868 -1.2746  2.2639 -0.4583
   41MYC    C32 5094   1.534   1.924   8.771 -0.1798  0.2939  0.0201
   41MYC    H58 5095   1.611   1.846   8.770 -1.2895 -0.8349 -0.2996
   41MYC    H59 5096   1.434   1.880   8.786 -0.0609  0.2308  0.6368
   41MYC    C33 5097   1.530   1.986   8.632 -0.0535  0.1830  0.6409
   41MYC    H60 5098   1.452   2.062   8.630 -0.5543 -0.3389 -0.8906
   41MYC    H61 5099   1.624   2.039   8.616  0.8993 -1.5205  0.2892
   41MYC    C34 5100   1.498   1.898   8.509 -0.5407  0.1109  0.4432
   41MYC    H62 5101   1.572   1.817   8.509 -1.2262 -0.5357  0.8217
   41MYC    H63 5102   1.401   1.855   8.538 -0.9357 -0.1015 -1.1123
   41MYC    C35 5103   1.496   1.976   8.374 -0.1940 -0.4966 -0.6691
   41MYC    H64 5104   1.432   2.062   8.395 -0.3253 -1.0903  1.6617
   41MYC    H65 5105   1.590   2.027   8.350 -1.0387  2.3759  1.5997
   41MYC    C36 5106   1.418   1.895   8.266  0.3823 -0.4383 -0.1662
   41MYC    H66 5107   1.492   1.817   8.244  1.8202  1.0007 -0.6369
   41MYC    H67 5108   1.334   1.837   8.306 -0.1806  1.0249  0.8560
   41MYC    C37 5109   1.379   1.966   8.129 -0.0858 -0.4693  0.2262
   41MYC    H68 5110   1.318   2.056   8.146  0.3008 -0.3864  1.2601
   41MYC    H69 5111   1.477   1.994   8.089  1.0793  0.0626  3.1866
   41MYC    C38 5112   1.307   1.882   8.021  0.1911  0.4397 -0.2890
   41MYC    H70 5113   1.364   1.789   8.023 -0.1611  0.2326  0.4999
   41MYC    H71 5114   1.205   1.855   8.051  0.2461  0.6016  0.0550
   41MYC    C39 5115   1.306   1.933   7.881 -0.2666 -0.2536 -0.2524
   41MYC    H72 5116   1.242   2.022   7.875 -0.4955 -0.4854 -1.5185
   41MYC    H73 5117   1.409   1.957   7.850 -0.4545 -1.7186 -2.1846
   41MYC    C40 5118   1.253   1.831   7.773  0.4111  0.2839  0.1048
   41MYC    H74 5119   1.299   1.733   7.785  0.1761  0.1942  0.2730
   41MYC    H75 5120   1.145   1.814   7.775  0.4749 -0.3038 -0.8947
   41MYC    C41 5121   1.289   1.884   7.627 -0.4651  0.2700  0.1712
   41MYC    H76 5122   1.272   1.993   7.627 -1.3668  0.1322  0.6317
   41MYC    H77 5123   1.396   1.869   7.607 -0.8054 -2.1185 -0.1487
   41MYC    C42 5124   1.204   1.818   7.516 -0.2021  0.4645  0.1697
   41MYC    H78 5125   1.239   1.714   7.511 -0.7960  0.3015 -3.1617
   41MYC    H79 5126   1.100   1.820   7.548 -0.3059 -1.9195  0.1626
   41MYC    C43 5127   1.232   1.884   7.375  0.7641  0.2928  0.5454
   41MYC    H80 5128   1.208   1.990   7.377 -1.1791 -0.1051  0.5501
   41MYC    H81 5129   1.174   1.835   7.296  1.7181 -2.9826  1.6893
   41MYC    H82 5130   1.338   1.872   7.348  0.2404  0.2988 -1.6935
   42MYC   HH15 5131   3.646   0.951   7.635  3.5530 -1.9427  1.1191
   42MYC    C80 5132   3.707   1.015   7.569 -0.1648  0.4382 -0.3591
   42MYC   H100 5133   3.727   0.975   7.469  2.2711  1.0670 -0.1799
   42MYC   H101 5134   3.650   1.107   7.551 -1.3561  0.1060  1.4398
   42MYC    C79 5135   3.829   1.068   7.640  0.4018 -0.3877  0.2246
   42MYC   H102 5136   3.834   1.169   7.598 -2.2620  0.1551  1.0207
   42MYC   H103 5137   3.917   1.016   7.601  1.6383 -0.5339  2.9454
   42MYC    C78 5138   3.828   1.075   7.798  0.0999  0.4279 -0.8909
   42MYC   HH14 5139   3.792   0.978   7.832  1.6399  0.5285  1.1991
   42MYC   H104 5140   3.755   1.148   7.836 -0.9096 -2.2143  2.7273
   42MYC    C77 5141   3.960   1.109   7.854  0.2073  0.8391 -0.3933
   42MYC   H106 5142   3.978   1.209   7.815 -0.4241  1.2255  0.2877
   42MYC   H107 5143   4.038   1.049   7.805  0.5130  0.5968  0.3668
   42MYC    C76 5144   3.988   1.107   8.008  0.4849  0.4411  0.0093
   42MYC   H108 5145   4.093   1.135   8.015  0.8238 -1.0682  1.7069
   42MYC   H109 5146   3.967   1.011   8.056 -2.3564  2.2984  2.8635
   42MYC    C75 5147   3.908   1.214   8.090  0.7701  0.0080 -0.1291
   42MYC   H110 5148   3.801   1.194   8.088 -0.0005  3.4419  0.8798
   42MYC   H111 5149   3.913   1.312   8.043 -0.7567 -0.3069 -1.0212
   42MYC    C74 5150   3.976   1.233   8.237  0.1053  0.4592  0.0418
   42MYC   H112 5151   4.069   1.289   8.222 -0.6548  1.1890 -2.6393
   42MYC   H113 5152   3.989   1.135   8.283 -0.3060 -0.4338 -1.6754
   42MYC    C73 5153   3.882   1.312   8.335 -0.0084 -0.3716 -0.3059
   42MYC   HH13 5154   3.779   1.278   8.317  0.1656  0.5000 -3.6036
   42MYC   H114 5155   3.886   1.420   8.319  3.5904 -0.3019  0.1013
   42MYC    C72 5156   3.936   1.313   8.475 -0.0777 -1.3020  0.2392
   42MYC   H115 5157   4.045   1.328   8.477  0.2318 -2.3468 -2.9723
   42MYC   H116 5158   3.925   1.208   8.506 -0.5406 -1.3136  0.0378
   42MYC    C71 5159   3.854   1.393   8.577  1.0014  0.5195  0.6514
   42MYC   H117 5160   3.748   1.366   8.583  1.2542 -0.2984  1.7235
   42MYC   H118 5161   3.855   1.498   8.544 -0.1724  0.1572 -0.6159
   42MYC    C70 5162   3.899   1.370   8.722 -0.7254  0.4282  0.3966
   42MYC   H119 5163   4.006   1.394   8.720 -0.6061 -0.1171  0.0760
   42MYC   H120 5164   3.890   1.266   8.753  0.4904 -0.0584 -0.7534
   42MYC    C69 5165   3.832   1.460   8.822  0.5766 -1.0409  0.0881
   42MYC   H121 5166   3.727   1.433   8.835  0.7012 -0.7188  2.1804
   42MYC   H122 5167   3.829   1.560   8.777  1.6819 -1.1111 -0.1700
   42MYC    C68 5168   3.901   1.472   8.967 -0.3793  0.1092 -0.1503
   42MYC   HH12 5169   3.983   1.544   8.964 -0.6228  0.3664 -1.4472
   42MYC   H123 5170   3.947   1.376   8.990 -2.4525 -0.6648  1.0605
   42MYC    C67 5171   3.803   1.524   9.075  0.2286  0.1725  0.2879
   42MYC   H124 5172   3.723   1.450   9.088  0.6807 -0.3076  0.3679
   42MYC   H125 5173   3.765   1.623   9.050 -0.3674 -0.2845 -0.7049
   42MYC    C66 5174   3.870   1.527   9.212  0.0964  0.0189 -0.1563
   42MYC   H126 5175   3.944   1.605   9.230 -0.8449  0.3538  2.6528
   42MYC   H127 5176   3.917   1.429   9.225  1.1793  0.5753  0.1675
   42MYC    C65 5177   3.767   1.578   9.322 -0.0053 -0.1216 -0.3574
   42MYC   H128 5178   3.670   1.530   9.306 -1.3333  1.9745  0.9256
   42MYC   H129 5179   3.744   1.679   9.285  1.7463 -0.4054 -2.4370
   42MYC    C64 5180   3.826   1.601   9.461 -0.6473  0.1465 -0.1960
   42MYC   H130 5181   3.911   1.670   9.458  0.5129 -1.1339  1.1521
   42MYC   H131 5182   3.874   1.506   9.490 -0.6434  0.5071  1.0581
   42MYC    C63 5183   3.719   1.649   9.571 -0.2200  0.5507  0.0389
   42MYC   HH11 5184   3.748   1.611   9.670 -1.8590 -0.2155  0.2501
   42MYC   H132 5185   3.623   1.599   9.558 -1.3822  2.6159  0.2705
   42MYC    C62 5186   3.690   1.799   9.602  0.1317 -0.2120  0.5927
   42MYC   H133 5187   3.697   1.861   9.512  2.2226  0.8504  1.4300
   42MYC   H134 5188   3.772   1.840   9.663 -2.6454  2.2312  3.0242
   42MYC    C61 5189   3.553   1.823   9.675 -0.8912 -0.1553  0.1582
   42MYC   H135 5190   3.563   1.750   9.756  1.3509  0.4438  0.4912
   42MYC   H136 5191   3.471   1.789   9.611 -0.0177 -0.0328 -1.0479
   42MYC    C60 5192   3.521   1.964   9.713 -0.2693  0.1225 -0.6986
   42MYC   H137 5193   3.466   2.011   9.632  0.2317  0.8464 -0.6248
   42MYC    C58 5194   3.476   2.007   9.854 -0.2784 -0.3065  0.4498
   42MYC   H138 5195   3.484   1.928   9.928  0.8620  1.4478  2.2971
   42MYC    C59 5196   3.610   2.057   9.794  0.2933 -0.1006  0.7716
   42MYC   H139 5197   3.625   2.155   9.751  0.8803 -0.1139  0.9414
   42MYC   H140 5198   3.699   2.014   9.838  0.8068  0.2528  0.0943
   42MYC    C57 5199   3.371   2.105   9.884 -0.0078  0.1109  0.3323
   42MYC   HH10 5200   3.336   2.180   9.812 -2.9326  0.7322  2.2077
   42MYC   H141 5201   3.415   2.162   9.967 -0.0517  0.6327  0.0022
   42MYC    C56 5202   3.244   2.038   9.939  0.1467  0.7861  0.2923
   42MYC   H142 5203   3.276   1.963  10.012  0.8394  1.4581  0.7034
   42MYC   H143 5204   3.197   1.994   9.850  1.6752  1.1040 -0.7268
   42MYC    C55 5205   3.149   2.140  10.002  0.0914  0.4769 -0.1872
   42MYC   H144 5206   3.130   2.206   9.917 -1.4001 -1.6675 -1.6023
   42MYC   H145 5207   3.192   2.209  10.076  0.5764  0.7356 -0.7017
   42MYC    C54 5208   3.019   2.078  10.043 -0.5675 -0.0483  0.8437
   42MYC   H146 5209   3.033   2.004  10.122  0.2045  1.5151  2.2351
   42MYC   H147 5210   2.960   2.038   9.960  0.7154  0.3695 -0.2925
   42MYC    C53 5211   2.928   2.188  10.104 -0.3489  0.6818  0.4714
   42MYC   H148 5212   2.910   2.276  10.041 -0.2414  0.5192  0.2153
   42MYC   H149 5213   2.985   2.227  10.190  1.9330 -1.4263  0.0396
   42MYC    C52 5214   2.789   2.141  10.162 -0.5225 -0.0950  0.5977
   42MYC    H99 5215   2.722   2.092  10.090 -1.1621  1.8702 -0.2117
   42MYC   H150 5216   2.734   2.233  10.184  0.8054  1.4476 -2.0710
   42MYC    C51 5217   2.798   2.060  10.296  0.2501  0.1795  0.2527
   42MYC    H97 5218   2.860   2.115  10.368 -0.4763  1.3475  0.0071
   42MYC    H98 5219   2.843   1.963  10.270 -2.2456 -0.4265 -2.2662
   42MYC    C50 5220   2.654   2.044  10.353 -0.5613 -0.3919 -0.5647
   42MYC    H95 5221   2.596   1.974  10.292 -2.2600  0.5830 -0.1623
   42MYC    H96 5222   2.608   2.143  10.340 -1.7559 -0.7384  0.7097
   42MYC    C49 5223   2.642   2.010  10.506 -0.1889  0.0694 -0.1005
   42MYC    H93 5224   2.536   1.998  10.529  0.0952 -0.2724  1.1095
   42MYC    H94 5225   2.674   2.093  10.569 -1.2343 -0.2004  0.8200
   42MYC    C48 5226   2.701   1.876  10.554  1.1877 -0.3444  0.8102
   42MYC    H91 5227   2.810   1.870  10.539  0.8106  0.6739 -3.6063
   42MYC    H92 5228   2.650   1.803  10.489  0.5569 -1.0630  2.0610
   42MYC    C47 5229   2.667   1.829  10.694  0.2813 -0.8601 -0.5370
   42MYC    H89 5230   2.564   1.847  10.727 -0.2686  0.6308 -2.8711
   42MYC    H90 5231   2.732   1.877  10.769  0.6279 -0.1773 -1.2643
   42MYC    C46 5232   2.687   1.677  10.703 -0.7518 -0.1868  0.1871
   42MYC    H87 5233   2.791   1.647  10.686 -0.3808  0.8738  0.5026
   42MYC    H88 5234   2.633   1.624  10.623 -0.3344 -0.7054  0.2379
   42MYC    C45 5235   2.643   1.619  10.843  0.4092  0.4564  0.7387
   42MYC    H85 5236   2.640   1.510  10.834  1.8410  0.4211  0.3313
   42MYC    H86 5237   2.547   1.665  10.868 -0.5234 -1.1540  0.1899
   42MYC    C44 5238   2.743   1.644  10.959  0.0231  0.8959 -0.6549
   42MYC    H83 5239   2.695   1.629  11.057  0.7192  0.0354 -0.4262
   42MYC    H84 5240   2.788   1.743  10.957 -0.8919  1.3123 -1.0274
   42MYC    C18 5241   2.860   1.538  10.941  0.5405 -0.0392  0.0745
   42MYC    H31 5242   2.918   1.553  10.851 -0.0073  0.4485 -0.2048
   42MYC    C17 5243   2.942   1.491  11.058  0.3189  0.7926 -0.1661
   42MYC    H30 5244   2.908   1.518  11.158 -0.4236 -1.2444  0.1972
   42MYC    C19 5245   2.837   1.400  10.989  0.3713 -0.0708  0.4601
   42MYC    H32 5246   2.740   1.383  11.036  1.0314 -0.3009  1.7760
   42MYC    H33 5247   2.877   1.320  10.927  0.2666  0.4991 -0.3563
   42MYC    C16 5248   3.091   1.445  11.043  0.2297  0.2999 -0.0570
   42MYC    H28 5249   3.098   1.403  10.942  0.6838  1.9400 -0.7479
   42MYC    H29 5250   3.109   1.368  11.119  0.0588 -1.2976 -1.5705
   42MYC    C15 5251   3.197   1.552  11.065 -0.5113  0.1488  0.4140
   42MYC    H26 5252   3.295   1.504  11.055  0.3877  2.0653 -0.4169
   42MYC    H27 5253   3.190   1.584  11.169 -2.0282 -1.4894  0.8648
   42MYC    C14 5254   3.188   1.675  10.976  0.7679  0.2244  0.7157
   42MYC    H24 5255   3.225   1.761  11.033  0.0715  0.8887  0.1904
   42MYC    H25 5256   3.083   1.707  10.971  0.7398  0.0918  0.4146
   42MYC    C13 5257   3.252   1.669  10.831  0.8933 -0.0605 -0.5635
   42MYC    H22 5258   3.211   1.576  10.790 -2.8363  1.4542 -0.6980
   42MYC    H23 5259   3.360   1.653  10.837  1.3558  2.2894 -1.5723
   42MYC    C12 5260   3.236   1.800  10.746  0.3901  0.2846  0.7719
   42MYC    H20 5261   3.279   1.890  10.792 -0.9503  1.4051 -0.0935
   42MYC    H21 5262   3.130   1.827  10.746  0.6694  1.4695  0.1927
   42MYC    C11 5263   3.279   1.793  10.599  0.1365 -0.4704  0.5769
   42MYC    H18 5264   3.248   1.884  10.547 -1.8592 -0.4714  1.6711
   42MYC    H19 5265   3.218   1.719  10.544  1.4463 -0.5045 -0.8951
   42MYC    C10 5266   3.424   1.769  10.554  0.2973  0.4679  1.0728
   42MYC    H16 5267   3.465   1.669  10.569 -0.6254 -0.3815 -1.5447
   42MYC    H17 5268   3.483   1.827  10.626 -1.0989  2.4254  0.7189
   42MYC     C9 5269   3.448   1.834  10.407  0.0141 -0.2140 -0.4272
   42MYC    H14 5270   3.401   1.932  10.390  1.7583  0.9313  0.9569
   42MYC    H15 5271   3.408   1.761  10.336 -2.0386 -1.0494  1.4827
   42MYC     C8 5272   3.601   1.851  10.391 -0.6817 -0.8230 -0.1480
   42MYC    H12 5273   3.661   1.773  10.440  0.9759  0.3607 -0.1866
   42MYC    H13 5274   3.622   1.944  10.446 -2.3650 -2.0112  2.7529
   42MYC     C7 5275   3.651   1.853  10.247 -0.3234 -0.1180  0.3534
   42MYC    H10 5276   3.757   1.882  10.242  1.1177 -4.7225 -0.7381
   42MYC    H11 5277   3.599   1.931  10.191  2.6628  1.3830 -0.5790
   42MYC     C6 5278   3.636   1.725  10.164  0.8921 -0.4299  0.0641
   42MYC     H8 5279   3.664   1.754  10.062 -1.4982  3.3432  0.2931
   42MYC     H9 5280   3.531   1.696  10.165  0.7077  0.2100 -0.1779
   42MYC     C5 5281   3.727   1.617  10.219 -0.1604  0.0546 -0.0043
   42MYC     H6 5282   3.672   1.582  10.307 -0.8979 -0.3701 -0.6240
   42MYC     H7 5283   3.828   1.657  10.234 -0.4659  0.7988  0.1074
   42MYC     C4 5284   3.732   1.492  10.127 -0.4451  0.2793 -0.2637
   42MYC     H4 5285   3.760   1.517  10.024 -0.1563  1.9280  0.1862
   42MYC     H5 5286   3.636   1.439  10.117 -0.2934 -0.5578  2.0310
   42MYC     C2 5287   3.821   1.386  10.176 -0.0771  0.3847 -0.4624
   42MYC     H2 5288   3.922   1.427  10.189  0.8386 -1.1000 -2.4047
   42MYC     O3 5289   3.751   1.336  10.293 -0.3909  0.1119 -0.1327
   42MYC     H3 5290   3.820   1.316  10.359 -2.3884  1.3739  2.5588
   42MYC     C1 5291   3.840   1.271  10.079  0.3407  0.3754 -0.3985
   42MYC     H1 5292   3.741   1.240  10.045  0.8720 -2.2726  0.3114
   42MYC    C81 5293   3.903   1.150  10.157  0.1059  0.1303 -0.3769
   42MYC    O82 5294   4.016   1.162  10.204 -0.4746  0.2507  0.6528
   42MYC    O83 5295   3.815   1.050  10.185  0.0166  0.2527  0.1684
   42MYC   H105 5296   3.868   0.982  10.229  0.2317  0.0045 -0.4614
   42MYC    C20 5297   3.922   1.300   9.953  0.2401  0.4752 -0.2364
   42MYC    H34 5298   3.883   1.391   9.908  1.8806  1.7709  0.8206
   42MYC    H35 5299   4.026   1.321   9.982  0.0357  0.8649  0.2431
   42MYC    C21 5300   3.905   1.185   9.852 -0.1411 -1.0903 -0.9470
   42MYC    H36 5301   3.954   1.097   9.895 -0.6134 -1.3033 -0.8421
   42MYC    H37 5302   3.797   1.172   9.839 -1.2950  4.0183  1.0689
   42MYC    C22 5303   3.960   1.226   9.720  0.7529  0.1469  1.0641
   42MYC    H38 5304   3.922   1.326   9.697 -0.3309 -0.5799 -0.4510
   42MYC    H39 5305   4.069   1.235   9.730  0.7833  0.1768  0.7108
   42MYC    C23 5306   3.916   1.126   9.611 -0.2783 -0.1477 -0.5789
   42MYC    H40 5307   3.971   1.035   9.636  0.5507  0.5670  0.2498
   42MYC    H41 5308   3.807   1.113   9.608 -0.4310  1.0838 -1.8083
   42MYC    C24 5309   3.963   1.169   9.468 -0.5751  0.1209 -0.0288
   42MYC    H42 5310   3.943   1.277   9.462  1.8022  0.5266 -2.2478
   42MYC    H43 5311   4.072   1.176   9.463 -0.4269 -0.4857  1.8708
   42MYC    C25 5312   3.909   1.093   9.350 -0.3244 -0.7415  0.2255
   42MYC    H44 5313   3.883   0.990   9.379  1.5023 -1.3785 -0.2655
   42MYC    H45 5314   3.814   1.142   9.324 -0.8282 -1.7370  0.1502
   42MYC    C26 5315   3.998   1.107   9.220 -0.1623 -0.1715 -0.4773
   42MYC    H46 5316   3.990   1.212   9.191  1.6220  0.9260  2.5105
   42MYC    H47 5317   4.104   1.091   9.243 -0.1656  2.1008  1.5421
   42MYC    C27 5318   3.950   1.020   9.102 -0.1114 -0.9115 -0.4432
   42MYC    H48 5319   3.907   0.927   9.140  1.3161 -1.7390 -0.7789
   42MYC    H49 5320   3.861   1.068   9.061 -1.8299 -2.1203  1.6666
   42MYC    C28 5321   4.054   1.004   8.997 -0.5102  0.8883  0.5769
   42MYC    H50 5322   4.083   1.103   8.960  1.3168  0.8900  1.9169
   42MYC    H51 5323   4.139   0.950   9.041 -0.8195 -0.4868 -0.4233
   42MYC    C29 5324   4.014   0.914   8.881  0.3325  0.0263 -0.1495
   42MYC    H52 5325   4.007   0.808   8.908 -1.3162  0.1669  0.0884
   42MYC    H53 5326   3.910   0.928   8.847  0.0152 -0.2134  0.6915
   42MYC    C30 5327   4.119   0.938   8.770  0.9104 -0.0138  0.1385
   42MYC    H54 5328   4.109   1.037   8.725 -0.8761 -1.4729 -3.0799
   42MYC    H55 5329   4.223   0.933   8.804  1.2326  0.7372 -0.6947
   42MYC    C31 5330   4.093   0.851   8.644  1.0640  0.4129 -0.0649
   42MYC    H56 5331   4.098   0.746   8.673  2.9409  0.4585 -0.0908
   42MYC    H57 5332   3.996   0.882   8.604  1.2697 -0.7007 -1.4657
   42MYC    C32 5333   4.199   0.875   8.537 -0.0440  0.3173  0.4952
   42MYC    H58 5334   4.204   0.983   8.523 -1.2231  0.1597 -1.5792
   42MYC    H59 5335   4.292   0.834   8.578  1.5318  1.6785 -1.4984
   42MYC    C33 5336   4.167   0.823   8.391 -0.0616 -0.1035 -0.8858
   42MYC    H60 5337   4.152   0.715   8.387 -2.7194 -0.0555  2.8162
   42MYC    H61 5338   4.070   0.867   8.366 -0.1467  0.0008 -0.3806
   42MYC    C34 5339   4.273   0.854   8.285 -0.1221 -0.1986 -0.0613
   42MYC    H62 5340   4.316   0.953   8.300 -1.8951  0.5365  0.5466
   42MYC    H63 5341   4.364   0.806   8.323  0.3090  0.4643 -0.2448
   42MYC    C35 5342   4.236   0.822   8.135  0.2601 -0.4945 -0.5057
   42MYC    H64 5343   4.180   0.728   8.130 -0.4875 -0.0273 -1.0173
   42MYC    H65 5344   4.181   0.911   8.104 -0.7618 -0.6567  0.7280
   42MYC    C36 5345   4.363   0.819   8.054  0.0943 -0.3441  0.1063
   42MYC    H66 5346   4.414   0.912   8.080 -2.1918  0.6315  1.4324
   42MYC    H67 5347   4.429   0.734   8.076  2.1669  1.2072  0.0528
   42MYC    C37 5348   4.342   0.817   7.897 -0.0817  0.6954  0.5451
   42MYC    H68 5349   4.323   0.713   7.866  2.3707 -0.4998  2.6781
   42MYC    H69 5350   4.250   0.867   7.865  0.2057  0.1762 -1.2093
   42MYC    C38 5351   4.461   0.864   7.817  0.0575 -0.5556  0.5114
   42MYC    H70 5352   4.483   0.965   7.853 -0.1945  0.1657 -1.2800
   42MYC    H71 5353   4.537   0.787   7.834  0.4737 -0.4594 -0.8078
   42MYC    C39 5354   4.440   0.881   7.664  0.4195 -0.3345 -0.5798
   42MYC    H72 5355   4.538   0.913   7.626 -0.6053  1.5133 -1.8045
   42MYC    H73 5356   4.417   0.785   7.617  1.1843 -0.8801  0.1260
   42MYC    C40 5357   4.327   0.986   7.629  0.2726  0.4167 -0.2747
   42MYC    H74 5358   4.225   0.956   7.657 -0.6272  1.6823 -1.9959
   42MYC    H75 5359   4.343   1.078   7.688 -0.7451 -1.1438  2.6517
   42MYC    C41 5360   4.327   1.028   7.479 -0.0279 -0.6644 -0.4175
   42MYC    H76 5361   4.285   0.947   7.418 -0.8457 -0.8075  0.3112
   42MYC    H77 5362   4.252   1.108   7.477  0.7879  0.1837  1.3662
   42MYC    C42 5363   4.456   1.089   7.419 -0.4715  0.1387 -0.5071
   42MYC    H78 5364   4.486   1.177   7.477  1.8199 -1.6750  1.2296
   42MYC    H79 5365   4.543   1.022   7.419  0.1766  0.9342 -2.1725
   42MYC    C43 5366   4.435   1.136   7.281 -0.6061 -0.1213  0.7266
   42MYC    H80 5367   4.532   1.178   7.253  1.0617 -2.4908  2.5834
   42MYC    H81 5368   4.365   1.221   7.275 -1.5870 -0.9782 -3.0752
   42MYC    H82 5369   4.397   1.056   7.216  1.2435 -0.1514 -0.3963
   43MYC   HH15 5370   4.808   0.840   7.056 -0.7405  0.1323  0.4909
   43MYC    C80 5371   4.706   0.837   7.098 -0.7842 -0.1083  0.3710
   43MYC   H100 5372   4.649   0.927   7.071 -0.5530 -0.6437 -2.1635
   43MYC   H101 5373   4.657   0.760   7.038  1.8851 -1.1637 -0.6487
   43MYC    C79 5374   4.702   0.800   7.243 -0.3494 -0.3551 -0.0015
   43MYC   H102 5375   4.597   0.814   7.270 -0.4671 -0.3582 -0.4614
   43MYC   H103 5376   4.751   0.883   7.297 -1.6259 -0.5969  1.5929
   43MYC    C78 5377   4.778   0.671   7.283  0.2158  0.1378 -0.1706
   43MYC   HH14 5378   4.887   0.676   7.270  0.4509  0.0597  1.5368
   43MYC   H104 5379   4.744   0.593   7.214  0.8833  1.3353 -1.9024
   43MYC    C77 5380   4.758   0.639   7.432  0.0943 -0.3877  0.2681
   43MYC   H106 5381   4.807   0.544   7.457 -0.3664 -0.3305  1.4287
   43MYC   H107 5382   4.652   0.611   7.444  0.0666 -1.2744 -1.6586
   43MYC    C76 5383   4.794   0.743   7.533 -0.1546 -0.1283  0.1105
   43MYC   H108 5384   4.734   0.832   7.511 -0.2883 -0.2511 -0.0272
   43MYC   H109 5385   4.899   0.771   7.531 -0.0172 -0.5700 -2.0591
   43MYC    C75 5386   4.750   0.714   7.674 -0.2155  0.2660 -0.8107
   43MYC   H110 5387   4.650   0.669   7.679 -1.0656  2.1943  1.8492
   43MYC   H111 5388   4.755   0.804   7.736  0.9482 -2.1737  2.9952
   43MYC    C74 5389   4.847   0.612   7.743  0.8597 -0.6337  0.1680
   43MYC   H112 5390   4.944   0.663   7.748  0.7670 -0.5727  2.1161
   43MYC   H113 5391   4.866   0.527   7.677 -0.2991 -1.2320  0.5700
   43MYC    C73 5392   4.810   0.569   7.879  0.0146  0.2255 -0.1726
   43MYC   HH13 5393   4.871   0.481   7.905 -1.0769 -0.0401  1.6790
   43MYC   H114 5394   4.711   0.524   7.888 -0.2987  0.8275 -0.5564
   43MYC    C72 5395   4.818   0.669   7.991 -0.1591  0.4552 -0.2782
   43MYC   H115 5396   4.771   0.765   7.965 -0.3329  0.1220 -1.2236
   43MYC   H116 5397   4.925   0.685   8.011 -0.3125 -0.1399  1.1392
   43MYC    C71 5398   4.759   0.624   8.119  1.0106 -0.5141 -0.6992
   43MYC   H117 5399   4.823   0.546   8.163  0.6624 -1.0542 -1.1454
   43MYC   H118 5400   4.665   0.572   8.097  1.0396 -1.2751  0.8352
   43MYC    C70 5401   4.722   0.730   8.225  0.8015 -0.5717 -0.4683
   43MYC   H119 5402   4.656   0.811   8.193 -1.1554 -2.5845 -1.8309
   43MYC   H120 5403   4.813   0.788   8.243  1.0778 -0.7990 -1.0852
   43MYC    C69 5404   4.665   0.670   8.361  0.5837  0.2511 -0.6482
   43MYC   H121 5405   4.730   0.603   8.419 -3.1158 -0.1451  3.5414
   43MYC   H122 5406   4.564   0.632   8.342  0.9502 -1.3043  0.3288
   43MYC    C68 5407   4.643   0.786   8.463 -0.2972 -0.2628  0.5790
   43MYC   HH12 5408   4.560   0.852   8.434 -0.3576  1.0297  3.3661
   43MYC   H123 5409   4.733   0.848   8.474  1.3811 -2.2158 -1.2104
   43MYC    C67 5410   4.609   0.736   8.607 -0.4111  0.5877  0.0666
   43MYC   H124 5411   4.680   0.660   8.641  0.7811  1.6757  0.0666
   43MYC   H125 5412   4.514   0.682   8.598  0.1066 -0.3566  0.1596
   43MYC    C66 5413   4.596   0.849   8.709  0.2204 -0.4088  0.2584
   43MYC   H126 5414   4.510   0.917   8.708  0.1278 -0.1962  4.1997
   43MYC   H127 5415   4.678   0.921   8.706  1.7245 -2.0808 -0.3710
   43MYC    C65 5416   4.583   0.784   8.850  0.8222  0.0211  0.1729
   43MYC   H128 5417   4.681   0.745   8.878  0.0717 -1.5199  0.7358
   43MYC   H129 5418   4.512   0.702   8.838  0.4767  0.6941 -3.7141
   43MYC    C64 5419   4.543   0.898   8.950 -0.6138  0.0270  0.3916
   43MYC   H130 5420   4.440   0.933   8.934  0.0249  1.9305  0.2294
   43MYC   H131 5421   4.605   0.988   8.946 -0.7418  0.1210  0.5113
   43MYC    C63 5422   4.560   0.867   9.104  0.0515 -0.3700  0.2907
   43MYC   HH11 5423   4.660   0.833   9.131  0.2323  1.1686  1.7015
   43MYC   H132 5424   4.502   0.774   9.114 -3.1207  1.3482 -0.8368
   43MYC    C62 5425   4.512   0.981   9.189 -0.4713  0.3645  0.2273
   43MYC   H133 5426   4.421   1.027   9.150 -1.4816 -1.5433  0.2167
   43MYC   H134 5427   4.589   1.059   9.184  2.7507 -2.6900 -2.4199
   43MYC    C61 5428   4.495   0.929   9.330  0.0217  0.3031 -0.9178
   43MYC   H135 5429   4.582   0.875   9.370 -0.2592  0.5546  0.0797
   43MYC   H136 5430   4.419   0.850   9.330  0.9164 -0.5798 -0.4771
   43MYC    C60 5431   4.448   1.047   9.428 -0.9475  0.3612  0.4278
   43MYC   H137 5432   4.357   1.090   9.389  0.0502  1.0872 -1.2370
   43MYC    C58 5433   4.478   1.043   9.569 -0.6017 -0.1386 -0.2447
   43MYC   H138 5434   4.541   0.964   9.609  1.0848  1.4244  0.3437
   43MYC    C59 5435   4.541   1.155   9.485  0.0514 -0.0373  0.3518
   43MYC   H139 5436   4.501   1.254   9.506 -1.6376 -1.1626  2.9238
   43MYC   H140 5437   4.649   1.149   9.474  0.0067 -0.4362  0.1064
   43MYC    C57 5438   4.371   1.074   9.674 -0.0393  0.4018 -0.4257
   43MYC   HH10 5439   4.304   0.988   9.689 -0.2820  0.8339  1.1460
   43MYC   H141 5440   4.308   1.155   9.635  0.3889  0.3020 -1.3592
   43MYC    C56 5441   4.415   1.106   9.812 -0.4402  0.6621 -0.6318
   43MYC   H142 5442   4.499   1.177   9.808  0.7504 -0.7140 -0.6981
   43MYC   H143 5443   4.459   1.016   9.855 -0.9776  1.1850  1.0922
   43MYC    C55 5444   4.308   1.156   9.918  0.2392  0.3291  0.2707
   43MYC   H144 5445   4.238   1.073   9.934 -0.2984  0.9514  1.2231
   43MYC   H145 5446   4.260   1.249   9.885  1.5405  1.5003  1.5547
   43MYC    C54 5447   4.373   1.187  10.056  0.0268 -0.0597 -0.2841
   43MYC   H146 5448   4.439   1.104  10.084 -0.6120 -1.3981 -2.4761
   43MYC   H147 5449   4.290   1.195  10.127 -0.3394  0.8410 -0.8067
   43MYC    C53 5450   4.453   1.318  10.068  0.0475 -0.1740  0.9263
   43MYC   H148 5451   4.392   1.392  10.015 -0.1371  0.9124  2.5844
   43MYC   H149 5452   4.549   1.312  10.015 -0.6586  0.2065 -0.4420
   43MYC    C52 5453   4.484   1.375  10.212  0.0561  0.2265  0.3378
   43MYC    H99 5454   4.535   1.305  10.279  2.2866  2.0650  0.6635
   43MYC   H150 5455   4.387   1.388  10.262  0.2292 -0.5460  0.8839
   43MYC    C51 5456   4.560   1.511  10.208  0.8833  0.5874  0.1915
   43MYC    H97 5457   4.519   1.585  10.138  0.5045  1.0205  0.8612
   43MYC    H98 5458   4.664   1.497  10.175 -0.0334  0.2909 -2.8555
   43MYC    C50 5459   4.549   1.578  10.353 -0.4362  0.0147 -0.5207
   43MYC    H95 5460   4.596   1.520  10.434  0.1244 -1.1429 -1.6346
   43MYC    H96 5461   4.445   1.599  10.381 -0.6724  0.1396 -1.4549
   43MYC    C49 5462   4.617   1.723  10.349 -0.6540  0.1448  0.3279
   43MYC    H93 5463   4.577   1.777  10.263 -0.5318 -1.4323 -0.7560
   43MYC    H94 5464   4.725   1.714  10.332 -0.5230  0.6859  0.8480
   43MYC    C48 5465   4.614   1.800  10.482  0.6781 -0.0536 -0.0004
   43MYC    H91 5466   4.679   1.888  10.481  0.8120 -0.0568  2.2220
   43MYC    H92 5467   4.666   1.736  10.554 -1.4924 -2.3359 -0.3433
   43MYC    C47 5468   4.470   1.825  10.544  0.0320  0.1618 -0.1878
   43MYC    H89 5469   4.411   1.733  10.553 -2.0573  1.0963 -2.9736
   43MYC    H90 5470   4.419   1.903  10.488 -0.4852  1.4163  1.9072
   43MYC    C46 5471   4.481   1.884  10.683 -0.8447 -0.0086  0.1191
   43MYC    H87 5472   4.552   1.968  10.681 -0.3332 -0.3856  1.4641
   43MYC    H88 5473   4.515   1.806  10.752  1.9588  1.5135  0.6035
   43MYC    C45 5474   4.340   1.940  10.727 -0.0186 -0.6071 -0.2886
   43MYC    H85 5475   4.264   1.863  10.710 -0.0183 -0.2183 -2.3118
   43MYC    H86 5476   4.313   2.031  10.674 -0.9976 -0.8073 -0.1447
   43MYC    C44 5477   4.336   1.971  10.878 -0.0023  1.0554  0.2311
   43MYC    H83 5478   4.404   2.052  10.908  1.1049  0.3909 -0.4483
   43MYC    H84 5479   4.357   1.876  10.929  1.8767  0.6993 -1.1001
   43MYC    C18 5480   4.193   2.009  10.918  0.3757  0.5930  0.4527
   43MYC    H31 5481   4.125   1.976  10.840  3.3041 -0.5768 -1.7525
   43MYC    C17 5482   4.157   1.982  11.056  0.2974  0.5563 -0.4516
   43MYC    H30 5483   4.241   1.948  11.117  0.0055  0.3998 -0.1332
   43MYC    C19 5484   4.169   2.125  11.013  0.0035 -0.1779  0.2001
   43MYC    H32 5485   4.261   2.179  11.036  0.4094 -0.1053 -1.4730
   43MYC    H33 5486   4.076   2.181  11.006 -0.1287 -0.4656 -0.4384
   43MYC    C16 5487   4.021   1.911  11.098  0.8145  0.4703 -0.0436
   43MYC    H28 5488   3.935   1.940  11.036  1.3480 -0.6009 -1.3170
   43MYC    H29 5489   3.985   1.943  11.197 -0.5930  0.2204 -0.4600
   43MYC    C15 5490   4.022   1.757  11.081  0.3551  0.2116 -0.3786
   43MYC    H26 5491   4.067   1.713  11.171 -0.8900 -0.7014 -0.1762
   43MYC    H27 5492   4.086   1.718  11.000  0.9438 -1.3911  0.8076
   43MYC    C14 5493   3.879   1.698  11.070 -0.0094  0.0440  0.3743
   43MYC    H24 5494   3.805   1.770  11.108 -1.0906 -0.4634 -0.7118
   43MYC    H25 5495   3.859   1.609  11.131  1.5222  0.5802  1.7490
   43MYC    C13 5496   3.839   1.643  10.930  0.6310  0.0782 -0.4308
   43MYC    H22 5497   3.744   1.588  10.940  1.3163 -1.1433 -0.5091
   43MYC    H23 5498   3.911   1.566  10.902 -0.4970 -2.4438  2.8944
   43MYC    C12 5499   3.812   1.755  10.827  0.1118 -0.0963 -0.2614
   43MYC    H20 5500   3.898   1.821  10.813 -0.3500  0.4794 -0.3760
   43MYC    H21 5501   3.732   1.818  10.866  0.0421  0.6309 -1.5316
   43MYC    C11 5502   3.769   1.703  10.694 -0.3368 -0.3394  0.7073
   43MYC    H18 5503   3.708   1.782  10.648 -0.4394 -1.0906 -0.5053
   43MYC    H19 5504   3.702   1.616  10.683 -0.7521  0.2817 -3.6776
   43MYC    C10 5505   3.878   1.672  10.586 -0.2218  0.5455 -0.5376
   43MYC    H16 5506   3.837   1.616  10.501  2.2343 -0.9292 -0.8513
   43MYC    H17 5507   3.945   1.601  10.636 -2.1275 -2.7677 -2.3868
   43MYC     C9 5508   3.954   1.789  10.525  0.3074 -0.6859 -0.0170
   43MYC    H14 5509   3.999   1.855  10.600 -0.3220  2.0247 -1.8630
   43MYC    H15 5510   3.892   1.851  10.459  3.6635  2.4966 -0.4984
   43MYC     C8 5511   4.065   1.735  10.419 -0.6125  0.7046  0.0223
   43MYC    H12 5512   4.025   1.661  10.349  0.7922  0.6392 -0.7432
   43MYC    H13 5513   4.139   1.680  10.478 -1.2815  1.3815  1.5589
   43MYC     C7 5514   4.146   1.852  10.348  0.0612 -0.1819 -0.4933
   43MYC    H10 5515   4.251   1.821  10.341  0.3028  0.7360 -1.0753
   43MYC    H11 5516   4.145   1.944  10.407  0.4917 -0.4707 -0.0247
   43MYC     C6 5517   4.092   1.892  10.214 -0.1814 -0.2091  0.5763
   43MYC     H8 5518   4.144   1.978  10.169 -0.1666  0.0845  1.1417
   43MYC     H9 5519   3.992   1.936  10.230 -0.3591  0.3634 -1.7305
   43MYC     C5 5520   4.087   1.788  10.104  0.7586  0.0502 -0.1130
   43MYC     H6 5521   4.019   1.826  10.027  0.7867  0.4482  0.0520
   43MYC     H7 5522   4.053   1.689  10.136 -1.1537 -0.2932 -2.8734
   43MYC     C4 5523   4.230   1.763  10.053  0.1441  0.2124  0.4718
   43MYC     H4 5524   4.284   1.736  10.144  0.5994  0.2762  0.2221
   43MYC     H5 5525   4.277   1.857  10.021  1.4967 -0.8368 -0.7512
   43MYC     C2 5526   4.251   1.651   9.950  0.0199 -0.0616  0.8035
   43MYC     H2 5527   4.357   1.625   9.946  0.6659  2.3083  0.7416
   43MYC     O3 5528   4.182   1.537   9.997  0.2947  0.1563  0.2635
   43MYC     H3 5529   4.213   1.513  10.086 -2.1702 -0.8949  0.9297
   43MYC     C1 5530   4.208   1.674   9.804 -0.0598 -0.4903  0.2516
   43MYC     H1 5531   4.272   1.758   9.773 -0.2789  0.2974  1.8352
   43MYC    C81 5532   4.063   1.715   9.794 -0.4105  0.4381 -0.5549
   43MYC    O82 5533   3.973   1.637   9.811  0.2880  0.2706  0.1815
   43MYC    O83 5534   4.039   1.847   9.758  0.5961 -0.0244  0.6070
   43MYC   H105 5535   3.943   1.866   9.758  0.6604  0.3295  0.9899
   43MYC    C20 5536   4.236   1.552   9.715 -0.0919 -0.0914 -0.5528
   43MYC    H34 5537   4.333   1.512   9.748  0.0612  0.2794 -0.5490
   43MYC    H35 5538   4.156   1.479   9.726 -0.1163  0.2004  1.4836
   43MYC    C21 5539   4.237   1.586   9.558 -0.0615 -0.3597 -0.3005
   43MYC    H36 5540   4.151   1.643   9.521  1.2174 -0.0155 -2.9068
   43MYC    H37 5541   4.310   1.666   9.550 -1.9708  1.3913 -1.1968
   43MYC    C22 5542   4.279   1.469   9.468  0.7559 -0.5702 -0.1834
   43MYC    H38 5543   4.372   1.427   9.507  0.6152  0.0188  0.8304
   43MYC    H39 5544   4.199   1.395   9.476 -2.5269  2.5682 -1.3446
   43MYC    C23 5545   4.290   1.522   9.327 -0.3850 -0.1865  0.3697
   43MYC    H40 5546   4.194   1.560   9.289  0.5472 -0.0753 -2.0264
   43MYC    H41 5547   4.365   1.600   9.315  0.7872 -1.4352 -0.6193
   43MYC    C24 5548   4.316   1.404   9.223 -0.1681  0.1679  0.0747
   43MYC    H42 5549   4.415   1.359   9.235 -0.2773  0.2077  1.2524
   43MYC    H43 5550   4.239   1.332   9.251  1.0277 -1.0979  0.2037
   43MYC    C25 5551   4.295   1.441   9.070 -0.4915 -0.2329 -0.1315
   43MYC    H44 5552   4.186   1.441   9.058 -0.3869 -0.3959 -1.1632
   43MYC    H45 5553   4.340   1.539   9.053 -2.4842  0.9750  1.1715
   43MYC    C26 5554   4.346   1.333   8.977 -0.1384  0.0417  0.3079
   43MYC    H46 5555   4.456   1.331   8.973 -0.1830 -1.0836 -1.2719
   43MYC    H47 5556   4.323   1.234   9.017  0.9476 -0.5120 -0.3993
   43MYC    C27 5557   4.282   1.339   8.835 -0.1784 -0.2601  0.3074
   43MYC    H48 5558   4.175   1.317   8.846 -0.1371 -2.4704 -2.7190
   43MYC    H49 5559   4.287   1.443   8.802 -1.0053 -0.6416 -1.0788
   43MYC    C28 5560   4.338   1.243   8.727 -0.3467  0.1143  0.1766
   43MYC    H50 5561   4.341   1.139   8.762  0.4298 -0.5106 -1.6378
   43MYC    H51 5562   4.268   1.240   8.643 -1.7048 -1.5437  1.3061
   43MYC    C29 5563   4.487   1.280   8.681  0.3607  0.7374 -0.0730
   43MYC    H52 5564   4.505   1.387   8.664  0.4375  0.9116  1.0136
   43MYC    H53 5565   4.546   1.264   8.772 -0.3678 -0.6694  0.1859
   43MYC    C30 5566   4.547   1.189   8.579  0.1092 -0.5179  0.0994
   43MYC    H54 5567   4.632   1.141   8.629 -0.1781 -2.6835 -1.3659
   43MYC    H55 5568   4.490   1.100   8.552  1.2457 -0.3730 -3.1762
   43MYC    C31 5569   4.596   1.270   8.455 -0.0037  0.2262 -0.2086
   43MYC    H56 5570   4.663   1.341   8.506 -1.0210  0.6897  0.5347
   43MYC    H57 5571   4.655   1.205   8.390 -2.9933 -2.0028 -0.9154
   43MYC    C32 5572   4.499   1.358   8.385 -0.4319  0.3977 -0.1889
   43MYC    H58 5573   4.460   1.430   8.457  2.7838  1.6317  0.4710
   43MYC    H59 5574   4.553   1.421   8.313 -1.6305 -0.2554 -1.7351
   43MYC    C33 5575   4.390   1.278   8.312 -0.2892 -0.5697 -0.5685
   43MYC    H60 5576   4.355   1.191   8.368  2.4782 -1.0559  0.5187
   43MYC    H61 5577   4.309   1.348   8.287  0.5350  0.3937 -0.6162
   43MYC    C34 5578   4.437   1.221   8.180 -0.4438  0.1583  0.4172
   43MYC    H62 5579   4.524   1.158   8.204 -1.3956 -2.0295 -1.4816
   43MYC    H63 5580   4.369   1.146   8.137 -1.6735  0.4224  1.8131
   43MYC    C35 5581   4.467   1.319   8.073 -0.3726 -0.2762  0.4918
   43MYC    H64 5582   4.390   1.397   8.073 -1.4913 -1.3606  0.2671
   43MYC    H65 5583   4.566   1.366   8.088 -0.1713 -0.4920 -0.1282
   43MYC    C36 5584   4.469   1.255   7.933 -0.7478 -0.5404 -0.1527
   43MYC    H66 5585   4.544   1.176   7.932 -0.2536 -0.1550  2.0851
   43MYC    H67 5586   4.381   1.203   7.892 -1.1364 -0.4048  0.4978
   43MYC    C37 5587   4.510   1.359   7.820  0.0942  0.5168  0.2822
   43MYC    H68 5588   4.598   1.418   7.850  1.9659 -0.4132 -2.9165
   43MYC    H69 5589   4.542   1.300   7.734  1.2233 -1.1115  1.7440
   43MYC    C38 5590   4.391   1.448   7.775 -0.2672  0.2996  0.7932
   43MYC    H70 5591   4.346   1.488   7.866 -1.6265 -0.3628  0.4447
   43MYC    H71 5592   4.427   1.533   7.717 -0.3226 -2.1559 -3.2564
   43MYC    C39 5593   4.284   1.384   7.691  0.4534 -0.2630  0.0066
   43MYC    H72 5594   4.332   1.333   7.607  1.1102 -2.3460  1.5839
   43MYC    H73 5595   4.228   1.315   7.755 -1.7332  0.3278 -1.1628
   43MYC    C40 5596   4.167   1.478   7.638 -0.1790  0.1749  0.2463
   43MYC    H74 5597   4.228   1.551   7.583  1.2814 -1.7831 -0.8791
   43MYC    H75 5598   4.111   1.429   7.558 -1.6129  0.9074  0.7662
   43MYC    C41 5599   4.074   1.538   7.750 -0.1092 -0.0042 -0.4456
   43MYC    H76 5600   4.015   1.456   7.792  0.9225 -1.2530 -1.3385
   43MYC    H77 5601   4.133   1.583   7.830  1.0374  0.6507 -1.6214
   43MYC    C42 5602   3.983   1.651   7.691 -0.1332 -0.5834 -0.1435
   43MYC    H78 5603   4.052   1.734   7.670  0.4926 -0.9562  0.4116
   43MYC    H79 5604   3.938   1.628   7.594  1.9364 -0.1195 -1.2770
   43MYC    C43 5605   3.880   1.708   7.788  0.3686 -0.1091 -0.6584
   43MYC    H80 5606   3.925   1.725   7.887  1.2284 -1.2940 -0.8234
   43MYC    H81 5607   3.791   1.644   7.790 -0.8492  1.5176  0.3088
   43MYC    H82 5608   3.832   1.805   7.767 -1.7884 -0.0479  3.4208
   44MYC   HH15 5609   5.017   1.158   6.919 -1.4566 -0.4751 -0.0688
   44MYC    C80 5610   5.071   1.063   6.919  0.0861  0.3641  0.1933
   44MYC   H100 5611   5.041   0.993   6.840 -1.9335 -1.5715  2.4675
   44MYC   H101 5612   5.174   1.091   6.894  0.4552 -1.0691 -0.0031
   44MYC    C79 5613   5.073   0.985   7.054  0.0640  0.9783 -0.4085
   44MYC   H102 5614   5.135   0.896   7.036  0.4391  0.6410  2.1982
   44MYC   H103 5615   4.970   0.962   7.084  0.2403 -0.5969 -0.9330
   44MYC    C78 5616   5.140   1.060   7.174 -0.2571  0.2795  0.3119
   44MYC   HH14 5617   5.072   1.144   7.191 -1.0738 -0.1566 -0.6958
   44MYC   H104 5618   5.242   1.081   7.140 -0.5353 -1.2359 -1.6650
   44MYC    C77 5619   5.141   0.980   7.306  0.1816  0.2898  0.1465
   44MYC   H106 5620   5.190   0.882   7.304  0.6431  0.4615  1.7737
   44MYC   H107 5621   5.034   0.956   7.313 -0.0150  0.7961 -0.8884
   44MYC    C76 5622   5.182   1.048   7.435 -0.0077 -0.1748  0.2002
   44MYC   H108 5623   5.138   1.147   7.451  0.8647  0.5250 -1.4906
   44MYC   H109 5624   5.291   1.062   7.429  0.0981 -0.8801  0.3210
   44MYC    C75 5625   5.145   0.972   7.570 -0.5838  0.4628 -0.0217
   44MYC   H110 5626   5.177   0.868   7.556 -3.0967 -0.8343  2.7323
   44MYC   H111 5627   5.039   0.968   7.598 -0.1722  1.2459  1.7956
   44MYC    C74 5628   5.224   1.021   7.692  0.3565 -0.3841  0.0067
   44MYC   H112 5629   5.166   1.112   7.710 -1.0150 -1.1027 -0.7146
   44MYC   H113 5630   5.331   1.044   7.677  0.5640  0.3064  2.1444
   44MYC    C73 5631   5.207   0.940   7.823  0.2295 -0.1060 -0.1642
   44MYC   HH13 5632   5.242   0.836   7.817 -0.2538 -0.2358 -0.8440
   44MYC   H114 5633   5.099   0.922   7.830 -0.3022  2.2389 -1.4897
   44MYC    C72 5634   5.258   1.009   7.943  0.3276 -0.1377  0.2703
   44MYC   H115 5635   5.208   1.105   7.954 -1.2163 -1.0886  1.9892
   44MYC   H116 5636   5.364   1.033   7.926  0.7990 -0.5467  2.3935
   44MYC    C71 5637   5.251   0.931   8.074 -0.3664 -0.3255 -0.3111
   44MYC   H117 5638   5.322   0.849   8.057  0.3852 -0.1557  1.7780
   44MYC   H118 5639   5.154   0.893   8.105 -0.0611 -0.0354  1.0542
   44MYC    C70 5640   5.287   1.022   8.197 -0.3896  0.7853 -0.2848
   44MYC   H119 5641   5.218   1.105   8.218  1.6720  2.5462 -0.0804
   44MYC   H120 5642   5.386   1.068   8.184  0.9298 -2.3260 -2.3494
   44MYC    C69 5643   5.291   0.927   8.325 -0.0631 -0.7367  0.1993
   44MYC   H121 5644   5.363   0.846   8.307  2.0046  0.3114  3.0067
   44MYC   H122 5645   5.191   0.883   8.336 -0.6219  0.3021 -0.4670
   44MYC    C68 5646   5.342   1.007   8.449  0.1225  0.1998  0.0314
   44MYC   HH12 5647   5.303   1.110   8.453  0.2940  0.2877 -0.4967
   44MYC   H123 5648   5.447   1.033   8.430 -0.3616  0.8408 -2.0133
   44MYC    C67 5649   5.320   0.936   8.583  0.5059 -0.6919  0.1810
   44MYC   H124 5650   5.364   0.835   8.583  0.8381 -0.5510 -0.1068
   44MYC   H125 5651   5.214   0.926   8.608  0.9909 -0.7349  2.4540
   44MYC    C66 5652   5.401   1.003   8.697  0.6828 -0.3635  0.4760
   44MYC   H126 5653   5.377   1.109   8.705 -2.6179 -0.7889 -1.7747
   44MYC   H127 5654   5.507   0.986   8.675  0.6716  0.5350 -0.3370
   44MYC    C65 5655   5.375   0.942   8.832  0.2048 -0.7085  0.2396
   44MYC   H128 5656   5.367   0.833   8.830 -0.0354 -0.6847 -0.2054
   44MYC   H129 5657   5.274   0.980   8.851 -0.0490  0.2762 -2.6173
   44MYC    C64 5658   5.475   0.996   8.940  0.4029 -0.4515  0.1690
   44MYC   H130 5659   5.456   1.101   8.967 -0.0229 -0.6401  0.6180
   44MYC   H131 5660   5.581   0.993   8.912  0.3158  1.3589 -0.4693
   44MYC    C63 5661   5.444   0.926   9.079 -0.3623 -0.0382 -0.6429
   44MYC   HH11 5662   5.531   0.938   9.144 -0.1394 -0.9374 -0.7731
   44MYC   H132 5663   5.425   0.820   9.062 -2.6690 -0.4191  3.0754
   44MYC    C62 5664   5.320   0.987   9.152  0.1400 -0.3641  0.0042
   44MYC   H133 5665   5.237   0.985   9.081  0.4187 -1.9557 -0.3193
   44MYC   H134 5666   5.337   1.090   9.186 -0.7874  0.0317 -0.6869
   44MYC    C61 5667   5.268   0.901   9.271 -0.2306 -0.1713 -0.3885
   44MYC   H135 5668   5.342   0.919   9.350 -0.1865  1.2521 -0.7406
   44MYC   H136 5669   5.289   0.796   9.244  3.3747  0.1704  0.4657
   44MYC    C60 5670   5.137   0.935   9.335 -0.2717  0.2679  0.0118
   44MYC   H137 5671   5.055   0.905   9.270 -0.7785 -1.5654  1.4043
   44MYC    C58 5672   5.125   0.963   9.481  0.3680  0.1980 -0.1640
   44MYC   H138 5673   5.212   0.949   9.544  0.9494 -0.0916 -1.0121
   44MYC    C59 5674   5.118   1.078   9.383  0.0113  0.0321  0.1988
   44MYC   H139 5675   5.025   1.131   9.365 -0.5029 -1.6994 -3.1917
   44MYC   H140 5676   5.198   1.151   9.388  1.9791 -2.0931  2.9740
   44MYC    C57 5677   5.004   0.902   9.538  0.1066  1.0907 -0.9547
   44MYC   HH10 5678   5.012   0.792   9.535  3.6406  1.1397  0.6223
   44MYC   H141 5679   4.915   0.921   9.479 -1.4922 -1.5929  0.3936
   44MYC    C56 5680   4.976   0.957   9.681  0.2874  0.2468  0.3760
   44MYC   H142 5681   5.072   0.975   9.731 -0.7500  1.6332  1.9884
   44MYC   H143 5682   4.934   0.868   9.731 -2.0510  1.7212  1.2284
   44MYC    C55 5683   4.883   1.073   9.687  0.3764 -0.5927  0.2516
   44MYC   H144 5684   4.820   1.067   9.598  0.6769 -0.3095  0.0132
   44MYC   H145 5685   4.938   1.168   9.679  0.1868 -0.4247  0.9524
   44MYC    C54 5686   4.791   1.078   9.808 -0.3136  0.5023 -0.0656
   44MYC   H146 5687   4.735   0.985   9.823  0.6122 -0.2845 -1.2371
   44MYC   H147 5688   4.726   1.166   9.805  0.4131  1.1517  1.8417
   44MYC    C53 5689   4.863   1.086   9.941 -0.6054  0.5507  0.0978
   44MYC   H148 5690   4.946   1.155   9.921 -0.0687  0.2212  1.1077
   44MYC   H149 5691   4.911   0.987   9.946 -0.3177  0.7350  1.4618
   44MYC    C52 5692   4.780   1.127  10.067 -0.5462 -0.0629  0.3406
   44MYC    H99 5693   4.698   1.059  10.091  1.3561 -2.1420  1.2669
   44MYC   H150 5694   4.756   1.232  10.047  0.1792  0.2572  1.0656
   44MYC    C51 5695   4.864   1.122  10.199  0.1863 -0.3090  0.9798
   44MYC    H97 5696   4.899   1.019  10.216 -0.6641 -1.0480 -1.3984
   44MYC    H98 5697   4.792   1.130  10.282 -0.5991 -0.1531  0.2978
   44MYC    C50 5698   4.958   1.239  10.217 -0.6955  0.1305  0.1833
   44MYC    H95 5699   4.894   1.325  10.239 -1.4330 -0.1559 -0.7699
   44MYC    H96 5700   5.017   1.256  10.126  0.7203  0.2401  1.0928
   44MYC    C49 5701   5.063   1.214  10.334 -0.0702 -0.1110 -0.5873
   44MYC    H93 5702   5.128   1.302  10.328  1.6783 -1.0227  2.5811
   44MYC    H94 5703   5.136   1.138  10.302  0.1453  0.3260 -1.1607
   44MYC    C48 5704   5.007   1.176  10.486 -0.1335 -0.1409  0.2246
   44MYC    H91 5705   4.977   1.072  10.470  1.0988 -0.5324  0.3768
   44MYC    H92 5706   4.928   1.245  10.516 -0.4480  0.0482 -0.9530
   44MYC    C47 5707   5.121   1.166  10.590 -0.0491 -0.0772  0.3449
   44MYC    H89 5708   5.142   1.265  10.630  1.2231 -0.1888 -0.0198
   44MYC    H90 5709   5.208   1.136  10.531 -0.1111  1.4787 -0.5803
   44MYC    C46 5710   5.089   1.068  10.709  0.3768 -0.1565 -0.1119
   44MYC    H87 5711   5.177   1.065  10.775  1.4302  0.4486 -1.4410
   44MYC    H88 5712   5.071   0.967  10.672 -2.4138 -0.4866  1.7647
   44MYC    C45 5713   4.971   1.101  10.803  0.1332  0.3609  0.8297
   44MYC    H85 5714   4.885   1.121  10.737 -0.6377 -0.4881  1.5595
   44MYC    H86 5715   4.999   1.187  10.864  0.3699  1.2062 -0.4294
   44MYC    C44 5716   4.933   0.984  10.889  0.2510  1.2926 -0.1867
   44MYC    H83 5717   5.022   0.936  10.930 -1.1145  1.0905  2.7633
   44MYC    H84 5718   4.889   0.903  10.828 -1.4515  2.7457 -0.9770
   44MYC    C18 5719   4.851   1.012  11.006  0.0085 -0.3682  0.6825
   44MYC    H31 5720   4.914   1.050  11.086 -0.6844  0.8276  0.6828
   44MYC    C17 5721   4.704   1.048  11.003  0.0420  0.9983  0.1911
   44MYC    H30 5722   4.665   1.035  10.903  1.3763 -1.1508 -0.1168
   44MYC    C19 5723   4.745   0.914  11.061  0.7683  0.1116 -0.0748
   44MYC    H32 5724   4.733   0.822  11.005  2.3433 -0.2435  0.1046
   44MYC    H33 5725   4.731   0.916  11.168  3.5113  0.9998  0.3518
   44MYC    C16 5726   4.648   1.157  11.091 -0.0562  0.5188  1.1329
   44MYC    H28 5727   4.719   1.189  11.168  1.7038  1.6772 -0.8459
   44MYC    H29 5728   4.554   1.119  11.133 -0.5834 -0.0341 -0.4728
   44MYC    C15 5729   4.615   1.271  10.994 -0.2000  0.3125  0.3299
   44MYC    H26 5730   4.572   1.349  11.057  1.5024  0.8643  0.8773
   44MYC    H27 5731   4.535   1.229  10.932 -0.7383 -1.0820  1.9052
   44MYC    C14 5732   4.732   1.343  10.911  0.3863  1.3000 -0.5446
   44MYC    H24 5733   4.729   1.288  10.816 -5.3049  0.3380 -0.1581
   44MYC    H25 5734   4.830   1.330  10.958  0.1877  1.7127 -0.0201
   44MYC    C13 5735   4.696   1.490  10.865 -0.4596 -0.7312 -0.1713
   44MYC    H22 5736   4.675   1.568  10.940 -1.5260 -0.8872 -0.2866
   44MYC    H23 5737   4.603   1.480  10.807  0.4091  2.9483 -2.4852
   44MYC    C12 5738   4.795   1.546  10.760  0.0656  0.3616 -0.2513
   44MYC    H20 5739   4.777   1.654  10.750 -0.8461  0.0951 -1.7179
   44MYC    H21 5740   4.777   1.495  10.665 -1.6533 -1.2800  0.8762
   44MYC    C11 5741   4.935   1.554  10.808 -0.8107 -0.1155  0.2632
   44MYC    H18 5742   4.974   1.452  10.800 -0.1627  0.2458 -1.7609
   44MYC    H19 5743   4.945   1.591  10.910 -0.5577 -0.6607  0.4357
   44MYC    C10 5744   5.033   1.636  10.713 -0.3196 -0.3122  0.2409
   44MYC    H16 5745   5.133   1.627  10.757 -0.5449  2.4911  1.5553
   44MYC    H17 5746   5.019   1.744  10.724 -1.1612 -0.4400  0.5765
   44MYC     C9 5747   5.038   1.604  10.560 -0.2204 -0.3483  1.0024
   44MYC    H14 5748   4.948   1.636  10.507  0.1936  1.9151  1.5335
   44MYC    H15 5749   5.043   1.495  10.551 -2.0873 -0.4281  0.5259
   44MYC     C8 5750   5.156   1.661  10.479 -0.0536  0.5987  0.2448
   44MYC    H12 5751   5.241   1.631  10.541  1.2732  0.4370 -1.5635
   44MYC    H13 5752   5.153   1.770  10.467 -0.4874  0.3545 -2.5403
   44MYC     C7 5753   5.174   1.592  10.343  0.9766  0.1687 -0.3068
   44MYC    H10 5754   5.204   1.487  10.360  1.5599  0.2042 -1.0734
   44MYC    H11 5755   5.268   1.636  10.309  0.8665  3.4728  3.0830
   44MYC     C6 5756   5.065   1.614  10.236 -0.0437 -0.3684 -0.2505
   44MYC     H8 5757   5.042   1.721  10.229  3.3104  0.4042 -1.3116
   44MYC     H9 5758   4.971   1.572  10.273 -0.0003 -1.1313 -0.9741
   44MYC     C5 5759   5.094   1.578  10.086 -0.3709 -0.6469 -0.2441
   44MYC     H6 5760   4.998   1.575  10.034 -1.0793 -0.9391  1.0253
   44MYC     H7 5761   5.131   1.475  10.076 -0.7475 -0.9046  0.8135
   44MYC     C4 5762   5.193   1.671  10.015  0.5047  0.2754  0.0820
   44MYC     H4 5763   5.287   1.676  10.072  2.5647 -3.1708 -2.6204
   44MYC     H5 5764   5.144   1.769  10.013  1.1386  0.8213  4.0354
   44MYC     C2 5765   5.245   1.619   9.877  0.3227  0.5122 -0.1283
   44MYC     H2 5766   5.281   1.711   9.830  0.1983 -0.0050 -1.2513
   44MYC     O3 5767   5.346   1.520   9.911 -0.2711  0.0311 -0.2713
   44MYC     H3 5768   5.297   1.441   9.939  3.3377 -1.3799  3.0043
   44MYC     C1 5769   5.131   1.564   9.778 -0.3068  1.2594 -0.4102
   44MYC     H1 5770   5.050   1.636   9.758 -1.1101 -0.1404 -2.4757
   44MYC    C81 5771   5.071   1.427   9.810  0.4548  0.0247  0.3703
   44MYC    O82 5772   5.140   1.333   9.857 -0.2587 -0.8550 -0.1161
   44MYC    O83 5773   4.931   1.423   9.801  0.0747  0.2046 -0.2461
   44MYC   H105 5774   4.906   1.337   9.837 -1.0409  0.7968  0.4453
   44MYC    C20 5775   5.202   1.539   9.640 -0.2900  0.4927 -0.2083
   44MYC    H34 5776   5.263   1.629   9.628 -1.6859  1.8864  2.3345
   44MYC    H35 5777   5.274   1.456   9.645  1.2856  1.7914 -0.3830
   44MYC    C21 5778   5.111   1.519   9.518 -0.4992 -0.2453 -1.0071
   44MYC    H36 5779   5.047   1.431   9.531  0.0309 -0.3551  1.5061
   44MYC    H37 5780   5.048   1.609   9.519 -0.0574  0.0743  0.2202
   44MYC    C22 5781   5.178   1.514   9.382 -0.3778 -0.0049 -0.1959
   44MYC    H38 5782   5.256   1.592   9.383  1.9092 -2.1137 -1.9262
   44MYC    H39 5783   5.238   1.425   9.358  1.2077  1.3030 -1.3423
   44MYC    C23 5784   5.090   1.536   9.254  0.0505 -0.4869  0.3742
   44MYC    H40 5785   5.021   1.451   9.251  0.8983 -1.1906  0.2861
   44MYC    H41 5786   5.026   1.623   9.272  0.4894  0.0210 -0.4608
   44MYC    C24 5787   5.163   1.537   9.116  0.7192  0.1121  0.7724
   44MYC    H42 5788   5.092   1.594   9.055 -1.0862 -1.2567  1.5052
   44MYC    H43 5789   5.251   1.603   9.118 -1.0983  2.7151  0.4356
   44MYC    C25 5790   5.192   1.395   9.067 -0.4373  0.1338  0.5503
   44MYC    H44 5791   5.211   1.331   9.154  2.5104  1.1497  0.7361
   44MYC    H45 5792   5.111   1.359   9.003 -0.3280  1.3904 -0.3360
   44MYC    C26 5793   5.323   1.392   8.992 -0.0488  0.1548 -0.5765
   44MYC    H46 5794   5.407   1.401   9.063 -0.3641 -1.9213  0.1274
   44MYC    H47 5795   5.322   1.288   8.958 -2.2736 -0.6842  1.6970
   44MYC    C27 5796   5.329   1.485   8.871  0.0133 -0.3940  0.1001
   44MYC    H48 5797   5.288   1.583   8.898 -0.1243  0.1062 -1.7669
   44MYC    H49 5798   5.436   1.490   8.846 -0.5253  0.1718 -2.4523
   44MYC    C28 5799   5.252   1.436   8.746  0.3309  0.6161 -0.1901
   44MYC    H50 5800   5.296   1.338   8.723  0.0649  0.5335 -0.3455
   44MYC    H51 5801   5.145   1.426   8.765  0.3727 -0.3836 -0.4390
   44MYC    C29 5802   5.258   1.513   8.616  0.2373 -0.4389 -0.5964
   44MYC    H52 5803   5.213   1.611   8.638 -0.9266 -0.0767 -3.9871
   44MYC    H53 5804   5.362   1.532   8.590  0.1504  0.4806 -0.3364
   44MYC    C30 5805   5.186   1.446   8.503 -0.6793  0.3579 -0.1531
   44MYC    H54 5806   5.233   1.348   8.489  1.3776  1.3104 -0.2455
   44MYC    H55 5807   5.078   1.430   8.514 -1.1734 -2.4847 -5.6430
   44MYC    C31 5808   5.213   1.516   8.366  0.3608  0.0210 -0.3371
   44MYC    H56 5809   5.156   1.610   8.372 -0.2679 -0.4416  1.5913
   44MYC    H57 5810   5.316   1.548   8.348 -0.4531  2.6642 -0.7623
   44MYC    C32 5811   5.149   1.445   8.244 -0.5648 -0.0636  0.1802
   44MYC    H58 5812   5.181   1.341   8.232 -1.0986 -0.2183  0.0697
   44MYC    H59 5813   5.041   1.447   8.261 -0.2157  2.6752  3.0233
   44MYC    C33 5814   5.188   1.525   8.115  0.5655  0.4423  0.6233
   44MYC    H60 5815   5.163   1.631   8.126 -0.8392  0.0286  1.6456
   44MYC    H61 5816   5.296   1.519   8.092  0.1542 -1.2475 -1.0873
   44MYC    C34 5817   5.115   1.457   7.993 -0.1584  0.3727  0.0011
   44MYC    H62 5818   5.159   1.356   7.992 -2.8228 -0.9824  2.3086
   44MYC    H63 5819   5.011   1.448   8.029  0.1590  1.5720  1.2915
   44MYC    C35 5820   5.126   1.526   7.857  0.4259  0.2503 -0.0600
   44MYC    H64 5821   5.103   1.633   7.866  1.2006  0.6169 -1.9186
   44MYC    H65 5822   5.232   1.548   7.839  1.0717 -0.4502  2.5223
   44MYC    C36 5823   5.042   1.459   7.742 -0.2167 -0.2833 -0.2708
   44MYC    H66 5824   5.072   1.355   7.727  0.7383 -0.1166  0.3585
   44MYC    H67 5825   4.934   1.446   7.755 -0.2749 -0.3251 -0.7768
   44MYC    C37 5826   5.055   1.538   7.605 -0.0103  0.0677 -0.3353
   44MYC    H68 5827   5.010   1.638   7.615 -0.5094 -0.2300  0.4516
   44MYC    H69 5828   5.162   1.560   7.598  0.3306 -0.4317  2.4741
   44MYC    C38 5829   5.010   1.457   7.482  0.0851 -0.0920  0.5095
   44MYC    H70 5830   5.069   1.365   7.482 -1.4185 -1.0908 -0.2040
   44MYC    H71 5831   4.908   1.423   7.502 -0.2833  0.5622 -0.1789
   44MYC    C39 5832   5.013   1.536   7.347  0.2687  0.2537  0.7226
   44MYC    H72 5833   4.967   1.636   7.351 -1.6125 -0.6110  1.7516
   44MYC    H73 5834   5.119   1.556   7.324  0.2138 -0.0408  0.2124
   44MYC    C40 5835   4.958   1.450   7.230  0.0504  0.1410  0.3916
   44MYC    H74 5836   5.032   1.379   7.191  2.2146  2.7646 -0.5827
   44MYC    H75 5837   4.862   1.407   7.257 -0.8239  2.1013  0.5936
   44MYC    C41 5838   4.921   1.532   7.100 -0.5900 -0.4996  0.1080
   44MYC    H76 5839   4.869   1.626   7.123  2.1881  1.2866 -0.4211
   44MYC    H77 5840   5.013   1.572   7.057 -0.7515  3.1031  2.6236
   44MYC    C42 5841   4.829   1.476   6.992 -0.0635  0.3034  0.5167
   44MYC    H78 5842   4.857   1.371   6.974 -2.5803 -0.0399 -2.0201
   44MYC    H79 5843   4.731   1.472   7.040  0.2764 -1.8321  1.1433
   44MYC    C43 5844   4.832   1.544   6.852 -0.3688  0.0810  0.6646
   44MYC    H80 5845   4.932   1.553   6.806 -1.0047  1.1659 -0.5591
   44MYC    H81 5846   4.780   1.640   6.845  0.0181  0.1826 -3.6649
   44MYC    H82 5847   4.773   1.476   6.789  1.0811  1.1671 -2.0560
   45MYC   HH15 5848   5.795   0.965   6.426  0.7216 -0.8828  1.7288
   45MYC    C80 5849   5.720   1.026   6.479  0.4796  0.1710  0.2455
   45MYC   H100 5850   5.689   1.079   6.388 -2.0848 -2.4037 -0.5359
   45MYC   H101 5851   5.646   0.957   6.521  1.1785  0.1675  1.5170
   45MYC    C79 5852   5.771   1.120   6.593  0.9098 -0.2469  0.0413
   45MYC   H102 5853   5.837   1.200   6.558 -1.6811  1.5733 -0.9925
   45MYC   H103 5854   5.834   1.056   6.655  2.6599 -0.9422 -2.2990
   45MYC    C78 5855   5.647   1.171   6.664  0.1292 -0.4417 -0.8806
   45MYC   HH14 5856   5.568   1.096   6.678 -0.8821  0.6269 -0.7516
   45MYC   H104 5857   5.603   1.249   6.602 -2.9641 -1.7858 -0.5483
   45MYC    C77 5858   5.684   1.238   6.798  0.2185  0.2085  0.0080
   45MYC   H106 5859   5.597   1.301   6.823 -0.8842 -1.5429  0.7579
   45MYC   H107 5860   5.768   1.303   6.772  0.1517  0.0756 -0.5536
   45MYC    C76 5861   5.729   1.149   6.915  0.2770 -0.3700  0.1005
   45MYC   H108 5862   5.797   1.070   6.881 -0.4936 -0.0639 -2.3779
   45MYC   H109 5863   5.637   1.094   6.935  0.8246 -1.4846 -0.3906
   45MYC    C75 5864   5.775   1.233   7.036  0.0168 -0.0142 -0.1843
   45MYC   H110 5865   5.704   1.317   7.040 -0.5602 -0.4649 -0.8266
   45MYC   H111 5866   5.873   1.280   7.022  0.3149  0.3942  2.6339
   45MYC    C74 5867   5.775   1.159   7.173  0.2023 -0.4094  0.8362
   45MYC   H112 5868   5.811   1.059   7.147  1.3066  0.2473 -0.2833
   45MYC   H113 5869   5.671   1.134   7.198 -0.6356  0.2450 -1.7183
   45MYC    C73 5870   5.858   1.223   7.283 -0.3591  0.4642 -0.5164
   45MYC   HH13 5871   5.813   1.320   7.308  1.8368  0.9640  2.0166
   45MYC   H114 5872   5.964   1.237   7.259 -0.6650 -0.4037 -2.5250
   45MYC    C72 5873   5.838   1.146   7.421 -0.3194 -0.2950  0.2746
   45MYC   H115 5874   5.866   1.042   7.405  1.3491  0.1950 -0.2108
   45MYC   H116 5875   5.733   1.133   7.448 -0.0375 -1.5705  0.8193
   45MYC    C71 5876   5.905   1.216   7.545  0.0078 -0.6744 -0.1747
   45MYC   H117 5877   5.860   1.316   7.549 -1.6772 -1.4167  0.0939
   45MYC   H118 5878   6.012   1.230   7.524 -0.3643  0.6747 -1.3392
   45MYC    C70 5879   5.889   1.137   7.668  0.2977 -0.2570  0.5559
   45MYC   H119 5880   5.925   1.034   7.657 -2.5461 -1.5251  2.0616
   45MYC   H120 5881   5.785   1.127   7.700  0.3292 -1.8711  0.2861
   45MYC    C69 5882   5.953   1.209   7.786 -0.0887  0.1908 -0.2681
   45MYC   H121 5883   5.903   1.305   7.804 -1.4545 -0.7421  1.0755
   45MYC   H122 5884   6.060   1.228   7.771 -0.0477 -0.3695 -0.6859
   45MYC    C68 5885   5.940   1.130   7.927 -0.0288 -0.0060 -0.6322
   45MYC   HH12 5886   5.977   1.027   7.917 -3.2358 -1.5743  1.7854
   45MYC   H123 5887   5.833   1.113   7.947  0.1351 -0.2147  0.0920
   45MYC    C67 5888   6.008   1.206   8.053 -0.0914  1.0999  0.6765
   45MYC   H124 5889   5.955   1.300   8.070  2.7384  3.3269 -1.7385
   45MYC   H125 5890   6.108   1.233   8.016  0.0744 -1.7325 -1.3166
   45MYC    C66 5891   6.009   1.115   8.184 -0.1438 -0.1429 -0.5067
   45MYC   H126 5892   6.060   1.020   8.168 -0.8367 -0.6068 -0.0192
   45MYC   H127 5893   5.911   1.084   8.221  1.0315  0.0638  3.1915
   45MYC    C65 5894   6.092   1.184   8.299 -0.2135 -0.2996  0.0482
   45MYC   H128 5895   6.028   1.270   8.323 -0.4062  0.2333 -2.1536
   45MYC   H129 5896   6.192   1.215   8.267 -0.8125  0.7756 -0.8630
   45MYC    C64 5897   6.108   1.091   8.434 -0.3950  0.2334  0.1357
   45MYC   H130 5898   6.180   1.010   8.418 -1.2519 -0.4795 -0.1989
   45MYC   H131 5899   6.005   1.057   8.448 -0.9033  0.2820 -2.7275
   45MYC    C63 5900   6.151   1.184   8.554  0.3869  0.4342  0.3443
   45MYC   HH11 5901   6.073   1.258   8.574  1.3074  2.0124 -1.6318
   45MYC   H132 5902   6.244   1.236   8.530  1.0432 -0.1749  1.5162
   45MYC    C62 5903   6.180   1.096   8.670 -0.2707  0.0661 -1.0258
   45MYC   H133 5904   6.251   1.014   8.650 -0.8843 -0.9495  0.7504
   45MYC   H134 5905   6.086   1.052   8.704 -0.3862  0.8053 -0.3715
   45MYC    C61 5906   6.228   1.184   8.789 -0.0139 -0.4277 -0.7618
   45MYC   H135 5907   6.157   1.264   8.813 -0.3812 -0.3302 -2.0864
   45MYC   H136 5908   6.325   1.231   8.767  0.2354 -0.8793 -0.6353
   45MYC    C60 5909   6.254   1.092   8.912 -0.1277 -0.2857 -0.0212
   45MYC   H137 5910   6.334   1.018   8.903  0.4660  0.3357  0.0381
   45MYC    C58 5911   6.235   1.146   9.049 -0.5436 -0.7415  0.2658
   45MYC   H138 5912   6.230   1.254   9.043  2.9748 -0.5383 -1.4804
   45MYC    C59 5913   6.133   1.049   8.991  0.0679 -0.6594 -0.2361
   45MYC   H139 5914   6.136   0.942   9.009  0.5515 -0.7323 -0.7414
   45MYC   H140 5915   6.039   1.090   8.954 -0.0832 -0.7767  0.0140
   45MYC    C57 5916   6.331   1.112   9.166  0.0164  0.1969 -0.2418
   45MYC   HH10 5917   6.413   1.185   9.168 -1.2124  1.6160  1.2898
   45MYC   H141 5918   6.375   1.016   9.137  0.5122  0.8764 -1.8848
   45MYC    C56 5919   6.250   1.109   9.297 -0.5833  0.4546 -0.2184
   45MYC   H142 5920   6.176   1.029   9.310  0.9623 -0.6561  3.0811
   45MYC   H143 5921   6.183   1.196   9.305 -1.8436 -0.5632  0.8229
   45MYC    C55 5922   6.335   1.109   9.422 -0.3355 -0.3107  0.6922
   45MYC   H144 5923   6.267   1.086   9.505 -1.7480 -1.6879 -0.7744
   45MYC   H145 5924   6.397   1.197   9.439  0.2397 -0.0425 -2.3434
   45MYC    C54 5925   6.443   0.995   9.423  0.0271 -1.0466 -0.2580
   45MYC   H146 5926   6.506   1.004   9.334  2.4606 -1.8147  1.2877
   45MYC   H147 5927   6.395   0.896   9.422 -1.6638 -0.3013  1.3020
   45MYC    C53 5928   6.531   0.999   9.550  0.3041  0.0737  0.0771
   45MYC   H148 5929   6.595   1.089   9.545  0.8183 -0.3276 -1.1620
   45MYC   H149 5930   6.600   0.914   9.548 -0.1137 -0.2673  0.2251
   45MYC    C52 5931   6.440   0.994   9.685 -0.3401  0.1354  0.0113
   45MYC    H99 5932   6.379   0.904   9.671  1.3394 -0.6538 -3.2791
   45MYC   H150 5933   6.392   1.091   9.702  1.9423  1.2588  0.4095
   45MYC    C51 5934   6.520   0.974   9.815 -0.2209 -0.7976 -0.1720
   45MYC    H97 5935   6.592   1.057   9.822 -0.0297 -0.9466 -0.3651
   45MYC    H98 5936   6.583   0.885   9.810 -0.5608 -1.0328 -0.2589
   45MYC    C50 5937   6.427   0.963   9.942  0.2475  0.3014 -1.3180
   45MYC    H95 5938   6.352   0.884   9.939  2.1775 -1.6068 -1.4801
   45MYC    H96 5939   6.361   1.050   9.933  1.2023  1.2272  0.1629
   45MYC    C49 5940   6.504   0.968  10.081  0.1253 -0.0018  0.6878
   45MYC    H93 5941   6.568   1.057  10.092  2.1785 -1.5126  1.7792
   45MYC    H94 5942   6.581   0.890  10.074 -2.2358 -2.3159 -1.6934
   45MYC    C48 5943   6.424   0.957  10.205 -0.1767  0.2615  0.7537
   45MYC    H91 5944   6.366   0.864  10.211  0.1265  0.0238  0.0163
   45MYC    H92 5945   6.343   1.031  10.205 -0.4778 -0.0543  0.2370
   45MYC    C47 5946   6.509   0.981  10.328 -0.1280  0.7832  0.0156
   45MYC    H89 5947   6.550   1.083  10.326  1.8520  0.0192 -0.7731
   45MYC    H90 5948   6.596   0.915  10.331  0.8394  2.0175  0.1200
   45MYC    C46 5949   6.432   0.955  10.462  0.2862 -0.5465 -0.0162
   45MYC    H87 5950   6.422   0.846  10.464  3.5175 -0.9427  0.2602
   45MYC    H88 5951   6.331   0.997  10.457 -0.0923 -1.4706 -0.5004
   45MYC    C45 5952   6.496   1.002  10.594 -0.7387 -0.5450  0.2603
   45MYC    H85 5953   6.499   1.111  10.582 -2.3708 -0.5710 -0.5675
   45MYC    H86 5954   6.602   0.972  10.595 -0.6463 -0.2186  0.8073
   45MYC    C44 5955   6.414   0.977  10.711 -0.5541  0.2115  0.6262
   45MYC    H83 5956   6.381   0.873  10.716  0.7149 -0.1779  1.2042
   45MYC    H84 5957   6.324   1.038  10.694  1.3917  3.7148  1.8918
   45MYC    C18 5958   6.475   1.012  10.842 -0.8952  0.4704  0.1231
   45MYC    H31 5959   6.522   1.110  10.850  0.6324 -0.0381 -1.8690
   45MYC    C17 5960   6.406   0.958  10.965  0.5001 -0.2597  0.0520
   45MYC    H30 5961   6.325   0.890  10.938 -1.0788  1.3289  0.6106
   45MYC    C19 5962   6.544   0.902  10.926  0.5025 -0.3830  0.4012
   45MYC    H32 5963   6.547   0.801  10.886  0.2147 -0.5205  0.7251
   45MYC    H33 5964   6.641   0.926  10.969  0.8800 -0.7959 -0.1975
   45MYC    C16 5965   6.383   1.044  11.088  0.5401  0.5437 -0.0133
   45MYC    H28 5966   6.481   1.064  11.131  1.1239  1.0626 -1.5060
   45MYC    H29 5967   6.321   0.997  11.165  1.5313 -3.1809 -1.2537
   45MYC    C15 5968   6.335   1.186  11.072  0.0238 -0.1018  0.8371
   45MYC    H26 5969   6.392   1.232  10.990 -2.7206 -0.7055 -1.5523
   45MYC    H27 5970   6.346   1.236  11.169 -0.7371  1.5952  0.0830
   45MYC    C14 5971   6.184   1.208  11.039  0.5220  0.2880  0.5020
   45MYC    H24 5972   6.171   1.317  11.041 -0.2626  0.1983  1.7564
   45MYC    H25 5973   6.122   1.160  11.115  0.4802  0.3516  0.5076
   45MYC    C13 5974   6.144   1.161  10.897  0.0494 -0.2944 -0.3947
   45MYC    H22 5975   6.157   1.053  10.879 -1.6767 -1.3790  3.6392
   45MYC    H23 5976   6.201   1.209  10.817  2.1430 -1.2381  0.4414
   45MYC    C12 5977   6.007   1.186  10.868  0.1208 -0.0793  0.6733
   45MYC    H20 5978   5.997   1.295  10.873 -0.5478 -0.1849  2.3953
   45MYC    H21 5979   5.933   1.150  10.941 -0.3859  1.7085  1.0790
   45MYC    C11 5980   5.954   1.140  10.722 -0.1674  0.3483  0.0109
   45MYC    H18 5981   5.861   1.197  10.712 -0.9180 -0.7301  0.6141
   45MYC    H19 5982   5.930   1.033  10.729  0.5187  0.2231  0.6219
   45MYC    C10 5983   6.043   1.163  10.594 -0.0531  0.0487 -0.1411
   45MYC    H16 5984   6.145   1.124  10.605  1.5205  3.9380  0.5370
   45MYC    H17 5985   6.058   1.271  10.580  0.1730  0.2895  1.7116
   45MYC     C9 5986   5.982   1.103  10.467  0.0522 -0.0421 -0.6742
   45MYC    H14 5987   6.054   1.124  10.387  0.7964 -1.2149 -0.3420
   45MYC    H15 5988   5.895   1.168  10.455  1.0453  1.8165  1.4759
   45MYC     C8 5989   5.938   0.962  10.459 -0.2035  0.2818 -0.4953
   45MYC    H12 5990   5.860   0.949  10.535  0.5084  0.0291  0.1971
   45MYC    H13 5991   6.025   0.903  10.489  0.9945  1.2977 -1.8702
   45MYC     C7 5992   5.894   0.916  10.318 -0.1972 -0.3324 -0.7349
   45MYC    H10 5993   5.858   0.812  10.321  1.6285 -0.9928 -0.2629
   45MYC    H11 5994   5.993   0.906  10.273  1.8981 -1.5330  3.6226
   45MYC     C6 5995   5.795   0.998  10.232  0.0961 -0.3879  1.2283
   45MYC     H8 5996   5.823   1.103  10.215 -1.6840  0.0141  0.5733
   45MYC     H9 5997   5.708   1.000  10.299  0.0233  1.4620  1.1469
   45MYC     C5 5998   5.779   0.937  10.092 -0.1280 -0.0645  0.0610
   45MYC     H6 5999   5.738   0.836  10.100  1.6160 -0.7503  1.1185
   45MYC     H7 6000   5.880   0.928  10.048  0.2641  0.7039  0.7771
   45MYC     C4 6001   5.688   1.018   9.995  0.8189  0.5554  0.0828
   45MYC     H4 6002   5.692   1.124  10.023 -0.1358  1.0668 -1.5680
   45MYC     H5 6003   5.585   0.981   9.991  0.7876  0.6880 -2.4374
   45MYC     C2 6004   5.743   1.024   9.853  0.0338 -0.0753  0.2926
   45MYC     H2 6005   5.845   1.062   9.869 -0.1308 -0.3249  2.2058
   45MYC     O3 6006   5.743   0.890   9.810 -0.1276 -0.4358  0.0760
   45MYC     H3 6007   5.670   0.844   9.853 -1.2355  1.0365 -0.1605
   45MYC     C1 6008   5.666   1.111   9.749  0.1247 -0.1363 -0.4918
   45MYC     H1 6009   5.685   1.212   9.785 -0.1454 -0.9577  2.1850
   45MYC    C81 6010   5.513   1.086   9.753 -0.0995  0.1722  0.0378
   45MYC    O82 6011   5.457   0.987   9.708  0.1266  0.0052  0.0969
   45MYC    O83 6012   5.446   1.205   9.768  0.2757 -0.3130  0.2312
   45MYC   H105 6013   5.354   1.182   9.789  0.6814  0.0841  2.8368
   45MYC    C20 6014   5.726   1.103   9.613 -0.0809 -0.1468  0.1331
   45MYC    H34 6015   5.834   1.119   9.627 -0.0485 -0.6802  0.5496
   45MYC    H35 6016   5.729   0.999   9.579  0.4542 -0.0621 -0.0993
   45MYC    C21 6017   5.672   1.201   9.509  0.0345  0.0713 -0.5450
   45MYC    H36 6018   5.565   1.181   9.496 -0.4114  1.1758  1.0760
   45MYC    H37 6019   5.681   1.304   9.546  2.1444 -0.4780  0.6521
   45MYC    C22 6020   5.756   1.183   9.387  0.6605 -0.4311 -0.5820
   45MYC    H38 6021   5.862   1.206   9.407  0.1969  0.0837  1.5072
   45MYC    H39 6022   5.757   1.078   9.357  2.3232 -1.3226  2.1634
   45MYC    C23 6023   5.709   1.275   9.276 -0.0415 -0.0422 -0.1675
   45MYC    H40 6024   5.600   1.262   9.278 -0.0064 -0.4509 -0.5326
   45MYC    H41 6025   5.736   1.377   9.307 -0.5916  0.3987 -1.0697
   45MYC    C24 6026   5.775   1.242   9.141 -0.2964 -0.2618  0.5305
   45MYC    H42 6027   5.876   1.285   9.137 -0.1910 -0.5207 -2.4270
   45MYC    H43 6028   5.801   1.136   9.130  0.4863  0.0250 -0.5735
   45MYC    C25 6029   5.697   1.295   9.019 -0.3954  0.7646  0.2556
   45MYC    H44 6030   5.595   1.256   9.031  0.5947 -1.6444  1.5177
   45MYC    H45 6031   5.682   1.403   9.031 -1.3571  0.6061  0.5985
   45MYC    C26 6032   5.759   1.249   8.888  0.2527 -0.3061  0.2213
   45MYC    H46 6033   5.860   1.288   8.871 -0.0065  0.1839 -0.2242
   45MYC    H47 6034   5.785   1.142   8.893  1.8143 -0.0166 -0.9432
   45MYC    C27 6035   5.661   1.286   8.775 -0.2781  0.2548 -0.4594
   45MYC    H48 6036   5.561   1.241   8.788  0.3492 -0.9982  0.3611
   45MYC    H49 6037   5.641   1.393   8.787 -1.3327 -0.1512  2.2867
   45MYC    C28 6038   5.704   1.251   8.631  0.1714 -0.3209  0.0449
   45MYC    H50 6039   5.810   1.269   8.608  0.1365  0.4036  0.4284
   45MYC    H51 6040   5.686   1.144   8.614 -1.6891  0.0242 -0.3685
   45MYC    C29 6041   5.629   1.329   8.518 -0.0512  0.3779 -0.0152
   45MYC    H52 6042   5.521   1.324   8.535 -0.0816 -3.2568 -0.4196
   45MYC    H53 6043   5.656   1.435   8.515 -1.7168  0.8839  1.3849
   45MYC    C30 6044   5.673   1.276   8.377 -0.2844  0.1081 -0.2524
   45MYC    H54 6045   5.774   1.303   8.342 -0.7335 -1.7025 -3.3809
   45MYC    H55 6046   5.670   1.166   8.382  2.2387  0.0382  3.0096
   45MYC    C31 6047   5.592   1.345   8.269 -0.0525  0.3283 -0.0714
   45MYC    H56 6048   5.485   1.332   8.292  0.0547  0.6715  0.6675
   45MYC    H57 6049   5.607   1.454   8.260 -2.0894  0.5083 -2.3029
   45MYC    C32 6050   5.624   1.300   8.125 -0.1293 -0.1843  0.0496
   45MYC    H58 6051   5.717   1.347   8.091 -0.7540  2.9479  2.2080
   45MYC    H59 6052   5.626   1.191   8.113 -2.7697 -0.3368  0.5358
   45MYC    C33 6053   5.522   1.344   8.014  0.1197 -0.2020 -0.2685
   45MYC    H60 6054   5.425   1.296   8.035  0.3655 -0.5469  0.0997
   45MYC    H61 6055   5.498   1.451   8.015 -0.5596 -0.2614 -2.6548
   45MYC    C34 6056   5.562   1.306   7.865 -0.2281 -0.3327 -0.4066
   45MYC    H62 6057   5.646   1.374   7.846  0.0827 -0.0128  1.8168
   45MYC    H63 6058   5.605   1.207   7.849  0.2127  0.0073 -1.4107
   45MYC    C35 6059   5.462   1.323   7.756  0.1918 -0.6730 -0.6886
   45MYC    H64 6060   5.392   1.240   7.773  0.7111 -1.4077 -2.0610
   45MYC    H65 6061   5.417   1.422   7.764  1.2684 -0.2800  1.0129
   45MYC    C36 6062   5.520   1.325   7.613  0.8634  0.1108  0.3021
   45MYC    H66 6063   5.596   1.403   7.605  1.3800 -0.6111 -4.2528
   45MYC    H67 6064   5.560   1.226   7.587  0.0551  0.1245 -1.1107
   45MYC    C37 6065   5.409   1.349   7.503 -0.3471 -0.6237 -0.1446
   45MYC    H68 6066   5.324   1.283   7.522 -1.0954  0.5745  0.7922
   45MYC    H69 6067   5.366   1.450   7.508 -1.4526 -1.0247 -1.1069
   45MYC    C38 6068   5.452   1.327   7.361 -0.1628  0.6165 -0.6636
   45MYC    H70 6069   5.547   1.378   7.342 -0.3392  1.5755  0.8198
   45MYC    H71 6070   5.464   1.219   7.350 -0.6526  0.6222 -1.3629
   45MYC    C39 6071   5.353   1.373   7.251 -0.5745 -0.2899 -0.0096
   45MYC    H72 6072   5.255   1.325   7.262 -0.1750 -1.0137  0.5465
   45MYC    H73 6073   5.355   1.481   7.268 -0.5254 -0.2216 -0.4379
   45MYC    C40 6074   5.389   1.347   7.105 -0.3777 -0.1253  0.4496
   45MYC    H74 6075   5.490   1.384   7.086 -0.7468  0.3241 -0.7627
   45MYC    H75 6076   5.400   1.239   7.096  0.5601 -0.0231  0.2340
   45MYC    C41 6077   5.283   1.401   7.002  0.3052 -0.1686 -0.2309
   45MYC    H76 6078   5.193   1.346   7.033  0.6121 -0.7725 -0.4018
   45MYC    H77 6079   5.259   1.507   7.019  0.0732 -0.0794 -1.0626
   45MYC    C42 6080   5.302   1.380   6.847  0.4195  0.3859  0.3599
   45MYC    H78 6081   5.388   1.435   6.807 -0.4843  2.5939  1.2710
   45MYC    H79 6082   5.332   1.276   6.831  0.4746  0.5995 -1.0088
   45MYC    C43 6083   5.180   1.398   6.759 -0.3568 -0.3816 -0.3755
   45MYC    H80 6084   5.135   1.498   6.773 -0.7959 -0.8090  1.5410
   45MYC    H81 6085   5.110   1.321   6.793  1.1319 -2.2652 -1.4342
   45MYC    H82 6086   5.207   1.382   6.654 -1.0205  1.3175 -0.8534
   46MYC   HH15 6087   6.281   2.257   6.070  0.9330 -0.6359  0.3298
   46MYC    C80 6088   6.178   2.262   6.106  0.6293 -0.2356 -0.5813
   46MYC   H100 6089   6.120   2.314   6.028 -2.2228 -1.7963  0.3692
   46MYC   H101 6090   6.135   2.162   6.112  1.0713 -0.5396 -1.9440
   46MYC    C79 6091   6.164   2.342   6.241  0.0819  0.6927 -0.3380
   46MYC   H102 6092   6.061   2.338   6.278  0.2825 -1.0696  0.1386
   46MYC   H103 6093   6.183   2.447   6.218  3.5121  0.2735  0.1036
   46MYC    C78 6094   6.256   2.295   6.355  0.0921  0.0711  1.1368
   46MYC   HH14 6095   6.357   2.337   6.341 -0.2407  0.0230 -2.0284
   46MYC   H104 6096   6.262   2.186   6.369 -0.1799  0.0552  1.1226
   46MYC    C77 6097   6.217   2.354   6.486  0.6256  0.0880  1.0056
   46MYC   H106 6098   6.108   2.342   6.495  0.6253 -0.9654 -0.1030
   46MYC   H107 6099   6.224   2.462   6.467  2.2399 -0.2937 -0.9268
   46MYC    C76 6100   6.303   2.303   6.608 -0.1636  0.2826  0.2446
   46MYC   H108 6101   6.401   2.351   6.605 -0.0831  0.0758 -0.6818
   46MYC   H109 6102   6.318   2.194   6.608 -1.7523 -0.0227  2.7661
   46MYC    C75 6103   6.242   2.331   6.745  0.6326  0.1542 -0.3538
   46MYC   H110 6104   6.139   2.295   6.749 -0.4910  3.0557 -0.6975
   46MYC   H111 6105   6.238   2.441   6.750 -0.9228  0.1278 -0.7453
   46MYC    C74 6106   6.329   2.288   6.862 -0.0634 -0.6098 -0.5445
   46MYC   H112 6107   6.427   2.338   6.857 -0.6898  0.9174  1.2441
   46MYC   H113 6108   6.356   2.182   6.864  0.6309 -0.4612  2.2964
   46MYC    C73 6109   6.267   2.323   6.996  0.2979  0.3290 -0.1324
   46MYC   HH13 6110   6.178   2.262   7.013  0.9221 -1.4315 -2.5435
   46MYC   H114 6111   6.232   2.427   7.002 -0.2968  0.1745 -0.7787
   46MYC    C72 6112   6.360   2.304   7.114  0.0372 -0.2636  0.6016
   46MYC   H115 6113   6.456   2.357   7.104 -0.4118  0.5151  0.3567
   46MYC   H116 6114   6.399   2.202   7.109 -0.1200 -0.2844 -0.3360
   46MYC    C71 6115   6.296   2.325   7.253  0.6843  0.7985 -0.6834
   46MYC   H117 6116   6.211   2.258   7.273  0.7626  1.9846  5.9779
   46MYC   H118 6117   6.248   2.424   7.255  0.3434  0.7480 -3.4385
   46MYC    C70 6118   6.402   2.300   7.362  0.3568  0.4539 -0.0334
   46MYC   H119 6119   6.483   2.372   7.346  0.7812  0.2757  1.1742
   46MYC   H120 6120   6.452   2.205   7.342  1.0120  0.9875 -0.9880
   46MYC    C69 6121   6.342   2.318   7.501  0.1447 -0.1471  0.3415
   46MYC   H121 6122   6.255   2.252   7.497 -0.4179  0.5913 -3.3845
   46MYC   H122 6123   6.300   2.418   7.517  1.0923  0.6233 -1.6317
   46MYC    C68 6124   6.428   2.279   7.618 -0.2315  0.2381  0.1033
   46MYC   HH12 6125   6.520   2.338   7.614  0.5749 -0.9100  1.0231
   46MYC   H123 6126   6.452   2.173   7.604  0.1278  0.5341 -1.8044
   46MYC    C67 6127   6.370   2.305   7.755 -0.1489  0.2716  0.4571
   46MYC   H124 6128   6.266   2.277   7.776 -0.1269  0.9587  1.5436
   46MYC   H125 6129   6.369   2.414   7.753  3.9162  0.4541  0.4206
   46MYC    C66 6130   6.457   2.253   7.870 -0.1226 -0.1812  0.1036
   46MYC   H126 6131   6.552   2.304   7.850 -0.3974  0.6441  0.8566
   46MYC   H127 6132   6.469   2.144   7.870  3.9669  0.1270 -0.8070
   46MYC    C65 6133   6.403   2.289   8.013  0.2818 -0.0110 -0.0652
   46MYC   H128 6134   6.323   2.218   8.037 -0.4617  0.8575  0.1084
   46MYC   H129 6135   6.363   2.391   8.007 -0.6504 -0.4249 -1.2345
   46MYC    C64 6136   6.514   2.295   8.123 -0.9520 -0.2508  0.0452
   46MYC   H130 6137   6.567   2.391   8.111  0.0187 -0.7520  0.2696
   46MYC   H131 6138   6.583   2.214   8.101  1.3784  1.6853 -0.1529
   46MYC    C63 6139   6.458   2.287   8.264 -0.0963 -0.2690  0.3978
   46MYC   HH11 6140   6.437   2.181   8.285  1.6412 -0.6810  0.1681
   46MYC   H132 6141   6.365   2.342   8.283  0.9557  0.6810  3.4738
   46MYC    C62 6142   6.550   2.337   8.384 -0.4741 -0.2840 -0.4964
   46MYC   H133 6143   6.534   2.445   8.398 -1.4327 -0.5752  0.9477
   46MYC   H134 6144   6.655   2.331   8.353 -0.1524  0.1314  0.4634
   46MYC    C61 6145   6.532   2.262   8.509 -0.0876  0.1034  0.0124
   46MYC   H135 6146   6.573   2.161   8.496  1.5638  0.9763 -2.1946
   46MYC   H136 6147   6.425   2.266   8.531 -0.1132  2.4377 -0.2801
   46MYC    C60 6148   6.602   2.331   8.623 -0.7312 -0.1845  0.8054
   46MYC   H137 6149   6.570   2.435   8.629 -1.1209 -0.2516  0.0173
   46MYC    C58 6150   6.636   2.258   8.746 -0.2370 -0.4554 -0.5259
   46MYC   H138 6151   6.633   2.149   8.753 -1.4553 -0.3782  0.7165
   46MYC    C59 6152   6.747   2.297   8.652  0.5685  0.1675  0.1408
   46MYC   H139 6153   6.807   2.382   8.681 -0.9014  0.9510  1.0600
   46MYC   H140 6154   6.787   2.212   8.597 -0.9004 -0.1928 -0.4323
   46MYC    C57 6155   6.595   2.323   8.880 -0.5354 -0.3147  0.1530
   46MYC   HH10 6156   6.497   2.278   8.899  0.1965 -3.3127 -2.3018
   46MYC   H141 6157   6.578   2.429   8.856  0.5968  0.5192  2.6772
   46MYC    C56 6158   6.706   2.301   8.987  0.3818  0.4699 -0.1404
   46MYC   H142 6159   6.803   2.345   8.962  0.0606 -0.5909 -3.8124
   46MYC   H143 6160   6.721   2.193   8.992  0.0700  0.4604  0.8434
   46MYC    C55 6161   6.652   2.338   9.130  0.0725 -0.0907 -0.4984
   46MYC   H144 6162   6.557   2.292   9.160  0.6048 -1.7961 -1.2927
   46MYC   H145 6163   6.613   2.440   9.144  0.6437 -0.1083  1.4035
   46MYC    C54 6164   6.766   2.318   9.234  0.2121  0.0701 -0.2282
   46MYC   H146 6165   6.839   2.399   9.219 -0.4299  0.8711  0.8024
   46MYC   H147 6166   6.815   2.221   9.221 -1.0697 -1.1113  2.8411
   46MYC    C53 6167   6.698   2.319   9.376  0.2151 -0.4066 -0.1862
   46MYC   H148 6168   6.649   2.228   9.411  1.4818 -1.1588 -0.3137
   46MYC   H149 6169   6.616   2.392   9.383  0.3576 -0.3029  0.4469
   46MYC    C52 6170   6.800   2.357   9.484 -0.4983  0.2485  0.0415
   46MYC    H99 6171   6.860   2.443   9.454  0.8933 -0.6277  0.2289
   46MYC   H150 6172   6.866   2.271   9.497  0.3453  0.8926  0.0361
   46MYC    C51 6173   6.734   2.406   9.618 -0.4299 -0.0165  0.1439
   46MYC    H97 6174   6.661   2.332   9.654 -1.9081  1.6403  0.6742
   46MYC    H98 6175   6.680   2.500   9.602  0.1034 -0.0474 -2.2535
   46MYC    C50 6176   6.834   2.404   9.735  0.2968  0.5154 -0.4856
   46MYC    H95 6177   6.923   2.454   9.693 -1.4498  0.9827 -3.9827
   46MYC    H96 6178   6.870   2.301   9.750 -1.4966 -0.6001 -3.2074
   46MYC    C49 6179   6.784   2.449   9.873 -0.2208 -0.5854 -0.1712
   46MYC    H93 6180   6.693   2.395   9.899  0.5376 -1.3017  1.1207
   46MYC    H94 6181   6.770   2.557   9.876  0.7035 -0.4745  1.4590
   46MYC    C48 6182   6.896   2.418   9.980  0.6120 -1.0095 -0.2406
   46MYC    H91 6183   6.987   2.472   9.953  1.1499 -1.2004  1.1533
   46MYC    H92 6184   6.921   2.311   9.983  0.6874 -0.9756  2.3791
   46MYC    C47 6185   6.870   2.461  10.122  0.1265 -0.0572 -0.9962
   46MYC    H89 6186   6.950   2.424  10.188 -1.1951 -2.3172 -0.5324
   46MYC    H90 6187   6.780   2.414  10.165  1.7349 -0.8834  1.7788
   46MYC    C46 6188   6.853   2.615  10.143 -0.0157  0.0584 -0.0703
   46MYC    H87 6189   6.754   2.645  10.107 -0.2232 -1.5297 -0.9181
   46MYC    H88 6190   6.919   2.671  10.075 -0.1352  0.1389 -0.1200
   46MYC    C45 6191   6.868   2.667  10.286  0.4581 -0.0026 -0.4673
   46MYC    H85 6192   6.863   2.777  10.280  2.8133  0.1292 -1.1294
   46MYC    H86 6193   6.966   2.633  10.321 -0.8972 -0.8545  2.7663
   46MYC    C44 6194   6.762   2.601  10.376 -0.7615 -0.2319  0.3277
   46MYC    H83 6195   6.779   2.493  10.385  2.4555  0.1865  0.6799
   46MYC    H84 6196   6.672   2.633  10.322  0.9319  0.0328 -2.5222
   46MYC    C18 6197   6.765   2.639  10.520  0.1265  0.5915  0.2561
   46MYC    H31 6198   6.678   2.624  10.583 -0.6102  0.0088 -0.8796
   46MYC    C17 6199   6.893   2.643  10.597  0.5397  0.4279  0.3713
   46MYC    H30 6200   6.987   2.638  10.543  0.4934  1.2000  0.2121
   46MYC    C19 6201   6.819   2.774  10.560 -0.0820  0.7612  0.0044
   46MYC    H32 6202   6.871   2.831  10.483  1.2957 -1.4348 -0.7598
   46MYC    H33 6203   6.791   2.832  10.648  0.1941 -0.2562  0.7888
   46MYC    C16 6204   6.909   2.595  10.738  0.4649 -0.1734  0.1631
   46MYC    H28 6205   6.847   2.654  10.806  0.5501  2.4334 -1.8461
   46MYC    H29 6206   7.011   2.623  10.764  0.5709 -0.9812  0.6315
   46MYC    C15 6207   6.885   2.446  10.752  0.7550  0.1145  0.5195
   46MYC    H26 6208   6.977   2.388  10.735  0.1099 -0.5945 -0.6526
   46MYC    H27 6209   6.822   2.418  10.667  0.1753  0.2495  0.8983
   46MYC    C14 6210   6.815   2.404  10.887  0.7443  0.3239 -0.1766
   46MYC    H24 6211   6.717   2.453  10.898  0.4534 -0.2797 -0.0448
   46MYC    H25 6212   6.879   2.444  10.966  0.6166 -0.3309  0.2634
   46MYC    C13 6213   6.795   2.253  10.897 -0.7344  0.1660 -0.3111
   46MYC    H22 6214   6.760   2.227  10.997  0.6484  1.2078  0.4656
   46MYC    H23 6215   6.897   2.214  10.909 -0.6285  0.9455  1.6074
   46MYC    C12 6216   6.725   2.178  10.776 -0.2753 -0.4311 -0.5952
   46MYC    H20 6217   6.733   2.071  10.796 -0.1958 -0.4176 -0.5511
   46MYC    H21 6218   6.782   2.198  10.685  2.5060  4.3419  1.7577
   46MYC    C11 6219   6.578   2.225  10.753  0.1152 -0.1233  0.6949
   46MYC    H18 6220   6.582   2.333  10.736  1.0916 -0.2164  0.2665
   46MYC    H19 6221   6.538   2.205  10.853  2.0284  2.5458  2.1345
   46MYC    C10 6222   6.498   2.155  10.644  0.9311 -0.7357 -0.5174
   46MYC    H16 6223   6.398   2.201  10.644  2.0503  1.9731  0.9392
   46MYC    H17 6224   6.471   2.055  10.679  1.2580 -0.3247  0.9807
   46MYC     C9 6225   6.560   2.153  10.501 -0.3692  0.4979 -0.1382
   46MYC    H14 6226   6.654   2.097  10.512 -1.1026 -0.5012  1.4320
   46MYC    H15 6227   6.582   2.258  10.482  1.1379  0.6511  2.0235
   46MYC     C8 6228   6.474   2.105  10.383 -0.1908 -0.5382 -0.0062
   46MYC    H12 6229   6.380   2.160  10.389  0.6453  0.8466  1.0658
   46MYC    H13 6230   6.444   2.000  10.394  0.2910 -0.8546 -1.4611
   46MYC     C7 6231   6.548   2.113  10.248 -0.1759 -0.7968  0.2940
   46MYC    H10 6232   6.641   2.057  10.247 -0.1796 -0.8229  0.8702
   46MYC    H11 6233   6.582   2.214  10.223 -0.5268 -0.8054 -0.2201
   46MYC     C6 6234   6.456   2.062  10.131  0.1642  0.1321  0.2572
   46MYC     H8 6235   6.374   2.132  10.117  0.6492  0.4745 -0.9838
   46MYC     H9 6236   6.424   1.960  10.154  0.6308 -0.2398 -0.6988
   46MYC     C5 6237   6.525   2.040  10.001  0.6898 -0.3903 -0.3823
   46MYC     H6 6238   6.599   1.960  10.011  1.0529 -0.4469 -2.8531
   46MYC     H7 6239   6.575   2.132   9.971 -0.5574  1.2554  2.2420
   46MYC     C4 6240   6.429   2.002   9.885 -0.0054 -0.1246  0.0928
   46MYC     H4 6241   6.355   2.083   9.885 -1.3636 -1.2940  1.4158
   46MYC     H5 6242   6.377   1.906   9.900 -0.3397 -0.2770 -1.8557
   46MYC     C2 6243   6.499   1.985   9.743 -0.3420 -0.1991 -0.3764
   46MYC     H2 6244   6.550   2.080   9.725 -1.4047  0.1506 -1.6650
   46MYC     O3 6245   6.604   1.884   9.754 -0.1860 -0.9481 -0.0702
   46MYC     H3 6246   6.574   1.796   9.781  3.2061 -2.2255  0.1024
   46MYC     C1 6247   6.403   1.968   9.619 -0.4347 -0.2548 -0.4104
   46MYC     H1 6248   6.354   2.066   9.614  2.6693  1.3547 -1.7898
   46MYC    C81 6249   6.290   1.856   9.646  0.3765  0.1155  0.1149
   46MYC    O82 6250   6.318   1.756   9.706 -0.4123 -0.5952 -0.2297
   46MYC    O83 6251   6.160   1.895   9.627 -0.4866  0.3908  0.4329
   46MYC   H105 6252   6.108   1.821   9.664  1.2189 -0.9447  0.2960
   46MYC    C20 6253   6.472   1.956   9.479 -0.2887 -0.3465  0.3404
   46MYC    H34 6254   6.545   2.034   9.455 -0.4638 -0.3345 -0.1718
   46MYC    H35 6255   6.526   1.861   9.466 -1.7033 -0.9787 -1.3189
   46MYC    C21 6256   6.365   1.971   9.356 -0.5216 -0.3997 -0.4983
   46MYC    H36 6257   6.278   1.905   9.372 -0.0377 -0.8497  0.3749
   46MYC    H37 6258   6.331   2.075   9.351  2.3152  0.5993 -0.6108
   46MYC    C22 6259   6.428   1.932   9.224 -0.2046  0.6457 -0.6023
   46MYC    H38 6260   6.516   1.995   9.205 -0.6342  1.4062 -0.1291
   46MYC    H39 6261   6.467   1.830   9.221  1.3413  1.2392 -2.3550
   46MYC    C23 6262   6.319   1.936   9.113  0.0044  0.0596  0.1736
   46MYC    H40 6263   6.247   1.858   9.135 -0.0611  0.1011  0.1060
   46MYC    H41 6264   6.254   2.024   9.118 -0.9499 -0.7082  2.9251
   46MYC    C24 6265   6.378   1.924   8.977 -0.6428 -0.3814 -0.8538
   46MYC    H42 6266   6.450   2.006   8.963  0.6508 -1.1971  0.6112
   46MYC    H43 6267   6.426   1.825   8.968 -0.0575 -0.0719 -1.2413
   46MYC    C25 6268   6.263   1.932   8.870 -0.1734 -0.5275  0.2116
   46MYC    H44 6269   6.183   1.863   8.901  0.1276 -0.0927  2.1213
   46MYC    H45 6270   6.218   2.032   8.866  2.2743  0.6093 -2.4567
   46MYC    C26 6271   6.304   1.886   8.731  0.2313 -0.3445  0.5948
   46MYC    H46 6272   6.398   1.937   8.707 -0.2857  0.9024  1.1023
   46MYC    H47 6273   6.325   1.779   8.733  1.0914 -0.2123 -0.5841
   46MYC    C27 6274   6.198   1.919   8.622  0.5615  0.4033 -0.1642
   46MYC    H48 6275   6.117   1.846   8.630  0.6324  0.4351  1.0725
   46MYC    H49 6276   6.154   2.018   8.643 -2.6188 -0.6210 -1.3877
   46MYC    C28 6277   6.256   1.928   8.475  0.0575  0.2518 -0.9026
   46MYC    H50 6278   6.333   2.006   8.477 -1.6573  1.9777 -0.1032
   46MYC    H51 6279   6.302   1.831   8.454 -0.7106 -0.4785  0.6247
   46MYC    C29 6280   6.156   1.949   8.355  1.2027 -1.1650 -0.5883
   46MYC    H52 6281   6.068   1.887   8.373  0.8054 -0.7093 -0.9368
   46MYC    H53 6282   6.121   2.053   8.357 -0.5557 -1.6936 -1.7500
   46MYC    C30 6283   6.218   1.927   8.219  0.1808 -0.4544  0.0546
   46MYC    H54 6284   6.312   1.983   8.210 -0.6950  1.2154  0.8088
   46MYC    H55 6285   6.240   1.820   8.213 -0.9286 -0.6508 -1.0032
   46MYC    C31 6286   6.124   1.975   8.103  0.0516 -0.5862  0.1712
   46MYC    H56 6287   6.024   1.930   8.115 -0.7745  1.1267 -0.0144
   46MYC    H57 6288   6.100   2.082   8.108 -1.8404 -0.9117 -0.8752
   46MYC    C32 6289   6.180   1.948   7.959  0.0126  0.3054 -0.5578
   46MYC    H58 6290   6.277   1.997   7.949  0.7758 -0.9124  0.5016
   46MYC    H59 6291   6.211   1.844   7.945  0.8917  0.8608 -3.1593
   46MYC    C33 6292   6.084   1.974   7.846 -0.5325 -0.3346  0.3027
   46MYC    H60 6293   5.987   1.929   7.872  0.0256 -1.4638  0.4745
   46MYC    H61 6294   6.062   2.082   7.839  2.7034  0.3424 -0.8519
   46MYC    C34 6295   6.142   1.952   7.705 -0.1067 -0.5829  0.4545
   46MYC    H62 6296   6.234   2.008   7.686  0.2412 -0.9917  0.9333
   46MYC    H63 6297   6.160   1.845   7.693 -1.3631 -0.7585 -0.0577
   46MYC    C35 6298   6.050   1.989   7.589  0.3331  0.3494  0.4824
   46MYC    H64 6299   5.966   1.919   7.593  0.8900 -0.3842 -0.2752
   46MYC    H65 6300   6.001   2.087   7.594 -1.7330 -0.6674  1.1617
   46MYC    C36 6301   6.119   1.970   7.452  0.1971  0.2506 -0.2195
   46MYC    H66 6302   6.201   2.041   7.435  0.2513 -0.0562 -1.2759
   46MYC    H67 6303   6.165   1.871   7.446 -0.1940 -0.0453  1.2286
   46MYC    C37 6304   6.018   1.982   7.345  0.2923 -0.6174 -0.0660
   46MYC    H68 6305   5.935   1.912   7.361 -2.1122  1.6074 -1.9270
   46MYC    H69 6306   5.983   2.085   7.353  1.4583 -0.1724 -0.5565
   46MYC    C38 6307   6.085   1.966   7.207  0.3220  0.2228 -0.6990
   46MYC    H70 6308   6.182   2.016   7.198 -0.1035  0.9947 -1.1839
   46MYC    H71 6309   6.113   1.861   7.195  1.0218  0.2271  0.8116
   46MYC    C39 6310   5.994   2.002   7.086 -0.3517 -0.3896  0.4657
   46MYC    H72 6311   5.906   1.938   7.096  0.5453 -2.0056 -1.2447
   46MYC    H73 6312   5.960   2.106   7.094 -0.0259 -0.0294 -1.9372
   46MYC    C40 6313   6.054   1.984   6.945  0.0838  0.0565  0.5403
   46MYC    H74 6314   6.129   2.062   6.928  0.8332 -0.9094 -0.7409
   46MYC    H75 6315   6.103   1.886   6.943 -0.8550 -0.4201 -0.7080
   46MYC    C41 6316   5.947   1.991   6.827 -0.2423 -0.1854 -0.0603
   46MYC    H76 6317   5.861   1.926   6.845 -1.4861  1.4769  0.2684
   46MYC    H77 6318   5.908   2.094   6.822 -0.8808 -0.3905  0.5667
   46MYC    C42 6319   6.006   1.961   6.690 -0.2531  0.4408  0.0485
   46MYC    H78 6320   6.111   1.991   6.698  0.4105 -1.0969 -2.0029
   46MYC    H79 6321   6.011   1.853   6.670  0.7129  0.6751 -1.0149
   46MYC    C43 6322   5.944   2.027   6.572  0.5098 -0.6823 -0.7086
   46MYC    H80 6323   5.934   2.134   6.592 -0.4200 -0.9297  0.2562
   46MYC    H81 6324   5.849   1.974   6.561 -0.0468  0.5240 -2.0092
   46MYC    H82 6325   6.018   2.011   6.493  1.3877  0.2895 -0.1138
   47MYC   HH15 6326   0.069   2.091   6.504  0.5900 -0.5325 -1.2407
   47MYC    C80 6327   0.156   2.124   6.562 -0.2518 -0.2906 -0.0621
   47MYC   H100 6328   0.246   2.097   6.505 -0.8636 -0.2211 -1.0998
   47MYC   H101 6329   0.145   2.232   6.572 -2.9368 -0.5666  0.7130
   47MYC    C79 6330   0.161   2.066   6.703  0.9601  0.1268  0.2984
   47MYC   H102 6331   0.182   1.959   6.700 -0.8764 -0.2365 -1.5543
   47MYC   H103 6332   0.064   2.071   6.755  1.1859 -0.4081  0.7868
   47MYC    C78 6333   0.257   2.137   6.792  0.7386 -0.3150 -0.7349
   47MYC   HH14 6334   0.221   2.240   6.803  0.6332 -0.5247  1.4329
   47MYC   H104 6335   0.359   2.132   6.752  0.8580  0.4040 -0.5315
   47MYC    C77 6336   0.262   2.067   6.927 -0.7475  0.1269  0.0173
   47MYC   H106 6337   0.327   1.979   6.935 -3.0720 -1.6079  0.7269
   47MYC   H107 6338   0.164   2.026   6.954 -0.5193 -0.1117  0.4947
   47MYC    C76 6339   0.302   2.166   7.042  0.1366  0.3404  0.3276
   47MYC   H108 6340   0.251   2.263   7.043  2.6128  1.7850 -1.4875
   47MYC   H109 6341   0.408   2.186   7.023 -0.1356  0.3990 -1.2971
   47MYC    C75 6342   0.277   2.105   7.183  0.2433 -0.1721  0.8364
   47MYC   H110 6343   0.333   2.012   7.195  1.3454  0.3371 -0.1423
   47MYC   H111 6344   0.168   2.094   7.185 -0.0690  2.1715  0.5588
   47MYC    C74 6345   0.321   2.194   7.303 -0.4012  0.0795 -0.8333
   47MYC   H112 6346   0.258   2.284   7.303  1.5265  1.5094  0.3908
   47MYC   H113 6347   0.422   2.229   7.277 -0.0753 -0.1504  0.0863
   47MYC    C73 6348   0.327   2.118   7.443  1.3757  0.2198  0.0267
   47MYC   HH13 6349   0.381   2.024   7.429  2.3847  0.8194 -0.2173
   47MYC   H114 6350   0.223   2.098   7.471  1.7897  0.0055  1.4882
   47MYC    C72 6351   0.399   2.202   7.538 -0.3244  0.0354  0.0172
   47MYC   H115 6352   0.336   2.290   7.555 -1.7416 -0.6577 -1.4749
   47MYC   H116 6353   0.491   2.243   7.494 -1.9595  1.6504 -2.1149
   47MYC    C71 6354   0.427   2.140   7.679  0.1732  0.9009  0.2549
   47MYC   H117 6355   0.507   2.066   7.668  0.1176  0.9870 -0.8376
   47MYC   H118 6356   0.331   2.088   7.694 -1.4113  3.5835  0.1434
   47MYC    C70 6357   0.443   2.238   7.791  0.0403  1.2592  0.1663
   47MYC   H119 6358   0.379   2.326   7.784 -2.0300 -0.2905 -1.9383
   47MYC   H120 6359   0.547   2.270   7.781  0.0809  1.2411  0.5283
   47MYC    C69 6360   0.421   2.155   7.924 -0.5071  0.0756  0.1186
   47MYC   H121 6361   0.472   2.058   7.916 -0.9118 -0.6416  4.1783
   47MYC   H122 6362   0.315   2.141   7.949 -0.2368  1.4493  2.3047
   47MYC    C68 6363   0.489   2.226   8.046 -0.2440 -0.5615  0.2002
   47MYC   HH12 6364   0.449   2.326   8.066  0.8807 -0.3161  1.3314
   47MYC   H123 6365   0.594   2.238   8.016 -0.1163  1.5020  1.2859
   47MYC    C67 6366   0.491   2.141   8.174 -0.5065  0.2945 -0.2273
   47MYC   H124 6367   0.511   2.034   8.162  1.1012  0.1905  2.5569
   47MYC   H125 6368   0.388   2.145   8.211 -0.7336 -1.0269 -0.6692
   47MYC    C66 6369   0.589   2.194   8.281  0.0906  0.2381 -0.0948
   47MYC   H126 6370   0.584   2.302   8.292  0.1176  0.1672  0.6493
   47MYC   H127 6371   0.690   2.175   8.243 -0.4477 -1.7889 -0.6981
   47MYC    C65 6372   0.571   2.125   8.416  1.1968  0.4695 -0.8091
   47MYC   H128 6373   0.599   2.020   8.402 -2.6127 -1.0365  1.2417
   47MYC   H129 6374   0.462   2.114   8.418  1.1205  0.7593 -2.4070
   47MYC    C64 6375   0.627   2.202   8.534  0.1130 -0.3722 -0.4543
   47MYC   H130 6376   0.558   2.281   8.565  0.0406 -1.1173  1.4672
   47MYC   H131 6377   0.725   2.243   8.506  0.5093 -1.5582 -0.8428
   47MYC    C63 6378   0.649   2.118   8.661  0.0503 -0.0029 -0.1159
   47MYC   HH11 6379   0.743   2.063   8.645 -0.6721 -0.8796 -1.5768
   47MYC   H132 6380   0.570   2.043   8.674  0.4861 -0.0750  2.7877
   47MYC    C62 6381   0.665   2.216   8.786 -0.1417  0.5287  0.3174
   47MYC   H133 6382   0.575   2.278   8.796  0.9687  2.3865 -0.6868
   47MYC   H134 6383   0.749   2.282   8.760 -1.1254  1.5410 -0.3996
   47MYC    C61 6384   0.685   2.141   8.914 -0.5135  0.6275  0.0601
   47MYC   H135 6385   0.780   2.086   8.911 -1.1293 -0.5109  0.8274
   47MYC   H136 6386   0.612   2.062   8.936 -0.6015  0.1023 -1.9081
   47MYC    C60 6387   0.674   2.240   9.034 -0.1359  0.0119 -0.3641
   47MYC   H137 6388   0.576   2.281   9.055 -0.3807 -0.5442 -0.4154
   47MYC    C58 6389   0.756   2.221   9.159 -0.3627  0.4014  0.3982
   47MYC   H138 6390   0.834   2.145   9.161  1.0799  1.7310 -1.1116
   47MYC    C59 6391   0.790   2.340   9.067 -0.0056 -0.2401 -0.5350
   47MYC   H139 6392   0.760   2.435   9.112  0.6482 -1.3871  2.5570
   47MYC   H140 6393   0.889   2.337   9.022  0.7285 -1.0635  1.0255
   47MYC    C57 6394   0.698   2.244   9.296  0.0752 -0.2418  0.1614
   47MYC   HH10 6395   0.649   2.150   9.324 -0.6325  0.2501  0.6176
   47MYC   H141 6396   0.616   2.315   9.284 -0.9564 -1.6091 -1.3101
   47MYC    C56 6397   0.798   2.298   9.405  0.4249  0.0851 -0.2727
   47MYC   H142 6398   0.831   2.402   9.392  0.2704  0.9709  4.7519
   47MYC   H143 6399   0.893   2.244   9.401  0.1772 -0.7636  2.8406
   47MYC    C55 6400   0.740   2.278   9.549 -0.1528 -0.1781 -0.2316
   47MYC   H144 6401   0.714   2.174   9.569 -1.2376  0.0595 -0.3442
   47MYC   H145 6402   0.652   2.342   9.567 -0.3707 -0.4420 -0.3577
   47MYC    C54 6403   0.842   2.316   9.657  0.4665 -0.0062 -0.1602
   47MYC   H146 6404   0.887   2.414   9.639  1.9116 -0.4917  0.6378
   47MYC   H147 6405   0.918   2.240   9.638  0.4434 -0.1974  0.4877
   47MYC    C53 6406   0.790   2.296   9.798  0.4236  0.1804 -0.4217
   47MYC   H148 6407   0.744   2.198   9.815 -2.4958  1.3581 -0.9231
   47MYC   H149 6408   0.712   2.371   9.818  0.6620  0.4500 -0.5088
   47MYC    C52 6409   0.897   2.325   9.896 -0.3712  0.4953  0.4858
   47MYC    H99 6410   0.932   2.428   9.886  1.0998 -0.0175  0.0876
   47MYC   H150 6411   0.991   2.272   9.877 -0.3592  0.2714  1.1400
   47MYC    C51 6412   0.851   2.290  10.038 -0.3539 -0.3034 -0.3726
   47MYC    H97 6413   0.838   2.182  10.037  2.3841 -0.7071 -0.7583
   47MYC    H98 6414   0.752   2.335  10.052 -0.0327  0.3679 -0.2145
   47MYC    C50 6415   0.950   2.339  10.152  0.0918 -0.5762  0.6938
   47MYC    H95 6416   0.983   2.441  10.129  0.8039 -1.4833 -2.9885
   47MYC    H96 6417   1.042   2.281  10.166 -0.4968 -1.2627  1.7922
   47MYC    C49 6418   0.879   2.342  10.292  0.0584  0.7614  0.5755
   47MYC    H93 6419   0.817   2.252  10.301 -0.2806  0.7443 -1.5183
   47MYC    H94 6420   0.818   2.433  10.293  0.4905  1.0626  2.3311
   47MYC    C48 6421   0.973   2.348  10.415 -0.3628 -0.5249 -0.1161
   47MYC    H91 6422   1.032   2.439  10.401  0.2598 -1.0830 -1.3090
   47MYC    H92 6423   1.030   2.254  10.408 -1.8191 -1.4424 -0.0619
   47MYC    C47 6424   0.890   2.325  10.544  1.1033 -0.4053 -0.1817
   47MYC    H89 6425   0.962   2.311  10.626 -0.0004  0.2444  0.9358
   47MYC    H90 6426   0.841   2.228  10.537 -1.9210  0.6521  3.1712
   47MYC    C46 6427   0.788   2.440  10.576  0.0532 -0.8814 -0.5296
   47MYC    H87 6428   0.736   2.425  10.671  0.3884  0.6095 -0.0868
   47MYC    H88 6429   0.710   2.447  10.499  1.2364  2.1223 -1.6037
   47MYC    C45 6430   0.844   2.586  10.586  0.3294  0.1400 -0.8319
   47MYC    H85 6431   0.759   2.654  10.598 -0.4191 -1.1800  2.1189
   47MYC    H86 6432   0.890   2.625  10.494  1.7255  2.6684  0.8436
   47MYC    C44 6433   0.952   2.612  10.693  0.2962 -0.3500 -0.2555
   47MYC    H83 6434   1.009   2.703  10.671  1.5159 -0.9067  0.4831
   47MYC    H84 6435   1.022   2.530  10.674  0.3368  0.0013 -1.8141
   47MYC    C18 6436   0.903   2.615  10.834  0.5393  0.3486 -0.0289
   47MYC    H31 6437   0.811   2.673  10.838 -1.1593 -2.2253  0.2566
   47MYC    C17 6438   0.939   2.515  10.938 -0.2659  0.3853 -0.1635
   47MYC    H30 6439   1.002   2.432  10.905 -1.8938 -1.0388  0.1970
   47MYC    C19 6440   1.006   2.647  10.938 -0.1920  0.1756  0.8740
   47MYC    H32 6441   1.106   2.663  10.900 -0.5059  0.9643  0.3557
   47MYC    H33 6442   0.978   2.714  11.018 -0.3000  1.6083 -0.3201
   47MYC    C16 6443   0.826   2.485  11.039 -0.4772 -0.7409  0.7013
   47MYC    H28 6444   0.724   2.508  11.007 -1.0006 -0.7192  2.3216
   47MYC    H29 6445   0.834   2.549  11.128 -0.8966  0.3459 -0.0212
   47MYC    C15 6446   0.824   2.343  11.085  0.1807  0.6337  0.1656
   47MYC    H26 6447   0.803   2.324  11.191 -1.1281 -0.9531 -0.3386
   47MYC    H27 6448   0.926   2.306  11.070 -0.4813 -0.7041 -1.4489
   47MYC    C14 6449   0.737   2.245  11.003 -0.3030 -0.0283  0.0743
   47MYC    H24 6450   0.740   2.258  10.894 -0.5561 -0.3017  0.0342
   47MYC    H25 6451   0.632   2.269  11.022 -0.4918 -1.3451  0.8291
   47MYC    C13 6452   0.760   2.093  11.034  0.0911 -0.6701  0.0471
   47MYC    H22 6453   0.667   2.048  10.997  0.0283 -0.0015 -0.6307
   47MYC    H23 6454   0.770   2.074  11.141  1.4663 -0.1528  0.0352
   47MYC    C12 6455   0.878   2.035  10.968  0.0915  0.3094 -0.2128
   47MYC    H20 6456   0.967   2.063  11.026 -0.5417 -0.9286  1.4386
   47MYC    H21 6457   0.890   2.082  10.870 -0.7451  0.5049 -0.2237
   47MYC    C11 6458   0.874   1.884  10.965  0.5057  0.4208  0.6830
   47MYC    H18 6459   0.770   1.848  10.955 -0.2655  3.1470 -2.9034
   47MYC    H19 6460   0.903   1.841  11.062 -1.3353 -3.7512 -0.3579
   47MYC    C10 6461   0.983   1.827  10.867  0.3221  0.6799  0.4134
   47MYC    H16 6462   0.996   1.722  10.898 -1.9657  0.2585  0.1674
   47MYC    H17 6463   1.075   1.885  10.859  0.1040  0.8344 -1.4861
   47MYC     C9 6464   0.944   1.826  10.723 -0.1407  0.3018  0.4313
   47MYC    H14 6465   0.928   1.932  10.701  1.4943  0.3734 -0.5925
   47MYC    H15 6466   0.856   1.763  10.703 -2.0047  2.9083  0.0021
   47MYC     C8 6467   1.055   1.784  10.621 -0.0121  0.2723  0.1157
   47MYC    H12 6468   1.112   1.702  10.665 -0.4644  0.0317  0.2466
   47MYC    H13 6469   1.127   1.867  10.616 -0.2941  0.4700 -2.7401
   47MYC     C7 6470   1.012   1.743  10.478  0.4943 -0.0717  0.3685
   47MYC    H10 6471   0.906   1.717  10.490  0.4785 -0.0572  0.2565
   47MYC    H11 6472   1.077   1.662  10.445  2.3433  1.1905  0.7536
   47MYC     C6 6473   1.011   1.853  10.376 -0.2463 -0.3534 -0.0494
   47MYC     H8 6474   0.990   1.802  10.281 -2.0620 -2.0302  1.1582
   47MYC     H9 6475   1.107   1.905  10.377 -0.6875  0.4865  0.5007
   47MYC     C5 6476   0.900   1.958  10.378 -0.2179 -0.3294  0.1061
   47MYC     H6 6477   0.910   2.014  10.285 -2.1572  1.5123  0.9280
   47MYC     H7 6478   0.908   2.013  10.472  0.0086 -0.7378  0.3328
   47MYC     C4 6479   0.748   1.912  10.383 -0.0899  0.0005  0.0574
   47MYC     H4 6480   0.698   2.007  10.401  0.6894  0.3929  0.1816
   47MYC     H5 6481   0.728   1.850  10.471 -0.7038  0.7957  0.4839
   47MYC     C2 6482   0.698   1.832  10.262  0.7295  0.7573 -0.2421
   47MYC     H2 6483   0.780   1.760  10.251 -0.9615 -1.4844  1.0755
   47MYC     O3 6484   0.588   1.746  10.298 -0.5564  0.3857 -0.0658
   47MYC     H3 6485   0.507   1.790  10.267 -0.9209  1.2823  1.9766
   47MYC     C1 6486   0.661   1.914  10.137 -0.2635 -0.2864  0.1809
   47MYC     H1 6487   0.746   1.977  10.111 -2.4913  2.7578 -0.2799
   47MYC    C81 6488   0.554   2.017  10.184 -0.3635 -0.3848 -0.8859
   47MYC    O82 6489   0.565   2.139  10.164 -0.0622  0.9280 -0.3147
   47MYC    O83 6490   0.442   1.964  10.230  0.2753  0.3815  0.2772
   47MYC   H105 6491   0.388   2.045  10.236  0.2579  0.4247 -0.3688
   47MYC    C20 6492   0.627   1.834  10.010  0.2010  0.2531 -0.6229
   47MYC    H34 6493   0.714   1.771   9.990  2.3635  3.3592 -1.6895
   47MYC    H35 6494   0.542   1.764  10.019 -0.0503  0.5557 -0.6161
   47MYC    C21 6495   0.594   1.919   9.882 -0.0725  0.1969  0.7305
   47MYC    H36 6496   0.512   1.992   9.891  0.5330  0.9413  0.2969
   47MYC    H37 6497   0.695   1.952   9.856 -0.2699  0.8585  0.7801
   47MYC    C22 6498   0.556   1.832   9.765  0.0829 -0.9191  0.7037
   47MYC    H38 6499   0.646   1.771   9.757  1.7560  1.2896  1.7297
   47MYC    H39 6500   0.478   1.761   9.795  0.6622 -1.4163  1.0607
   47MYC    C23 6501   0.496   1.912   9.645  0.6497  1.1040 -0.3587
   47MYC    H40 6502   0.406   1.967   9.675  0.4034  0.8935 -0.7106
   47MYC    H41 6503   0.571   1.987   9.614  0.5505  0.7454 -1.5026
   47MYC    C24 6504   0.454   1.837   9.524 -0.1698  0.7154  0.0625
   47MYC    H42 6505   0.523   1.753   9.517 -0.6701  0.2071  0.9974
   47MYC    H43 6506   0.353   1.796   9.539 -0.7284  1.3261 -1.7447
   47MYC    C25 6507   0.448   1.911   9.389  0.2708  0.0793 -0.0250
   47MYC    H44 6508   0.375   1.992   9.397  0.8184  0.9109 -2.7071
   47MYC    H45 6509   0.546   1.960   9.379  0.0361  0.1656 -2.3510
   47MYC    C26 6510   0.406   1.826   9.270  0.2703 -0.3844 -0.3417
   47MYC    H46 6511   0.479   1.744   9.263  2.6521  1.6003 -0.0993
   47MYC    H47 6512   0.311   1.779   9.298  0.2615 -0.6899 -0.8627
   47MYC    C27 6513   0.370   1.908   9.143  0.4731 -0.1448 -0.2192
   47MYC    H48 6514   0.306   1.996   9.160  0.8809  0.3226 -1.0549
   47MYC    H49 6515   0.460   1.959   9.108  0.8320 -0.4934  0.1976
   47MYC    C28 6516   0.312   1.822   9.032  0.2412 -0.6396  0.4300
   47MYC    H50 6517   0.351   1.719   9.026  3.0309  0.4216 -2.2236
   47MYC    H51 6518   0.209   1.813   9.069  0.2335 -0.0228  0.5576
   47MYC    C29 6519   0.320   1.888   8.890  0.2478 -0.3721 -0.2235
   47MYC    H52 6520   0.269   1.985   8.881 -1.3592 -1.3135 -2.0037
   47MYC    H53 6521   0.426   1.914   8.885  0.5128 -0.6850  2.4797
   47MYC    C30 6522   0.277   1.812   8.762  0.4728 -0.0698 -0.1483
   47MYC    H54 6523   0.328   1.715   8.768 -1.2356 -0.9696  0.8117
   47MYC    H55 6524   0.168   1.796   8.770  0.2626  1.3189 -0.1154
   47MYC    C31 6525   0.311   1.884   8.627  0.3267  0.0305  0.2963
   47MYC    H56 6526   0.278   1.988   8.630  0.4113  0.0720  3.6892
   47MYC    H57 6527   0.420   1.886   8.616  0.4353  0.1476  1.2646
   47MYC    C32 6528   0.253   1.831   8.497 -0.4511  0.2583 -0.0836
   47MYC    H58 6529   0.268   1.723   8.491 -1.7020  0.0884 -0.3634
   47MYC    H59 6530   0.144   1.841   8.499 -0.8554 -3.0303  0.3090
   47MYC    C33 6531   0.294   1.897   8.365 -0.2025  0.5091  0.0903
   47MYC    H60 6532   0.260   2.001   8.363  0.7906  0.8487  0.4608
   47MYC    H61 6533   0.401   1.890   8.345 -0.0872  1.8569  0.1898
   47MYC    C34 6534   0.224   1.828   8.250  0.2342 -0.0982 -0.1830
   47MYC    H62 6535   0.234   1.720   8.267  1.2305 -0.0908 -0.6890
   47MYC    H63 6536   0.117   1.854   8.251  0.2138 -0.1625 -0.5304
   47MYC    C35 6537   0.276   1.854   8.102  0.2934  0.4748 -0.3494
   47MYC    H64 6538   0.287   1.962   8.086 -0.2268  0.3230 -1.8043
   47MYC    H65 6539   0.367   1.803   8.068 -0.6451 -0.5469 -1.4032
   47MYC    C36 6540   0.181   1.794   7.992 -0.4931 -0.5772 -0.0583
   47MYC    H66 6541   0.166   1.686   8.006  2.8743 -1.0716  0.4486
   47MYC    H67 6542   0.085   1.846   8.005  0.7902  1.5748  1.4041
   47MYC    C37 6543   0.222   1.838   7.848 -0.2613  0.5702  0.4676
   47MYC    H68 6544   0.216   1.947   7.843  1.7840  0.6635 -0.9855
   47MYC    H69 6545   0.327   1.814   7.829 -0.0341 -0.3671  2.6378
   47MYC    C38 6546   0.130   1.771   7.744  0.2269 -0.3625 -0.2254
   47MYC    H70 6547   0.164   1.668   7.726 -0.3462 -0.3750 -1.3219
   47MYC    H71 6548   0.025   1.782   7.770  0.2247  2.9435 -1.1824
   47MYC    C39 6549   0.145   1.834   7.606  0.1949 -0.0546 -0.6023
   47MYC    H72 6550   0.131   1.942   7.611 -2.7591 -0.3357 -1.0622
   47MYC    H73 6551   0.248   1.819   7.571  0.4658  0.2217  0.0593
   47MYC    C40 6552   0.046   1.778   7.504 -0.5013 -0.6479  0.2891
   47MYC    H74 6553   0.067   1.671   7.501  1.7660 -0.2399 -1.5786
   47MYC    H75 6554  -0.061   1.793   7.523 -0.1746  0.1395  1.6905
   47MYC    C41 6555   0.065   1.847   7.365 -1.1665  0.9296 -0.1442
   47MYC    H76 6556   0.047   1.955   7.376 -0.2071  0.9917  1.1405
   47MYC    H77 6557   0.169   1.830   7.333 -0.9392 -0.3007  1.1548
   47MYC    C42 6558  -0.024   1.782   7.254  0.3848  0.0995 -0.5505
   47MYC    H78 6559   0.006   1.677   7.244 -0.7151 -0.1971 -0.8715
   47MYC    H79 6560  -0.129   1.790   7.283  0.2749 -0.6308 -0.7250
   47MYC    C43 6561  -0.019   1.841   7.113  0.4045  0.1017 -0.0021
   47MYC    H80 6562  -0.070   1.788   7.032  0.8767  2.3970 -1.9066
   47MYC    H81 6563   0.083   1.855   7.075 -0.7877  0.9077 -3.2460
   47MYC    H82 6564  -0.059   1.943   7.113  1.6775  0.6306 -0.5518
   48MYC   HH15 6565   0.961   2.098   7.070  0.4071  0.6498 -0.2947
   48MYC    C80 6566   0.862   2.064   7.101  0.5512 -0.1111 -0.6374
   48MYC   H100 6567   0.800   2.122   7.032  1.7490  0.6184 -1.1354
   48MYC   H101 6568   0.834   1.962   7.075  0.4386  0.0060 -0.9884
   48MYC    C79 6569   0.813   2.113   7.238  0.5966 -0.0671 -0.3440
   48MYC   H102 6570   0.709   2.078   7.241  0.2362  1.0360  0.4387
   48MYC   H103 6571   0.810   2.222   7.248 -1.5415 -0.1432  0.3856
   48MYC    C78 6572   0.886   2.054   7.354  0.6094  0.6260  0.1155
   48MYC   HH14 6573   0.988   2.094   7.357  0.6404  0.4902  1.7890
   48MYC   H104 6574   0.897   1.945   7.348  3.7344  0.9112 -2.0588
   48MYC    C77 6575   0.817   2.094   7.485 -0.7244 -0.5904  1.1207
   48MYC   H106 6576   0.717   2.051   7.497 -0.1533 -2.4266 -0.2144
   48MYC   H107 6577   0.821   2.203   7.487  3.1784 -0.4063 -2.3732
   48MYC    C76 6578   0.890   2.044   7.611  0.3630  0.2111  0.0941
   48MYC   H108 6579   0.986   2.096   7.607  0.2635  0.3875 -0.0364
   48MYC   H109 6580   0.902   1.936   7.597  2.4457  0.4828 -0.4957
   48MYC    C75 6581   0.814   2.086   7.736 -0.9182  0.0263  0.4546
   48MYC   H110 6582   0.712   2.044   7.736 -1.2887  0.8122 -1.5081
   48MYC   H111 6583   0.814   2.195   7.744 -0.8448 -0.0293  1.3453
   48MYC    C74 6584   0.896   2.029   7.855 -0.7591 -0.5317  0.0464
   48MYC   H112 6585   1.004   2.021   7.840 -0.8150 -2.0061  0.2311
   48MYC   H113 6586   0.868   1.925   7.877 -0.3478 -0.2440  2.2488
   48MYC    C73 6587   0.874   2.089   7.989  0.2234 -0.2043 -0.6528
   48MYC   HH13 6588   0.773   2.057   8.017 -0.5720  1.0711 -1.9140
   48MYC   H114 6589   0.883   2.198   7.981 -0.3593 -0.0025  0.9906
   48MYC    C72 6590   0.979   2.050   8.096  0.2073 -0.2875 -0.6322
   48MYC   H115 6591   1.078   2.089   8.068 -0.4832  0.8360 -1.5912
   48MYC   H116 6592   0.996   1.942   8.086  2.9178 -0.0886  0.7875
   48MYC    C71 6593   0.935   2.081   8.239 -0.4611 -0.3839 -0.4631
   48MYC   H117 6594   0.839   2.031   8.257 -0.1598 -0.3582  1.4724
   48MYC   H118 6595   0.917   2.188   8.255 -2.7943 -0.8174  0.0734
   48MYC    C70 6596   1.044   2.038   8.344 -0.1869 -0.3497  0.4500
   48MYC   H119 6597   1.137   2.087   8.313 -0.3338 -1.3144 -1.6921
   48MYC   H120 6598   1.052   1.928   8.349  0.5611 -0.3332 -0.1738
   48MYC    C69 6599   1.013   2.074   8.489  0.5243  0.5131 -0.2387
   48MYC   H121 6600   0.942   1.998   8.524  1.9412  0.3199  2.5228
   48MYC   H122 6601   0.958   2.168   8.488 -0.6212 -0.0610  1.7620
   48MYC    C68 6602   1.133   2.088   8.590  0.1207  0.1579  0.1395
   48MYC   HH12 6603   1.177   2.184   8.559  0.9810 -0.7414 -1.5594
   48MYC   H123 6604   1.204   2.006   8.577  2.8006  2.1558  1.1437
   48MYC    C67 6605   1.082   2.085   8.737  0.3522  0.8689  0.3158
   48MYC   H124 6606   1.032   1.988   8.749 -1.2625  1.7870  1.4258
   48MYC   H125 6607   1.003   2.157   8.759  0.2417  0.8194  0.0855
   48MYC    C66 6608   1.186   2.096   8.846  0.0108  0.3581 -0.3779
   48MYC   H126 6609   1.239   2.190   8.823 -2.5696  1.7363 -1.1608
   48MYC   H127 6610   1.243   2.003   8.835 -1.2868 -0.3547 -1.3747
   48MYC    C65 6611   1.129   2.096   8.988  0.7346 -0.0254 -0.2308
   48MYC   H128 6612   1.064   2.012   9.016 -0.5066  1.5286  1.8470
   48MYC   H129 6613   1.064   2.183   8.993  0.3757 -0.2977 -0.0765
   48MYC    C64 6614   1.234   2.111   9.099 -0.0990  0.1301 -0.6965
   48MYC   H130 6615   1.314   2.176   9.061 -1.6905  2.2542 -0.5323
   48MYC   H131 6616   1.298   2.023   9.114  0.4609  0.7289  0.5522
   48MYC    C63 6617   1.187   2.149   9.240  0.2634 -0.7476  0.2443
   48MYC   HH11 6618   1.112   2.075   9.273 -0.1432 -0.5472 -0.2217
   48MYC   H132 6619   1.150   2.252   9.243  2.4240  0.0619  1.9665
   48MYC    C62 6620   1.299   2.152   9.352  0.1645  1.0162  0.1689
   48MYC   H133 6621   1.370   2.234   9.335 -0.4748  1.2914 -1.3673
   48MYC   H134 6622   1.347   2.054   9.354 -1.7678  0.0303  0.5304
   48MYC    C61 6623   1.262   2.188   9.495 -0.4458  0.3170 -0.2165
   48MYC   H135 6624   1.181   2.121   9.527  0.3024  0.6838  2.7494
   48MYC   H136 6625   1.211   2.285   9.502 -0.2540  0.4680 -0.8353
   48MYC    C60 6626   1.377   2.176   9.598 -0.8201 -0.2540 -0.7572
   48MYC   H137 6627   1.473   2.219   9.573  0.4480 -0.6748  2.7558
   48MYC    C58 6628   1.336   2.213   9.741  0.4958 -0.2500  0.1356
   48MYC   H138 6629   1.231   2.220   9.768  0.5183 -0.4733  0.2829
   48MYC    C59 6630   1.371   2.071   9.710  0.3450 -0.0043 -0.3276
   48MYC   H139 6631   1.458   2.019   9.748 -1.0483 -1.5268  0.9150
   48MYC   H140 6632   1.293   1.998   9.691 -0.9944  1.5057 -0.8467
   48MYC    C57 6633   1.419   2.301   9.830 -0.4724 -0.3195  0.1502
   48MYC   HH10 6634   1.374   2.401   9.832 -1.4394 -0.7460  1.4644
   48MYC   H141 6635   1.516   2.306   9.780 -0.1444  0.6894  0.8634
   48MYC    C56 6636   1.443   2.246   9.974 -0.0397 -0.1980  0.6527
   48MYC   H142 6637   1.544   2.279  10.000 -0.7360  1.4077  1.4635
   48MYC   H143 6638   1.453   2.136   9.972  0.6422 -0.1563  1.3036
   48MYC    C55 6639   1.324   2.280  10.060  0.1965  0.0369 -0.1914
   48MYC   H144 6640   1.242   2.211  10.041  0.0824 -0.0865  0.7111
   48MYC   H145 6641   1.295   2.384  10.040  1.2393  0.1429 -1.2684
   48MYC    C54 6642   1.361   2.274  10.210 -0.1023  0.0262 -0.0667
   48MYC   H146 6643   1.275   2.298  10.273  0.5147 -1.0814  1.2452
   48MYC   H147 6644   1.431   2.351  10.243 -0.3807 -0.6515  2.2246
   48MYC    C53 6645   1.399   2.136  10.262  0.4880 -0.8636 -0.5010
   48MYC   H148 6646   1.485   2.097  10.205  1.0944  0.0056 -0.2086
   48MYC   H149 6647   1.312   2.071  10.251  1.0220 -2.1926  2.3108
   48MYC    C52 6648   1.450   2.138  10.412 -0.3310  0.3695  0.4205
   48MYC    H99 6649   1.533   2.209  10.426 -0.7391  0.5588  2.0663
   48MYC   H150 6650   1.482   2.035  10.429  1.1790  0.5931 -0.8133
   48MYC    C51 6651   1.348   2.178  10.513  0.4045 -0.5952 -0.1620
   48MYC    H97 6652   1.251   2.133  10.487  0.4263 -0.0503 -1.2627
   48MYC    H98 6653   1.324   2.283  10.495 -1.5045 -0.7082  1.3794
   48MYC    C50 6654   1.384   2.155  10.663 -0.1073  0.0794  0.0606
   48MYC    H95 6655   1.461   2.227  10.692  1.2803 -1.2453 -0.1783
   48MYC    H96 6656   1.432   2.057  10.670 -0.9694 -0.3046  0.8927
   48MYC    C49 6657   1.258   2.151  10.752  0.3084  0.1880  0.1422
   48MYC    H93 6658   1.177   2.086  10.716  2.1970 -2.3959  0.2744
   48MYC    H94 6659   1.218   2.253  10.751 -1.3385 -0.4042  1.8332
   48MYC    C48 6660   1.302   2.112  10.893  0.4148 -0.5918 -0.0618
   48MYC    H91 6661   1.367   2.024  10.893  0.6439 -0.4368 -0.8964
   48MYC    H92 6662   1.212   2.079  10.945  0.7040  0.1768  0.9527
   48MYC    C47 6663   1.372   2.233  10.963  0.6511 -0.7438 -0.9131
   48MYC    H89 6664   1.321   2.327  10.942  0.1597 -0.4223  1.4049
   48MYC    H90 6665   1.467   2.259  10.914  1.5227 -0.7153  0.7164
   48MYC    C46 6666   1.387   2.242  11.122 -0.3130  0.0223  1.0848
   48MYC    H87 6667   1.290   2.224  11.170 -1.4597 -0.6354 -1.2898
   48MYC    H88 6668   1.421   2.343  11.145  2.4005  0.3168 -3.1160
   48MYC    C45 6669   1.491   2.135  11.169  0.5014  0.3204  0.3745
   48MYC    H85 6670   1.582   2.159  11.111  0.0071  2.1138  0.2838
   48MYC    H86 6671   1.456   2.035  11.142 -1.1612  0.6424  1.2179
   48MYC    C44 6672   1.521   2.124  11.317 -0.4612  0.7918 -0.0315
   48MYC    H83 6673   1.423   2.113  11.366 -1.0310  0.2039 -1.2713
   48MYC    H84 6674   1.562   2.217  11.356 -0.9703  0.6273  0.9440
   48MYC    C18 6675   1.604   2.002  11.351  0.3819 -0.3897  0.1262
   48MYC    H31 6676   1.572   1.917  11.291  1.9032  1.0278 -2.8999
   48MYC    C17 6677   1.744   2.006  11.399 -0.0677  0.6590  0.2337
   48MYC    H30 6678   1.785   2.105  11.382  0.0611  0.6232  0.3399
   48MYC    C19 6679   1.641   1.987  11.497 -0.4465  0.1412 -0.1364
   48MYC    H32 6680   1.621   2.071  11.564 -0.2934 -0.8761  1.2266
   48MYC    H33 6681   1.632   1.888  11.540  1.3100 -1.1306 -2.4705
   48MYC    C16 6682   1.845   1.893  11.365 -0.3058  0.4816  0.7455
   48MYC    H28 6683   1.801   1.793  11.355  0.8245  0.0078  0.3127
   48MYC    H29 6684   1.918   1.892  11.446 -1.4470 -0.8762  1.8115
   48MYC    C15 6685   1.919   1.929  11.231  0.1203 -0.0059  0.6431
   48MYC    H26 6686   2.005   1.862  11.218  0.5901  0.4909  1.1439
   48MYC    H27 6687   1.963   2.027  11.251 -0.9907  0.8142 -0.7155
   48MYC    C14 6688   1.829   1.931  11.097 -0.3905 -0.3398  0.4240
   48MYC    H24 6689   1.734   1.985  11.111 -1.1629 -1.1923 -1.2096
   48MYC    H25 6690   1.807   1.828  11.068  1.9282 -0.6940 -0.2771
   48MYC    C13 6691   1.900   1.990  10.976  0.2173  0.0462  0.8095
   48MYC    H22 6692   1.988   1.927  10.958 -0.7372 -0.8003 -1.3278
   48MYC    H23 6693   1.927   2.093  10.999 -0.4847  0.3785  0.1853
   48MYC    C12 6694   1.807   1.991  10.853  0.0344 -0.0296  0.4781
   48MYC    H20 6695   1.706   2.027  10.875 -1.1115 -1.4908 -2.0431
   48MYC    H21 6696   1.805   1.885  10.825 -0.1635 -0.7235  2.8544
   48MYC    C11 6697   1.863   2.073  10.735  0.3841  0.4845  0.4225
   48MYC    H18 6698   1.957   2.022  10.710 -0.7719 -1.8680  0.5881
   48MYC    H19 6699   1.884   2.175  10.768 -2.3911  1.3720 -0.2301
   48MYC    C10 6700   1.770   2.067  10.611 -0.0974 -0.4052 -0.1866
   48MYC    H16 6701   1.676   2.108  10.649 -0.2220 -2.1869  1.6397
   48MYC    H17 6702   1.770   1.961  10.583  2.3181 -0.3397 -0.7016
   48MYC     C9 6703   1.830   2.145  10.503  0.0135 -0.0886  0.2980
   48MYC    H14 6704   1.770   2.122  10.414  1.5531 -0.2481 -0.7492
   48MYC    H15 6705   1.936   2.121  10.486 -0.0076 -0.3265  0.5051
   48MYC     C8 6706   1.822   2.302  10.510  0.8139 -0.2156 -0.1250
   48MYC    H12 6707   1.888   2.340  10.589 -1.8084  0.1404  2.0503
   48MYC    H13 6708   1.717   2.315  10.540  0.6128 -1.0986 -0.4256
   48MYC     C7 6709   1.851   2.385  10.385 -0.6183 -0.0523  0.5070
   48MYC    H10 6710   1.956   2.371  10.360 -0.7147  0.1871 -0.0496
   48MYC    H11 6711   1.852   2.491  10.415  0.9688  0.0583  0.1060
   48MYC     C6 6712   1.761   2.359  10.267 -0.3426 -0.7144  0.2591
   48MYC     H8 6713   1.661   2.394  10.295  0.2280  0.5545  0.8093
   48MYC     H9 6714   1.762   2.251  10.251  1.4564 -0.7610  0.5207
   48MYC     C5 6715   1.810   2.433  10.133  1.0890  0.1519 -0.4685
   48MYC     H6 6716   1.798   2.541  10.146  1.9033  0.2613 -0.5673
   48MYC     H7 6717   1.729   2.392  10.071  0.8054  1.0706 -0.7305
   48MYC     C4 6718   1.953   2.406  10.073  0.0298  0.5143 -0.5366
   48MYC     H4 6719   1.970   2.299  10.059  1.9259  0.8427 -0.9787
   48MYC     H5 6720   2.031   2.436  10.144  0.3220 -1.3600 -0.0183
   48MYC     C2 6721   1.969   2.464   9.935  0.0300 -0.0317 -0.3736
   48MYC     H2 6722   1.936   2.569   9.938  2.5340  0.8079  0.6702
   48MYC     O3 6723   2.106   2.464   9.900  0.3707 -0.3878 -0.3800
   48MYC     H3 6724   2.138   2.374   9.916  0.8028 -0.5343 -1.8741
   48MYC     C1 6725   1.894   2.369   9.830  1.0335 -0.0096 -0.1419
   48MYC     H1 6726   1.789   2.359   9.860  0.5212 -0.5758 -2.0360
   48MYC    C81 6727   1.952   2.226   9.826 -0.1134 -0.1040 -1.2449
   48MYC    O82 6728   2.068   2.198   9.800 -1.0312  0.3174 -0.0504
   48MYC    O83 6729   1.853   2.135   9.808  0.7780 -0.5032 -0.3686
   48MYC   H105 6730   1.896   2.054   9.775  2.4502  0.6241 -1.1378
   48MYC    C20 6731   1.890   2.428   9.687  0.0935  0.6140 -0.1901
   48MYC    H34 6732   1.869   2.535   9.689  1.3521  0.8900 -0.4659
   48MYC    H35 6733   1.990   2.418   9.642  1.1800  0.5207  2.0858
   48MYC    C21 6734   1.783   2.371   9.587 -0.7290  0.3401 -0.3160
   48MYC    H36 6735   1.783   2.262   9.577 -0.6089  0.3763 -0.7262
   48MYC    H37 6736   1.686   2.385   9.635 -0.5311 -0.9396  0.5133
   48MYC    C22 6737   1.794   2.444   9.454 -0.2311  0.3447  0.6257
   48MYC    H38 6738   1.761   2.545   9.482  2.3855  1.3826  0.2824
   48MYC    H39 6739   1.898   2.443   9.418  0.3083 -2.5365  1.9805
   48MYC    C23 6740   1.688   2.400   9.346 -0.0051 -0.2361 -0.5402
   48MYC    H40 6741   1.660   2.297   9.372  0.3617 -0.1155  0.3761
   48MYC    H41 6742   1.592   2.451   9.358  0.0322 -0.4046  0.6123
   48MYC    C24 6743   1.720   2.420   9.199 -0.2975  0.3358 -0.4000
   48MYC    H42 6744   1.759   2.521   9.183  2.0628 -0.2495  1.1699
   48MYC    H43 6745   1.788   2.339   9.169  0.7913  1.0193  0.1530
   48MYC    C25 6746   1.593   2.414   9.104  0.1128  1.3067  0.0611
   48MYC    H44 6747   1.528   2.327   9.113  0.2269  1.3347  1.4802
   48MYC    H45 6748   1.529   2.500   9.127  0.1538  0.8527  2.1127
   48MYC    C26 6749   1.623   2.436   8.959  0.2331  0.4361 -0.1661
   48MYC    H46 6750   1.687   2.521   8.934 -1.5540  0.9416 -3.5059
   48MYC    H47 6751   1.678   2.348   8.922  0.5896  1.3438 -1.8455
   48MYC    C27 6752   1.493   2.447   8.869 -0.1561  0.1818 -0.7211
   48MYC    H48 6753   1.403   2.402   8.912 -1.5751  1.4003 -2.2748
   48MYC    H49 6754   1.481   2.556   8.862 -1.5746  0.2592  1.7689
   48MYC    C28 6755   1.514   2.399   8.727  0.2849 -0.0125 -0.0819
   48MYC    H50 6756   1.602   2.445   8.680  1.0615 -1.0972  0.2750
   48MYC    H51 6757   1.538   2.292   8.732  0.8935 -0.0547 -2.6223
   48MYC    C29 6758   1.391   2.428   8.638  0.4306 -0.2364  0.0398
   48MYC    H52 6759   1.308   2.374   8.685  2.6177 -3.5781  0.3695
   48MYC    H53 6760   1.376   2.537   8.638 -0.5286 -0.3616  0.8139
   48MYC    C30 6761   1.406   2.400   8.491 -0.2200 -0.3223 -0.4960
   48MYC    H54 6762   1.501   2.444   8.459 -0.6483  1.5049  0.6086
   48MYC    H55 6763   1.443   2.297   8.478  1.0361 -0.0407  0.5938
   48MYC    C31 6764   1.291   2.452   8.397 -0.8324  0.4280 -0.0658
   48MYC    H56 6765   1.195   2.416   8.436 -0.2693  1.2384  2.2307
   48MYC    H57 6766   1.289   2.561   8.389  0.9136  0.4940  0.1156
   48MYC    C32 6767   1.308   2.392   8.252 -0.0825 -0.0151 -0.1098
   48MYC    H58 6768   1.407   2.425   8.219  0.2685 -1.1617 -0.2359
   48MYC    H59 6769   1.317   2.285   8.272  0.7762  0.1461  0.4228
   48MYC    C33 6770   1.201   2.425   8.145  0.0895 -0.0729  0.5445
   48MYC    H60 6771   1.109   2.376   8.181 -0.5064 -1.3256 -2.3063
   48MYC    H61 6772   1.185   2.533   8.144  2.6760  0.3827 -1.3899
   48MYC    C34 6773   1.244   2.372   8.001 -0.8797 -0.2809  0.6043
   48MYC    H62 6774   1.340   2.409   7.965 -1.0489  0.6795  1.1111
   48MYC    H63 6775   1.260   2.265   8.020  0.9341 -0.1923 -0.2505
   48MYC    C35 6776   1.143   2.404   7.884 -0.1926  0.3695 -0.2840
   48MYC    H64 6777   1.044   2.360   7.896 -0.9154  1.9204 -0.3309
   48MYC    H65 6778   1.124   2.512   7.883  0.6694  0.5420  0.1502
   48MYC    C36 6779   1.192   2.366   7.745 -0.0546  0.5076  0.4203
   48MYC    H66 6780   1.299   2.392   7.736  0.3589 -1.4208 -0.9722
   48MYC    H67 6781   1.192   2.258   7.727  1.9321  0.9308 -3.2495
   48MYC    C37 6782   1.096   2.423   7.634  0.4723  0.0751 -0.3611
   48MYC    H68 6783   0.990   2.399   7.640  0.7909 -1.2460  0.3290
   48MYC    H69 6784   1.094   2.532   7.645  1.1726  0.2447 -1.7129
   48MYC    C38 6785   1.137   2.380   7.492  0.0722  0.2052 -0.4660
   48MYC    H70 6786   1.246   2.390   7.487 -0.0528  1.2241 -1.9672
   48MYC    H71 6787   1.110   2.274   7.483  2.4310 -0.4989  0.1029
   48MYC    C39 6788   1.062   2.460   7.381  0.1758 -0.1769 -0.0022
   48MYC    H72 6789   0.967   2.408   7.366  2.1009 -4.1187  0.3295
   48MYC    H73 6790   1.037   2.561   7.417 -0.3026 -0.3708  0.2105
   48MYC    C40 6791   1.130   2.455   7.241  1.4817  0.2162  0.0862
   48MYC    H74 6792   1.235   2.486   7.235  1.5317 -0.1191 -0.9905
   48MYC    H75 6793   1.117   2.354   7.201 -2.1360  0.6003 -0.0901
   48MYC    C41 6794   1.043   2.553   7.148  0.2676  0.5493 -0.0919
   48MYC    H76 6795   0.936   2.533   7.162  0.3156  1.3424  1.7387
   48MYC    H77 6796   1.053   2.661   7.165  0.6750  0.6261 -0.7692
   48MYC    C42 6797   1.088   2.527   7.002  0.1672 -0.3184 -0.5605
   48MYC    H78 6798   1.073   2.418   6.994  0.0997 -0.2640 -1.1858
   48MYC    H79 6799   1.016   2.572   6.933 -1.4776  1.4239  2.0945
   48MYC    C43 6800   1.224   2.595   6.959 -0.5643 -0.5062  0.2035
   48MYC    H80 6801   1.234   2.571   6.853 -1.6831 -1.5632  0.3178
   48MYC    H81 6802   1.312   2.551   7.007  1.0403  0.5727 -1.6022
   48MYC    H82 6803   1.226   2.704   6.971  0.2346 -0.7599  3.1704
   49MYC   HH15 6804   1.643   2.696   7.829 -0.5749  1.3028 -2.6012
   49MYC    C80 6805   1.545   2.656   7.799 -0.7171 -0.5796  0.0143
   49MYC   H100 6806   1.540   2.635   7.692 -1.0435  1.6422 -0.4387
   49MYC   H101 6807   1.526   2.558   7.845  0.9464 -0.3473  1.3067
   49MYC    C79 6808   1.430   2.753   7.841 -1.7637 -0.2979  0.4391
   49MYC   H102 6809   1.346   2.684   7.859 -4.9135  3.3353  1.1643
   49MYC   H103 6810   1.406   2.818   7.756  3.4285  2.3074  0.5855
   49MYC    C78 6811   1.467   2.833   7.970 -0.1802  0.0620 -0.0860
   49MYC   HH14 6812   1.387   2.906   7.988 -1.3615 -1.3649  0.6395
   49MYC   H104 6813   1.561   2.886   7.951  0.6658  0.3305  4.0341
   49MYC    C77 6814   1.498   2.751   8.093  0.5969  0.5118 -0.6822
   49MYC   H106 6815   1.578   2.677   8.090 -1.2005 -1.6923  1.2994
   49MYC   H107 6816   1.411   2.693   8.127  3.7369 -2.7197  2.8482
   49MYC    C76 6817   1.537   2.833   8.219  0.6273 -0.0591  0.1841
   49MYC   H108 6818   1.449   2.882   8.262  0.9504  0.8579 -0.1748
   49MYC   H109 6819   1.615   2.906   8.195 -1.2190  1.5122 -1.4443
   49MYC    C75 6820   1.593   2.741   8.327  0.3091 -0.0079 -0.0450
   49MYC   H110 6821   1.671   2.673   8.291  1.0208 -0.5089  2.2691
   49MYC   H111 6822   1.518   2.676   8.373 -0.1424 -0.8900 -1.9159
   49MYC    C74 6823   1.645   2.823   8.440 -0.1466 -0.1069  0.1127
   49MYC   H112 6824   1.564   2.884   8.481  0.6322  0.6326  0.5916
   49MYC   H113 6825   1.714   2.901   8.404 -1.9214  2.7456  2.4255
   49MYC    C73 6826   1.703   2.750   8.564 -0.0139 -0.4996  0.1443
   49MYC   HH13 6827   1.797   2.703   8.533 -1.0200 -1.7155 -1.1437
   49MYC   H114 6828   1.633   2.669   8.585  1.1103 -1.5045  0.0864
   49MYC    C72 6829   1.723   2.841   8.696 -0.5354 -0.2796  0.1945
   49MYC   H115 6830   1.789   2.928   8.689 -0.7395 -0.0513  0.9527
   49MYC   H116 6831   1.773   2.775   8.769  0.9290  1.8108  1.1948
   49MYC    C71 6832   1.597   2.877   8.770  0.1093 -0.3772  1.0205
   49MYC   H117 6833   1.536   2.785   8.772 -1.1174  0.3057 -1.2936
   49MYC   H118 6834   1.522   2.936   8.716 -0.0518 -0.6775  0.9072
   49MYC    C70 6835   1.616   2.933   8.910  0.6161 -0.2857 -0.2149
   49MYC   H119 6836   1.526   2.990   8.937 -0.8858 -0.9141 -3.4226
   49MYC   H120 6837   1.695   3.008   8.906  0.0734  0.2944 -0.1555
   49MYC    C69 6838   1.647   2.833   9.018  0.3816 -0.3175 -0.0863
   49MYC   H121 6839   1.739   2.779   8.994  0.6769 -0.0689  0.4520
   49MYC   H122 6840   1.562   2.764   9.011 -0.6181  0.8442  0.1380
   49MYC    C68 6841   1.660   2.899   9.158 -0.2278  0.3224  0.4100
   49MYC   HH12 6842   1.564   2.940   9.191  0.6991  2.1835  0.9782
   49MYC   H123 6843   1.734   2.980   9.145 -1.4280  1.6600  1.5149
   49MYC    C67 6844   1.712   2.801   9.266  0.3031 -0.0007 -0.1115
   49MYC   H124 6845   1.799   2.749   9.224 -0.1278 -0.4741 -0.4268
   49MYC   H125 6846   1.633   2.729   9.289  0.9173 -0.9530 -0.8878
   49MYC    C66 6847   1.762   2.888   9.392 -0.1467 -0.6995  0.2888
   49MYC   H126 6848   1.684   2.961   9.419  0.0488  0.0395 -1.0459
   49MYC   H127 6849   1.838   2.962   9.366 -0.8347  0.7173  2.0252
   49MYC    C65 6850   1.788   2.818   9.523 -0.4001  0.5109 -0.8731
   49MYC   H128 6851   1.872   2.749   9.520  0.2494  1.2691 -0.5454
   49MYC   H129 6852   1.706   2.748   9.541  0.8081 -1.3990 -2.4120
   49MYC    C64 6853   1.814   2.919   9.643  0.1703  0.6866  0.1989
   49MYC   H130 6854   1.735   2.994   9.659 -0.4475  0.2133 -0.5734
   49MYC   H131 6855   1.905   2.978   9.626 -0.1449  1.7120  1.8478
   49MYC    C63 6856   1.821   2.821   9.770  0.2077  0.7070  0.0324
   49MYC   HH11 6857   1.930   2.809   9.781  0.1903  0.9847  0.5258
   49MYC   H132 6858   1.779   2.724   9.741  3.6272  0.0951 -3.9253
   49MYC    C62 6859   1.740   2.879   9.890 -0.3541 -0.6173  0.4668
   49MYC   H133 6860   1.645   2.927   9.863 -1.0959 -0.8697  2.4364
   49MYC   H134 6861   1.791   2.964   9.936 -2.5865  0.8022  0.4602
   49MYC    C61 6862   1.715   2.779  10.006 -0.0360 -0.0640  0.3734
   49MYC   H135 6863   1.809   2.750  10.055 -0.4983  0.8707  1.8461
   49MYC   H136 6864   1.661   2.694   9.961  0.8506 -0.2049 -0.4742
   49MYC    C60 6865   1.630   2.832  10.119  0.5991 -1.2883  0.3096
   49MYC   H137 6866   1.539   2.879  10.082  0.2662 -2.9543 -1.1559
   49MYC    C58 6867   1.646   2.786  10.264  0.2058 -0.3073  0.1866
   49MYC   H138 6868   1.719   2.709  10.285  3.4653  2.8716  1.8133
   49MYC    C59 6869   1.702   2.919  10.222  0.3347 -0.0565 -0.8568
   49MYC   H139 6870   1.656   3.011  10.257  1.4382 -0.2426  1.1980
   49MYC   H140 6871   1.807   2.934  10.199  0.3517  0.1345 -0.6545
   49MYC    C57 6872   1.535   2.771  10.366 -0.3308 -0.3527  0.4416
   49MYC   HH10 6873   1.459   2.849  10.350  0.2415 -0.0271 -0.8213
   49MYC   H141 6874   1.582   2.799  10.461  0.3411  0.4868 -0.1267
   49MYC    C56 6875   1.468   2.637  10.374  0.0192  0.3066  0.5494
   49MYC   H142 6876   1.542   2.560  10.397 -0.1257 -0.2184 -0.6392
   49MYC   H143 6877   1.426   2.608  10.277 -0.0517 -0.5598  0.8337
   49MYC    C55 6878   1.362   2.628  10.484 -0.6782  0.0222  0.3662
   49MYC   H144 6879   1.310   2.535  10.458  0.3748 -0.5232  0.1815
   49MYC   H145 6880   1.292   2.711  10.467 -2.5953 -1.1276  2.0666
   49MYC    C54 6881   1.407   2.631  10.625 -0.7164  1.0173 -0.5684
   49MYC   H146 6882   1.323   2.598  10.688 -0.4997 -1.1906 -1.3633
   49MYC   H147 6883   1.433   2.735  10.651 -0.9537  1.3300 -1.5428
   49MYC    C53 6884   1.540   2.561  10.666  0.6689  0.3139  0.8801
   49MYC   H148 6885   1.622   2.618  10.620 -0.6377  0.9169 -0.7965
   49MYC   H149 6886   1.545   2.457  10.633 -0.5245 -0.1905  2.1934
   49MYC    C52 6887   1.560   2.561  10.822 -0.4122  0.6091  0.7164
   49MYC    H99 6888   1.465   2.537  10.871 -1.2280 -0.1907 -1.1486
   49MYC   H150 6889   1.592   2.663  10.847  0.9000  1.2751 -3.0757
   49MYC    C51 6890   1.666   2.462  10.866  0.1444 -0.1660 -0.1649
   49MYC    H97 6891   1.746   2.470  10.791 -0.3808 -2.0084 -0.9654
   49MYC    H98 6892   1.638   2.358  10.848  1.9958 -0.7605  0.1635
   49MYC    C50 6893   1.717   2.486  11.008 -0.3624 -0.1574 -0.0443
   49MYC    H95 6894   1.652   2.437  11.082 -0.5832  0.7992  0.4095
   49MYC    H96 6895   1.718   2.591  11.037 -2.0223 -0.0458 -0.2455
   49MYC    C49 6896   1.855   2.415  11.031  1.3585 -0.3100  0.0924
   49MYC    H93 6897   1.929   2.467  10.968 -1.1281  1.7644 -1.3206
   49MYC    H94 6898   1.849   2.324  10.971 -0.5431  0.5575 -1.1430
   49MYC    C48 6899   1.896   2.399  11.179  0.0485  0.0009  0.7105
   49MYC    H91 6900   1.841   2.321  11.231  0.1990  0.1650  1.1156
   49MYC    H92 6901   1.881   2.493  11.233 -2.4793 -0.0044  0.1203
   49MYC    C47 6902   2.038   2.359  11.193  0.6271  0.3751 -0.1289
   49MYC    H89 6903   2.107   2.430  11.146  2.0031  0.8332  2.3761
   49MYC    H90 6904   2.045   2.260  11.147  2.3953  0.2398  0.3289
   49MYC    C46 6905   2.089   2.327  11.336 -1.2644  0.1299  0.1005
   49MYC    H87 6906   2.088   2.222  11.367 -0.1857 -0.1834 -0.8691
   49MYC    H88 6907   2.033   2.378  11.415 -1.5049  0.6425 -0.3881
   49MYC    C45 6908   2.234   2.379  11.345  0.2443  0.1570 -0.3689
   49MYC    H85 6909   2.274   2.364  11.446 -2.8499 -0.4009  0.8808
   49MYC    H86 6910   2.244   2.487  11.333 -1.2633  0.3484  0.0166
   49MYC    C44 6911   2.329   2.302  11.248  0.1878 -0.1094  0.3587
   49MYC    H83 6912   2.428   2.326  11.288  0.4360 -1.2232  0.4581
   49MYC    H84 6913   2.326   2.342  11.147 -0.9791 -0.6129  0.1767
   49MYC    C18 6914   2.314   2.150  11.241  0.6622 -0.4702 -0.7591
   49MYC    H31 6915   2.258   2.122  11.152  0.5863  1.9367 -1.5378
   49MYC    C17 6916   2.425   2.055  11.271 -0.6198  0.0787 -0.1092
   49MYC    H30 6917   2.525   2.093  11.288 -0.0477 -1.6482  0.6102
   49MYC    C19 6918   2.309   2.066  11.365  0.0815 -0.2265  0.2751
   49MYC    H32 6919   2.336   2.114  11.458  1.8657  0.8722 -0.7623
   49MYC    H33 6920   2.246   1.977  11.367 -1.3990  0.7234 -1.0267
   49MYC    C16 6921   2.439   1.920  11.194 -0.2555 -0.2399  0.4129
   49MYC    H28 6922   2.338   1.881  11.175 -0.4666  1.2233 -1.8167
   49MYC    H29 6923   2.500   1.841  11.241 -0.1482  0.8891  2.2728
   49MYC    C15 6924   2.515   1.937  11.061  0.5666  0.7749  0.0118
   49MYC    H26 6925   2.502   1.843  11.007  0.1733 -1.8232  4.1758
   49MYC    H27 6926   2.619   1.964  11.083  0.5823 -0.4389  1.5915
   49MYC    C14 6927   2.461   2.039  10.961  0.4295 -0.0384  0.6213
   49MYC    H24 6928   2.535   2.025  10.881  0.4404 -2.3004  0.9739
   49MYC    H25 6929   2.473   2.140  11.002  3.4202 -0.1581  0.2574
   49MYC    C13 6930   2.328   2.011  10.891  0.0124 -0.1087 -0.1920
   49MYC    H22 6931   2.244   1.996  10.961 -1.2922  1.0551 -1.4475
   49MYC    H23 6932   2.337   1.914  10.842  2.0649 -1.6228  2.8607
   49MYC    C12 6933   2.274   2.118  10.785  0.0009 -0.1297 -0.2277
   49MYC    H20 6934   2.190   2.072  10.732  2.6964 -1.6036 -3.6284
   49MYC    H21 6935   2.354   2.126  10.711 -1.5999  0.3155 -1.9939
   49MYC    C11 6936   2.235   2.252  10.844 -0.1165 -0.4653 -0.1961
   49MYC    H18 6937   2.319   2.291  10.903 -1.8369  0.7310  1.5960
   49MYC    H19 6938   2.158   2.238  10.921  0.0731  3.4423  0.9636
   49MYC    C10 6939   2.182   2.353  10.747 -0.6748  0.2047  0.7267
   49MYC    H16 6940   2.142   2.442  10.799  1.2151  1.5266  0.0135
   49MYC    H17 6941   2.100   2.308  10.691  1.0103  0.8223 -2.4497
   49MYC     C9 6942   2.298   2.407  10.654  0.0148 -0.0838  0.7177
   49MYC    H14 6943   2.382   2.433  10.720  0.2256  3.3500 -0.6914
   49MYC    H15 6944   2.268   2.503  10.612  1.5968 -0.5243 -1.5531
   49MYC     C8 6945   2.345   2.328  10.527  0.1898  0.0749 -0.2221
   49MYC    H12 6946   2.409   2.242  10.550  0.9997  0.6889 -0.1374
   49MYC    H13 6947   2.397   2.400  10.464  1.4331  0.2045  0.9149
   49MYC     C7 6948   2.230   2.286  10.438  0.3401 -0.3830 -0.6070
   49MYC    H10 6949   2.185   2.385  10.427 -0.0783 -0.3719  1.0009
   49MYC    H11 6950   2.162   2.225  10.499 -1.1807  1.4679 -0.3313
   49MYC     C6 6951   2.265   2.234  10.297 -0.3703  0.5240  0.0185
   49MYC     H8 6952   2.175   2.203  10.243  0.4056 -2.3669  0.2292
   49MYC     H9 6953   2.327   2.146  10.315 -3.2686 -1.5076  0.8771
   49MYC     C5 6954   2.336   2.330  10.207  0.0944  0.7152 -0.3162
   49MYC     H6 6955   2.441   2.345  10.236  0.7247 -1.0853 -1.5482
   49MYC     H7 6956   2.290   2.430  10.202  3.4280  2.3102 -2.8928
   49MYC     C4 6957   2.356   2.281  10.062  0.8179 -0.2227  0.2346
   49MYC     H4 6958   2.261   2.262  10.011 -0.3915  0.4239  2.1310
   49MYC     H5 6959   2.412   2.186  10.067 -0.1830 -1.0510 -2.4481
   49MYC     C2 6960   2.438   2.381   9.973 -0.2284  0.0575 -0.2809
   49MYC     H2 6961   2.393   2.477  10.001  0.6696  0.1066  1.1319
   49MYC     O3 6962   2.573   2.385  10.019 -0.1876  0.0502  0.7947
   49MYC     H3 6963   2.626   2.324   9.965  0.3563  0.0792  1.2935
   49MYC     C1 6964   2.427   2.352   9.819 -0.4218  0.0481  0.0245
   49MYC     H1 6965   2.320   2.336   9.802 -0.3050 -0.1119 -0.5971
   49MYC    C81 6966   2.506   2.224   9.782  0.2747 -0.2962 -0.1017
   49MYC    O82 6967   2.625   2.204   9.806 -0.3119 -0.0189  0.4794
   49MYC    O83 6968   2.428   2.118   9.740  0.3777  0.0512 -0.0107
   49MYC   H105 6969   2.489   2.042   9.743 -0.5434 -0.7363 -0.5766
   49MYC    C20 6970   2.486   2.470   9.732  0.6937  0.0195  0.8240
   49MYC    H34 6971   2.444   2.565   9.767 -0.3827  0.3687 -1.2624
   49MYC    H35 6972   2.594   2.480   9.743  0.5876  3.5913 -0.0299
   49MYC    C21 6973   2.453   2.460   9.580 -0.6269  0.2363 -0.1909
   49MYC    H36 6974   2.509   2.535   9.522  0.1678  0.3853  0.7546
   49MYC    H37 6975   2.490   2.363   9.546  1.4629 -0.3570  3.2874
   49MYC    C22 6976   2.307   2.488   9.555 -0.2145  0.1658 -0.5647
   49MYC    H38 6977   2.240   2.441   9.628 -0.6879  1.1738 -0.3271
   49MYC    H39 6978   2.292   2.590   9.593 -1.2304 -1.2242  3.2377
   49MYC    C23 6979   2.251   2.454   9.416  0.0495  0.0173  0.3883
   49MYC    H40 6980   2.162   2.518   9.406  0.8793  1.1294 -0.1429
   49MYC    H41 6981   2.319   2.494   9.340 -0.4313 -1.6559 -0.9777
   49MYC    C24 6982   2.221   2.305   9.400 -0.1547 -0.1967  0.2832
   49MYC    H42 6983   2.318   2.254   9.405 -0.5814 -1.1848 -1.1517
   49MYC    H43 6984   2.163   2.265   9.484  0.6812 -3.3681 -0.5019
   49MYC    C25 6985   2.152   2.262   9.273  0.9360 -0.0002  0.6379
   49MYC    H44 6986   2.109   2.163   9.290  1.5303 -0.7423 -1.7870
   49MYC    H45 6987   2.067   2.330   9.265  1.0005 -0.1523 -2.6729
   49MYC    C26 6988   2.258   2.262   9.153  0.3989  0.2801  0.0466
   49MYC    H46 6989   2.307   2.356   9.126  0.8632 -0.2938 -1.1647
   49MYC    H47 6990   2.344   2.208   9.195  0.4075  0.7492  0.6602
   49MYC    C27 6991   2.200   2.200   9.031 -0.7625 -0.3462  0.3976
   49MYC    H48 6992   2.292   2.176   8.976 -0.3013 -0.3543  1.1664
   49MYC    H49 6993   2.149   2.110   9.067  0.1768 -1.0542  0.0190
   49MYC    C28 6994   2.101   2.286   8.949  0.9946 -0.6895 -0.8306
   49MYC    H50 6995   2.023   2.323   9.017  2.6737  0.4496  0.5740
   49MYC    H51 6996   2.150   2.375   8.907 -0.8971  0.1470 -1.3846
   49MYC    C29 6997   2.039   2.212   8.832  0.3262  0.3376 -0.4163
   49MYC    H52 6998   2.132   2.174   8.788  0.6573 -0.0541  0.6002
   49MYC    H53 6999   1.987   2.124   8.870 -0.5021  1.4067  1.0172
   49MYC    C30 7000   1.959   2.299   8.738  0.5611 -0.0526  0.5942
   49MYC    H54 7001   1.870   2.339   8.789 -0.5017 -0.3267 -0.9908
   49MYC    H55 7002   2.024   2.380   8.701 -0.5305  0.4416 -0.3014
   49MYC    C31 7003   1.900   2.225   8.618  0.6325  0.2567  0.5887
   49MYC    H56 7004   1.969   2.157   8.568  0.0278 -0.4947  0.7649
   49MYC    H57 7005   1.820   2.159   8.655  1.1831 -0.3363  0.7378
   49MYC    C32 7006   1.829   2.327   8.515  0.3015 -0.0093  0.5640
   49MYC    H58 7007   1.762   2.396   8.567  1.3035  0.4518  1.2672
   49MYC    H59 7008   1.896   2.395   8.462  0.1499 -0.0605  0.3062
   49MYC    C33 7009   1.747   2.251   8.399  0.0008 -0.0482 -0.5031
   49MYC    H60 7010   1.813   2.170   8.366 -0.6466 -1.2416  1.0161
   49MYC    H61 7011   1.664   2.197   8.445  1.2008 -3.6049 -2.1445
   49MYC    C34 7012   1.710   2.334   8.274  0.3596 -0.0040  0.6782
   49MYC    H62 7013   1.629   2.404   8.298  0.2794 -0.9288  3.4329
   49MYC    H63 7014   1.792   2.401   8.245 -1.5170  2.4704  0.7400
   49MYC    C35 7015   1.655   2.247   8.168 -0.1747  0.0101  0.8197
   49MYC    H64 7016   1.689   2.143   8.177 -0.8963 -0.2094  1.0472
   49MYC    H65 7017   1.548   2.245   8.192  0.4756  0.4594  4.2955
   49MYC    C36 7018   1.675   2.301   8.018  0.0332  0.0918 -0.3282
   49MYC    H66 7019   1.642   2.404   8.003  2.2868  1.0406  0.7499
   49MYC    H67 7020   1.782   2.283   8.000  0.8671  3.4482  0.5258
   49MYC    C37 7021   1.589   2.229   7.907 -0.2171  0.4360  0.5980
   49MYC    H68 7022   1.612   2.122   7.900  2.5340  1.0162 -0.7628
   49MYC    H69 7023   1.484   2.232   7.938 -0.6820 -1.9574 -0.5141
   49MYC    C38 7024   1.606   2.277   7.760  0.3147  0.4756 -0.3555
   49MYC    H70 7025   1.589   2.385   7.754  0.8370  0.4901 -2.0031
   49MYC    H71 7026   1.711   2.259   7.734  1.0368 -1.8641  3.3109
   49MYC    C39 7027   1.513   2.198   7.665  0.1793  0.3954  0.3275
   49MYC    H72 7028   1.559   2.100   7.651 -2.4945 -0.8437 -0.4574
   49MYC    H73 7029   1.409   2.191   7.698 -1.3537  2.7883 -3.2961
   49MYC    C40 7030   1.518   2.246   7.526 -0.1554  1.0892  0.0164
   49MYC    H74 7031   1.489   2.351   7.511 -1.5174  1.0847  2.2531
   49MYC    H75 7032   1.619   2.220   7.491 -0.7613 -1.6534  0.1161
   49MYC    C41 7033   1.432   2.164   7.420 -0.7216 -0.0448 -0.6348
   49MYC    H76 7034   1.464   2.060   7.414 -1.1851 -0.1425 -1.6306
   49MYC    H77 7035   1.334   2.160   7.469 -0.4960 -1.7412 -0.2592
   49MYC    C42 7036   1.442   2.223   7.279  0.3654 -0.2020  0.2222
   49MYC    H78 7037   1.410   2.328   7.266  1.0511 -0.0698 -0.5035
   49MYC    H79 7038   1.544   2.247   7.246 -0.2994  3.5203  0.4454
   49MYC    C43 7039   1.354   2.150   7.173  0.5785 -0.1759 -0.2232
   49MYC    H80 7040   1.370   2.042   7.176  0.9745 -0.2778 -2.9119
   49MYC    H81 7041   1.372   2.191   7.072  0.1177 -0.4447 -0.4187
   49MYC    H82 7042   1.245   2.163   7.182  0.0907 -3.7530  0.4298
   50MYC   HH15 7043   4.220   1.818   7.970  0.8391  2.3273  0.9599
   50MYC    C80 7044   4.277   1.759   8.043 -0.6130 -0.2018  0.1837
   50MYC   H100 7045   4.307   1.662   8.003  0.3929 -0.0026  0.4353
   50MYC   H101 7046   4.368   1.816   8.065 -0.0937 -0.9870  0.0816
   50MYC    C79 7047   4.183   1.739   8.157  0.1976 -0.0305 -0.3388
   50MYC   H102 7048   4.202   1.634   8.184  2.8073  0.5964  0.5656
   50MYC   H103 7049   4.081   1.754   8.120  0.7649  2.2991 -1.1049
   50MYC    C78 7050   4.198   1.832   8.272 -0.6999  0.1427 -0.5186
   50MYC   HH14 7051   4.171   1.934   8.244  3.2120  1.3883 -0.3937
   50MYC   H104 7052   4.306   1.832   8.291 -0.3586 -0.9017 -2.2009
   50MYC    C77 7053   4.119   1.793   8.400 -0.5537  0.0195 -0.9012
   50MYC   H106 7054   4.014   1.797   8.368 -1.6995  0.1612  2.5095
   50MYC   H107 7055   4.136   1.867   8.479  1.8216 -0.8855 -0.4505
   50MYC    C76 7056   4.146   1.664   8.459 -1.1951  0.5984 -0.4386
   50MYC   H108 7057   4.131   1.589   8.380 -1.6494  1.3162 -1.0553
   50MYC   H109 7058   4.070   1.640   8.534  0.6644 -0.1969  1.2608
   50MYC    C75 7059   4.283   1.634   8.530 -0.1358  0.0523  0.0913
   50MYC   H110 7060   4.360   1.640   8.452 -1.9256 -0.3721 -1.8154
   50MYC   H111 7061   4.279   1.530   8.563  2.2884 -0.0093  0.3379
   50MYC    C74 7062   4.325   1.730   8.648 -0.1037  0.1983 -0.3779
   50MYC   H112 7063   4.373   1.824   8.619  1.8699 -0.5576  0.2787
   50MYC   H113 7064   4.408   1.690   8.708 -2.2037  0.1076  2.7642
   50MYC    C73 7065   4.211   1.749   8.754  0.1495 -0.1834  0.0492
   50MYC   HH13 7066   4.188   1.647   8.787  4.3171 -1.3631 -0.1289
   50MYC   H114 7067   4.119   1.787   8.707  1.8361  1.3136 -2.2617
   50MYC    C72 7068   4.253   1.835   8.877 -0.0449 -0.0238 -0.0376
   50MYC   H115 7069   4.257   1.943   8.861 -0.2037  0.2237  1.4080
   50MYC   H116 7070   4.351   1.799   8.911  0.8953 -0.1988 -2.7082
   50MYC    C71 7071   4.159   1.824   8.998  0.1576  0.0084  0.5053
   50MYC   H117 7072   4.118   1.724   9.017  0.3497  0.2048  2.0447
   50MYC   H118 7073   4.076   1.894   8.982 -0.6709 -0.8238  1.0494
   50MYC    C70 7074   4.233   1.858   9.131  1.0436 -0.2327  0.7220
   50MYC   H119 7075   4.303   1.942   9.126  0.7810 -0.0434  0.0788
   50MYC   H120 7076   4.290   1.775   9.174  1.4636 -0.0761  0.4741
   50MYC    C69 7077   4.125   1.904   9.231  0.6478 -0.6685  0.2398
   50MYC   H121 7078   4.158   1.884   9.333 -0.0150 -3.1966  0.0482
   50MYC   H122 7079   4.031   1.849   9.226  0.2100  0.0258  0.8583
   50MYC    C68 7080   4.093   2.051   9.231 -0.0129 -0.1271 -0.1595
   50MYC   HH12 7081   4.030   2.084   9.148 -0.9938  1.2354  1.0757
   50MYC   H123 7082   4.182   2.114   9.239 -1.2045  1.4953  0.8935
   50MYC    C67 7083   4.010   2.075   9.354 -0.0435  0.4150  0.5588
   50MYC   H124 7084   4.066   2.046   9.444 -1.4973 -1.7274  0.8243
   50MYC   H125 7085   3.914   2.024   9.363  0.3917 -0.1053  2.9123
   50MYC    C66 7086   3.981   2.224   9.372  0.2633  0.2541 -0.3343
   50MYC   H126 7087   3.971   2.270   9.273  1.6191 -0.7507 -0.9641
   50MYC   H127 7088   4.070   2.275   9.411 -0.3276 -0.1821  1.7076
   50MYC    C65 7089   3.864   2.248   9.473  0.8450 -0.4316 -0.3966
   50MYC   H128 7090   3.895   2.206   9.569  0.5539 -1.2595 -0.6624
   50MYC   H129 7091   3.778   2.189   9.440 -1.0516  1.5801  0.6862
   50MYC    C64 7092   3.815   2.392   9.468 -0.3463 -0.2250  0.0467
   50MYC   H130 7093   3.791   2.413   9.363 -0.1842  0.3444  0.1185
   50MYC   H131 7094   3.898   2.460   9.490 -0.8305  1.2868 -2.3703
   50MYC    C63 7095   3.703   2.428   9.563  0.2232 -0.0681  0.2186
   50MYC   HH11 7096   3.624   2.353   9.573 -1.2687  1.3666 -0.3512
   50MYC   H132 7097   3.655   2.513   9.513 -0.1936 -0.7272 -0.5315
   50MYC    C62 7098   3.748   2.455   9.710 -0.4266 -0.4302  0.4207
   50MYC   H133 7099   3.843   2.509   9.718 -1.1925  0.8451  1.2615
   50MYC   H134 7100   3.766   2.354   9.748 -0.5650 -0.5637  0.1341
   50MYC    C61 7101   3.640   2.525   9.790 -0.3474  0.0960 -0.7242
   50MYC   H135 7102   3.634   2.624   9.742  0.1582  0.9891  0.9586
   50MYC   H136 7103   3.681   2.549   9.889  1.2344  0.1202 -1.3518
   50MYC    C60 7104   3.503   2.459   9.788  0.5160  0.0347  0.0120
   50MYC   H137 7105   3.515   2.358   9.827  3.9753  0.4367  0.3099
   50MYC    C58 7106   3.389   2.532   9.845  0.5097 -0.4411  0.8998
   50MYC   H138 7107   3.399   2.638   9.864  1.1214 -0.5950  1.4782
   50MYC    C59 7108   3.387   2.490   9.699 -0.6176 -0.0858 -0.1435
   50MYC   H139 7109   3.335   2.405   9.656 -3.0704  0.1895  2.0387
   50MYC   H140 7110   3.380   2.577   9.634 -3.2718  0.4604  0.7560
   50MYC    C57 7111   3.294   2.478   9.951 -0.4577  0.4292  0.2458
   50MYC   HH10 7112   3.339   2.482  10.051  0.0795  0.1467  0.0187
   50MYC   H141 7113   3.279   2.372   9.930  0.9825 -0.1698  1.9831
   50MYC    C56 7114   3.167   2.555   9.949 -0.4224  1.1063  0.0063
   50MYC   H142 7115   3.094   2.492  10.001  1.5143 -0.2828  1.2392
   50MYC   H143 7116   3.131   2.562   9.846 -0.4908  0.9373  0.0171
   50MYC    C55 7117   3.165   2.695  10.007  0.7031 -0.0877  0.4840
   50MYC   H144 7118   3.149   2.766   9.925  0.8889 -0.8779 -0.2595
   50MYC   H145 7119   3.263   2.723  10.047  1.1664  1.2620 -1.4837
   50MYC    C54 7120   3.053   2.722  10.107  0.6946  0.3197 -0.3079
   50MYC   H146 7121   2.962   2.725  10.045  1.2773  0.5388 -1.1666
   50MYC   H147 7122   3.062   2.821  10.153  1.4413 -0.4796  1.3431
   50MYC    C53 7123   3.033   2.627  10.237 -0.5173 -0.2935  0.1533
   50MYC   H148 7124   3.086   2.680  10.317  0.5714 -0.0420 -0.7176
   50MYC   H149 7125   3.084   2.531  10.223  0.9564  0.3713  0.7673
   50MYC    C52 7126   2.888   2.610  10.279 -0.3264 -0.6044  0.1737
   50MYC    H99 7127   2.833   2.547  10.208  1.0995  0.9524 -2.4575
   50MYC   H150 7128   2.844   2.710  10.287  1.6716  0.3697 -0.3613
   50MYC    C51 7129   2.881   2.537  10.417  0.0779 -0.0240  0.2511
   50MYC    H97 7130   2.945   2.578  10.496  0.7674 -1.6366  0.5677
   50MYC    H98 7131   2.919   2.436  10.397  3.3424  1.5257 -2.3218
   50MYC    C50 7132   2.733   2.533  10.471 -0.0636  0.0855 -0.2063
   50MYC    H95 7133   2.666   2.493  10.394 -1.6922  2.6425 -0.2689
   50MYC    H96 7134   2.699   2.636  10.486  2.0030  1.0125 -1.3939
   50MYC    C49 7135   2.716   2.453  10.602 -0.3022  0.0468  0.1070
   50MYC    H93 7136   2.756   2.352  10.591 -3.1185 -1.0396 -1.2195
   50MYC    H94 7137   2.608   2.442  10.621 -0.4148  0.0436 -0.4939
   50MYC    C48 7138   2.773   2.531  10.722  0.7413  0.6121 -0.2349
   50MYC    H91 7139   2.747   2.638  10.722 -0.1833  0.4339  1.6766
   50MYC    H92 7140   2.883   2.528  10.720  0.7686  0.7475  0.4989
   50MYC    C47 7141   2.719   2.468  10.852 -0.4689 -0.7141  1.0809
   50MYC    H89 7142   2.744   2.362  10.842 -0.9621 -0.7426  0.0394
   50MYC    H90 7143   2.613   2.493  10.859 -0.6785 -0.4878 -1.8825
   50MYC    C46 7144   2.775   2.531  10.987  0.2941  0.0783  0.2200
   50MYC    H87 7145   2.702   2.502  11.064  1.3375 -1.6936  0.6007
   50MYC    H88 7146   2.776   2.639  10.970 -0.2263  0.2345  1.1178
   50MYC    C45 7147   2.902   2.469  11.039 -0.6495 -0.4426  0.5334
   50MYC    H85 7148   2.979   2.468  10.961  0.1466 -0.0341  1.3014
   50MYC    H86 7149   2.880   2.367  11.075  0.6287 -2.3475 -3.4377
   50MYC    C44 7150   2.963   2.552  11.155 -0.8304 -0.2286  0.0909
   50MYC    H83 7151   2.891   2.541  11.237 -1.3070 -2.8701 -0.6107
   50MYC    H84 7152   2.982   2.655  11.121  0.0161 -0.5457 -0.4367
   50MYC    C18 7153   3.098   2.512  11.214 -0.4751 -0.0205  0.4119
   50MYC    H31 7154   3.164   2.489  11.131 -1.3088 -1.5577  0.1320
   50MYC    C17 7155   3.161   2.606  11.324  0.3696 -0.1051  0.1519
   50MYC    H30 7156   3.101   2.689  11.361  1.2826  0.8290 -0.4199
   50MYC    C19 7157   3.113   2.461  11.358 -0.6397 -0.3345 -0.0380
   50MYC    H32 7158   3.025   2.451  11.421 -0.6201 -0.8285 -0.0906
   50MYC    H33 7159   3.193   2.392  11.383 -0.2850 -0.3783 -1.2361
   50MYC    C16 7160   3.308   2.632  11.325 -0.1867  0.1572  0.0868
   50MYC    H28 7161   3.361   2.554  11.270 -2.3572 -0.3571 -1.4240
   50MYC    H29 7162   3.338   2.628  11.431 -1.8853 -0.7930  0.5703
   50MYC    C15 7163   3.342   2.766  11.260  0.5812 -0.1348 -0.3353
   50MYC    H26 7164   3.451   2.777  11.256  0.6276  0.1988  1.1291
   50MYC    H27 7165   3.300   2.850  11.316  1.6053 -0.6308  1.2563
   50MYC    C14 7166   3.286   2.786  11.118  0.4598 -0.2356  0.5143
   50MYC    H24 7167   3.318   2.885  11.085 -2.5281  1.6928  2.8404
   50MYC    H25 7168   3.177   2.778  11.122  0.4219 -0.1288 -0.2643
   50MYC    C13 7169   3.344   2.684  11.014  0.3145  0.0984 -0.0546
   50MYC    H22 7170   3.337   2.579  11.044 -1.8273  0.0719 -0.4990
   50MYC    H23 7171   3.452   2.697  10.999 -0.1642  3.1377 -1.7332
   50MYC    C12 7172   3.285   2.694  10.869  0.2298  0.5583 -0.3396
   50MYC    H20 7173   3.329   2.785  10.826  0.8490  0.2681 -0.3284
   50MYC    H21 7174   3.175   2.704  10.869 -0.1395 -2.5752 -0.3072
   50MYC    C11 7175   3.317   2.568  10.778  0.7608 -0.0191 -0.2416
   50MYC    H18 7176   3.257   2.590  10.689 -1.2050 -0.2642  0.9614
   50MYC    H19 7177   3.287   2.473  10.825 -0.0644  1.0306  1.4482
   50MYC    C10 7178   3.470   2.548  10.745  0.1087 -0.2382 -0.0982
   50MYC    H16 7179   3.475   2.462  10.676  1.5838  0.6892 -1.2113
   50MYC    H17 7180   3.517   2.529  10.842 -0.8238  0.3406  0.4843
   50MYC     C9 7181   3.544   2.658  10.673 -0.2022  0.0776  0.1175
   50MYC    H14 7182   3.575   2.739  10.741 -1.3408 -0.7349  1.6838
   50MYC    H15 7183   3.475   2.693  10.595  2.4943  1.5497 -1.7798
   50MYC     C8 7184   3.675   2.609  10.596 -0.3739 -0.7017 -0.6329
   50MYC    H12 7185   3.655   2.516  10.542 -1.5716 -2.2975  2.3481
   50MYC    H13 7186   3.747   2.602  10.678 -1.1181  0.9884  0.2236
   50MYC     C7 7187   3.718   2.717  10.501 -0.1845 -0.5012 -0.3238
   50MYC    H10 7188   3.704   2.816  10.545  0.6039 -0.1170 -0.9223
   50MYC    H11 7189   3.655   2.705  10.413  1.1102  0.1317 -1.3763
   50MYC     C6 7190   3.864   2.712  10.457 -0.3825  0.1480  0.2736
   50MYC     H8 7191   3.921   2.697  10.549 -0.8085 -3.6925  0.0742
   50MYC     H9 7192   3.890   2.809  10.414 -0.3395 -0.3517 -0.8780
   50MYC     C5 7193   3.909   2.595  10.363 -0.8058  0.6079  0.9905
   50MYC     H6 7194   3.866   2.624  10.267 -0.5998 -1.6062  0.1723
   50MYC     H7 7195   3.864   2.500  10.393 -2.1073  0.1047 -2.1248
   50MYC     C4 7196   4.069   2.564  10.342  0.3782 -0.1718  0.0226
   50MYC     H4 7197   4.080   2.476  10.279  2.2123  1.1971 -1.7020
   50MYC     H5 7198   4.123   2.564  10.438 -1.8306 -2.0301  1.3582
   50MYC     C2 7199   4.138   2.674  10.259  0.0792 -0.6951 -0.1411
   50MYC     H2 7200   4.091   2.676  10.159  2.6002 -0.0174 -1.4094
   50MYC     O3 7201   4.117   2.799  10.325 -0.2432 -0.4315  0.1124
   50MYC     H3 7202   4.109   2.777  10.420 -1.9353  1.2223  0.4149
   50MYC     C1 7203   4.294   2.649  10.239 -0.5748 -0.1104  0.6234
   50MYC     H1 7204   4.305   2.545  10.209  0.3262 -0.1792  1.1387
   50MYC    C81 7205   4.378   2.643  10.364  0.1241  0.1499 -0.4655
   50MYC    O82 7206   4.437   2.545  10.397  0.7959 -0.3596 -0.3812
   50MYC    O83 7207   4.371   2.750  10.441 -0.5868 -0.7168 -0.6768
   50MYC   H105 7208   4.426   2.740  10.520 -0.3534 -0.0464 -0.7451
   50MYC    C20 7209   4.346   2.752  10.137  0.2265  0.3752 -0.0943
   50MYC    H34 7210   4.266   2.772  10.065 -2.4856  1.2995  2.9126
   50MYC    H35 7211   4.344   2.853  10.181 -1.6401  0.6858 -0.8216
   50MYC    C21 7212   4.480   2.728  10.076  0.2993  0.6081  0.6416
   50MYC    H36 7213   4.512   2.823  10.030 -1.6196  0.8452 -0.3052
   50MYC    H37 7214   4.553   2.695  10.150 -1.4669 -1.2318  1.6564
   50MYC    C22 7215   4.494   2.627   9.958  0.4559 -0.0104  0.0619
   50MYC    H38 7216   4.601   2.623   9.933  1.1093 -0.3812  2.6224
   50MYC    H39 7217   4.470   2.525   9.991  1.4058  0.3264  1.9241
   50MYC    C23 7218   4.414   2.659   9.834 -0.3153 -0.1389 -0.4373
   50MYC    H40 7219   4.308   2.673   9.860  0.3269 -2.2968  4.5401
   50MYC    H41 7220   4.448   2.760   9.810  0.3552 -0.4026 -0.6065
   50MYC    C24 7221   4.417   2.556   9.718  0.2438 -0.4972 -0.3538
   50MYC    H42 7222   4.519   2.521   9.697 -0.0587 -0.8814 -1.2452
   50MYC    H43 7223   4.377   2.463   9.758 -0.0745 -0.0555  0.3646
   50MYC    C25 7224   4.354   2.604   9.594 -0.0634  0.6470  0.3620
   50MYC    H44 7225   4.255   2.637   9.627  0.1501  0.8284  0.8289
   50MYC    H45 7226   4.408   2.690   9.552  0.1243 -0.5426 -2.0174
   50MYC    C26 7227   4.350   2.499   9.481 -0.2265 -0.0512 -0.4179
   50MYC    H46 7228   4.445   2.448   9.463  0.7622  2.0475 -1.4580
   50MYC    H47 7229   4.276   2.423   9.508 -0.8831  0.4173 -0.8698
   50MYC    C27 7230   4.294   2.566   9.353 -0.0758 -0.7969  0.1618
   50MYC    H48 7231   4.203   2.625   9.364  1.0293  1.0646 -0.1961
   50MYC    H49 7232   4.368   2.643   9.327 -0.6202  0.6969  2.6667
   50MYC    C28 7233   4.281   2.460   9.247 -0.4225  0.3839 -0.1116
   50MYC    H50 7234   4.222   2.375   9.283 -1.3620  0.9197 -0.3361
   50MYC    H51 7235   4.232   2.502   9.158 -1.1922 -0.7592 -0.2522
   50MYC    C29 7236   4.414   2.405   9.191  0.7854  0.8073  0.0438
   50MYC    H52 7237   4.490   2.484   9.191  2.2485 -0.4997 -1.7037
   50MYC    H53 7238   4.451   2.323   9.253 -0.7384 -0.5141 -0.7264
   50MYC    C30 7239   4.411   2.348   9.044 -0.5654 -0.2810 -0.2845
   50MYC    H54 7240   4.508   2.298   9.034  0.2477  0.7816  1.7261
   50MYC    H55 7241   4.336   2.268   9.048 -0.8198 -0.2698 -3.0432
   50MYC    C31 7242   4.390   2.444   8.926  0.4722  0.8235 -0.1184
   50MYC    H56 7243   4.288   2.482   8.943 -1.3341 -2.6442 -2.1389
   50MYC    H57 7244   4.461   2.527   8.939 -0.1051  1.3260 -0.1083
   50MYC    C32 7245   4.394   2.386   8.789 -0.1906 -0.5413  0.5371
   50MYC    H58 7246   4.498   2.358   8.767  0.2868  2.4787 -1.5866
   50MYC    H59 7247   4.327   2.299   8.788 -2.2754  1.0075  0.8576
   50MYC    C33 7248   4.364   2.493   8.678 -0.2399  0.3680  0.1926
   50MYC    H60 7249   4.256   2.512   8.676 -0.3356 -0.1853 -0.9184
   50MYC    H61 7250   4.413   2.587   8.708  2.8021 -1.2073  0.6486
   50MYC    C34 7251   4.421   2.461   8.537  0.5067 -0.3666  0.2892
   50MYC    H62 7252   4.528   2.437   8.541  0.0935 -3.1496 -1.6039
   50MYC    H63 7253   4.376   2.365   8.506 -2.0212  1.0843 -0.8338
   50MYC    C35 7254   4.369   2.551   8.422 -0.6253 -0.0688 -0.2525
   50MYC    H64 7255   4.262   2.529   8.425 -0.6184 -0.1980 -0.8299
   50MYC    H65 7256   4.392   2.656   8.441 -1.3011 -0.2244  1.6652
   50MYC    C36 7257   4.437   2.514   8.284  0.3212 -0.5221  0.4092
   50MYC    H66 7258   4.543   2.541   8.280  0.2004 -0.0768  0.1755
   50MYC    H67 7259   4.412   2.408   8.268 -1.6137  0.0603 -0.7570
   50MYC    C37 7260   4.376   2.587   8.163 -0.1684  0.3774  0.5608
   50MYC    H68 7261   4.268   2.564   8.166 -0.3265  0.7529 -1.1096
   50MYC    H69 7262   4.379   2.695   8.175 -0.5559  0.4261  0.2650
   50MYC    C38 7263   4.423   2.535   8.021  0.2801 -0.0208 -0.5390
   50MYC    H70 7264   4.533   2.527   8.023  0.2748 -0.7681 -2.0602
   50MYC    H71 7265   4.399   2.430   8.000  0.6577 -0.0906 -0.6287
   50MYC    C39 7266   4.363   2.625   7.900 -0.0095  1.2668  0.3527
   50MYC    H72 7267   4.257   2.604   7.882  0.3679  0.3104 -0.8760
   50MYC    H73 7268   4.354   2.726   7.942 -1.3231  0.5717  1.8535
   50MYC    C40 7269   4.439   2.616   7.763 -0.1864 -0.1041 -0.9545
   50MYC    H74 7270   4.538   2.663   7.763  0.2128 -0.9023  0.5147
   50MYC    H75 7271   4.448   2.512   7.731 -0.9852 -1.1729  1.9778
   50MYC    C41 7272   4.353   2.690   7.660  1.0470 -0.1868  0.4776
   50MYC    H76 7273   4.257   2.638   7.654  0.9792 -0.2335  1.6458
   50MYC    H77 7274   4.332   2.797   7.675 -0.9389 -0.8369  3.2210
   50MYC    C42 7275   4.421   2.666   7.517 -0.2607  0.2649  0.1556
   50MYC    H78 7276   4.522   2.709   7.512  0.4308 -1.1103  1.3750
   50MYC    H79 7277   4.436   2.558   7.502  2.3299  0.4667  0.7507
   50MYC    C43 7278   4.339   2.729   7.408  0.4104  0.5206 -0.2960
   50MYC    H80 7279   4.332   2.837   7.421  0.1063  0.2391  2.4625
   50MYC    H81 7280   4.249   2.667   7.413  1.1848 -0.5899  0.9388
   50MYC    H82 7281   4.387   2.708   7.312 -1.1110 -0.2256 -0.9266
   51MYC   HH15 7282   4.340   2.078   7.311  0.9268 -0.8696  0.6410
   51MYC    C80 7283   4.352   2.143   7.398  0.4316 -0.1827  0.2075
   51MYC   H100 7284   4.379   2.235   7.345 -2.5400  1.2330  0.9059
   51MYC   H101 7285   4.256   2.178   7.439  0.5903  1.9643 -1.1032
   51MYC    C79 7286   4.438   2.097   7.508  0.0235  0.0090  0.1267
   51MYC   H102 7287   4.538   2.086   7.465  0.2025 -1.7796  0.9137
   51MYC   H103 7288   4.399   1.995   7.523 -0.9850  0.6554  2.2332
   51MYC    C78 7289   4.441   2.171   7.635  0.5196 -0.4437  0.1881
   51MYC   HH14 7290   4.338   2.207   7.649 -0.6398 -0.9627 -5.0226
   51MYC   H104 7291   4.505   2.259   7.626 -0.4667  0.3617  0.7184
   51MYC    C77 7292   4.500   2.093   7.758 -0.5283  1.0798 -0.2016
   51MYC   H106 7293   4.597   2.048   7.736 -0.5625  1.3758 -0.9691
   51MYC   H107 7294   4.430   2.011   7.778  0.2993  0.3854 -0.0983
   51MYC    C76 7295   4.527   2.176   7.884  0.2301 -0.1732  0.2584
   51MYC   H108 7296   4.433   2.230   7.897  0.3214 -0.2233  1.2177
   51MYC   H109 7297   4.602   2.254   7.871  0.5951 -0.7822 -1.5642
   51MYC    C75 7298   4.564   2.093   8.005 -0.1192 -0.3505  0.4218
   51MYC   H110 7299   4.640   2.021   7.974 -0.4886  0.0485 -1.5455
   51MYC   H111 7300   4.481   2.021   8.018  0.4671 -1.1884 -0.3773
   51MYC    C74 7301   4.600   2.170   8.135  0.3932  0.5889  0.7817
   51MYC   H112 7302   4.521   2.245   8.152 -2.0320 -1.4645 -0.7346
   51MYC   H113 7303   4.687   2.233   8.112  1.1167 -0.9384 -0.8413
   51MYC    C73 7304   4.639   2.081   8.253 -0.0773 -0.1358 -0.2345
   51MYC   HH13 7305   4.749   2.082   8.255  0.0600  2.6074 -2.7535
   51MYC   H114 7306   4.607   1.980   8.223 -1.0926  0.4439 -1.1778
   51MYC    C72 7307   4.583   2.126   8.388  0.1944  0.2091 -0.0442
   51MYC   H115 7308   4.475   2.133   8.405  0.1799 -1.4116  0.7657
   51MYC   H116 7309   4.622   2.227   8.404 -0.8796  0.5453  0.5814
   51MYC    C71 7310   4.630   2.029   8.497  0.0158 -0.2352  0.6239
   51MYC   H117 7311   4.740   2.030   8.495  0.0102 -0.5298 -0.7651
   51MYC   H118 7312   4.592   1.931   8.467 -2.7258  0.8880  0.0946
   51MYC    C70 7313   4.592   2.077   8.638 -0.8570 -0.9326 -0.0472
   51MYC   H119 7314   4.484   2.069   8.652 -0.9350  0.5015  0.2372
   51MYC   H120 7315   4.608   2.185   8.639 -2.6903 -0.5666 -2.0810
   51MYC    C69 7316   4.668   2.001   8.750 -0.1516 -0.1556 -0.2606
   51MYC   H121 7317   4.777   2.009   8.743  0.4144 -2.5576  3.0105
   51MYC   H122 7318   4.640   1.896   8.735 -0.6883  0.1917 -1.8499
   51MYC    C68 7319   4.621   2.043   8.892 -0.0389  0.4980  0.1909
   51MYC   HH12 7320   4.513   2.042   8.912 -0.2946  0.2045 -1.1173
   51MYC   H123 7321   4.638   2.151   8.898 -0.7380  0.7044 -1.2003
   51MYC    C67 7322   4.700   1.978   9.002  0.2012 -0.0097 -0.6166
   51MYC   H124 7323   4.799   2.022   8.995  0.0101  1.0361  2.1746
   51MYC   H125 7324   4.720   1.873   8.977  0.3359  0.0713 -0.8520
   51MYC    C66 7325   4.641   2.008   9.138 -0.7721 -0.1745  0.1602
   51MYC   H126 7326   4.533   2.023   9.130 -0.8167 -0.6677 -0.1860
   51MYC   H127 7327   4.672   2.108   9.170 -1.3193 -0.2881  1.0712
   51MYC    C65 7328   4.673   1.903   9.245  0.3201  0.0364  0.1966
   51MYC   H128 7329   4.779   1.874   9.247 -0.3456 -2.6482 -0.1405
   51MYC   H129 7330   4.604   1.819   9.228  0.0567  0.5934 -1.7178
   51MYC    C64 7331   4.642   1.959   9.394  0.5795  0.1613 -0.1144
   51MYC   H130 7332   4.690   2.055   9.416 -0.7553  1.0487 -0.8775
   51MYC   H131 7333   4.690   1.888   9.461  2.1595 -0.6192 -1.9686
   51MYC    C63 7334   4.493   1.966   9.414 -0.4518  0.3164  0.3510
   51MYC   HH11 7335   4.449   1.866   9.422  0.2046  0.1121  1.6464
   51MYC   H132 7336   4.454   2.009   9.321 -3.0780  0.3116  1.3697
   51MYC    C62 7337   4.457   2.051   9.533 -0.3268 -0.0836 -0.0254
   51MYC   H133 7338   4.500   2.152   9.525 -0.4506 -0.0580 -0.3857
   51MYC   H134 7339   4.489   2.004   9.626  0.4961  1.1834  0.3616
   51MYC    C61 7340   4.309   2.085   9.558  0.0187 -0.4016  0.5036
   51MYC   H135 7341   4.252   1.992   9.568 -0.3344  0.0116  2.9184
   51MYC   H136 7342   4.274   2.150   9.477 -0.0970 -0.6896  0.3216
   51MYC    C60 7343   4.306   2.171   9.681  0.0613 -0.1793 -0.1231
   51MYC   H137 7344   4.366   2.262   9.677  0.3895 -0.2922  1.6797
   51MYC    C58 7345   4.177   2.171   9.771  0.2375 -0.5639 -0.0418
   51MYC   H138 7346   4.103   2.093   9.755  0.0866 -0.2740 -0.8188
   51MYC    C59 7347   4.309   2.119   9.819  0.6028  0.1360 -0.8128
   51MYC   H139 7348   4.362   2.178   9.893  1.2108  2.6696 -3.1016
   51MYC   H140 7349   4.312   2.013   9.840 -1.1785  0.2505  0.2480
   51MYC    C57 7350   4.124   2.301   9.837 -0.4605 -1.0259 -0.1995
   51MYC   HH10 7351   4.122   2.375   9.757  0.3801 -1.4323 -0.6104
   51MYC   H141 7352   4.199   2.335   9.909 -0.0427 -1.1910 -0.5494
   51MYC    C56 7353   3.987   2.294   9.903  0.8614  0.4586 -0.2570
   51MYC   H142 7354   3.920   2.237   9.838 -0.0649  1.1282  0.0889
   51MYC   H143 7355   3.957   2.397   9.925  2.8499  0.6984  1.8205
   51MYC    C55 7356   4.002   2.219  10.033 -0.1328 -0.1362  0.1392
   51MYC   H144 7357   4.027   2.292  10.112  1.6173 -1.5206  0.9497
   51MYC   H145 7358   4.067   2.132  10.016  0.7241  0.7300 -1.2349
   51MYC    C54 7359   3.865   2.161  10.080  0.4000  0.0423 -0.4227
   51MYC   H146 7360   3.882   2.118  10.180  0.3877  2.2494  0.5825
   51MYC   H147 7361   3.834   2.085  10.007 -0.5959 -0.4460  0.4682
   51MYC    C53 7362   3.761   2.273  10.102  0.0436  0.0484 -0.1697
   51MYC   H148 7363   3.731   2.330  10.013  0.9474  0.7227 -0.0557
   51MYC   H149 7364   3.811   2.344  10.169 -1.0268 -2.1187  3.1587
   51MYC    C52 7365   3.641   2.211  10.170  0.3528 -0.6422  0.7409
   51MYC    H99 7366   3.678   2.147  10.251  1.5849  0.7508  1.3275
   51MYC   H150 7367   3.591   2.143  10.100 -0.2371  0.6760 -0.1633
   51MYC    C51 7368   3.537   2.306  10.229  0.0033  0.3113 -0.6095
   51MYC    H97 7369   3.478   2.365  10.158  0.4438  1.2958 -0.1822
   51MYC    H98 7370   3.596   2.384  10.278  1.4318 -1.5496  0.8020
   51MYC    C50 7371   3.436   2.235  10.321 -0.0896  0.7133  0.2952
   51MYC    H95 7372   3.499   2.193  10.400  0.4864 -0.8261 -0.9502
   51MYC    H96 7373   3.386   2.162  10.256  0.0857  0.2238  0.7067
   51MYC    C49 7374   3.337   2.343  10.380 -0.5344 -0.1426 -0.0765
   51MYC    H93 7375   3.268   2.370  10.300 -0.7919 -0.6972 -0.0530
   51MYC    H94 7376   3.392   2.433  10.410  2.4369 -2.1075  0.8380
   51MYC    C48 7377   3.253   2.301  10.501 -0.1051  0.0573 -0.2174
   51MYC    H91 7378   3.214   2.391  10.551 -1.3114 -0.7738  0.4146
   51MYC    H92 7379   3.312   2.256  10.581 -2.6638 -0.1271  1.6956
   51MYC    C47 7380   3.137   2.200  10.465  0.6621 -0.7758  0.9187
   51MYC    H89 7381   3.172   2.108  10.418  1.7344 -0.3775  0.9086
   51MYC    H90 7382   3.078   2.240  10.382  1.1828 -0.4584  0.6975
   51MYC    C46 7383   3.042   2.171  10.585  0.1559 -0.1778  0.0570
   51MYC    H87 7384   2.975   2.084  10.581 -3.9277  2.6873 -0.3338
   51MYC    H88 7385   2.978   2.259  10.601  0.6065 -0.3161  3.2726
   51MYC    C45 7386   3.104   2.169  10.729 -0.1822 -0.3073 -0.4822
   51MYC    H85 7387   3.143   2.270  10.749  0.7935 -0.7467 -0.1186
   51MYC    H86 7388   3.194   2.106  10.732 -0.5245 -0.8464 -1.2428
   51MYC    C44 7389   3.004   2.133  10.850 -0.8032 -0.1330  0.3092
   51MYC    H83 7390   2.933   2.051  10.835 -1.3568  0.6798 -1.8238
   51MYC    H84 7391   2.937   2.215  10.879  2.2217  1.6155  3.1554
   51MYC    C18 7392   3.096   2.091  10.961  0.1487 -0.6621 -0.7568
   51MYC    H31 7393   3.145   1.997  10.937  2.5428  0.1812  0.4744
   51MYC    C17 7394   3.180   2.199  11.029 -0.2978 -0.1956 -0.6723
   51MYC    H30 7395   3.165   2.301  10.997  1.0979  1.2744  2.8377
   51MYC    C19 7396   3.074   2.126  11.105  0.2456  0.4736  0.5624
   51MYC    H32 7397   2.980   2.175  11.130  0.3267  0.3738  1.0761
   51MYC    H33 7398   3.107   2.057  11.182  0.9596  0.3939  0.2009
   51MYC    C16 7399   3.328   2.185  11.065 -0.8219  0.5832  0.5147
   51MYC    H28 7400   3.341   2.096  11.127 -1.3606  0.1350 -0.0051
   51MYC    H29 7401   3.362   2.266  11.131 -0.8244  1.6022 -0.6924
   51MYC    C15 7402   3.411   2.176  10.931  0.1025  0.6609  0.0341
   51MYC    H26 7403   3.357   2.241  10.861  0.7344  2.4939  1.1602
   51MYC    H27 7404   3.382   2.079  10.890  0.4700  1.3751 -2.0223
   51MYC    C14 7405   3.563   2.195  10.933 -0.6222  0.5254 -0.5405
   51MYC    H24 7406   3.607   2.119  10.998  0.1555 -0.1395 -1.8079
   51MYC    H25 7407   3.585   2.293  10.977 -0.2837  0.3074 -0.2207
   51MYC    C13 7408   3.616   2.182  10.790  0.4171 -0.7318 -0.0901
   51MYC    H22 7409   3.559   2.260  10.738 -0.6819 -0.7408  1.0383
   51MYC    H23 7410   3.576   2.093  10.740 -0.0712  0.2838 -1.5684
   51MYC    C12 7411   3.769   2.198  10.779 -0.3271  0.2136 -0.5815
   51MYC    H20 7412   3.820   2.109  10.821 -2.1326 -0.3695  0.4683
   51MYC    H21 7413   3.812   2.276  10.843  2.4820 -2.7774  1.5476
   51MYC    C11 7414   3.822   2.213  10.633 -0.0739 -0.5137  0.0841
   51MYC    H18 7415   3.778   2.300  10.584  0.1755 -0.0317  0.7020
   51MYC    H19 7416   3.793   2.123  10.577  0.9787 -0.3415 -0.7645
   51MYC    C10 7417   3.974   2.239  10.622 -0.1153  0.1878  0.3009
   51MYC    H16 7418   4.021   2.164  10.687  0.1647  0.8455  0.8697
   51MYC    H17 7419   3.999   2.340  10.658 -1.6366  0.2874  1.1676
   51MYC     C9 7420   4.026   2.230  10.477 -0.0076  0.8677  0.0214
   51MYC    H14 7421   3.977   2.309  10.418 -1.5771  0.1190  0.2846
   51MYC    H15 7422   4.001   2.129  10.443 -0.0753  0.3790  1.4696
   51MYC     C8 7423   4.179   2.235  10.469  0.0644 -0.3968  0.4378
   51MYC    H12 7424   4.214   2.146  10.523  0.1886 -0.1675  0.7361
   51MYC    H13 7425   4.219   2.319  10.526  0.3011 -0.6701  0.6737
   51MYC     C7 7426   4.237   2.238  10.326  0.7621 -0.1627  0.1423
   51MYC    H10 7427   4.222   2.331  10.269 -1.0223  0.4197  1.4727
   51MYC    H11 7428   4.182   2.164  10.268  0.7718 -0.2825  0.2842
   51MYC     C6 7429   4.385   2.198  10.318 -0.2946  0.0462 -0.2643
   51MYC     H8 7430   4.406   2.113  10.385  1.1303  1.2520  0.8960
   51MYC     H9 7431   4.442   2.279  10.365  0.4487  1.1391 -2.8740
   51MYC     C5 7432   4.436   2.173  10.178  0.4459  0.3292 -0.0583
   51MYC     H6 7433   4.430   2.272  10.132  1.8413  1.5371  2.1974
   51MYC     H7 7434   4.370   2.101  10.127  1.5962 -0.9001  0.1071
   51MYC     C4 7435   4.589   2.114  10.173 -0.0981 -0.2608 -0.1888
   51MYC     H4 7436   4.602   2.049  10.260  1.7463 -1.4488 -1.2922
   51MYC     H5 7437   4.665   2.190  10.194 -0.9511  0.9801 -1.3608
   51MYC     C2 7438   4.623   2.049  10.036  1.0071  0.2626 -0.2510
   51MYC     H2 7439   4.532   1.992  10.011  0.0224  2.1358 -1.1666
   51MYC     O3 7440   4.643   2.145   9.929 -0.0762 -0.0514 -0.3864
   51MYC     H3 7441   4.739   2.153   9.917 -0.0402  3.3466  1.0536
   51MYC     C1 7442   4.741   1.944  10.038 -0.7093  0.0045  0.3241
   51MYC     H1 7443   4.731   1.882  10.128  0.1456  0.8217  0.9981
   51MYC    C81 7444   4.874   2.021  10.053 -0.1137  0.2943 -0.0038
   51MYC    O82 7445   4.938   2.024  10.160  0.0373 -0.1389  0.2161
   51MYC    O83 7446   4.927   2.065   9.940 -0.2925  0.8473 -0.1705
   51MYC   H105 7447   5.011   2.104   9.970  0.0814 -1.0146  1.4736
   51MYC    C20 7448   4.739   1.851   9.908  0.5158 -0.4678 -0.2575
   51MYC    H34 7449   4.748   1.919   9.823 -0.5717  2.2330  1.6617
   51MYC    H35 7450   4.832   1.794   9.902  1.1080  0.6126 -2.0716
   51MYC    C21 7451   4.619   1.747   9.911 -0.0020  0.5475  0.4663
   51MYC    H36 7452   4.616   1.706  10.012  1.2086  0.4976  0.4979
   51MYC    H37 7453   4.524   1.801   9.898  0.1489  0.6570 -0.2645
   51MYC    C22 7454   4.633   1.630   9.807  0.2199  0.1683 -0.4090
   51MYC    H38 7455   4.724   1.574   9.831  0.9956  1.3719 -0.4282
   51MYC    H39 7456   4.548   1.561   9.815  1.1150 -0.8760  0.4151
   51MYC    C23 7457   4.649   1.676   9.657  0.3417  0.1812  0.0784
   51MYC    H40 7458   4.566   1.742   9.628  0.2782  0.3390  0.5945
   51MYC    H41 7459   4.742   1.733   9.649 -0.6879  2.0737  0.8104
   51MYC    C24 7460   4.646   1.549   9.562  0.2402 -0.0701 -0.6828
   51MYC    H42 7461   4.730   1.487   9.597 -0.0815 -0.7313 -1.0679
   51MYC    H43 7462   4.551   1.496   9.577 -0.6910  2.2107  2.5340
   51MYC    C25 7463   4.670   1.585   9.416  1.3217 -0.3164 -0.3161
   51MYC    H44 7464   4.578   1.634   9.379  1.7954 -0.6464 -2.0467
   51MYC    H45 7465   4.754   1.655   9.407  2.7899 -2.1942 -2.3982
   51MYC    C26 7466   4.703   1.469   9.322 -0.5039 -0.4856  0.3710
   51MYC    H46 7467   4.788   1.413   9.362  0.7546  0.1938 -1.2067
   51MYC    H47 7468   4.618   1.400   9.323 -1.1928 -0.0642 -4.2007
   51MYC    C27 7469   4.723   1.500   9.167  0.4614  0.0596 -0.1140
   51MYC    H48 7470   4.637   1.562   9.138  0.4657  0.1729  0.1068
   51MYC    H49 7471   4.808   1.569   9.172  0.3592  0.1287  0.8178
   51MYC    C28 7472   4.759   1.374   9.084  0.7789  0.1326 -0.2338
   51MYC    H50 7473   4.857   1.328   9.104 -0.0281 -2.9691 -2.5727
   51MYC    H51 7474   4.698   1.288   9.115  2.0961 -0.8540 -0.2907
   51MYC    C29 7475   4.735   1.392   8.935 -0.3061 -0.8371  0.2313
   51MYC    H52 7476   4.757   1.301   8.877 -1.7214  0.6016 -2.8346
   51MYC    H53 7477   4.636   1.427   8.905  0.1379 -0.5544 -0.9955
   51MYC    C30 7478   4.830   1.498   8.876  0.4825 -0.4973  0.6985
   51MYC    H54 7479   4.818   1.592   8.932  2.3831  1.1889 -1.5092
   51MYC    H55 7480   4.934   1.470   8.891  0.2371 -1.1610  1.2025
   51MYC    C31 7481   4.794   1.528   8.728  0.0505  0.1228  0.2525
   51MYC    H56 7482   4.827   1.440   8.671 -1.3701 -0.2869  0.0322
   51MYC    H57 7483   4.686   1.534   8.717 -0.1164 -2.4832 -0.1569
   51MYC    C32 7484   4.866   1.649   8.665 -0.5666  0.4684 -0.0936
   51MYC    H58 7485   4.888   1.733   8.731  3.1458  0.3405 -0.9018
   51MYC    H59 7486   4.969   1.612   8.651 -1.3246 -1.7241 -0.3166
   51MYC    C33 7487   4.811   1.708   8.538  0.1648 -0.3063 -0.0636
   51MYC    H60 7488   4.703   1.725   8.549  0.1549 -0.0249 -0.6087
   51MYC    H61 7489   4.848   1.809   8.520  3.3570 -1.5111 -1.0294
   51MYC    C34 7490   4.850   1.639   8.408 -0.1222  0.0037 -0.3075
   51MYC    H62 7491   4.955   1.666   8.390  0.4911 -1.9340  0.0205
   51MYC    H63 7492   4.842   1.531   8.424  0.7692 -0.0745 -0.3490
   51MYC    C35 7493   4.761   1.687   8.292 -0.0303  0.8273 -0.2612
   51MYC    H64 7494   4.668   1.631   8.310  0.0220  0.7202 -0.3200
   51MYC    H65 7495   4.741   1.794   8.301 -0.0180  0.8130 -0.0565
   51MYC    C36 7496   4.825   1.666   8.156 -0.1424  0.0684  0.2152
   51MYC    H66 7497   4.908   1.734   8.134  0.4378 -0.9328 -0.8325
   51MYC    H67 7498   4.867   1.565   8.144 -1.5635 -0.5729  0.4406
   51MYC    C37 7499   4.724   1.702   8.047  0.5759 -0.5017  0.8278
   51MYC    H68 7500   4.627   1.654   8.060 -0.9399  1.4091 -2.2711
   51MYC    H69 7501   4.701   1.809   8.048  3.0710  0.1167  0.2613
   51MYC    C38 7502   4.767   1.660   7.906  0.2917 -0.1786 -0.1970
   51MYC    H70 7503   4.858   1.719   7.889 -0.1720  0.6872  0.2584
   51MYC    H71 7504   4.795   1.554   7.902  0.8189 -0.0136 -1.4420
   51MYC    C39 7505   4.661   1.714   7.801  0.3055  0.2456  0.0612
   51MYC    H72 7506   4.562   1.675   7.828  0.2662 -0.0565 -0.5020
   51MYC    H73 7507   4.647   1.822   7.811 -0.0918  0.1361  0.7161
   51MYC    C40 7508   4.699   1.666   7.655 -0.8500 -0.1695 -0.3474
   51MYC    H74 7509   4.796   1.709   7.625 -1.8691  0.6193 -2.7929
   51MYC    H75 7510   4.697   1.558   7.640  2.0655 -0.0807 -2.0932
   51MYC    C41 7511   4.590   1.708   7.546  0.5875 -0.2166 -0.2476
   51MYC    H76 7512   4.490   1.702   7.590  0.7029 -0.3914 -0.0027
   51MYC    H77 7513   4.602   1.817   7.536 -1.6313  0.0374 -0.5684
   51MYC    C42 7514   4.607   1.629   7.413 -0.1827 -0.2989 -1.0924
   51MYC    H78 7515   4.711   1.632   7.377  0.1767  2.3197 -0.0158
   51MYC    H79 7516   4.583   1.523   7.432  2.6449 -0.8446 -0.1245
   51MYC    C43 7517   4.512   1.674   7.304 -0.2108 -0.1930 -0.3314
   51MYC    H80 7518   4.497   1.589   7.236 -2.0785  0.0852 -0.3132
   51MYC    H81 7519   4.547   1.753   7.237  1.3436 -0.8616 -0.3502
   51MYC    H82 7520   4.417   1.708   7.347  0.2135 -2.2584  2.5525
   52MYC   HH15 7521   4.837   2.057   6.905 -2.0072  1.5156 -0.2718
   52MYC    C80 7522   4.781   1.972   6.947 -0.3602  0.1723 -0.6879
   52MYC   H100 7523   4.696   1.970   6.879  0.2779 -1.3341 -1.4922
   52MYC   H101 7524   4.841   1.880   6.941  1.2435  1.0221  1.1219
   52MYC    C79 7525   4.758   1.999   7.098  0.1113 -0.6841  0.3265
   52MYC   H102 7526   4.690   1.923   7.138  0.3037 -1.2189 -0.3341
   52MYC   H103 7527   4.707   2.095   7.108 -0.2308 -0.9501  1.3090
   52MYC    C78 7528   4.879   1.993   7.187  0.8450  0.2632  0.3205
   52MYC   HH14 7529   4.951   2.072   7.161  0.3121  1.8172  3.1484
   52MYC   H104 7530   4.924   1.894   7.178  2.2421  0.9516 -0.6522
   52MYC    C77 7531   4.832   2.013   7.335  0.0526  0.0405  0.2552
   52MYC   H106 7532   4.748   1.944   7.352 -0.0494 -0.2589 -1.2735
   52MYC   H107 7533   4.795   2.116   7.347  3.0363  1.0580  1.8143
   52MYC    C76 7534   4.944   1.973   7.432  0.3144 -0.1716  0.5128
   52MYC   H108 7535   5.042   2.016   7.408 -0.0023  0.8762  1.0292
   52MYC   H109 7536   4.951   1.864   7.428 -1.7668 -0.3713  1.0360
   52MYC    C75 7537   4.898   2.007   7.578 -0.6843 -0.3692  0.0464
   52MYC   H110 7538   4.801   1.958   7.592 -1.6886  1.2650 -0.8609
   52MYC   H111 7539   4.879   2.115   7.577  1.0500 -0.0363  0.4599
   52MYC    C74 7540   5.004   1.977   7.681 -0.0529 -0.0904  1.1067
   52MYC   H112 7541   5.102   2.025   7.668  0.2487 -0.1441  2.8505
   52MYC   H113 7542   5.015   1.868   7.681  1.3940 -0.0022 -1.1381
   52MYC    C73 7543   4.958   2.020   7.815  0.0501 -0.1440  0.3264
   52MYC   HH13 7544   4.857   1.982   7.835 -0.8060  1.3167 -0.9909
   52MYC   H114 7545   4.950   2.129   7.804 -0.8084 -0.2609 -0.2697
   52MYC    C72 7546   5.043   1.985   7.936 -0.0397  0.5508  0.4775
   52MYC   H115 7547   5.148   2.014   7.922  0.4697 -1.6288 -0.7197
   52MYC   H116 7548   5.057   1.877   7.947 -0.5439  0.3326 -0.8663
   52MYC    C71 7549   4.995   2.042   8.069 -0.2674  0.0649 -0.1854
   52MYC   H117 7550   4.889   2.020   8.086 -0.3781  1.0885  0.5293
   52MYC   H118 7551   5.000   2.151   8.084 -1.2517 -0.0440  1.2209
   52MYC    C70 7552   5.091   1.991   8.185  0.3295  0.5569  0.9516
   52MYC   H119 7553   5.188   2.027   8.150  0.2271  0.2621  0.3585
   52MYC   H120 7554   5.103   1.882   8.182  0.4328  0.4492  3.3121
   52MYC    C69 7555   5.059   2.039   8.326 -0.0572  0.5521  0.0528
   52MYC   H121 7556   4.958   2.005   8.350 -0.2815 -1.2026 -2.8815
   52MYC   H122 7557   5.066   2.149   8.333  0.3843  0.5692 -0.5300
   52MYC    C68 7558   5.156   1.981   8.424  0.3721 -0.1744  0.3455
   52MYC   HH12 7559   5.260   2.011   8.404  1.0356 -1.4692  1.6753
   52MYC   H123 7560   5.153   1.872   8.417 -0.8009 -0.3415  2.5099
   52MYC    C67 7561   5.118   2.014   8.566  0.4453  0.5973 -0.4189
   52MYC   H124 7562   5.011   1.995   8.581  1.0934 -3.0223  0.4966
   52MYC   H125 7563   5.147   2.119   8.579 -0.0391  0.6872 -0.0268
   52MYC    C66 7564   5.196   1.929   8.675  0.4051 -0.4600 -0.4533
   52MYC   H126 7565   5.299   1.967   8.675 -0.2995  1.6252 -0.3105
   52MYC   H127 7566   5.193   1.820   8.671  2.2792 -1.0264  4.9544
   52MYC    C65 7567   5.150   1.971   8.816 -0.5481  0.4093  0.0146
   52MYC   H128 7568   5.046   1.937   8.818 -0.8739  1.2679 -1.1406
   52MYC   H129 7569   5.145   2.079   8.834 -1.0338  0.5910 -1.1035
   52MYC    C64 7570   5.217   1.906   8.940  0.2173 -0.0083 -0.1176
   52MYC   H130 7571   5.316   1.952   8.954  0.0398  0.1628  0.6052
   52MYC   H131 7572   5.222   1.797   8.931 -0.8781  0.0318 -1.5737
   52MYC    C63 7573   5.140   1.939   9.065 -0.4125 -0.2324 -0.0054
   52MYC   HH11 7574   5.062   1.861   9.064  0.8015 -1.4746 -0.2979
   52MYC   H132 7575   5.098   2.039   9.051  0.7620  0.0701 -1.6516
   52MYC    C62 7576   5.214   1.919   9.197 -0.8004 -0.0235 -0.7279
   52MYC   H133 7577   5.298   1.990   9.199 -2.3262  1.8544  0.6948
   52MYC   H134 7578   5.238   1.813   9.189 -0.9437 -0.2135  1.1024
   52MYC    C61 7579   5.120   1.933   9.329 -0.1394  0.0775 -0.2836
   52MYC   H135 7580   5.052   1.848   9.343  0.5602 -0.3599  0.5811
   52MYC   H136 7581   5.053   2.016   9.305  0.4705  0.4833 -0.5711
   52MYC    C60 7582   5.194   1.958   9.460  1.3159  0.9950 -0.8215
   52MYC   H137 7583   5.300   1.935   9.453  1.1752 -1.0909  1.9775
   52MYC    C58 7584   5.150   2.056   9.567  0.1988 -0.1780 -0.3966
   52MYC   H138 7585   5.053   2.102   9.549  0.2191 -0.4658 -1.3289
   52MYC    C59 7586   5.139   1.906   9.590 -0.5360 -0.4828  0.0399
   52MYC   H139 7587   5.207   1.867   9.665  1.2164  1.5404 -0.3888
   52MYC   H140 7588   5.042   1.858   9.584 -0.1019 -1.2490 -1.7450
   52MYC    C57 7589   5.252   2.136   9.642 -0.9003 -0.2432 -0.0451
   52MYC   HH10 7590   5.274   2.229   9.588  2.0830 -0.4706  0.5996
   52MYC   H141 7591   5.338   2.068   9.643 -1.8328 -1.4560  0.1803
   52MYC    C56 7592   5.216   2.174   9.789  0.0188 -0.1977 -0.1809
   52MYC   H142 7593   5.205   2.084   9.849 -0.3442  1.3454  2.2154
   52MYC   H143 7594   5.122   2.229   9.803 -0.5081 -1.1718  0.1900
   52MYC    C55 7595   5.314   2.265   9.854  0.5207 -0.4650 -0.3045
   52MYC   H144 7596   5.347   2.346   9.787  2.7567 -0.5353  0.6213
   52MYC   H145 7597   5.404   2.206   9.875  0.6421  0.2815  1.4831
   52MYC    C54 7598   5.264   2.332   9.984  0.2901 -0.1890 -0.4223
   52MYC   H146 7599   5.185   2.399   9.949  1.6739  1.0636 -1.2668
   52MYC   H147 7600   5.338   2.397  10.032 -1.3319  0.6637  1.0442
   52MYC    C53 7601   5.212   2.236  10.090 -0.7187  0.0109 -0.2158
   52MYC   H148 7602   5.105   2.222  10.076 -1.0879  0.5936  1.7574
   52MYC   H149 7603   5.220   2.305  10.175 -0.4339  2.2179 -1.9362
   52MYC    C52 7604   5.283   2.109  10.121 -0.1771  0.3382 -0.1626
   52MYC    H99 7605   5.386   2.124  10.085 -0.5460  0.4459 -1.1791
   52MYC   H150 7606   5.247   2.038  10.046 -0.7985  0.9023 -0.4059
   52MYC    C51 7607   5.282   2.057  10.268 -0.3019 -0.0460 -0.4100
   52MYC    H97 7608   5.332   1.960  10.256 -2.2822 -1.2603  0.5916
   52MYC    H98 7609   5.181   2.042  10.306 -0.1753  0.2381  0.0483
   52MYC    C50 7610   5.367   2.156  10.358  0.2034 -0.0650  0.1314
   52MYC    H95 7611   5.319   2.248  10.392  0.7307  0.1877  0.2028
   52MYC    H96 7612   5.454   2.190  10.300 -1.0253  0.2046 -1.6313
   52MYC    C49 7613   5.426   2.088  10.478 -0.6032 -0.4684  0.2806
   52MYC    H93 7614   5.491   2.156  10.535  0.2967  1.0727 -2.3422
   52MYC    H94 7615   5.495   2.009  10.445 -0.7835 -1.0018  1.1713
   52MYC    C48 7616   5.329   2.030  10.578 -0.0739  0.0865 -0.0153
   52MYC    H91 7617   5.273   1.951  10.527 -0.2032  0.7157 -0.8693
   52MYC    H92 7618   5.261   2.112  10.603  1.5166  1.0986  1.1617
   52MYC    C47 7619   5.405   1.981  10.708  0.0911 -0.2073  0.3668
   52MYC    H89 7620   5.337   1.976  10.794  1.0604  1.8545  1.3393
   52MYC    H90 7621   5.485   2.053  10.732  1.0536 -1.2754  0.4321
   52MYC    C46 7622   5.473   1.847  10.681  0.1569 -0.0839 -0.2662
   52MYC    H87 7623   5.556   1.860  10.611  0.4149 -1.8406 -0.3460
   52MYC    H88 7624   5.400   1.788  10.624  0.1048 -1.0039  0.7035
   52MYC    C45 7625   5.526   1.772  10.801  0.5826  0.0566 -0.7417
   52MYC    H85 7626   5.436   1.739  10.854  0.9812  0.9527  0.5457
   52MYC    H86 7627   5.585   1.839  10.864 -0.6774  1.3486 -0.8738
   52MYC    C44 7628   5.598   1.646  10.755  0.2068  0.3885  0.2446
   52MYC    H83 7629   5.704   1.663  10.735  0.0489  3.1501  1.3429
   52MYC    H84 7630   5.564   1.629  10.652  1.6118 -1.1890  0.0006
   52MYC    C18 7631   5.589   1.522  10.850  0.0852 -0.4056 -0.0586
   52MYC    H31 7632   5.497   1.521  10.908  0.0803  1.4599  0.0426
   52MYC    C17 7633   5.641   1.394  10.796  0.1979  0.0587  0.2858
   52MYC    H30 7634   5.712   1.402  10.714  0.6713 -0.8575  0.5874
   52MYC    C19 7635   5.708   1.451  10.917 -0.5860  0.3240 -0.2570
   52MYC    H32 7636   5.808   1.493  10.909 -1.2292  2.4898  1.8976
   52MYC    H33 7637   5.703   1.378  10.997  0.9851  0.3811 -0.0689
   52MYC    C16 7638   5.542   1.279  10.787  0.5534  0.3195  0.4288
   52MYC    H28 7639   5.496   1.255  10.884  1.1610 -2.8124  0.0556
   52MYC    H29 7640   5.592   1.187  10.753 -2.4145 -1.2601 -0.0568
   52MYC    C15 7641   5.426   1.307  10.678 -0.1233 -0.4246 -0.3111
   52MYC    H26 7642   5.395   1.411  10.695  2.4766  0.6945 -1.7843
   52MYC    H27 7643   5.345   1.235  10.696  0.2004 -0.8260 -0.4476
   52MYC    C14 7644   5.481   1.280  10.530 -0.4548 -0.2530  0.3311
   52MYC    H24 7645   5.392   1.279  10.465  0.1139 -1.9859 -0.4847
   52MYC    H25 7646   5.514   1.175  10.534 -2.5096 -0.9712 -0.1150
   52MYC    C13 7647   5.582   1.381  10.479 -0.4347 -0.1856  0.5028
   52MYC    H22 7648   5.685   1.350  10.503  0.8410  2.1296 -1.5621
   52MYC    H23 7649   5.559   1.483  10.513 -0.4452  0.6561 -1.8786
   52MYC    C12 7650   5.584   1.379  10.328 -0.4835 -0.0756  0.1342
   52MYC    H20 7651   5.490   1.427  10.296 -0.4254  0.6801  1.0447
   52MYC    H21 7652   5.583   1.276  10.293 -3.0842  0.4131 -1.5464
   52MYC    C11 7653   5.706   1.455  10.259  0.3584 -0.5339 -0.1601
   52MYC    H18 7654   5.684   1.450  10.151 -1.1455 -1.4878  0.1531
   52MYC    H19 7655   5.793   1.392  10.278  0.4548 -0.2315  0.3950
   52MYC    C10 7656   5.746   1.591  10.312  0.4393  0.5363 -0.1224
   52MYC    H16 7657   5.852   1.605  10.290  0.4717 -1.6549 -1.6557
   52MYC    H17 7658   5.746   1.608  10.421 -1.8957  1.4449 -0.1891
   52MYC     C9 7659   5.666   1.707  10.261  0.6120  0.7084  0.3599
   52MYC    H14 7660   5.679   1.789  10.334  0.6587 -0.0884  1.2718
   52MYC    H15 7661   5.558   1.689  10.264  0.7432 -0.1396  0.1687
   52MYC     C8 7662   5.693   1.755  10.117 -0.4886  0.0903  0.7563
   52MYC    H12 7663   5.676   1.669  10.052 -0.4423  0.3152  0.4430
   52MYC    H13 7664   5.800   1.778  10.110 -0.8533  1.4958 -1.2393
   52MYC     C7 7665   5.599   1.878  10.067  0.2202  0.4943 -0.0300
   52MYC    H10 7666   5.594   1.960  10.140  1.2424 -0.0863  0.7136
   52MYC    H11 7667   5.501   1.832  10.051  0.6427 -0.4596  0.0860
   52MYC     C6 7668   5.642   1.944   9.939 -0.0466  0.2796  0.0962
   52MYC     H8 7669   5.730   2.008   9.952 -0.6504  1.4972 -1.5114
   52MYC     H9 7670   5.567   2.015   9.905  1.8760  2.6714  0.5535
   52MYC     C5 7671   5.668   1.842   9.820  1.0744 -0.7980  0.3351
   52MYC     H6 7672   5.615   1.746   9.826  0.3025 -0.3998  0.1291
   52MYC     H7 7673   5.775   1.820   9.813  1.3056 -0.4882  2.3326
   52MYC     C4 7674   5.619   1.908   9.681  0.4404  0.2604  0.9126
   52MYC     H4 7675   5.665   2.007   9.689  2.2198 -0.3513 -0.8543
   52MYC     H5 7676   5.510   1.917   9.673  0.3457 -2.0661 -2.2339
   52MYC     C2 7677   5.684   1.849   9.549 -0.1797  0.0392 -0.4620
   52MYC     H2 7678   5.664   1.927   9.475 -1.6992  3.0619  2.8246
   52MYC     O3 7679   5.823   1.825   9.553  0.0267  0.6598 -0.2327
   52MYC     H3 7680   5.876   1.893   9.509  1.6203 -1.4723 -1.7639
   52MYC     C1 7681   5.628   1.717   9.490 -0.3763  0.7526 -0.1261
   52MYC     H1 7682   5.519   1.728   9.483 -0.5036 -0.2868  0.0462
   52MYC    C81 7683   5.665   1.602   9.578 -0.3800 -0.0607 -0.3313
   52MYC    O82 7684   5.781   1.558   9.590 -0.0442 -0.2698 -0.7697
   52MYC    O83 7685   5.562   1.558   9.655 -0.5521  0.1914  0.2154
   52MYC   H105 7686   5.584   1.469   9.688  1.6820  0.5345 -0.2422
   52MYC    C20 7687   5.665   1.675   9.341 -0.8059 -0.8639 -0.6823
   52MYC    H34 7688   5.774   1.664   9.335 -0.6937  0.1137 -0.5754
   52MYC    H35 7689   5.615   1.579   9.324 -1.0049 -0.8235 -0.3526
   52MYC    C21 7690   5.620   1.781   9.237 -0.6453  0.0612  0.0337
   52MYC    H36 7691   5.514   1.810   9.245 -0.0298  1.8601  3.0787
   52MYC    H37 7692   5.684   1.869   9.247  0.4679 -0.7922  0.5668
   52MYC    C22 7693   5.644   1.717   9.099  0.0066 -0.3490  0.8124
   52MYC    H38 7694   5.752   1.728   9.081  0.0564 -0.3638  1.0902
   52MYC    H39 7695   5.611   1.613   9.098  0.4400 -0.5271 -1.9737
   52MYC    C23 7696   5.579   1.792   8.983  0.2538 -0.1496 -0.3911
   52MYC    H40 7697   5.473   1.766   8.992  0.1924  0.2800  0.2994
   52MYC    H41 7698   5.589   1.900   8.998  1.4261 -0.4985  1.7000
   52MYC    C24 7699   5.632   1.763   8.845  0.3290 -0.6363  0.0828
   52MYC    H42 7700   5.712   1.837   8.835 -1.5467  1.6340  0.9817
   52MYC    H43 7701   5.671   1.662   8.831  0.2988 -0.3136 -3.0560
   52MYC    C25 7702   5.530   1.798   8.733 -0.7930 -0.0291  0.6149
   52MYC    H44 7703   5.463   1.711   8.731  0.1345 -0.7628 -0.7280
   52MYC    H45 7704   5.486   1.898   8.743 -0.4131  0.3109 -0.8397
   52MYC    C26 7705   5.592   1.790   8.588  0.4735 -0.0345 -0.5464
   52MYC    H46 7706   5.658   1.877   8.595 -2.0006  2.0383 -1.6104
   52MYC    H47 7707   5.659   1.703   8.580  2.0585  1.0009  0.8488
   52MYC    C27 7708   5.489   1.809   8.478 -0.3702 -0.0249 -0.3842
   52MYC    H48 7709   5.421   1.723   8.483  1.8540 -1.9235 -1.1079
   52MYC    H49 7710   5.440   1.904   8.500  1.0447  0.7931 -0.6355
   52MYC    C28 7711   5.549   1.801   8.339  0.1761 -0.2371  0.5130
   52MYC    H50 7712   5.635   1.866   8.320  0.4350 -0.6304  0.3184
   52MYC    H51 7713   5.588   1.699   8.327  0.0391 -0.2857  0.4786
   52MYC    C29 7714   5.444   1.818   8.231  0.3503 -0.9839  1.1683
   52MYC    H52 7715   5.353   1.759   8.241 -1.6383  2.0092  1.8629
   52MYC    H53 7716   5.424   1.926   8.236  0.5594 -0.9032  0.3962
   52MYC    C30 7717   5.497   1.795   8.088  0.5648 -0.1501 -0.0849
   52MYC    H54 7718   5.591   1.851   8.084 -0.3094  1.4134  0.4759
   52MYC    H55 7719   5.522   1.691   8.065 -1.0558 -0.4572 -0.5994
   52MYC    C31 7720   5.405   1.858   7.986 -0.1311  0.6421  0.1418
   52MYC    H56 7721   5.305   1.814   7.997 -1.5742  3.4586 -0.7267
   52MYC    H57 7722   5.393   1.966   7.997  1.2793  0.7991  0.3080
   52MYC    C32 7723   5.445   1.820   7.839 -1.0752 -0.3235  0.7438
   52MYC    H58 7724   5.548   1.854   7.824 -0.8155 -1.6970 -1.0124
   52MYC    H59 7725   5.447   1.711   7.831 -0.0158 -0.2138 -0.9925
   52MYC    C33 7726   5.355   1.871   7.728  0.0895  0.3067  0.2740
   52MYC    H60 7727   5.262   1.819   7.752  0.1613  0.6778  1.4599
   52MYC    H61 7728   5.342   1.978   7.749 -0.5812  0.2781  0.0080
   52MYC    C34 7729   5.408   1.840   7.587  0.4537  0.5941  0.2347
   52MYC    H62 7730   5.499   1.899   7.571  0.9730 -0.4822 -0.8852
   52MYC    H63 7731   5.423   1.732   7.588 -0.3501  0.4778  1.0602
   52MYC    C35 7732   5.305   1.876   7.480  0.3894 -1.1495  0.0725
   52MYC    H64 7733   5.206   1.837   7.507 -1.1654  2.2491 -0.1560
   52MYC    H65 7734   5.288   1.984   7.492 -0.0364 -1.1662 -0.3370
   52MYC    C36 7735   5.338   1.838   7.332 -0.5733  0.7953 -0.7106
   52MYC    H66 7736   5.440   1.848   7.295 -0.6361 -1.4611 -1.6383
   52MYC    H67 7737   5.329   1.728   7.330  0.9509  0.5710  1.6507
   52MYC    C37 7738   5.248   1.902   7.225  0.5985  0.3641 -0.5174
   52MYC    H68 7739   5.144   1.878   7.251  1.1891 -0.1455  1.5565
   52MYC    H69 7740   5.243   2.011   7.220  0.4558  0.3471 -0.7972
   52MYC    C38 7741   5.293   1.849   7.089  0.0921  0.2451 -0.5909
   52MYC    H70 7742   5.398   1.875   7.070  1.8516 -2.3789  3.9580
   52MYC    H71 7743   5.290   1.739   7.079 -0.6138  0.1573  0.4808
   52MYC    C39 7744   5.204   1.915   6.983  0.4704 -0.2453 -0.8116
   52MYC    H72 7745   5.097   1.910   7.005  0.8143 -1.2902  0.8375
   52MYC    H73 7746   5.227   2.020   6.965  2.0608 -0.3511  0.3421
   52MYC    C40 7747   5.224   1.851   6.845  0.5686 -0.0308 -0.5106
   52MYC    H74 7748   5.322   1.872   6.801  1.5100 -0.4146  1.3145
   52MYC    H75 7749   5.214   1.742   6.852  0.9350 -0.0996 -1.0324
   52MYC    C41 7750   5.113   1.891   6.740 -0.4895  0.4908  0.3258
   52MYC    H76 7751   5.018   1.846   6.768  0.4109 -1.9650 -0.3354
   52MYC    H77 7752   5.099   2.000   6.745  0.3330  0.6549 -0.6156
   52MYC    C42 7753   5.147   1.864   6.594  0.4757  0.1992 -0.0498
   52MYC    H78 7754   5.071   1.914   6.534 -0.3180  0.2189  0.9432
   52MYC    H79 7755   5.247   1.899   6.566 -0.0363  0.7136 -1.3093
   52MYC    C43 7756   5.154   1.718   6.555 -0.9565  0.3599  0.6920
   52MYC    H80 7757   5.236   1.670   6.609  0.2175  2.0409  0.4924
   52MYC    H81 7758   5.177   1.702   6.449  1.2475 -1.0878  1.3243
   52MYC    H82 7759   5.058   1.669   6.574 -0.3201 -1.7278 -1.1705
   53MYC   HH15 7760   5.636   2.208   6.473  0.0712  0.6215  0.2254
   53MYC    C80 7761   5.545   2.149   6.488  0.0875  0.5706  0.1237
   53MYC   H100 7762   5.471   2.177   6.411 -0.6704  0.5245  0.8207
   53MYC   H101 7763   5.561   2.041   6.480  0.4844  0.6532 -0.2761
   53MYC    C79 7764   5.500   2.189   6.628 -0.7672 -0.0554 -0.1858
   53MYC   H102 7765   5.403   2.138   6.634  0.2961 -2.4252 -1.5906
   53MYC   H103 7766   5.483   2.296   6.637  0.2390  0.1390 -0.4216
   53MYC    C78 7767   5.589   2.137   6.738 -0.7692 -0.6619 -0.2400
   53MYC   HH14 7768   5.685   2.186   6.721 -0.2483 -2.0703 -1.6748
   53MYC   H104 7769   5.607   2.029   6.735  1.9246 -0.2448 -1.3621
   53MYC    C77 7770   5.531   2.181   6.877 -0.2825  0.4806  0.0799
   53MYC   H106 7771   5.443   2.120   6.899  0.5770 -0.6686  0.4580
   53MYC   H107 7772   5.503   2.287   6.878  2.0319  1.1937 -1.5317
   53MYC    C76 7773   5.626   2.148   6.995  0.0973  0.1891 -0.0726
   53MYC   H108 7774   5.715   2.211   6.983 -0.5785  1.3688  0.9644
   53MYC   H109 7775   5.664   2.046   6.980 -0.8747 -0.1755 -0.1388
   53MYC    C75 7776   5.563   2.155   7.132 -0.2407 -0.1208  0.4204
   53MYC   H110 7777   5.493   2.071   7.143  1.7982 -1.5626  4.1381
   53MYC   H111 7778   5.510   2.249   7.147  1.0790  0.7788 -0.3309
   53MYC    C74 7779   5.664   2.132   7.240 -0.7658  1.0694  0.2033
   53MYC   H112 7780   5.760   2.180   7.221  0.5159 -0.9541  1.2039
   53MYC   H113 7781   5.685   2.024   7.237  0.9494  1.4065 -0.8867
   53MYC    C73 7782   5.606   2.169   7.380 -0.1007  0.5112 -0.4249
   53MYC   HH13 7783   5.504   2.131   7.391 -0.0018  0.1141 -0.8415
   53MYC   H114 7784   5.579   2.275   7.377  2.1132  1.1218 -0.1748
   53MYC    C72 7785   5.687   2.129   7.496 -0.5525  0.2736 -0.3986
   53MYC   H115 7786   5.784   2.179   7.490 -0.3245 -0.0583  0.4034
   53MYC   H116 7787   5.714   2.023   7.491 -0.7477  0.2818 -2.2003
   53MYC    C71 7788   5.629   2.170   7.631 -0.2616  0.2253  0.2102
   53MYC   H117 7789   5.533   2.118   7.644 -1.7958  2.5608 -1.0594
   53MYC   H118 7790   5.615   2.279   7.639  0.0952  0.3731 -1.0008
   53MYC    C70 7791   5.740   2.130   7.732 -0.0391  0.3156 -0.5414
   53MYC   H119 7792   5.833   2.184   7.712 -0.9008  1.2976 -2.1364
   53MYC   H120 7793   5.754   2.022   7.733  2.0167  0.5265 -1.5011
   53MYC    C69 7794   5.683   2.174   7.869 -0.9883 -0.5814  0.3218
   53MYC   H121 7795   5.595   2.113   7.893  1.8084 -5.4130 -0.3039
   53MYC   H122 7796   5.658   2.280   7.878 -0.4574 -0.5081  1.0926
   53MYC    C68 7797   5.782   2.134   7.987  0.1903 -0.5681  1.0428
   53MYC   HH12 7798   5.883   2.178   7.984  0.0681 -0.3311 -1.1497
   53MYC   H123 7799   5.795   2.026   7.981  2.2142 -0.2756 -2.0573
   53MYC    C67 7800   5.718   2.165   8.128  0.0981  0.5653 -0.3426
   53MYC   H124 7801   5.617   2.123   8.139 -0.5027  1.9408 -0.4338
   53MYC   H125 7802   5.714   2.274   8.122  2.6850  0.7256 -0.3732
   53MYC    C66 7803   5.805   2.112   8.246 -0.3216  0.3133 -0.1245
   53MYC   H126 7804   5.902   2.159   8.227 -0.5579  0.5222 -0.8459
   53MYC   H127 7805   5.795   2.003   8.238 -1.9828  0.1918  2.3830
   53MYC    C65 7806   5.769   2.171   8.387  0.4792  0.4426  0.2606
   53MYC   H128 7807   5.669   2.141   8.420  1.0014  0.1575  1.6910
   53MYC   H129 7808   5.765   2.280   8.379 -0.9679  0.3281 -1.2018
   53MYC    C64 7809   5.869   2.123   8.501  0.4588  0.1451 -0.5021
   53MYC   H130 7810   5.971   2.162   8.492  0.5413 -0.5160 -3.1830
   53MYC   H131 7811   5.878   2.014   8.490  0.3391 -0.0281  0.8663
   53MYC    C63 7812   5.802   2.154   8.639  0.0646  0.0120 -0.3818
   53MYC   HH11 7813   5.705   2.108   8.663 -0.1341  1.6786  2.4832
   53MYC   H132 7814   5.785   2.262   8.643  1.7862  0.2755  0.5348
   53MYC    C62 7815   5.896   2.117   8.761  0.4039 -0.0319  0.3557
   53MYC   H133 7816   5.985   2.177   8.741 -0.2780  0.5497 -1.0768
   53MYC   H134 7817   5.917   2.009   8.753 -2.4703 -0.5315 -2.5799
   53MYC    C61 7818   5.822   2.165   8.892 -0.2049 -0.4253  0.4276
   53MYC   H135 7819   5.727   2.119   8.920  0.4513 -0.6989  2.3685
   53MYC   H136 7820   5.806   2.273   8.902  1.3818 -0.2296  1.1425
   53MYC    C60 7821   5.925   2.140   9.008 -0.1108  0.3816  0.3909
   53MYC   H137 7822   6.024   2.178   8.985 -0.2901  0.0149 -1.0837
   53MYC    C58 7823   5.880   2.140   9.153  0.4970 -0.1313 -0.2617
   53MYC   H138 7824   5.772   2.137   9.169  0.5299 -2.1018 -0.1315
   53MYC    C59 7825   5.922   2.012   9.079  0.5076  0.5472  0.0618
   53MYC   H139 7826   6.016   1.969   9.112  0.5683 -1.4258 -2.3681
   53MYC   H140 7827   5.856   1.929   9.055  3.5429 -1.7377 -1.0634
   53MYC    C57 7828   5.947   2.213   9.272  0.2052  1.0430  0.2924
   53MYC   HH10 7829   5.917   2.318   9.279  0.7255  1.1920  0.3133
   53MYC   H141 7830   6.054   2.230   9.253  0.2895 -0.2261 -0.4773
   53MYC    C56 7831   5.921   2.142   9.411 -0.6585 -0.0785  0.7500
   53MYC   H142 7832   5.975   2.047   9.404 -0.5760 -0.2701  3.2466
   53MYC   H143 7833   5.813   2.124   9.402 -0.4959 -0.6917 -0.1330
   53MYC    C55 7834   5.974   2.226   9.530 -0.0867 -0.6682 -0.2538
   53MYC   H144 7835   5.919   2.321   9.539 -2.2791 -2.0343  2.0154
   53MYC   H145 7836   6.078   2.254   9.509 -0.8954  0.2714 -3.6455
   53MYC    C54 7837   5.946   2.161   9.671  0.4824  0.4126  0.2784
   53MYC   H146 7838   5.964   2.053   9.667 -0.4338  0.1897  1.6856
   53MYC   H147 7839   5.839   2.179   9.682  0.7847  1.3950  1.8815
   53MYC    C53 7840   6.007   2.242   9.785 -0.0720  0.3402  0.2841
   53MYC   H148 7841   5.976   2.347   9.790  0.7142  0.6647 -1.0852
   53MYC   H149 7842   6.114   2.252   9.764 -0.1736  1.0023  0.0704
   53MYC    C52 7843   5.983   2.188   9.927 -0.6095 -0.0707  0.5592
   53MYC    H99 7844   5.877   2.195   9.953 -0.8440  1.2900 -0.6439
   53MYC   H150 7845   6.038   2.257   9.991 -0.5944  0.8275 -0.3874
   53MYC    C51 7846   6.031   2.044   9.973 -0.4406  0.0275  1.6250
   53MYC    H97 7847   6.139   2.033   9.961 -0.0590  2.0724  2.8644
   53MYC    H98 7848   5.987   1.974   9.901  0.8513  1.4970 -0.7167
   53MYC    C50 7849   5.989   1.996  10.114  0.3659  0.1559  0.7131
   53MYC    H95 7850   6.033   1.896  10.113  1.0758  0.4504 -0.8566
   53MYC    H96 7851   5.881   1.980  10.127 -0.6236  0.7277 -4.4919
   53MYC    C49 7852   6.053   2.073  10.227 -0.3444 -0.0003 -0.7229
   53MYC    H93 7853   5.982   2.132  10.285 -1.1369  0.5308 -2.1700
   53MYC    H94 7854   6.139   2.136  10.202  0.6112 -1.0404 -0.1332
   53MYC    C48 7855   6.114   1.985  10.336 -0.1652 -0.5043  0.3753
   53MYC    H91 7856   6.171   2.056  10.397 -0.1729 -1.0495  1.0432
   53MYC    H92 7857   6.184   1.909  10.302 -1.3356 -1.3963 -0.1283
   53MYC    C47 7858   6.020   1.903  10.439 -0.0473 -0.9971  0.4735
   53MYC    H89 7859   5.991   1.809  10.391 -2.0891  0.0977 -0.5867
   53MYC    H90 7860   5.929   1.961  10.459  0.0926 -0.3414 -0.7020
   53MYC    C46 7861   6.094   1.851  10.562 -0.3404 -0.0612 -0.3036
   53MYC    H87 7862   6.147   1.935  10.608 -0.3931  0.1825 -0.6826
   53MYC    H88 7863   6.164   1.770  10.540 -0.1549 -0.3530  1.2635
   53MYC    C45 7864   5.989   1.793  10.661  0.0283  0.0707  0.6154
   53MYC    H85 7865   6.047   1.742  10.739  0.2896  2.6333  2.1962
   53MYC    H86 7866   5.916   1.726  10.616 -2.3773  1.9293  1.5352
   53MYC    C44 7867   5.898   1.893  10.732  0.0642 -0.1788 -0.1154
   53MYC    H83 7868   5.794   1.900  10.696 -0.1000 -0.8557  0.2106
   53MYC    H84 7869   5.947   1.988  10.706 -0.4674  0.8501  2.3544
   53MYC    C18 7870   5.909   1.891  10.882  0.5023  0.2530 -0.1983
   53MYC    H31 7871   5.923   1.791  10.922  0.1296 -0.0204 -0.7363
   53MYC    C17 7872   5.992   1.997  10.948 -0.2304  0.0535 -0.0371
   53MYC    H30 7873   6.028   2.085  10.895 -0.0117 -1.1824 -2.0083
   53MYC    C19 7874   5.840   2.001  10.956  0.0119  0.4752  0.1108
   53MYC    H32 7875   5.792   2.075  10.892 -0.2248 -1.3646 -1.9252
   53MYC    H33 7876   5.793   1.982  11.052  3.6838 -0.4021  1.9354
   53MYC    C16 7877   6.073   1.964  11.074  0.3643 -0.7357 -0.1496
   53MYC    H28 7878   6.062   1.860  11.107  1.8365 -0.2385  2.2023
   53MYC    H29 7879   6.031   2.020  11.158  0.2451 -1.7609  0.4959
   53MYC    C15 7880   6.228   1.993  11.049  0.1684 -0.5103  0.1048
   53MYC    H26 7881   6.274   1.966  11.145  1.0685  1.8314  0.3811
   53MYC    H27 7882   6.255   2.099  11.043  1.0930 -0.8143 -3.4873
   53MYC    C14 7883   6.297   1.908  10.936 -0.0877  0.0683 -0.3208
   53MYC    H24 7884   6.402   1.940  10.930 -0.7735  2.4351 -0.5535
   53MYC    H25 7885   6.261   1.944  10.840  0.6883 -0.9512 -1.0149
   53MYC    C13 7886   6.287   1.753  10.943 -0.5235  0.7256 -0.8955
   53MYC    H22 7887   6.180   1.732  10.956 -0.8199  1.8623 -1.3509
   53MYC    H23 7888   6.340   1.715  11.031  0.6701 -0.3748 -2.0349
   53MYC    C12 7889   6.342   1.672  10.826 -0.3047 -0.1859  0.9954
   53MYC    H20 7890   6.440   1.713  10.797 -0.8181  1.3980  1.3798
   53MYC    H21 7891   6.284   1.695  10.736  0.0653 -0.8704  0.5722
   53MYC    C11 7892   6.345   1.521  10.841 -0.6729  0.8516 -0.2533
   53MYC    H18 7893   6.249   1.467  10.838 -0.1720 -0.0358 -0.6853
   53MYC    H19 7894   6.379   1.498  10.942 -1.6581  1.4304  0.2282
   53MYC    C10 7895   6.452   1.440  10.758  0.5120 -0.5356  0.9936
   53MYC    H16 7896   6.453   1.334  10.785 -0.2447 -1.3343 -1.7822
   53MYC    H17 7897   6.553   1.474  10.785  0.4310  0.9922 -0.4748
   53MYC     C9 7898   6.439   1.462  10.602  0.0165  0.3553 -0.8277
   53MYC    H14 7899   6.522   1.403  10.563  2.3929  0.6557  3.1906
   53MYC    H15 7900   6.459   1.566  10.575  3.0769  0.4382  1.2641
   53MYC     C8 7901   6.304   1.408  10.553  0.0490  0.5249  0.2172
   53MYC    H12 7902   6.224   1.457  10.609  0.0694 -0.6243  1.2916
   53MYC    H13 7903   6.302   1.304  10.589  1.4073  0.1998 -0.5583
   53MYC     C7 7904   6.269   1.421  10.402 -0.3329  0.6836  0.2152
   53MYC    H10 7905   6.302   1.522  10.374 -0.7117  0.1563 -2.3911
   53MYC    H11 7906   6.160   1.417  10.388 -0.2800 -0.2926  0.0210
   53MYC     C6 7907   6.338   1.331  10.306  0.2548  0.3516 -0.1198
   53MYC     H8 7908   6.337   1.227  10.342 -0.8083  0.8928  1.4871
   53MYC     H9 7909   6.440   1.369  10.302  0.8526 -1.2286 -0.6975
   53MYC     C5 7910   6.297   1.330  10.147  0.4480 -0.3378 -0.6468
   53MYC     H6 7911   6.358   1.261  10.088 -0.6752 -0.5498 -1.6121
   53MYC     H7 7912   6.306   1.431  10.106 -1.9372 -0.9363 -2.9763
   53MYC     C4 7913   6.150   1.277  10.115  0.5176 -0.5782  1.2077
   53MYC     H4 7914   6.075   1.348  10.152  1.4210  0.1734  1.6444
   53MYC     H5 7915   6.131   1.178  10.159  0.7105 -1.4456 -0.5988
   53MYC     C2 7916   6.126   1.251   9.963  0.1314 -0.6969  0.2903
   53MYC     H2 7917   6.208   1.195   9.918 -0.0182  0.6605 -1.8279
   53MYC     O3 7918   6.009   1.177   9.961  0.1015  0.0754  0.0536
   53MYC     H3 7919   6.019   1.088  10.000 -0.2046  0.4170  0.9490
   53MYC     C1 7920   6.113   1.374   9.864  1.1356 -0.0775  0.3078
   53MYC     H1 7921   6.197   1.442   9.881  0.8452  0.2614  0.3943
   53MYC    C81 7922   5.970   1.445   9.883 -1.1322 -0.4660  0.1353
   53MYC    O82 7923   5.864   1.395   9.856  0.0132  0.1932  0.3782
   53MYC    O83 7924   5.986   1.574   9.939  0.2028  0.2949 -0.3082
   53MYC   H105 7925   5.899   1.598   9.976  0.8560 -1.2206  2.5200
   53MYC    C20 7926   6.129   1.340   9.716 -0.7440  0.0205  0.9538
   53MYC    H34 7927   6.229   1.297   9.705 -0.8686 -0.3277  1.1705
   53MYC    H35 7928   6.050   1.275   9.676 -0.6557  1.1219 -1.1736
   53MYC    C21 7929   6.110   1.465   9.628  0.3669 -0.2246  0.3762
   53MYC    H36 7930   6.013   1.512   9.645  0.8671  0.5190  1.2923
   53MYC    H37 7931   6.181   1.545   9.654  0.4681 -0.7058  1.6780
   53MYC    C22 7932   6.127   1.415   9.483 -0.4462 -0.5876 -0.2189
   53MYC    H38 7933   6.235   1.409   9.465 -0.2496 -0.4414  0.8519
   53MYC    H39 7934   6.087   1.313   9.474 -0.0977 -0.8082  0.6806
   53MYC    C23 7935   6.051   1.499   9.374  0.1736 -0.1488  0.0082
   53MYC    H40 7936   5.945   1.477   9.364  0.4602 -0.9408 -1.5309
   53MYC    H41 7937   6.067   1.598   9.421  2.9272 -1.0734  1.2555
   53MYC    C24 7938   6.113   1.494   9.233 -0.0148  0.2354 -0.7441
   53MYC    H42 7939   6.217   1.527   9.239  0.8574 -2.0371 -2.0123
   53MYC    H43 7940   6.118   1.387   9.208  0.7373 -0.2525  1.3318
   53MYC    C25 7941   6.022   1.572   9.127  1.1228  0.4345 -0.7084
   53MYC    H44 7942   5.926   1.519   9.135  1.2219  0.3179 -0.2615
   53MYC    H45 7943   6.014   1.673   9.169 -0.7478 -0.4999  1.4043
   53MYC    C26 7944   6.075   1.562   8.986 -0.6678 -0.5292  0.3974
   53MYC    H46 7945   6.161   1.627   8.972 -1.7913  0.7894 -0.6821
   53MYC    H47 7946   6.115   1.462   8.966 -0.5499 -0.0674 -1.8448
   53MYC    C27 7947   5.976   1.600   8.880 -1.0463 -0.1370  0.3680
   53MYC    H48 7948   5.881   1.545   8.884 -1.4182  0.3826 -1.0391
   53MYC    H49 7949   5.956   1.707   8.892 -0.0918  0.0107  0.7881
   53MYC    C28 7950   6.030   1.564   8.744  0.1536  0.2728  0.4568
   53MYC    H50 7951   6.119   1.622   8.717 -1.3749  3.0303  0.9924
   53MYC    H51 7952   6.053   1.457   8.742 -1.6233 -0.1351  0.6828
   53MYC    C29 7953   5.923   1.593   8.642 -0.6729 -0.5789 -0.0290
   53MYC    H52 7954   5.828   1.540   8.654 -0.8823 -0.8595 -2.4367
   53MYC    H53 7955   5.903   1.699   8.660  2.3667  0.1898 -0.5415
   53MYC    C30 7956   5.971   1.570   8.496 -0.5275 -0.3358  0.0695
   53MYC    H54 7957   6.075   1.602   8.479 -0.5754  0.1754  0.7132
   53MYC    H55 7958   5.956   1.462   8.487  0.1784 -0.5164  0.8711
   53MYC    C31 7959   5.884   1.632   8.380 -0.0386  0.0460 -0.2597
   53MYC    H56 7960   5.787   1.582   8.390  1.4886 -2.7596  2.1655
   53MYC    H57 7961   5.867   1.737   8.409  1.0254  0.5883 -1.5019
   53MYC    C32 7962   5.951   1.623   8.242 -0.1367 -0.4073 -0.1281
   53MYC    H58 7963   6.042   1.683   8.238 -0.3616 -0.1146 -1.5184
   53MYC    H59 7964   5.976   1.519   8.221  1.2685 -0.3161  0.9494
   53MYC    C33 7965   5.847   1.662   8.135 -0.5819  0.2688  0.1296
   53MYC    H60 7966   5.755   1.609   8.162 -1.2719  1.1971 -0.3250
   53MYC    H61 7967   5.831   1.770   8.130 -2.1301  0.0216 -0.9119
   53MYC    C34 7968   5.899   1.639   7.988 -0.1376 -0.2562  0.0308
   53MYC    H62 7969   5.995   1.687   7.963 -0.3974 -0.0011 -0.4814
   53MYC    H63 7970   5.922   1.534   7.966  1.6253  0.5302 -2.3260
   53MYC    C35 7971   5.802   1.691   7.884  0.2089 -0.2181 -0.5705
   53MYC    H64 7972   5.713   1.628   7.899 -1.1053  1.4695 -0.9680
   53MYC    H65 7973   5.778   1.797   7.900  1.3947 -0.3948  3.2477
   53MYC    C36 7974   5.854   1.672   7.737  1.0014  0.6302 -0.7999
   53MYC    H66 7975   5.944   1.731   7.717  1.3291  0.6519  0.6383
   53MYC    H67 7976   5.881   1.566   7.726  2.0783  0.6642  1.1246
   53MYC    C37 7977   5.755   1.716   7.627 -0.3390 -0.1554 -0.1601
   53MYC    H68 7978   5.656   1.684   7.663  0.8767 -2.2267  1.5368
   53MYC    H69 7979   5.761   1.825   7.612 -1.6972  0.4284  2.8095
   53MYC    C38 7980   5.775   1.638   7.491  0.1323  0.1507 -0.8438
   53MYC    H70 7981   5.883   1.621   7.482  0.1072 -0.9023  0.4970
   53MYC    H71 7982   5.726   1.540   7.497 -2.6564  1.4020 -1.5728
   53MYC    C39 7983   5.706   1.706   7.365 -0.4301  0.1241  0.3054
   53MYC    H72 7984   5.598   1.718   7.374 -0.8109 -1.1206 -1.9037
   53MYC    H73 7985   5.761   1.801   7.356  1.1037 -0.7256  0.2684
   53MYC    C40 7986   5.720   1.635   7.227 -0.1543  0.6019 -0.3567
   53MYC    H74 7987   5.825   1.619   7.202  0.1564  0.1193  1.1351
   53MYC    H75 7988   5.664   1.543   7.244 -1.4006  1.5400  0.9467
   53MYC    C41 7989   5.660   1.697   7.100 -0.5859  0.2909  0.4138
   53MYC    H76 7990   5.552   1.709   7.109 -1.0342 -1.3749 -1.9237
   53MYC    H77 7991   5.705   1.794   7.074  1.1038 -1.0787 -2.3342
   53MYC    C42 7992   5.680   1.612   6.964  0.6013  0.1244 -0.3507
   53MYC    H78 7993   5.785   1.606   6.933  0.6682  1.9715 -0.5631
   53MYC    H79 7994   5.636   1.512   6.978  1.3253  0.0465  1.6121
   53MYC    C43 7995   5.613   1.680   6.842 -0.0628  0.1509  1.0743
   53MYC    H80 7996   5.508   1.697   6.867 -0.5370  0.1604 -0.7997
   53MYC    H81 7997   5.611   1.624   6.748 -0.5923  0.4642  0.8951
   53MYC    H82 7998   5.660   1.777   6.821 -0.2744  0.2436  1.0265
   54MYC   HH15 7999   5.644   2.463   6.302 -1.3967  0.9299  0.1053
   54MYC    C80 8000   5.734   2.524   6.293 -0.1972 -0.7516  0.2459
   54MYC   H100 8001   5.772   2.500   6.193  0.3430  1.9343 -0.2713
   54MYC   H101 8002   5.725   2.633   6.297  3.6598 -0.3102  0.7135
   54MYC    C79 8003   5.836   2.488   6.401 -0.6736 -0.1304  0.5223
   54MYC   H102 8004   5.923   2.555   6.387 -0.7412 -0.4368 -1.6989
   54MYC   H103 8005   5.863   2.382   6.403  0.1386  0.0721  1.8752
   54MYC    C78 8006   5.772   2.509   6.546 -0.1976 -0.1782 -0.7704
   54MYC   HH14 8007   5.677   2.455   6.552  0.2912 -0.9438  0.3936
   54MYC   H104 8008   5.765   2.615   6.574  2.6057  0.1847 -1.1326
   54MYC    C77 8009   5.870   2.460   6.665 -0.2521  0.8081 -0.5521
   54MYC   H106 8010   5.961   2.522   6.669  1.1125 -1.1630  1.6171
   54MYC   H107 8011   5.898   2.355   6.652 -0.6099  0.2355  2.5742
   54MYC    C76 8012   5.804   2.473   6.810 -0.5426 -0.0675  0.2096
   54MYC   H108 8013   5.711   2.416   6.816 -2.1169  2.2525 -0.5401
   54MYC   H109 8014   5.778   2.578   6.829  4.3484  1.2878  0.7418
   54MYC    C75 8015   5.899   2.439   6.921 -0.5150 -0.4721 -0.0998
   54MYC   H110 8016   5.994   2.487   6.896 -1.4027  0.8124 -1.1245
   54MYC   H111 8017   5.907   2.329   6.925 -0.9131 -0.5183 -0.4476
   54MYC    C74 8018   5.841   2.482   7.053  0.0174 -0.4409 -0.2796
   54MYC   H112 8019   5.743   2.435   7.067 -0.8868  1.3886 -0.1052
   54MYC   H113 8020   5.815   2.588   7.047 -1.0822 -0.7194 -0.7334
   54MYC    C73 8021   5.940   2.448   7.172 -0.6929 -0.1253 -0.0608
   54MYC   HH13 8022   6.031   2.509   7.163  0.2301 -1.5589 -0.9029
   54MYC   H114 8023   5.976   2.345   7.165  2.0920  0.8357 -1.3889
   54MYC    C72 8024   5.880   2.473   7.313  0.2782  0.8057  0.5864
   54MYC   H115 8025   5.804   2.396   7.328 -0.1890  1.4082  1.3295
   54MYC   H116 8026   5.847   2.577   7.322  2.1875  1.7639 -2.0532
   54MYC    C71 8027   5.986   2.449   7.428 -0.0575  0.1017  0.2175
   54MYC   H117 8028   6.079   2.504   7.407  0.6853 -1.8413 -2.0919
   54MYC   H118 8029   6.010   2.342   7.436 -0.9763  0.0436  3.5914
   54MYC    C70 8030   5.923   2.475   7.566 -0.1308  0.6050 -0.3905
   54MYC   H119 8031   5.828   2.421   7.565  0.4050 -0.5204  1.9713
   54MYC   H120 8032   5.891   2.579   7.580 -4.1710 -0.7452  2.1890
   54MYC    C69 8033   6.027   2.435   7.682  0.3550  0.1231 -0.8583
   54MYC   H121 8034   6.110   2.506   7.679  1.5618 -1.2473 -3.2513
   54MYC   H122 8035   6.064   2.332   7.675  2.1429  0.7561 -1.2257
   54MYC    C68 8036   5.974   2.454   7.819  0.2649  0.4078  0.8139
   54MYC   HH12 8037   5.880   2.399   7.819  0.2020  0.5098  0.3320
   54MYC   H123 8038   5.962   2.563   7.822  2.1622  0.6506  0.9722
   54MYC    C67 8039   6.069   2.422   7.926  0.5586 -0.4144 -0.2773
   54MYC   H124 8040   6.168   2.466   7.908 -0.3885  0.7153 -3.3520
   54MYC   H125 8041   6.069   2.312   7.934 -1.1770 -0.4354 -0.0843
   54MYC    C66 8042   6.024   2.471   8.061 -0.1112 -0.0935  0.1189
   54MYC   H126 8043   5.918   2.455   8.084 -0.2323  3.1047  2.4187
   54MYC   H127 8044   6.039   2.579   8.056 -3.1096  0.6553  3.1962
   54MYC    C65 8045   6.102   2.410   8.175 -0.3810 -0.4217  0.8298
   54MYC   H128 8046   6.204   2.449   8.161 -0.8287  0.0591 -1.5861
   54MYC   H129 8047   6.115   2.301   8.175  0.9739 -0.2821  0.5402
   54MYC    C64 8048   6.048   2.456   8.309  0.4824 -0.3481 -0.1568
   54MYC   H130 8049   5.951   2.412   8.333  0.5291 -1.0330 -1.1635
   54MYC   H131 8050   6.032   2.565   8.312  1.7291 -0.1516  0.0075
   54MYC    C63 8051   6.141   2.418   8.425  0.6241  0.3447 -1.5120
   54MYC   HH11 8052   6.237   2.472   8.423  2.6496 -2.9298 -1.2766
   54MYC   H132 8053   6.172   2.313   8.417 -0.3731 -0.5711  3.3820
   54MYC    C62 8054   6.080   2.445   8.557 -0.5429 -0.1300  0.3271
   54MYC   H133 8055   5.991   2.385   8.583 -0.8253  0.6546  1.2366
   54MYC   H134 8056   6.052   2.550   8.568 -1.3989 -0.5220  2.4296
   54MYC    C61 8057   6.184   2.417   8.669 -0.1895  0.0421  0.2445
   54MYC   H135 8058   6.278   2.468   8.645  0.4405 -1.3691 -0.3429
   54MYC   H136 8059   6.216   2.313   8.671 -0.5024 -0.0580  0.0791
   54MYC    C60 8060   6.148   2.454   8.809  0.4241  0.8857 -0.3987
   54MYC   H137 8061   6.047   2.423   8.834  0.0460  1.4573 -1.1675
   54MYC    C58 8062   6.248   2.473   8.918  0.0435  0.0086  0.0673
   54MYC   H138 8063   6.353   2.490   8.894  0.0034 -2.6932 -2.5980
   54MYC    C59 8064   6.168   2.587   8.871  0.2125  0.4755  0.1036
   54MYC   H139 8065   6.100   2.624   8.947  1.3249 -2.3156  2.7091
   54MYC   H140 8066   6.212   2.660   8.804 -0.2104  0.2509 -0.4332
   54MYC    C57 8067   6.229   2.417   9.059  0.2275  0.2298 -0.4199
   54MYC   HH10 8068   6.280   2.319   9.059  0.0844  0.0931 -2.4717
   54MYC   H141 8069   6.126   2.392   9.083  0.7092  0.0882  1.6952
   54MYC    C56 8070   6.276   2.511   9.171 -0.0459  0.2428 -0.2656
   54MYC   H142 8071   6.226   2.608   9.158 -2.2335 -1.1353 -3.3164
   54MYC   H143 8072   6.385   2.521   9.163 -0.2296  2.4565 -0.7521
   54MYC    C55 8073   6.249   2.455   9.315 -0.0649 -0.3948  0.4243
   54MYC   H144 8074   6.269   2.347   9.316  1.2577 -0.1770 -0.6290
   54MYC   H145 8075   6.145   2.445   9.350  0.1400 -3.7612  0.4130
   54MYC    C54 8076   6.338   2.517   9.428  0.4697  0.3609 -0.4584
   54MYC   H146 8077   6.311   2.623   9.439  2.7880  0.7500  3.1611
   54MYC   H147 8078   6.442   2.527   9.394  1.4126 -0.1168  2.1229
   54MYC    C53 8079   6.320   2.446   9.564 -0.0180 -0.3054  0.3903
   54MYC   H148 8080   6.350   2.340   9.565  1.2483 -0.0271 -2.0402
   54MYC   H149 8081   6.213   2.438   9.586 -0.1198 -3.4648 -0.6709
   54MYC    C52 8082   6.390   2.521   9.680 -0.6447 -0.6917  0.1285
   54MYC    H99 8083   6.356   2.625   9.687 -0.6522 -0.3522 -3.3699
   54MYC   H150 8084   6.499   2.514   9.680 -0.5713  0.3050  0.3348
   54MYC    C51 8085   6.343   2.451   9.809  0.3786 -0.1694 -0.6907
   54MYC    H97 8086   6.391   2.353   9.816 -2.4580 -1.5473  2.1488
   54MYC    H98 8087   6.234   2.442   9.816  0.4547 -0.3894  0.2799
   54MYC    C50 8088   6.394   2.530   9.934 -0.7001 -0.1125 -1.2793
   54MYC    H95 8089   6.334   2.621   9.944 -2.4274 -1.3265  0.0544
   54MYC    H96 8090   6.502   2.549   9.937 -0.5694 -0.9475 -0.5204
   54MYC    C49 8091   6.355   2.453  10.067  0.1244 -0.0718  0.1409
   54MYC    H93 8092   6.408   2.358  10.083 -0.2991 -0.1905  0.9140
   54MYC    H94 8093   6.250   2.427  10.046  1.2492 -2.7109 -3.1992
   54MYC    C48 8094   6.380   2.549  10.186 -0.7841 -0.5332  0.1704
   54MYC    H91 8095   6.305   2.629  10.181  0.0673  0.6061  3.5045
   54MYC    H92 8096   6.480   2.588  10.166 -2.0179  2.0543 -1.5021
   54MYC    C47 8097   6.367   2.495  10.330  0.0080  0.0852 -0.2252
   54MYC    H89 8098   6.399   2.571  10.402 -0.5786  1.4702 -1.3976
   54MYC    H90 8099   6.443   2.417  10.346 -0.0388 -0.0466 -0.6447
   54MYC    C46 8100   6.218   2.462  10.372 -0.4996 -0.2077 -0.2808
   54MYC    H87 8101   6.170   2.395  10.299 -1.1360 -0.5766  0.4625
   54MYC    H88 8102   6.159   2.554  10.373 -0.2153 -0.0231  0.8398
   54MYC    C45 8103   6.188   2.396  10.506  0.1063 -0.3479 -0.8525
   54MYC    H85 8104   6.245   2.463  10.572  2.4965  0.4110 -3.4994
   54MYC    H86 8105   6.241   2.300  10.500  0.4884 -0.1988 -0.0832
   54MYC    C44 8106   6.034   2.376  10.535 -0.2011 -0.0372 -0.2595
   54MYC    H83 8107   5.986   2.301  10.471 -3.8269  1.8215  0.0804
   54MYC    H84 8108   5.973   2.465  10.521 -1.6762 -0.7262  1.4655
   54MYC    C18 8109   6.016   2.324  10.673  0.0069 -0.7569  0.7163
   54MYC    H31 8110   6.091   2.252  10.705  0.1275 -0.2077  1.6822
   54MYC    C17 8111   5.991   2.422  10.789 -0.2143 -0.0066 -0.1635
   54MYC    H30 8112   5.978   2.524  10.753 -1.9420 -0.8286 -2.1157
   54MYC    C19 8113   5.879   2.330  10.742  0.2528  0.1162 -0.1941
   54MYC    H32 8114   5.792   2.360  10.685 -1.4485  0.6744  2.5301
   54MYC    H33 8115   5.856   2.255  10.817 -1.1743  0.9936  0.2753
   54MYC    C16 8116   6.054   2.418  10.927  0.3593 -0.4860 -0.5302
   54MYC    H28 8117   6.058   2.315  10.965 -0.9989 -0.7594 -1.0380
   54MYC    H29 8118   6.008   2.471  11.011  0.2304 -2.0371  0.4291
   54MYC    C15 8119   6.206   2.459  10.914 -0.9824 -0.0639 -0.2104
   54MYC    H26 8120   6.257   2.374  10.868 -0.2699  1.3865 -2.2700
   54MYC    H27 8121   6.240   2.462  11.018  0.1046  0.0882 -0.5575
   54MYC    C14 8122   6.233   2.595  10.833 -0.6239  0.6136 -0.1154
   54MYC    H24 8123   6.171   2.673  10.880 -1.7433 -0.5428  0.4014
   54MYC    H25 8124   6.203   2.591  10.728 -1.3354 -1.2173  0.1221
   54MYC    C13 8125   6.379   2.645  10.852 -0.6992  0.1032 -0.3437
   54MYC    H22 8126   6.450   2.570  10.815 -0.5882 -0.3001  0.6571
   54MYC    H23 8127   6.406   2.649  10.958 -3.9545  1.2779  0.5654
   54MYC    C12 8128   6.411   2.789  10.794 -0.3841  0.2403  0.1555
   54MYC    H20 8129   6.518   2.806  10.814  0.1932 -1.4155 -1.2475
   54MYC    H21 8130   6.352   2.865  10.845  0.1795  0.5894  0.2980
   54MYC    C11 8131   6.400   2.814  10.636 -0.3294  0.7773 -0.6041
   54MYC    H18 8132   6.295   2.818  10.605 -0.6404  0.2472  0.3311
   54MYC    H19 8133   6.449   2.732  10.582 -0.8200  0.6018 -0.7835
   54MYC    C10 8134   6.469   2.947  10.598  0.3054 -0.8452  0.6769
   54MYC    H16 8135   6.569   2.934  10.641  0.1322  1.1745  1.7992
   54MYC    H17 8136   6.424   3.029  10.656 -0.0864  0.8302 -1.8458
   54MYC     C9 8137   6.466   2.993  10.444 -0.3445 -0.3816 -0.8810
   54MYC    H14 8138   6.514   3.091  10.441 -0.1794 -0.2528  2.4494
   54MYC    H15 8139   6.366   3.018  10.409 -0.1750  0.8604 -0.5103
   54MYC     C8 8140   6.535   2.898  10.338  0.2942 -0.2800 -0.0054
   54MYC    H12 8141   6.497   2.799  10.364 -2.1215  0.7676  0.7297
   54MYC    H13 8142   6.644   2.895  10.353  0.1758  0.3103  1.0058
   54MYC     C7 8143   6.512   2.950  10.193 -0.5421 -0.1828  0.5944
   54MYC    H10 8144   6.546   3.054  10.183 -0.0684 -0.4495 -0.6635
   54MYC    H11 8145   6.403   2.966  10.188 -0.4143  0.9047  0.9182
   54MYC     C6 8146   6.570   2.866  10.077  0.4867  0.2907 -0.2258
   54MYC     H8 8147   6.523   2.767  10.078  1.6029 -0.3220 -2.3131
   54MYC     H9 8148   6.678   2.852  10.093  0.8980  0.5262 -2.4103
   54MYC     C5 8149   6.546   2.936   9.939 -0.4378  0.3208  0.1084
   54MYC     H6 8150   6.608   3.026   9.951 -0.2746 -0.0761  3.0654
   54MYC     H7 8151   6.439   2.962   9.942 -0.2911  0.9228  2.3064
   54MYC     C4 8152   6.581   2.845   9.812  0.3280  0.1827 -0.3330
   54MYC     H4 8153   6.548   2.741   9.822  0.4209  0.0770 -1.0697
   54MYC     H5 8154   6.691   2.843   9.805  0.3015  0.7054 -1.0409
   54MYC     C2 8155   6.518   2.894   9.688  0.3210  0.3065 -0.4285
   54MYC     H2 8156   6.413   2.864   9.674  0.7607 -0.5230 -2.2632
   54MYC     O3 8157   6.535   3.038   9.672  0.3367  0.4838  0.6887
   54MYC     H3 8158   6.622   3.052   9.631  0.7741 -1.4636  0.8710
   54MYC     C1 8159   6.579   2.826   9.564 -0.0777 -0.1593 -0.0361
   54MYC     H1 8160   6.551   2.721   9.576  0.1111 -0.2126 -0.0486
   54MYC    C81 8161   6.730   2.825   9.560 -0.4120 -0.8840  0.2759
   54MYC    O82 8162   6.794   2.923   9.590  0.7022 -0.5170 -0.6597
   54MYC    O83 8163   6.786   2.708   9.510 -0.5876 -0.4521 -0.2658
   54MYC   H105 8164   6.880   2.730   9.507 -1.2282  2.7925 -3.0483
   54MYC    C20 8165   6.501   2.878   9.431  0.0992  0.7245  0.1811
   54MYC    H34 8166   6.399   2.838   9.438 -0.3165  1.5586 -0.9640
   54MYC    H35 8167   6.490   2.987   9.427 -0.4431  0.6272 -3.0657
   54MYC    C21 8168   6.575   2.828   9.301  0.2551  0.0761  0.2803
   54MYC    H36 8169   6.676   2.871   9.291  0.3482 -0.4848 -1.6982
   54MYC    H37 8170   6.584   2.719   9.305 -0.8796 -0.0098  0.7968
   54MYC    C22 8171   6.493   2.846   9.173  0.5270 -0.2261 -0.4723
   54MYC    H38 8172   6.392   2.806   9.185  0.7322 -1.4175 -2.3395
   54MYC    H39 8173   6.483   2.955   9.168 -0.4203 -0.2374  0.7555
   54MYC    C23 8174   6.543   2.785   9.038  0.2779  1.4863 -0.1313
   54MYC    H40 8175   6.642   2.827   9.018 -0.3339  2.7366 -0.6760
   54MYC    H41 8176   6.545   2.676   9.048  1.8768  1.2467 -2.3277
   54MYC    C24 8177   6.463   2.834   8.930  0.2256 -0.4138 -0.2769
   54MYC    H42 8178   6.365   2.793   8.957  0.4436  0.2571  1.6420
   54MYC    H43 8179   6.451   2.943   8.935 -2.9956 -0.6442 -0.8195
   54MYC    C25 8180   6.509   2.787   8.790  0.9472  1.4902  0.3545
   54MYC    H44 8181   6.606   2.824   8.756  0.4620  0.6814 -2.1756
   54MYC    H45 8182   6.507   2.678   8.785 -0.2306  1.4392  1.4126
   54MYC    C26 8183   6.409   2.839   8.680 -0.6354  0.1230 -0.1080
   54MYC    H46 8184   6.308   2.804   8.705 -0.3172 -0.1128  0.8856
   54MYC    H47 8185   6.413   2.948   8.689  1.6591  0.1065 -0.3867
   54MYC    C27 8186   6.444   2.793   8.540 -0.0303 -0.1202  0.8820
   54MYC    H48 8187   6.533   2.846   8.506 -0.3043 -0.3095 -0.1662
   54MYC    H49 8188   6.490   2.694   8.551  0.2574  0.0983  1.6893
   54MYC    C28 8189   6.334   2.789   8.433  0.2867  0.0482  0.2317
   54MYC    H50 8190   6.247   2.725   8.453 -0.4273  0.8243 -0.3613
   54MYC    H51 8191   6.297   2.890   8.419 -1.0040 -0.4874 -0.3373
   54MYC    C29 8192   6.391   2.737   8.299  0.2466 -0.2415 -0.3155
   54MYC    H52 8193   6.485   2.787   8.273  0.7552 -0.9287  0.1407
   54MYC    H53 8194   6.404   2.628   8.301 -2.4693 -0.6169  1.5923
   54MYC    C30 8195   6.291   2.766   8.190 -0.3680 -0.1964  0.8284
   54MYC    H54 8196   6.203   2.703   8.208  0.2974 -1.5664 -0.4714
   54MYC    H55 8197   6.248   2.867   8.187  0.6758  0.3042 -3.6610
   54MYC    C31 8198   6.344   2.741   8.040  0.1207  0.0003 -0.5058
   54MYC    H56 8199   6.444   2.785   8.028 -0.4434  1.7088  0.7720
   54MYC    H57 8200   6.339   2.632   8.029  0.2940 -0.0927  0.3148
   54MYC    C32 8201   6.248   2.801   7.940  0.0226  0.3818 -0.1023
   54MYC    H58 8202   6.149   2.759   7.958 -0.5581  1.3442 -0.9211
   54MYC    H59 8203   6.247   2.910   7.952 -0.4577  0.1508  2.4750
   54MYC    C33 8204   6.292   2.752   7.802 -0.9041  1.1390 -0.2492
   54MYC    H60 8205   6.389   2.796   7.778 -0.7289 -0.1009 -1.9602
   54MYC    H61 8206   6.301   2.642   7.799  1.7785  1.2341  1.3733
   54MYC    C34 8207   6.202   2.793   7.685 -0.0162  0.2929 -0.3333
   54MYC    H62 8208   6.100   2.758   7.704 -0.1407  1.2931  0.9501
   54MYC    H63 8209   6.204   2.902   7.671 -0.1569  0.4621  0.8706
   54MYC    C35 8210   6.239   2.731   7.550  0.3747 -0.3707  0.0455
   54MYC    H64 8211   6.343   2.752   7.520 -0.1553  0.4701 -1.3413
   54MYC    H65 8212   6.222   2.623   7.542  3.4893 -1.0256  0.8191
   54MYC    C36 8213   6.153   2.794   7.433 -0.3695 -0.4173 -0.1427
   54MYC    H66 8214   6.053   2.754   7.453 -0.5680 -0.0460 -0.3803
   54MYC    H67 8215   6.156   2.903   7.428  0.1512 -0.4600 -0.9091
   54MYC    C37 8216   6.195   2.746   7.289  0.2094 -0.0226 -0.5118
   54MYC    H68 8217   6.302   2.767   7.272  0.5772 -1.1050  0.3175
   54MYC    H69 8218   6.193   2.637   7.283  1.0014 -0.1138  0.6337
   54MYC    C38 8219   6.124   2.816   7.174  0.1818 -0.7881 -0.7553
   54MYC    H70 8220   6.018   2.795   7.193  0.2438 -0.2524  0.2211
   54MYC    H71 8221   6.134   2.925   7.184 -0.5106 -0.5538 -2.3246
   54MYC    C39 8222   6.172   2.768   7.041  0.2546 -1.2142 -0.0486
   54MYC    H72 8223   6.274   2.801   7.016 -0.3847  0.1690 -0.9554
   54MYC    H73 8224   6.169   2.659   7.042  0.9113 -1.2609  2.1272
   54MYC    C40 8225   6.074   2.818   6.937  0.4924  0.3559  0.4139
   54MYC    H74 8226   5.969   2.787   6.951  0.3672  0.1097 -0.9443
   54MYC    H75 8227   6.077   2.928   6.940 -0.3417  0.4609 -1.2690
   54MYC    C41 8228   6.116   2.770   6.795  0.5247 -0.2432 -0.3139
   54MYC    H76 8229   6.212   2.817   6.771  1.3272 -2.5773 -1.9743
   54MYC    H77 8230   6.134   2.662   6.793 -1.3948 -0.6354  0.5406
   54MYC    C42 8231   6.019   2.796   6.681  0.5368 -0.3543  0.1184
   54MYC    H78 8232   5.915   2.764   6.697  1.0081 -1.1270  1.8434
   54MYC    H79 8233   6.014   2.905   6.675  1.1876 -0.3395 -0.2286
   54MYC    C43 8234   6.075   2.750   6.547  0.0764  0.3802  0.5312
   54MYC    H80 8235   6.092   2.642   6.541  2.7483  0.7998 -1.1322
   54MYC    H81 8236   6.174   2.790   6.523 -0.6289  0.6124 -2.3610
   54MYC    H82 8237   6.000   2.785   6.475  0.5863  0.0766 -0.1559
   55MYC   HH15 8238   6.449   2.591   6.503  1.5363 -0.6069  0.4373
   55MYC    C80 8239   6.424   2.638   6.599  0.6477 -0.2482  0.0492
   55MYC   H100 8240   6.408   2.746   6.586 -1.9713 -0.6922 -0.8789
   55MYC   H101 8241   6.327   2.597   6.628  0.2177 -0.1694 -1.1987
   55MYC    C79 8242   6.528   2.610   6.705  0.1155 -0.5162  0.2717
   55MYC   H102 8243   6.615   2.670   6.676 -0.8744  1.3335  0.9271
   55MYC   H103 8244   6.560   2.505   6.701 -0.6924 -0.7572 -0.1417
   55MYC    C78 8245   6.486   2.652   6.852  0.1364 -0.7576 -0.4297
   55MYC   HH14 8246   6.380   2.630   6.873  0.2730 -0.4467  0.6262
   55MYC   H104 8247   6.492   2.761   6.861 -2.0477 -0.6751  0.6829
   55MYC    C77 8248   6.570   2.603   6.964 -0.4417 -0.0761  0.3284
   55MYC   H106 8249   6.669   2.645   6.942 -0.6797  0.0497 -0.5227
   55MYC   H107 8250   6.582   2.494   6.967  3.4924  0.2002  0.0372
   55MYC    C76 8251   6.519   2.655   7.100  0.3166  0.8700 -0.3124
   55MYC   H108 8252   6.430   2.593   7.113 -0.0901  1.0989 -1.7858
   55MYC   H109 8253   6.486   2.760   7.094  0.0877  0.8568  0.6359
   55MYC    C75 8254   6.623   2.633   7.213 -0.4941 -0.5930  0.0502
   55MYC   H110 8255   6.710   2.699   7.204 -0.5234 -0.1543  2.2739
   55MYC   H111 8256   6.671   2.535   7.203  0.4594 -0.2473  1.0801
   55MYC    C74 8257   6.566   2.650   7.352  0.2673 -0.1820  0.8297
   55MYC   H112 8258   6.477   2.586   7.363 -0.3910  0.3107 -1.2275
   55MYC   H113 8259   6.533   2.755   7.355  0.9229  0.0195  3.3717
   55MYC    C73 8260   6.661   2.622   7.460 -1.1741 -0.1044 -0.1717
   55MYC   HH13 8261   6.745   2.692   7.446 -0.2927 -1.3096 -1.1395
   55MYC   H114 8262   6.698   2.519   7.462  0.8078  0.5665  1.1003
   55MYC    C72 8263   6.610   2.670   7.594  0.1365  0.3190 -1.1163
   55MYC   H115 8264   6.517   2.615   7.611  0.9329 -0.3727  1.4771
   55MYC   H116 8265   6.588   2.777   7.602  1.2799  0.6014 -1.5697
   55MYC    C71 8266   6.706   2.625   7.700  0.1527 -0.0268 -0.7380
   55MYC   H117 8267   6.797   2.684   7.681  0.2957 -0.0149 -0.0300
   55MYC   H118 8268   6.740   2.521   7.693 -1.1878 -0.4068 -2.3226
   55MYC    C70 8269   6.651   2.641   7.846 -0.1294 -0.0933  0.1337
   55MYC   H119 8270   6.553   2.598   7.870  0.8521 -2.5773 -0.0448
   55MYC   H120 8271   6.627   2.748   7.852 -2.5667 -0.3891 -2.1638
   55MYC    C69 8272   6.753   2.603   7.958  0.4869  0.1438  0.4006
   55MYC   H121 8273   6.841   2.662   7.932 -1.0804  2.6336  0.4011
   55MYC   H122 8274   6.775   2.497   7.979  1.4226  0.7513  2.7533
   55MYC    C68 8275   6.707   2.667   8.085 -0.1449 -0.2471 -0.6274
   55MYC   HH12 8276   6.613   2.622   8.117  0.2505 -0.9257 -0.4084
   55MYC   H123 8277   6.696   2.774   8.065 -0.6381 -0.2824 -0.5555
   55MYC    C67 8278   6.813   2.635   8.188  0.2442  0.0894  0.2729
   55MYC   H124 8279   6.910   2.677   8.158  1.0551 -1.9551 -0.1760
   55MYC   H125 8280   6.838   2.529   8.198 -0.0318 -0.0892 -0.8099
   55MYC    C66 8281   6.769   2.698   8.330 -0.3573 -0.7899 -0.0219
   55MYC   H126 8282   6.668   2.663   8.353  0.2377 -1.3280  1.8952
   55MYC   H127 8283   6.756   2.807   8.323 -0.0942 -0.8260 -1.3427
   55MYC    C65 8284   6.873   2.656   8.434  0.2396 -0.7859  0.1232
   55MYC   H128 8285   6.964   2.714   8.412  1.0770 -2.3153 -0.5808
   55MYC   H129 8286   6.896   2.549   8.440  0.8761 -0.5756  1.7504
   55MYC    C64 8287   6.836   2.696   8.581 -0.2959 -0.1894 -0.0215
   55MYC   H130 8288   6.759   2.632   8.626 -0.1678  1.8475  3.4857
   55MYC   H131 8289   6.800   2.798   8.594 -0.7701 -0.3534 -0.0312
   55MYC    C63 8290   6.954   2.692   8.677  0.3935  0.7632  0.6927
   55MYC   HH11 8291   7.025   2.769   8.647 -1.9572  2.8207  0.0903
   55MYC   H132 8292   6.999   2.596   8.649 -0.0806  0.2063  1.7728
   55MYC    C62 8293   6.916   2.702   8.824 -0.8441  0.1350  0.5035
   55MYC   H133 8294   6.821   2.650   8.838 -0.4327 -0.9673 -0.6211
   55MYC   H134 8295   6.898   2.807   8.848  0.8850  0.4409  0.6087
   55MYC    C61 8296   7.019   2.644   8.923  0.1706 -1.1929  0.8078
   55MYC   H135 8297   7.113   2.698   8.905 -1.2577  0.5903 -2.2829
   55MYC   H136 8298   7.030   2.536   8.908 -2.0614 -1.2982 -0.5572
   55MYC    C60 8299   6.973   2.666   9.064 -0.5800  0.3270 -0.2469
   55MYC   H137 8300   6.919   2.578   9.097  0.2335 -0.8678 -1.9274
   55MYC    C58 8301   7.067   2.722   9.168 -0.1435 -0.1849 -0.3317
   55MYC   H138 8302   7.159   2.770   9.138 -0.1266 -0.7830 -1.2796
   55MYC    C59 8303   6.937   2.793   9.135  0.0068 -0.3707 -0.2835
   55MYC   H139 8304   6.846   2.773   9.190  0.5204 -1.1937  0.2802
   55MYC   H140 8305   6.961   2.885   9.081  0.0036 -0.0804  0.1994
   55MYC    C57 8306   7.065   2.664   9.312 -0.4404 -0.0979  0.0600
   55MYC   HH10 8307   7.149   2.594   9.316 -0.2461  0.1699  0.7741
   55MYC   H141 8308   6.973   2.608   9.333 -2.3280  2.3394 -1.1805
   55MYC    C56 8309   7.093   2.765   9.421  0.5233  0.6087 -0.7007
   55MYC   H142 8310   7.009   2.836   9.427 -0.2869 -0.3190 -0.7541
   55MYC   H143 8311   7.175   2.826   9.382  1.6556 -1.4536 -1.7214
   55MYC    C55 8312   7.113   2.686   9.557  0.0230 -0.3576 -0.3123
   55MYC   H144 8313   7.194   2.612   9.553 -0.0477 -0.6435  2.1259
   55MYC   H145 8314   7.021   2.632   9.582  0.6605 -1.0735  0.5577
   55MYC    C54 8315   7.139   2.782   9.669 -0.0365 -0.1748 -0.0451
   55MYC   H146 8316   7.069   2.867   9.659 -1.5144 -1.3309  0.0946
   55MYC   H147 8317   7.240   2.817   9.644 -0.0827  0.0476  0.0720
   55MYC    C53 8318   7.145   2.729   9.813  0.4023 -0.1148  0.0548
   55MYC   H148 8319   7.228   2.658   9.809 -0.8550 -1.5580 -1.7029
   55MYC   H149 8320   7.055   2.668   9.832 -0.3403  0.7256 -0.7064
   55MYC    C52 8321   7.158   2.821   9.935  0.0798  0.0282 -0.3896
   55MYC    H99 8322   7.234   2.900   9.923  0.1760 -0.2965 -2.1125
   55MYC   H150 8323   7.183   2.747  10.012 -0.3468  0.1472 -0.1286
   55MYC    C51 8324   7.036   2.909   9.967  0.8981  0.2840  0.3515
   55MYC    H97 8325   6.945   2.850   9.950  1.6599 -0.4776 -1.2847
   55MYC    H98 8326   7.026   2.989   9.893 -0.2547 -1.3908 -1.4066
   55MYC    C50 8327   7.031   2.969  10.103 -1.1886 -0.0159  0.3181
   55MYC    H95 8328   7.125   3.024  10.116 -0.4945 -1.3170  1.1457
   55MYC    H96 8329   7.043   2.898  10.186  3.6371 -0.3757 -0.3715
   55MYC    C49 8330   6.918   3.067  10.134  0.2399 -1.0863  0.1336
   55MYC    H93 8331   6.824   3.013  10.120  0.4615 -1.5006  0.2160
   55MYC    H94 8332   6.919   3.147  10.060 -0.3595 -0.6026  0.6444
   55MYC    C48 8333   6.921   3.121  10.276  0.0043  0.6368 -0.3337
   55MYC    H91 8334   7.014   3.172  10.305  1.3300 -2.4419  1.3790
   55MYC    H92 8335   6.916   3.033  10.342 -0.6073  1.1307  0.2862
   55MYC    C47 8336   6.808   3.216  10.310  0.2903  0.0037  0.9031
   55MYC    H89 8337   6.719   3.170  10.263  0.9190  0.0095 -0.3491
   55MYC    H90 8338   6.833   3.311  10.261  1.1252  0.7235  2.6386
   55MYC    C46 8339   6.777   3.247  10.459 -0.8799  0.8784  0.2404
   55MYC    H87 8340   6.747   3.156  10.512  1.7691  0.6613  1.4811
   55MYC    H88 8341   6.685   3.306  10.463 -0.7205  1.1874 -0.3835
   55MYC    C45 8342   6.878   3.321  10.540  0.3432 -0.3770  0.0331
   55MYC    H85 8343   6.900   3.414  10.487 -0.2820 -1.2063 -1.7760
   55MYC    H86 8344   6.975   3.271  10.548  0.9276  0.5711 -0.9265
   55MYC    C44 8345   6.820   3.342  10.684  0.9501  0.4532 -0.1201
   55MYC    H83 8346   6.722   3.388  10.669  1.2020  0.6750 -1.1536
   55MYC    H84 8347   6.877   3.421  10.735 -0.8909  1.2147  0.8301
   55MYC    C18 8348   6.826   3.222  10.766 -0.1590  0.2874 -0.0149
   55MYC    H31 8349   6.770   3.140  10.723  1.1496  0.4108 -2.0905
   55MYC    C17 8350   6.955   3.178  10.848 -1.2530 -0.2547  0.0233
   55MYC    H30 8351   7.047   3.235  10.834 -2.5706  1.6175 -1.5792
   55MYC    C19 8352   6.840   3.239  10.920 -0.7006 -0.3416 -0.3478
   55MYC    H32 8353   6.847   3.343  10.949  0.9451 -0.0116 -1.7710
   55MYC    H33 8354   6.782   3.169  10.980 -0.5414  0.7763  1.1604
   55MYC    C16 8355   6.996   3.031  10.874 -0.5679  0.6190  0.5485
   55MYC    H28 8356   6.918   2.959  10.848  0.7261 -1.0805  1.1235
   55MYC    H29 8357   7.016   3.026  10.982  0.1700  1.4502  0.4688
   55MYC    C15 8358   7.132   2.997  10.799  0.1998  0.3128 -0.7413
   55MYC    H26 8359   7.174   2.908  10.848  4.4327  1.4552 -1.8982
   55MYC    H27 8360   7.204   3.080  10.800  0.4223  0.1292  0.8675
   55MYC    C14 8361   7.115   2.968  10.651 -0.6024 -0.1512  0.1918
   55MYC    H24 8362   7.037   3.035  10.613 -0.1387  1.2928  1.6680
   55MYC    H25 8363   7.075   2.866  10.648  1.1671 -1.0911  3.6024
   55MYC    C13 8364   7.246   2.960  10.572  0.3469  0.1484  0.3682
   55MYC    H22 8365   7.316   2.893  10.624  4.2941  2.9797 -0.8588
   55MYC    H23 8366   7.305   3.052  10.565  0.8931 -0.3149 -1.9434
   55MYC    C12 8367   7.229   2.915  10.434 -0.1015  0.1319 -0.3248
   55MYC    H20 8368   7.177   2.998  10.385 -1.9152  0.7521  2.3920
   55MYC    H21 8369   7.173   2.820  10.434  0.7118 -0.3730  0.7867
   55MYC    C11 8370   7.377   2.900  10.376  0.0423  0.0168 -0.3100
   55MYC    H18 8371   7.429   2.828  10.440 -1.4750 -0.7282  0.1238
   55MYC    H19 8372   7.438   2.991  10.373  0.1235  0.0135  0.8044
   55MYC    C10 8373   7.380   2.846  10.231  0.5226 -0.2002 -0.5837
   55MYC    H16 8374   7.337   2.911  10.155 -1.2895 -0.7067 -0.0438
   55MYC    H17 8375   7.335   2.746  10.221 -2.0139  0.8082  0.2167
   55MYC     C9 8376   7.531   2.834  10.177 -0.3796 -0.3924 -0.1999
   55MYC    H14 8377   7.577   2.744  10.218  0.0648 -0.7011 -1.3558
   55MYC    H15 8378   7.587   2.922  10.212  2.3295 -2.3077  0.5320
   55MYC     C8 8379   7.557   2.824  10.019  0.8075  0.2792 -0.0431
   55MYC    H12 8380   7.538   2.924   9.979  2.9805  1.1095  0.8416
   55MYC    H13 8381   7.483   2.753   9.978 -2.0191  1.9488  1.8125
   55MYC     C7 8382   7.703   2.791   9.975  0.1025 -0.4198 -0.2221
   55MYC    H10 8383   7.734   2.700  10.027  0.5948 -0.5308 -0.6987
   55MYC    H11 8384   7.762   2.879  10.003 -1.9902  1.4092 -1.1830
   55MYC     C6 8385   7.724   2.773   9.823 -0.1482 -0.3579  0.2252
   55MYC     H8 8386   7.832   2.765   9.805 -0.5013 -1.7557 -1.6534
   55MYC     H9 8387   7.693   2.867   9.775  2.3454 -0.2025 -1.2292
   55MYC     C5 8388   7.649   2.648   9.764  0.0983  0.4082 -0.0803
   55MYC     H6 8389   7.541   2.651   9.777 -0.0267  1.7839 -1.2913
   55MYC     H7 8390   7.682   2.558   9.817 -0.7484  0.0926 -0.0819
   55MYC     C4 8391   7.663   2.623   9.613 -0.8081 -0.9774  0.5456
   55MYC     H4 8392   7.642   2.517   9.595  1.6083 -1.2928 -0.7490
   55MYC     H5 8393   7.767   2.645   9.587 -1.4715 -0.6928 -2.0810
   55MYC     C2 8394   7.581   2.724   9.512  0.1655 -0.1622 -0.1357
   55MYC     H2 8395   7.478   2.739   9.546 -0.0574 -0.2769 -0.7470
   55MYC     O3 8396   7.661   2.851   9.520 -0.0768 -0.2713  0.2493
   55MYC     H3 8397   7.732   2.838   9.455 -1.0407 -2.3270 -0.5035
   55MYC     C1 8398   7.578   2.667   9.371 -0.2809  0.1857  0.4214
   55MYC     H1 8399   7.511   2.581   9.365 -0.3206  0.1686  1.0685
   55MYC    C81 8400   7.713   2.619   9.327  0.3348 -0.0767  0.8295
   55MYC    O82 8401   7.731   2.500   9.318 -0.1705  0.1547  0.1606
   55MYC    O83 8402   7.813   2.712   9.320 -0.2043 -0.9805  0.1196
   55MYC   H105 8403   7.898   2.671   9.301 -0.2399 -0.9517 -0.1061
   55MYC    C20 8404   7.530   2.776   9.272  0.0215  0.3776 -0.0547
   55MYC    H34 8405   7.448   2.829   9.322  1.4139  1.8234  0.7815
   55MYC    H35 8406   7.604   2.854   9.250  0.1133 -0.1731 -1.8770
   55MYC    C21 8407   7.464   2.723   9.140  0.2282 -0.5447  0.2073
   55MYC    H36 8408   7.379   2.664   9.175 -0.5370  0.5383  0.2420
   55MYC    H37 8409   7.419   2.807   9.085  1.3189 -1.2527 -1.8747
   55MYC    C22 8410   7.552   2.644   9.042 -0.3467  0.2625 -0.1491
   55MYC    H38 8411   7.636   2.706   9.008  0.8413 -1.3379 -0.2694
   55MYC    H39 8412   7.604   2.556   9.083 -0.9336  0.0715  0.2007
   55MYC    C23 8413   7.475   2.614   8.911  0.1785 -0.8267  0.6607
   55MYC    H40 8414   7.392   2.545   8.929  0.1538 -0.6529  1.2483
   55MYC    H41 8415   7.436   2.713   8.883  1.5561 -0.4277  0.0230
   55MYC    C24 8416   7.561   2.565   8.789 -0.1762 -0.0931 -0.0537
   55MYC    H42 8417   7.651   2.627   8.785  0.9034 -1.2876  2.9331
   55MYC    H43 8418   7.596   2.464   8.812  1.9591  0.6467  0.1287
   55MYC    C25 8419   7.494   2.578   8.658  0.3144  0.4866  0.3720
   55MYC    H44 8420   7.488   2.688   8.655  2.1927  0.6640  1.4326
   55MYC    H45 8421   7.567   2.551   8.581 -0.1578  0.8619 -0.2171
   55MYC    C26 8422   7.359   2.512   8.647 -0.1576 -0.0864 -0.3831
   55MYC    H46 8423   7.377   2.404   8.634 -0.6378 -0.0146 -1.8643
   55MYC    H47 8424   7.297   2.533   8.735 -0.9888 -1.3619 -0.6155
   55MYC    C27 8425   7.281   2.562   8.521 -0.5446 -0.2054  1.0163
   55MYC    H48 8426   7.182   2.517   8.527 -0.3044 -0.9735 -0.2964
   55MYC    H49 8427   7.264   2.669   8.536  2.1699  0.3528  0.6398
   55MYC    C28 8428   7.339   2.527   8.377 -0.1652  0.8648  0.5418
   55MYC    H50 8429   7.435   2.576   8.360  0.5162  0.2297  2.3740
   55MYC    H51 8430   7.357   2.419   8.381  0.9654  0.8296 -2.6698
   55MYC    C29 8431   7.240   2.568   8.264 -0.0869 -0.8864 -0.7418
   55MYC    H52 8432   7.140   2.529   8.285 -1.3757  3.0475  1.4389
   55MYC    H53 8433   7.226   2.677   8.272 -0.1749 -0.9753  0.4105
   55MYC    C30 8434   7.282   2.516   8.118 -0.2269  0.0031 -0.1946
   55MYC    H54 8435   7.378   2.558   8.085  0.5315 -1.3655  0.1754
   55MYC    H55 8436   7.291   2.407   8.123 -3.1713 -0.3340 -0.7465
   55MYC    C31 8437   7.164   2.551   8.017 -0.4823  0.6762 -0.6241
   55MYC    H56 8438   7.073   2.497   8.044  0.6161 -1.7464 -1.4653
   55MYC    H57 8439   7.153   2.660   8.008 -1.8965  0.6297  0.3214
   55MYC    C32 8440   7.201   2.498   7.868 -0.3668 -0.4248 -0.2744
   55MYC    H58 8441   7.298   2.540   7.840 -0.3041 -0.4846 -0.1491
   55MYC    H59 8442   7.212   2.389   7.872  2.9914 -0.1531  0.5149
   55MYC    C33 8443   7.110   2.543   7.757  0.3607 -0.4299 -0.0972
   55MYC    H60 8444   7.003   2.531   7.775  0.1756  1.1047 -0.0474
   55MYC    H61 8445   7.131   2.650   7.767 -0.9515  0.2050 -3.0272
   55MYC    C34 8446   7.143   2.492   7.621  0.4477  0.6750  0.1746
   55MYC    H62 8447   7.244   2.522   7.590  0.3823 -0.6671 -1.4596
   55MYC    H63 8448   7.128   2.384   7.615  0.8882  0.5741  0.8229
   55MYC    C35 8449   7.042   2.544   7.510  0.0356 -0.1668 -1.1089
   55MYC    H64 8450   6.946   2.500   7.539 -0.8710  1.8668 -0.8202
   55MYC    H65 8451   7.030   2.653   7.517  2.3351  0.0323  0.9643
   55MYC    C36 8452   7.091   2.507   7.367 -0.2578  0.2495 -0.6498
   55MYC    H66 8453   7.186   2.562   7.359 -1.1216  1.8500 -0.3741
   55MYC    H67 8454   7.104   2.399   7.370  0.1207  0.1955 -2.9145
   55MYC    C37 8455   6.987   2.537   7.265 -0.1527 -0.2891  0.4140
   55MYC    H68 8456   6.898   2.474   7.278 -0.7691  0.5245  0.2330
   55MYC    H69 8457   6.956   2.640   7.280  2.0760  0.8170 -1.7810
   55MYC    C38 8458   7.056   2.525   7.128  0.6223 -0.0755  0.1512
   55MYC    H70 8459   7.115   2.617   7.118  0.1845  0.2535  0.5290
   55MYC    H71 8460   7.122   2.438   7.132  0.8314  0.1374  2.5393
   55MYC    C39 8461   6.944   2.528   7.025  0.5347  0.3020  0.6188
   55MYC    H72 8462   6.886   2.436   7.040 -0.7599  1.0874  0.5994
   55MYC    H73 8463   6.869   2.603   7.053  0.1167 -0.0397  0.4381
   55MYC    C40 8464   6.993   2.547   6.882 -0.8207  0.1944 -0.6202
   55MYC    H74 8465   7.034   2.649   6.877 -0.3275 -0.0234 -1.1598
   55MYC    H75 8466   7.075   2.478   6.861 -0.9669  0.0903 -0.8529
   55MYC    C41 8467   6.902   2.519   6.768 -0.1669 -0.3081  0.4377
   55MYC    H76 8468   6.867   2.415   6.769 -0.5060 -0.1878  1.6664
   55MYC    H77 8469   6.809   2.577   6.767  0.4187  0.6574 -0.9170
   55MYC    C42 8470   6.969   2.531   6.624  0.1265  0.2594 -0.0403
   55MYC    H78 8471   7.028   2.624   6.613  0.0745  0.3136  0.1452
   55MYC    H79 8472   7.036   2.445   6.619 -0.3090 -0.2555  2.0316
   55MYC    C43 8473   6.865   2.523   6.505  0.0658 -0.3818  0.0059
   55MYC    H80 8474   6.865   2.419   6.469  2.6375 -0.5314  0.2804
   55MYC    H81 8475   6.885   2.578   6.412  0.3417 -0.3697  0.0720
   55MYC    H82 8476   6.760   2.539   6.534  0.2659 -0.2151  0.6395
   56MYC   HH15 8477   1.966   2.582   9.069 -0.2343  1.4888 -0.4839
   56MYC    C80 8478   2.071   2.613   9.078  0.0612  0.4467 -0.2057
   56MYC   H100 8479   2.059   2.701   9.142 -2.6632  0.8697 -1.1466
   56MYC   H101 8480   2.129   2.533   9.126 -1.4292 -0.2610  0.5077
   56MYC    C79 8481   2.134   2.661   8.945 -0.2520  0.2615  0.6592
   56MYC   H102 8482   2.058   2.726   8.900 -0.7962 -0.7590  0.0689
   56MYC   H103 8483   2.151   2.578   8.877  0.3314  1.6678 -0.9708
   56MYC    C78 8484   2.279   2.725   8.966  0.4169  0.0169 -0.7133
   56MYC   HH14 8485   2.343   2.641   8.993  0.6797  0.1147 -1.0251
   56MYC   H104 8486   2.287   2.785   9.058  4.0968 -1.0020 -0.2190
   56MYC    C77 8487   2.344   2.801   8.848 -0.3733 -0.2577 -0.1919
   56MYC   H106 8488   2.269   2.821   8.771  0.1600 -2.3679 -1.3266
   56MYC   H107 8489   2.406   2.733   8.789 -1.3749  0.7780 -2.5447
   56MYC    C76 8490   2.413   2.929   8.887 -1.0939 -0.1373 -0.3413
   56MYC   H108 8491   2.506   2.902   8.939 -0.3859  0.1494 -1.4344
   56MYC   H109 8492   2.345   2.986   8.951 -1.6770 -0.4969 -0.6407
   56MYC    C75 8493   2.438   3.031   8.769  0.7452 -0.2136 -0.8652
   56MYC   H110 8494   2.338   3.047   8.725  0.7194  1.7361 -0.1693
   56MYC   H111 8495   2.501   2.967   8.706  0.4036 -2.0165  0.5500
   56MYC    C74 8496   2.507   3.168   8.797 -0.0126 -0.5378 -0.4768
   56MYC   H112 8497   2.526   3.214   8.699  0.9640 -2.7928 -1.4109
   56MYC   H113 8498   2.607   3.153   8.839  0.7824  0.5740 -1.8660
   56MYC    C73 8499   2.429   3.270   8.880  0.4038 -0.3208  0.3763
   56MYC   HH13 8500   2.387   3.220   8.968 -0.6792  2.2397  1.4192
   56MYC   H114 8501   2.348   3.304   8.814 -1.3632 -1.2615  1.9298
   56MYC    C72 8502   2.516   3.387   8.926 -0.0183 -0.2706  0.0718
   56MYC   H115 8503   2.569   3.434   8.841 -0.3803 -1.8763 -1.0858
   56MYC   H116 8504   2.592   3.350   8.995  0.4837 -0.0317 -0.3465
   56MYC    C71 8505   2.432   3.490   8.999 -0.2199  0.2509 -0.0477
   56MYC   H117 8506   2.396   3.443   9.092  1.8560 -1.4278 -0.0173
   56MYC   H118 8507   2.356   3.526   8.928  2.9950  0.7116 -3.5812
   56MYC    C70 8508   2.516   3.618   9.045  0.0200 -0.0784 -0.1115
   56MYC   H119 8509   2.543   3.682   8.960  0.8422 -0.9293 -0.4983
   56MYC   H120 8510   2.612   3.576   9.077  0.5467 -1.2920 -2.9506
   56MYC    C69 8511   2.444   3.699   9.155  0.7402  0.6421  0.0362
   56MYC   H121 8512   2.515   3.776   9.187  0.6511  1.4818 -1.6841
   56MYC   H122 8513   2.421   3.627   9.235  0.0477  0.5239 -0.2567
   56MYC    C68 8514   2.313   3.763   9.102 -0.4575  0.4701  0.6083
   56MYC   HH12 8515   2.245   3.689   9.059 -2.1652  2.5265 -0.4100
   56MYC   H123 8516   2.323   3.837   9.021 -0.4172 -0.1325  0.0593
   56MYC    C67 8517   2.219   3.825   9.204 -0.4255  0.2711 -0.0168
   56MYC   H124 8518   2.285   3.890   9.263  1.1777 -1.6333  0.4155
   56MYC   H125 8519   2.180   3.752   9.277 -0.2038  1.7825  1.6865
   56MYC    C66 8520   2.098   3.906   9.146 -0.3439 -0.5805  0.5369
   56MYC   H126 8521   2.127   3.965   9.058 -2.1122  2.0595  1.5905
   56MYC   H127 8522   2.066   3.981   9.220  1.0016  2.0427 -1.3523
   56MYC    C65 8523   1.986   3.814   9.101  0.1365  0.5502  0.5352
   56MYC   H128 8524   1.956   3.747   9.183  1.2791 -0.3317  0.2572
   56MYC   H129 8525   2.009   3.762   9.008  1.2961 -1.3402  1.8222
   56MYC    C64 8526   1.857   3.890   9.051 -0.4557  0.4819 -0.5857
   56MYC   H130 8527   1.787   3.817   9.007 -1.3364  0.9890 -0.0496
   56MYC   H131 8528   1.881   3.954   8.966  0.4812  2.1570  0.8861
   56MYC    C63 8529   1.791   3.989   9.153 -0.4492 -0.0556  1.0214
   56MYC   HH11 8530   1.703   4.028   9.101  0.5716 -1.0051 -1.5908
   56MYC   H132 8531   1.851   4.080   9.163 -1.1276  0.5437 -0.0855
   56MYC    C62 8532   1.748   3.931   9.286 -0.4980 -0.5567 -0.3353
   56MYC   H133 8533   1.736   4.017   9.352 -0.1860  0.8468 -2.0404
   56MYC   H134 8534   1.832   3.873   9.327 -1.7291 -2.3911 -0.2655
   56MYC    C61 8535   1.621   3.847   9.283  0.0431  0.6938  0.1088
   56MYC   H135 8536   1.636   3.778   9.200  1.7759  2.8827 -1.5142
   56MYC   H136 8537   1.534   3.915   9.275  0.1899  1.1974  2.0374
   56MYC    C60 8538   1.593   3.756   9.398  1.0084  0.9768 -0.5112
   56MYC   H137 8539   1.645   3.661   9.381  0.1137 -0.4435  3.7009
   56MYC    C58 8540   1.576   3.811   9.539  0.1359  0.2046  0.5742
   56MYC   H138 8541   1.600   3.916   9.538  0.9604  0.0197  0.4907
   56MYC    C59 8542   1.456   3.744   9.455 -0.5043  0.1865  0.0419
   56MYC   H139 8543   1.433   3.657   9.517  0.1783  0.7584  1.1214
   56MYC   H140 8544   1.375   3.797   9.406  0.7466  1.2723 -0.8734
   56MYC    C57 8545   1.650   3.735   9.655  0.8553  0.1831 -0.0623
   56MYC   HH10 8546   1.724   3.803   9.699 -0.1192  0.4921  1.1636
   56MYC   H141 8547   1.685   3.640   9.613 -0.3529 -0.2691 -0.1112
   56MYC    C56 8548   1.562   3.709   9.773 -0.2833 -0.1582 -0.2859
   56MYC   H142 8549   1.486   3.635   9.743  0.1756  0.0650 -2.1342
   56MYC   H143 8550   1.519   3.807   9.794 -2.2501 -0.3340 -2.9485
   56MYC    C55 8551   1.650   3.659   9.889 -0.2402 -0.4285  0.5475
   56MYC   H144 8552   1.723   3.739   9.905 -0.8930  0.2850  0.0314
   56MYC   H145 8553   1.713   3.582   9.841 -0.2769  0.8314 -1.6713
   56MYC    C54 8554   1.594   3.633  10.030  0.3743 -0.0867  0.5494
   56MYC   H146 8555   1.522   3.551  10.023 -0.2434  0.1505  3.1022
   56MYC   H147 8556   1.543   3.725  10.059  2.2400  0.9062  0.9000
   56MYC    C53 8557   1.695   3.606  10.145  0.0277  0.3803 -0.3943
   56MYC   H148 8558   1.723   3.709  10.167 -0.4246  0.4756 -0.2571
   56MYC   H149 8559   1.785   3.561  10.102  1.0941  0.1339  1.9151
   56MYC    C52 8560   1.628   3.530  10.266  0.6082  0.0858  0.4940
   56MYC    H99 8561   1.615   3.425  10.237 -0.5383  0.4939 -0.5313
   56MYC   H150 8562   1.527   3.570  10.278  0.5793 -0.0162  0.5949
   56MYC    C51 8563   1.697   3.535  10.411  0.2763  0.5568  0.3155
   56MYC    H97 8564   1.697   3.639  10.444 -2.5431  0.3584  1.2401
   56MYC    H98 8565   1.796   3.488  10.408  0.7749  1.5394  0.7630
   56MYC    C50 8566   1.605   3.458  10.517 -0.3009  0.6311  0.8883
   56MYC    H95 8567   1.595   3.351  10.496  1.2562  0.2936  1.6671
   56MYC    H96 8568   1.504   3.501  10.518 -0.2615  0.7379  0.5524
   56MYC    C49 8569   1.656   3.478  10.649  0.4730  0.3899 -1.2653
   56MYC    H93 8570   1.636   3.576  10.693  1.2023 -0.6020  1.4770
   56MYC    H94 8571   1.765   3.472  10.645  0.6531  2.1614 -0.1108
   56MYC    C48 8572   1.606   3.371  10.749 -0.0758 -0.3017 -0.6087
   56MYC    H91 8573   1.629   3.266  10.726 -2.2557 -1.5984  2.4189
   56MYC    H92 8574   1.497   3.377  10.743  0.0052  0.9346 -1.2138
   56MYC    C47 8575   1.643   3.388  10.899 -0.4354 -0.0172  0.8409
   56MYC    H89 8576   1.604   3.477  10.950 -1.2398 -1.1565  2.2807
   56MYC    H90 8577   1.752   3.386  10.912 -0.3467  1.7181  0.6965
   56MYC    C46 8578   1.587   3.271  10.985  0.2124 -0.3541  0.0164
   56MYC    H87 8579   1.641   3.178  10.967  0.9928  0.1907 -0.5403
   56MYC    H88 8580   1.482   3.253  10.960  0.0108 -0.0949  0.6421
   56MYC    C45 8581   1.597   3.302  11.134  0.0552 -0.2096 -0.0056
   56MYC    H85 8582   1.529   3.381  11.167  2.3934  1.3134  1.4361
   56MYC    H86 8583   1.696   3.346  11.154 -0.8293  1.4279  0.9283
   56MYC    C44 8584   1.562   3.190  11.232  0.2678  0.0330 -0.1941
   56MYC    H83 8585   1.565   3.233  11.332  0.3944  2.6870 -1.2678
   56MYC    H84 8586   1.645   3.119  11.219  1.5037  1.5606 -0.9139
   56MYC    C18 8587   1.425   3.116  11.220 -0.4068 -0.3742  0.2052
   56MYC    H31 8588   1.355   3.163  11.288 -0.7735 -0.1644 -0.3069
   56MYC    C17 8589   1.367   3.045  11.100  0.4164 -0.7875  0.5330
   56MYC    H30 8590   1.426   3.032  11.009 -0.5638  0.9816 -0.4071
   56MYC    C19 8591   1.416   2.974  11.218  0.3613  0.7409 -0.5905
   56MYC    H32 8592   1.498   2.903  11.216 -0.1043  0.0503  1.8490
   56MYC    H33 8593   1.341   2.914  11.268  0.6207  0.3314 -0.6859
   56MYC    C16 8594   1.219   3.053  11.064 -0.9795 -0.2587  0.0110
   56MYC    H28 8595   1.213   3.148  11.011 -1.8428  0.1930  0.8953
   56MYC    H29 8596   1.154   3.074  11.149 -0.1923  1.0031  0.3277
   56MYC    C15 8597   1.156   2.941  10.982 -0.0743 -0.2067  0.3000
   56MYC    H26 8598   1.047   2.937  10.993 -0.3882  1.9007 -1.4012
   56MYC    H27 8599   1.191   2.848  11.028 -1.1235 -1.1795 -0.8177
   56MYC    C14 8600   1.197   2.936  10.832 -0.4775  0.3453 -0.1427
   56MYC    H24 8601   1.155   2.846  10.785 -0.2866  0.0523  0.2365
   56MYC    H25 8602   1.306   2.927  10.831 -0.4918  0.1327  0.1262
   56MYC    C13 8603   1.166   3.061  10.741 -0.3703  1.1330 -1.4426
   56MYC    H22 8604   1.182   3.161  10.783  3.9481  0.7103 -1.6680
   56MYC    H23 8605   1.062   3.045  10.709  0.3488 -2.2443 -2.4400
   56MYC    C12 8606   1.250   3.048  10.609 -0.2738 -0.9378 -0.0362
   56MYC    H20 8607   1.214   2.957  10.560  0.4787 -1.2258 -0.0705
   56MYC    H21 8608   1.355   3.029  10.633  0.7260  1.3477 -2.2526
   56MYC    C11 8609   1.241   3.178  10.527 -0.3798  0.4003  0.3075
   56MYC    H18 8610   1.283   3.264  10.581  2.0648 -1.4311  1.5343
   56MYC    H19 8611   1.138   3.199  10.496 -0.4796  2.5689  1.8567
   56MYC    C10 8612   1.321   3.176  10.400  0.0727  0.2644 -0.6759
   56MYC    H16 8613   1.316   3.078  10.353 -1.4321 -0.5779  1.1242
   56MYC    H17 8614   1.427   3.194  10.421  0.7302 -3.1729 -0.5345
   56MYC     C9 8615   1.281   3.278  10.296 -0.5798  0.6324 -0.3780
   56MYC    H14 8616   1.300   3.373  10.348  2.4244 -0.2260  0.3248
   56MYC    H15 8617   1.176   3.271  10.267 -0.6185  3.7455 -1.2927
   56MYC     C8 8618   1.383   3.270  10.178 -0.7352 -0.4006  0.2672
   56MYC    H12 8619   1.484   3.232  10.199 -0.7565  0.4114  1.9536
   56MYC    H13 8620   1.408   3.371  10.142  0.2183 -1.4257 -2.1418
   56MYC     C7 8621   1.307   3.194  10.060 -0.4386 -0.6591 -0.1637
   56MYC    H10 8622   1.226   3.257  10.022 -0.1618  0.1188  0.5105
   56MYC    H11 8623   1.264   3.100  10.094  1.1507 -1.9677 -1.5978
   56MYC     C6 8624   1.394   3.172   9.936  0.5064  0.0293  0.3725
   56MYC     H8 8625   1.334   3.132   9.854 -0.7583 -0.7172  1.6137
   56MYC     H9 8626   1.454   3.081   9.950 -3.0553 -2.7752 -1.0907
   56MYC     C5 8627   1.485   3.287   9.896  0.1511  0.1848  0.0031
   56MYC     H6 8628   1.555   3.309   9.977  2.1692  1.9054 -2.0464
   56MYC     H7 8629   1.420   3.375   9.887  1.2269  0.7883 -3.3359
   56MYC     C4 8630   1.562   3.291   9.758 -0.4463  0.3623 -0.0912
   56MYC     H4 8631   1.647   3.222   9.765 -0.8824 -0.0275  3.9213
   56MYC     H5 8632   1.622   3.383   9.754 -0.1363  0.2372  1.0822
   56MYC     C2 8633   1.472   3.284   9.632 -0.3933  0.0308  0.4082
   56MYC     H2 8634   1.378   3.231   9.650 -1.0153  1.3665  1.2377
   56MYC     O3 8635   1.439   3.415   9.593  0.1444 -0.2456  0.2162
   56MYC     H3 8636   1.432   3.416   9.496  1.0448 -0.1767  0.1465
   56MYC     C1 8637   1.552   3.223   9.518  0.3503 -0.2570 -0.2532
   56MYC     H1 8638   1.595   3.129   9.554  3.5605  2.1050  2.8546
   56MYC    C81 8639   1.680   3.300   9.490 -0.5513  0.0264 -0.2194
   56MYC    O82 8640   1.685   3.413   9.452 -1.0139 -0.3142 -0.5582
   56MYC    O83 8641   1.791   3.232   9.504  0.1004 -0.6250 -0.5288
   56MYC   H105 8642   1.855   3.300   9.475 -1.6851  2.3901  2.0125
   56MYC    C20 8643   1.465   3.209   9.390 -0.0882 -0.9347 -0.5438
   56MYC    H34 8644   1.434   3.306   9.350 -0.1685  0.3815  2.4186
   56MYC    H35 8645   1.527   3.160   9.314  0.7782  2.3719 -2.1561
   56MYC    C21 8646   1.345   3.115   9.405  0.2889 -0.1155  0.5219
   56MYC    H36 8647   1.381   3.014   9.429 -0.2301 -0.4699 -0.1228
   56MYC    H37 8648   1.278   3.142   9.487 -0.2650  0.9431 -0.2603
   56MYC    C22 8649   1.258   3.125   9.282 -0.1345 -0.3074  0.7057
   56MYC    H38 8650   1.158   3.090   9.309 -1.4184 -0.2395 -3.2910
   56MYC    H39 8651   1.226   3.226   9.255 -1.5507 -1.0114 -0.3794
   56MYC    C23 8652   1.314   3.063   9.154 -0.4732 -0.1577  0.0242
   56MYC    H40 8653   1.394   3.120   9.106  0.1434 -2.3729 -1.7597
   56MYC    H41 8654   1.347   2.963   9.183 -0.2333 -1.1095 -3.1202
   56MYC    C24 8655   1.208   3.068   9.046  0.8083  0.6920  0.1950
   56MYC    H42 8656   1.115   3.022   9.081  0.1833  0.4338 -1.7175
   56MYC    H43 8657   1.188   3.175   9.033  0.2669  0.4697 -0.9343
   56MYC    C25 8658   1.253   3.011   8.917  0.8439  0.2946 -0.2414
   56MYC    H44 8659   1.348   3.062   8.892  0.3731  2.8735  2.6222
   56MYC    H45 8660   1.276   2.905   8.931  2.1713  0.7071  1.1047
   56MYC    C26 8661   1.150   3.025   8.809  0.8972 -0.2023 -0.6110
   56MYC    H46 8662   1.061   2.967   8.833  0.8094 -0.1890 -0.8958
   56MYC    H47 8663   1.120   3.129   8.791  2.3237 -0.1853 -3.6447
   56MYC    C27 8664   1.200   2.966   8.673  0.0806  0.2936 -0.4372
   56MYC    H48 8665   1.293   3.021   8.653 -0.3608  1.0964 -0.3410
   56MYC    H49 8666   1.211   2.859   8.693 -1.7154 -0.1669 -1.6606
   56MYC    C28 8667   1.103   2.992   8.553  0.3350  0.0171 -0.0536
   56MYC    H50 8668   1.000   3.000   8.590 -0.5224  0.2365 -2.2971
   56MYC    H51 8669   1.128   3.092   8.515 -3.7672  0.6313 -1.6789
   56MYC    C29 8670   1.124   2.893   8.436 -0.3789  0.9222  0.4024
   56MYC    H52 8671   1.224   2.904   8.392 -0.9928 -1.4312 -1.8049
   56MYC    H53 8672   1.113   2.790   8.471 -2.0507  1.3907  1.3886
   56MYC    C30 8673   1.017   2.914   8.326  0.1241  0.2777  0.8205
   56MYC    H54 8674   0.915   2.882   8.351  0.1329  0.6993  1.4208
   56MYC    H55 8675   1.015   3.023   8.311 -0.4116  0.4456  1.9972
   56MYC    C31 8676   1.057   2.849   8.191  0.3069  0.0413 -0.1737
   56MYC    H56 8677   1.155   2.890   8.165  1.4330 -0.2791  3.0846
   56MYC    H57 8678   1.067   2.741   8.206 -0.3619 -0.0098 -0.0631
   56MYC    C32 8679   0.956   2.873   8.072 -0.0957 -0.7064 -0.0151
   56MYC    H58 8680   0.857   2.827   8.077  0.3141 -1.5785  0.2192
   56MYC    H59 8681   0.942   2.982   8.070 -0.8834 -0.7598 -3.3700
   56MYC    C33 8682   1.006   2.843   7.933 -0.1703 -0.1222 -0.6038
   56MYC    H60 8683   1.102   2.894   7.918 -0.0329 -0.3488 -0.4908
   56MYC    H61 8684   1.027   2.736   7.933 -1.3919 -0.3809  0.2800
   56MYC    C34 8685   0.911   2.885   7.815  0.6121 -0.4134 -0.4619
   56MYC    H62 8686   0.805   2.864   7.831 -0.1286  3.1826  0.2259
   56MYC    H63 8687   0.920   2.994   7.808  1.1034 -0.5527 -3.0915
   56MYC    C35 8688   0.950   2.842   7.673 -0.7029  0.0865 -0.3887
   56MYC    H64 8689   1.059   2.858   7.668 -0.7563  0.2583 -1.0249
   56MYC    H65 8690   0.921   2.736   7.668 -0.1063 -0.3434  2.8889
   56MYC    C36 8691   0.882   2.919   7.558 -0.0580 -0.2642  0.3131
   56MYC    H66 8692   0.776   2.890   7.560 -0.2133 -0.3961 -3.2683
   56MYC    H67 8693   0.883   3.026   7.578  0.6966 -0.0958 -0.5901
   56MYC    C37 8694   0.923   2.885   7.410 -0.1352  0.0749  0.0238
   56MYC    H68 8695   1.032   2.879   7.404 -0.2521 -1.0616 -2.8967
   56MYC    H69 8696   0.889   2.787   7.375  3.5933 -0.9407 -1.1818
   56MYC    C38 8697   0.872   3.000   7.324 -0.3490  0.3658 -0.2014
   56MYC    H70 8698   0.766   3.018   7.348 -0.7522 -1.4410 -0.4498
   56MYC    H71 8699   0.932   3.088   7.347 -0.9488  1.3302 -2.0775
   56MYC    C39 8700   0.896   2.983   7.171  0.8724 -0.0273 -0.9279
   56MYC    H72 8701   0.882   3.079   7.119 -1.4614 -0.3212 -0.9745
   56MYC    H73 8702   1.002   2.966   7.148  1.5026  1.7986  0.3925
   56MYC    C40 8703   0.806   2.882   7.106 -0.1283 -0.4977 -0.3451
   56MYC    H74 8704   0.857   2.785   7.115  0.2874 -0.3166 -0.6757
   56MYC    H75 8705   0.711   2.860   7.156 -0.8790  2.3908 -0.3409
   56MYC    C41 8706   0.779   2.906   6.953 -0.4240 -0.4282 -0.9396
   56MYC    H76 8707   0.697   2.841   6.919 -2.3711  1.8799 -0.8928
   56MYC    H77 8708   0.739   3.007   6.945 -1.3406 -0.2797  3.2930
   56MYC    C42 8709   0.906   2.893   6.869 -0.7396 -0.2514 -0.0942
   56MYC    H78 8710   0.982   2.959   6.912 -0.6358  2.2166 -3.6783
   56MYC    H79 8711   0.943   2.790   6.869 -0.4518 -0.1469 -0.0522
   56MYC    C43 8712   0.886   2.928   6.725 -0.0233  0.4669 -0.3660
   56MYC    H80 8713   0.982   2.940   6.672  0.6580 -0.9000  0.5191
   56MYC    H81 8714   0.832   3.023   6.719  1.8257  1.5988 -0.0623
   56MYC    H82 8715   0.837   2.843   6.678 -1.9134 -0.0055  2.2570
   57MYC   HH15 8716   3.082   3.843   7.645  1.1157  0.3369  0.0062
   57MYC    C80 8717   3.036   3.942   7.657  0.1301 -0.0573 -0.3772
   57MYC   H100 8718   3.023   3.996   7.563  0.3267 -1.5628 -1.2937
   57MYC   H101 8719   2.936   3.919   7.696 -0.7960  0.5793 -2.2760
   57MYC    C79 8720   3.116   4.036   7.750  0.2550  0.2688 -0.2999
   57MYC   H102 8721   3.124   4.140   7.717  1.2729  0.4268  0.4004
   57MYC   H103 8722   3.221   4.010   7.733  0.8720  1.9518  0.6920
   57MYC    C78 8723   3.084   4.017   7.900 -0.0073  0.0948  0.6387
   57MYC   HH14 8724   2.978   4.039   7.919 -0.2993 -1.0031  0.3647
   57MYC   H104 8725   3.153   4.083   7.953  1.9325 -2.4193  1.4421
   57MYC    C77 8726   3.114   3.881   7.962  0.5130  0.0482  0.2576
   57MYC   H106 8727   3.224   3.875   7.956  0.6170  0.8764  1.0970
   57MYC   H107 8728   3.063   3.800   7.907  0.2798  1.4786 -1.7578
   57MYC    C76 8729   3.056   3.863   8.099  0.4966  0.0429 -0.3472
   57MYC   H108 8730   2.948   3.880   8.099  0.3899 -0.4820  1.1601
   57MYC   H109 8731   3.093   3.942   8.166  1.5661 -1.2669  0.6623
   57MYC    C75 8732   3.078   3.719   8.148 -0.6336  0.4134 -0.4627
   57MYC   H110 8733   3.177   3.680   8.123  0.0698  1.1791  1.0191
   57MYC   H111 8734   3.000   3.661   8.096 -0.9215 -0.6287  1.0712
   57MYC    C74 8735   3.054   3.692   8.294  0.5866  0.5761  0.3972
   57MYC   H112 8736   2.949   3.723   8.304  0.9151  1.8741 -0.0136
   57MYC   H113 8737   3.123   3.747   8.358  1.7137 -1.8372  1.4037
   57MYC    C73 8738   3.063   3.547   8.345 -0.3851  0.2573 -0.4175
   57MYC   HH13 8739   3.160   3.500   8.326 -0.8433 -1.5627  1.3469
   57MYC   H114 8740   2.980   3.486   8.309 -0.5029 -1.3443  2.3358
   57MYC    C72 8741   3.055   3.533   8.505 -0.4607 -0.1440  0.1744
   57MYC   H115 8742   3.084   3.622   8.562 -1.8817  0.0357  0.6474
   57MYC   H116 8743   3.128   3.456   8.535 -0.8858 -0.8436 -0.5539
   57MYC    C71 8744   2.911   3.504   8.549  0.1345  0.5781 -0.1041
   57MYC   H117 8745   2.874   3.415   8.497 -0.4882 -1.4699  3.4922
   57MYC   H118 8746   2.845   3.588   8.527 -1.0771 -0.5420 -0.8437
   57MYC    C70 8747   2.908   3.456   8.697 -0.5425  0.6548  0.2975
   57MYC   H119 8748   2.950   3.356   8.687 -0.6041  0.6530  0.0494
   57MYC   H120 8749   2.804   3.454   8.734 -0.6113  0.2900  0.0908
   57MYC    C69 8750   2.980   3.538   8.805 -0.3214 -0.3887 -0.6488
   57MYC   H121 8751   2.936   3.638   8.815 -0.6015 -0.6749  1.2093
   57MYC   H122 8752   3.084   3.552   8.775 -0.8157  0.6782 -1.9898
   57MYC    C68 8753   2.992   3.464   8.939 -0.2449  0.2567  0.0483
   57MYC   HH12 8754   3.039   3.533   9.010 -0.8643  0.3383  0.3874
   57MYC   H123 8755   3.058   3.376   8.932  1.5617  1.6629 -1.8524
   57MYC    C67 8756   2.850   3.431   9.007  0.0974  0.2261  0.1418
   57MYC   H124 8757   2.805   3.347   8.954 -0.5222  2.9327 -4.1529
   57MYC   H125 8758   2.780   3.511   8.979 -1.4848 -1.4546 -0.8938
   57MYC    C66 8759   2.856   3.411   9.152 -0.2867 -0.1545  0.1741
   57MYC   H126 8760   2.754   3.391   9.188  0.0951  0.3370  1.6318
   57MYC   H127 8761   2.875   3.511   9.194 -1.7363 -0.3870  1.4881
   57MYC    C65 8762   2.958   3.293   9.193  0.7137  0.9568 -0.1368
   57MYC   H128 8763   3.044   3.295   9.125  0.4859 -1.7936 -0.5930
   57MYC   H129 8764   2.912   3.200   9.158  3.4205 -0.0238 -1.3763
   57MYC    C64 8765   3.006   3.288   9.343  0.9368  0.2659 -0.3521
   57MYC   H130 8766   3.054   3.386   9.352 -0.2918  0.8355  0.2635
   57MYC   H131 8767   3.079   3.206   9.349  0.6838  0.1410  2.9621
   57MYC    C63 8768   2.898   3.269   9.446 -0.4272  0.8647 -0.4281
   57MYC   HH11 8769   2.817   3.200   9.419 -1.3382  0.6395  2.5511
   57MYC   H132 8770   2.850   3.368   9.450  0.8804  1.4958  0.0201
   57MYC    C62 8771   2.946   3.224   9.587  0.0018  0.9263 -0.4810
   57MYC   H133 8772   3.034   3.286   9.610 -0.1411  1.0340 -0.2150
   57MYC   H134 8773   2.990   3.124   9.588 -0.5883  0.6402  1.4214
   57MYC    C61 8774   2.844   3.205   9.695  0.2784 -0.4777 -0.1329
   57MYC   H135 8775   2.754   3.165   9.648  0.3284  0.2899 -0.9044
   57MYC   H136 8776   2.808   3.303   9.728  0.4900 -1.2667  2.7439
   57MYC    C60 8777   2.888   3.122   9.813  0.0476 -0.5973  0.2326
   57MYC   H137 8778   2.944   3.191   9.875  2.0183 -0.3064 -1.7591
   57MYC    C58 8779   2.800   3.016   9.876 -0.1626 -0.0545 -0.1514
   57MYC   H138 8780   2.709   2.994   9.821  0.0534 -0.0649 -0.5099
   57MYC    C59 8781   2.932   2.978   9.803  0.3885 -0.4415 -0.1078
   57MYC   H139 8782   3.026   2.972   9.857  0.5476  1.7127 -0.0646
   57MYC   H140 8783   2.929   2.932   9.704  0.2272 -0.7642  0.0460
   57MYC    C57 8784   2.792   2.999  10.021  0.0892 -0.0735  0.2673
   57MYC   HH10 8785   2.770   3.101  10.055 -0.2715  0.3395 -1.1748
   57MYC   H141 8786   2.887   2.972  10.071  0.1841  0.1139  0.1893
   57MYC    C56 8787   2.678   2.918  10.075  0.0636 -0.0557  0.0557
   57MYC   H142 8788   2.707   2.813  10.065  3.3737  0.6566  1.0759
   57MYC   H143 8789   2.594   2.940  10.008  0.1847 -0.3556 -0.1946
   57MYC    C55 8790   2.643   2.954  10.220 -0.0614 -0.0993  0.2251
   57MYC   H144 8791   2.604   3.057  10.220 -0.0497 -0.0614  1.9964
   57MYC   H145 8792   2.728   2.948  10.289 -0.9699  1.5931  1.5741
   57MYC    C54 8793   2.533   2.857  10.274  0.5496  0.1565 -0.0621
   57MYC   H146 8794   2.575   2.757  10.290  0.2623  0.2128  1.1567
   57MYC   H147 8795   2.459   2.851  10.193  0.4594  1.3290 -0.0849
   57MYC    C53 8796   2.455   2.906  10.400 -0.3995  0.3873  0.3120
   57MYC   H148 8797   2.371   2.839  10.420 -1.5242  1.2672 -1.2445
   57MYC   H149 8798   2.407   3.005  10.401  1.0272  1.1557 -1.5736
   57MYC    C52 8799   2.546   2.910  10.525 -0.4752  0.1492 -0.2578
   57MYC    H99 8800   2.619   2.991  10.508 -2.5565  1.9382 -1.2036
   57MYC   H150 8801   2.589   2.810  10.532 -0.8560 -0.1322 -1.6601
   57MYC    C51 8802   2.472   2.943  10.652  0.1547  0.1198  0.1397
   57MYC    H97 8803   2.422   3.041  10.652 -1.0445 -0.4499  1.3495
   57MYC    H98 8804   2.547   2.963  10.730 -1.1474  0.9001  1.2284
   57MYC    C50 8805   2.356   2.847  10.695  0.0620  0.0927  0.1947
   57MYC    H95 8806   2.396   2.745  10.708 -1.9273 -0.7810 -0.1579
   57MYC    H96 8807   2.270   2.846  10.627  1.0496  1.4998 -1.1440
   57MYC    C49 8808   2.290   2.895  10.829 -0.1455 -0.2247 -0.2220
   57MYC    H93 8809   2.203   2.830  10.844  0.1316 -0.3804  0.7424
   57MYC    H94 8810   2.257   3.000  10.831  1.3816  0.2827  0.2895
   57MYC    C48 8811   2.380   2.855  10.949 -0.5914 -0.4589  0.2617
   57MYC    H91 8812   2.474   2.910  10.940 -0.6246 -0.3936  0.3135
   57MYC    H92 8813   2.413   2.752  10.933  0.8596  0.3524 -2.7401
   57MYC    C47 8814   2.336   2.878  11.098  0.1554 -0.6907  0.7326
   57MYC    H89 8815   2.420   2.846  11.161 -1.8006 -2.2534  2.6919
   57MYC    H90 8816   2.262   2.798  11.110  0.1621 -0.9579 -0.8365
   57MYC    C46 8817   2.285   3.024  11.141 -0.5227 -0.2995 -0.0361
   57MYC    H87 8818   2.201   3.057  11.078 -1.8491 -0.7585  1.4194
   57MYC    H88 8819   2.367   3.096  11.137 -1.4264  0.7253 -0.8439
   57MYC    C45 8820   2.241   3.036  11.289  0.0671  0.0834 -0.2681
   57MYC    H85 8821   2.213   3.140  11.307 -2.0348 -0.2328 -1.3921
   57MYC    H86 8822   2.324   2.999  11.350 -1.1021  0.0655  1.3913
   57MYC    C44 8823   2.127   2.938  11.317  0.0741  0.6724  0.2589
   57MYC    H83 8824   2.095   2.942  11.422 -0.2764 -0.3851  0.2067
   57MYC    H84 8825   2.164   2.835  11.317 -1.1868  0.2001  0.7386
   57MYC    C18 8826   1.991   2.961  11.244 -1.2940 -0.8614  0.4607
   57MYC    H31 8827   1.950   3.055  11.282  0.5105  0.6516 -1.1081
   57MYC    C17 8828   1.967   2.907  11.100 -0.2328  0.6099 -0.3789
   57MYC    H30 8829   2.040   2.839  11.057 -0.0166  0.0867  0.7740
   57MYC    C19 8830   1.893   2.853  11.226  0.3187 -0.6798  0.6447
   57MYC    H32 8831   1.921   2.753  11.258  0.4732 -0.2980  1.7131
   57MYC    H33 8832   1.791   2.884  11.247  0.5457  0.2447  0.4291
   57MYC    C16 8833   1.900   2.987  10.990  0.5834 -0.1582 -0.4195
   57MYC    H28 8834   1.976   3.051  10.944 -1.3494  1.3124 -1.7360
   57MYC    H29 8835   1.839   3.064  11.039  1.1851 -0.0928  0.2417
   57MYC    C15 8836   1.802   2.906  10.904  0.2468 -0.8949 -1.3564
   57MYC    H26 8837   1.728   2.977  10.864  0.6751 -1.1075 -2.5732
   57MYC    H27 8838   1.749   2.835  10.968 -0.7224 -0.6531 -1.8614
   57MYC    C14 8839   1.875   2.811  10.805  0.4234 -0.0021 -0.7883
   57MYC    H24 8840   1.802   2.741  10.762 -1.5446  0.4211  1.5832
   57MYC    H25 8841   1.928   2.737  10.866  0.6737  0.7011 -0.1319
   57MYC    C13 8842   1.960   2.870  10.687 -0.8675 -0.0901 -0.3971
   57MYC    H22 8843   2.046   2.931  10.716 -0.8691  0.8116 -2.1388
   57MYC    H23 8844   1.888   2.940  10.644 -3.1445 -1.4301  0.9974
   57MYC    C12 8845   1.999   2.768  10.580  0.5732  0.3348 -0.0178
   57MYC    H20 8846   1.911   2.704  10.566  0.9926  0.0678 -1.6270
   57MYC    H21 8847   2.081   2.700  10.610 -0.5043 -2.0246 -2.0659
   57MYC    C11 8848   2.044   2.834  10.442 -0.2820  0.0561  0.0008
   57MYC    H18 8849   2.127   2.905  10.454 -0.6916  0.6980 -0.8350
   57MYC    H19 8850   1.952   2.885  10.412 -3.2634 -3.3771  2.3618
   57MYC    C10 8851   2.078   2.745  10.321 -0.1125  0.3569 -0.4494
   57MYC    H16 8852   1.981   2.701  10.292  0.3188 -1.1289  0.2929
   57MYC    H17 8853   2.140   2.659  10.347 -3.4242 -2.5453 -1.3549
   57MYC     C9 8854   2.137   2.829  10.211  0.6296 -0.5415 -0.0375
   57MYC    H14 8855   2.229   2.876  10.248 -0.6381  0.8119  1.5807
   57MYC    H15 8856   2.066   2.910  10.194  0.7114 -0.7381 -1.3670
   57MYC     C8 8857   2.157   2.745  10.083 -0.0938  0.7015 -0.7315
   57MYC    H12 8858   2.063   2.691  10.066  0.6451 -0.9488  0.1983
   57MYC    H13 8859   2.243   2.679  10.091 -0.5723  0.1309 -0.2324
   57MYC     C7 8860   2.175   2.833   9.960 -0.3816 -0.0188  0.8390
   57MYC    H10 8861   2.089   2.900   9.958  0.4743  1.1173 -1.2496
   57MYC    H11 8862   2.158   2.777   9.867  0.3505  0.2649  0.5230
   57MYC     C6 8863   2.290   2.923   9.946  0.1488  0.3524 -0.0353
   57MYC     H8 8864   2.383   2.866   9.941 -0.2868 -0.2288 -2.2305
   57MYC     H9 8865   2.307   2.984  10.036 -0.3407  0.0449  0.2761
   57MYC     C5 8866   2.291   3.023   9.821  0.7964  0.3264 -0.3000
   57MYC     H6 8867   2.386   3.078   9.817  2.3812 -1.9342  2.0046
   57MYC     H7 8868   2.217   3.104   9.826  1.5818  1.3102 -3.1123
   57MYC     C4 8869   2.277   2.967   9.676  0.2598 -1.2224 -0.1064
   57MYC     H4 8870   2.185   2.908   9.686  0.0197 -0.7155  0.7616
   57MYC     H5 8871   2.367   2.912   9.645 -0.1028 -0.2341 -3.2047
   57MYC     C2 8872   2.255   3.085   9.579 -0.2084 -0.5069  0.6832
   57MYC     H2 8873   2.171   3.141   9.621  0.2525  1.0582 -0.4011
   57MYC     O3 8874   2.357   3.170   9.567  0.1236 -0.0604  0.1235
   57MYC     H3 8875   2.419   3.129   9.505 -1.6063 -1.0239 -1.0505
   57MYC     C1 8876   2.194   3.040   9.438 -0.1989 -0.6509 -0.5587
   57MYC     H1 8877   2.114   2.971   9.467  0.6638 -0.7427  1.7961
   57MYC    C81 8878   2.303   2.947   9.369  0.2197 -0.5027  0.2558
   57MYC    O82 8879   2.410   2.986   9.327  0.6879 -0.1858 -0.3184
   57MYC    O83 8880   2.286   2.818   9.395 -0.3193 -0.3613 -0.0850
   57MYC   H105 8881   2.365   2.773   9.360  0.3929  2.4779 -2.6415
   57MYC    C20 8882   2.133   3.152   9.349  0.1376  0.0881 -0.5576
   57MYC    H34 8883   2.055   3.211   9.397 -0.3473 -1.0858  0.1196
   57MYC    H35 8884   2.219   3.218   9.334  1.3587 -1.2321  0.3027
   57MYC    C21 8885   2.085   3.091   9.212 -0.1755 -0.7764 -0.7251
   57MYC    H36 8886   2.171   3.052   9.157  0.2222 -0.4842 -0.3161
   57MYC    H37 8887   2.015   3.011   9.236  1.3425 -2.0853 -0.4818
   57MYC    C22 8888   2.012   3.188   9.121 -0.0366 -0.0105 -0.3565
   57MYC    H38 8889   2.089   3.261   9.093  1.2222 -0.1264  2.4451
   57MYC    H39 8890   1.980   3.139   9.029  0.8589 -2.2725  0.4550
   57MYC    C23 8891   1.890   3.268   9.173 -0.1000  0.6269 -0.1729
   57MYC    H40 8892   1.816   3.202   9.219  0.3986  0.3307  0.2067
   57MYC    H41 8893   1.927   3.331   9.255 -1.7184 -0.9339  1.8844
   57MYC    C24 8894   1.816   3.357   9.067  0.1493  0.0105  0.3154
   57MYC    H42 8895   1.882   3.434   9.023  0.5021  0.8438  2.2137
   57MYC    H43 8896   1.793   3.289   8.984 -2.1783  1.5651 -0.4050
   57MYC    C25 8897   1.677   3.421   9.104  0.0812 -0.4184 -0.3699
   57MYC    H44 8898   1.618   3.349   9.162 -0.8597  1.3795  1.0133
   57MYC    H45 8899   1.695   3.487   9.190 -1.0417 -0.2292 -0.2684
   57MYC    C26 8900   1.597   3.495   8.987 -0.8602 -0.6338 -0.3631
   57MYC    H46 8901   1.535   3.575   9.029  1.0050  0.2781  0.7808
   57MYC    H47 8902   1.675   3.545   8.928 -0.4188  1.2249  1.6928
   57MYC    C27 8903   1.523   3.400   8.890  1.1418  0.3105 -0.2302
   57MYC    H48 8904   1.594   3.320   8.865  0.6873 -0.7705  1.8069
   57MYC    H49 8905   1.446   3.342   8.942  2.6014  0.0745  1.7923
   57MYC    C28 8906   1.462   3.461   8.762  0.2027 -0.9269 -0.5942
   57MYC    H50 8907   1.403   3.546   8.797 -0.4498 -1.7895  0.4811
   57MYC    H51 8908   1.545   3.504   8.704 -0.0500  4.2556  2.2805
   57MYC    C29 8909   1.391   3.366   8.676 -0.2167 -0.1659 -0.1977
   57MYC    H52 8910   1.448   3.273   8.674  1.2301  0.6551  0.9769
   57MYC    H53 8911   1.290   3.343   8.713  0.0511 -3.0982 -1.0579
   57MYC    C30 8912   1.372   3.421   8.532  0.2337 -0.4790  0.2159
   57MYC    H54 8913   1.299   3.503   8.525  1.8377  0.9595 -0.6369
   57MYC    H55 8914   1.466   3.471   8.504  0.9774  0.0070  3.2080
   57MYC    C31 8915   1.314   3.311   8.442 -1.0401  0.4219  0.3887
   57MYC    H56 8916   1.368   3.218   8.463 -1.5067  0.0248 -0.1429
   57MYC    H57 8917   1.207   3.301   8.464 -1.2575  2.6225  0.4946
   57MYC    C32 8918   1.326   3.337   8.285  0.5085  0.4599 -0.4466
   57MYC    H58 8919   1.284   3.436   8.263 -1.5016  0.1451  1.5514
   57MYC    H59 8920   1.433   3.341   8.264  0.7147 -2.6313 -0.4669
   57MYC    C33 8921   1.254   3.233   8.189 -0.0082  0.4900  0.2394
   57MYC    H60 8922   1.294   3.134   8.214 -0.9003 -0.3775 -1.6056
   57MYC    H61 8923   1.146   3.226   8.208 -0.7070 -0.2585 -3.2411
   57MYC    C34 8924   1.295   3.267   8.044 -0.1952 -0.1682  0.5531
   57MYC    H62 8925   1.256   3.368   8.026 -0.4832 -0.0020  1.9887
   57MYC    H63 8926   1.404   3.261   8.034  0.1114  0.9159  2.6734
   57MYC    C35 8927   1.238   3.164   7.943 -0.3465  0.1673  0.1788
   57MYC    H64 8928   1.279   3.066   7.968  0.4296  0.5876  0.6192
   57MYC    H65 8929   1.129   3.176   7.940 -0.1706  2.8488  1.3968
   57MYC    C36 8930   1.284   3.201   7.807 -0.2072 -0.1317 -0.1455
   57MYC    H66 8931   1.239   3.299   7.788 -0.9875 -0.0639  1.7989
   57MYC    H67 8932   1.393   3.217   7.806  0.0096 -1.0447  1.8765
   57MYC    C37 8933   1.232   3.102   7.696 -0.4424 -0.1114  0.1939
   57MYC    H68 8934   1.272   3.008   7.736 -2.3690 -0.2647  1.9389
   57MYC    H69 8935   1.123   3.096   7.704 -0.4947 -0.4613 -0.6934
   57MYC    C38 8936   1.283   3.134   7.561 -0.3837  0.2264  0.0834
   57MYC    H70 8937   1.393   3.136   7.559 -0.3127 -1.8815 -0.8922
   57MYC    H71 8938   1.252   3.054   7.493  0.3540 -0.2726  0.3211
   57MYC    C39 8939   1.220   3.266   7.505  0.0093  0.6777 -0.2055
   57MYC    H72 8940   1.111   3.259   7.497  0.0357  1.6184 -1.8762
   57MYC    H73 8941   1.228   3.339   7.586  1.9413 -0.1299  0.3987
   57MYC    C40 8942   1.275   3.319   7.366  0.2005  0.4384 -0.0060
   57MYC    H74 8943   1.268   3.241   7.289  1.9246 -1.4497  1.6241
   57MYC    H75 8944   1.199   3.396   7.350 -0.0819  0.0460 -0.5849
   57MYC    C41 8945   1.423   3.388   7.365 -1.0077 -0.0949  0.1068
   57MYC    H76 8946   1.401   3.492   7.392 -1.2787  0.0061 -0.4928
   57MYC    H77 8947   1.495   3.332   7.427 -0.4418 -0.3884 -0.8017
   57MYC    C42 8948   1.475   3.399   7.217 -0.0929  0.3714 -0.4795
   57MYC    H78 8949   1.579   3.432   7.227 -0.2911  0.3975  2.3819
   57MYC    H79 8950   1.459   3.303   7.167  0.0069  0.4300 -0.6223
   57MYC    C43 8951   1.390   3.509   7.143 -0.6162  0.4779  0.2333
   57MYC    H80 8952   1.289   3.475   7.169 -0.5438  0.7085  0.8192
   57MYC    H81 8953   1.404   3.501   7.034  0.8632  2.5361  0.2015
   57MYC    H82 8954   1.407   3.609   7.184  0.6253  0.2271  0.3485
   58MYC   HH15 8955   3.586   3.216   7.404  0.6235  0.5604  0.1227
   58MYC    C80 8956   3.691   3.185   7.407  0.4255 -0.1239 -0.0432
   58MYC   H100 8957   3.700   3.077   7.425 -2.2136 -0.1638  1.4945
   58MYC   H101 8958   3.737   3.207   7.310 -0.8732 -0.5127 -0.7714
   58MYC    C79 8959   3.768   3.252   7.513 -0.6263 -0.2335 -0.4275
   58MYC   H102 8960   3.756   3.359   7.492  0.0538  0.2921  1.6360
   58MYC   H103 8961   3.874   3.226   7.499  0.1993  1.1404  2.6139
   58MYC    C78 8962   3.717   3.212   7.652  0.1825 -0.0545 -0.1419
   58MYC   HH14 8963   3.731   3.105   7.674  0.6209 -0.0383 -0.3297
   58MYC   H104 8964   3.608   3.222   7.650  0.0786 -1.0461  0.0020
   58MYC    C77 8965   3.784   3.285   7.770  0.5912  0.3090  0.0592
   58MYC   H106 8966   3.796   3.394   7.769  1.0759  0.4520  4.2383
   58MYC   H107 8967   3.887   3.246   7.764  0.4568 -0.9418  3.6190
   58MYC    C76 8968   3.741   3.254   7.917  0.0524  0.7106  0.1485
   58MYC   H108 8969   3.757   3.147   7.935  3.0707  1.3850  2.1454
   58MYC   H109 8970   3.635   3.279   7.935  0.0021 -0.4008  1.6486
   58MYC    C75 8971   3.831   3.321   8.009  0.4507  0.3749 -0.5504
   58MYC   H110 8972   3.829   3.429   7.987  1.1783  0.2989 -1.0131
   58MYC   H111 8973   3.935   3.308   7.976  0.7029  1.9226 -0.4763
   58MYC    C74 8974   3.805   3.288   8.156  0.5675 -0.3045 -0.6023
   58MYC   H112 8975   3.826   3.183   8.180  1.8278  0.0475 -0.0703
   58MYC   H113 8976   3.701   3.310   8.183 -0.6104 -4.5529 -0.8302
   58MYC    C73 8977   3.892   3.358   8.263 -0.4583 -0.5172  0.1778
   58MYC   HH13 8978   3.905   3.462   8.231  0.5269 -0.6218  0.2171
   58MYC   H114 8979   3.998   3.332   8.257  0.2568  2.1302  0.1379
   58MYC    C72 8980   3.843   3.341   8.406  0.9477 -0.9720  0.5482
   58MYC   H115 8981   3.793   3.243   8.407  1.0956 -1.1356 -1.9551
   58MYC   H116 8982   3.753   3.404   8.413 -1.5771 -3.8741 -2.0335
   58MYC    C71 8983   3.950   3.362   8.519 -0.0363 -0.4542  0.2859
   58MYC   H117 8984   3.991   3.463   8.509  0.2315 -0.3936  1.8028
   58MYC   H118 8985   4.035   3.293   8.509 -0.1470 -0.7656  1.3969
   58MYC    C70 8986   3.904   3.362   8.664  0.0531 -0.0954  0.1610
   58MYC   H119 8987   3.839   3.274   8.666 -0.7106  0.4571  1.3077
   58MYC   H120 8988   3.845   3.452   8.683 -0.1267  0.5211 -2.9456
   58MYC    C69 8989   4.013   3.354   8.771  0.0789 -0.1706  0.4445
   58MYC   H121 8990   4.061   3.450   8.791 -1.1867  0.4294  0.6688
   58MYC   H122 8991   4.091   3.287   8.732  2.7847  2.2677  1.3798
   58MYC    C68 8992   3.954   3.304   8.902 -0.2235 -0.1799 -0.4885
   58MYC   HH12 8993   3.916   3.203   8.884 -0.4498  0.1586 -2.0281
   58MYC   H123 8994   3.869   3.370   8.923  0.2504  0.8951 -1.8113
   58MYC    C67 8995   4.059   3.305   9.021  0.2515 -0.0101 -0.3743
   58MYC   H124 8996   4.078   3.405   9.061  0.0326  0.4304 -1.3550
   58MYC   H125 8997   4.157   3.283   8.978  0.4192 -0.1314  0.0648
   58MYC    C66 8998   4.020   3.205   9.138 -0.5005 -0.3161 -0.0959
   58MYC   H126 8999   3.980   3.110   9.100 -0.7942 -0.6864  1.0973
   58MYC   H127 9000   3.938   3.252   9.193 -0.1717 -0.2836  0.3732
   58MYC    C65 9001   4.138   3.183   9.236 -0.5454  0.5444 -0.2804
   58MYC   H128 9002   4.180   3.281   9.259  0.1262  0.5801 -1.5610
   58MYC   H129 9003   4.231   3.146   9.190  0.8730  3.1692  0.3116
   58MYC    C64 9004   4.111   3.099   9.361  0.0447 -0.2167 -0.0759
   58MYC   H130 9005   4.049   3.012   9.337 -0.5718  0.0367  0.5654
   58MYC   H131 9006   4.041   3.145   9.431  0.5581 -0.6868  0.7615
   58MYC    C63 9007   4.234   3.025   9.429  0.4030  0.2689  0.4555
   58MYC   HH11 9008   4.319   3.091   9.450 -1.1311  2.1535  0.9725
   58MYC   H132 9009   4.256   2.945   9.357 -0.9313 -0.2680  0.6263
   58MYC    C62 9010   4.209   2.958   9.566 -0.5467 -0.3945 -0.1299
   58MYC   H133 9011   4.272   2.873   9.594 -1.5112 -0.6229  1.5430
   58MYC   H134 9012   4.112   2.908   9.554  0.5615 -2.5075 -0.6292
   58MYC    C61 9013   4.208   3.064   9.682  0.2361 -1.0251  0.4165
   58MYC   H135 9014   4.150   3.148   9.641  2.0805 -0.8713 -2.1612
   58MYC   H136 9015   4.306   3.108   9.705  0.1505  1.4040 -2.9971
   58MYC    C60 9016   4.139   3.017   9.808  0.4231  0.0651  0.0466
   58MYC   H137 9017   4.208   2.960   9.869  1.0324  0.1214 -0.5798
   58MYC    C58 9018   4.025   3.090   9.886 -0.3202 -0.1965  0.2690
   58MYC   H138 9019   4.018   3.195   9.858  1.5435 -0.2002 -0.3621
   58MYC    C59 9020   3.990   2.972   9.809 -0.8447  0.3225  0.3551
   58MYC   H139 9021   3.971   2.876   9.857 -4.3289  0.3675 -0.6764
   58MYC   H140 9022   3.917   2.986   9.730 -1.4898  1.2764  1.0912
   58MYC    C57 9023   4.025   3.075  10.033  0.1245  0.4497  0.0006
   58MYC   HH10 9024   4.117   3.119  10.072  0.5696 -0.6549  0.2411
   58MYC   H141 9025   4.040   2.969  10.057 -1.1102  0.1453 -0.4946
   58MYC    C56 9026   3.899   3.124  10.100 -0.0416 -0.0210  0.6436
   58MYC   H142 9027   3.813   3.115  10.033 -0.7265 -2.1325  1.7343
   58MYC   H143 9028   3.906   3.232  10.116 -1.8480  0.4160 -1.1290
   58MYC    C55 9029   3.852   3.066  10.236 -0.2288  0.2982 -0.0757
   58MYC   H144 9030   3.940   3.065  10.300 -0.0074  0.9290 -0.3521
   58MYC   H145 9031   3.828   2.961  10.218 -2.3619  0.7866 -0.3354
   58MYC    C54 9032   3.742   3.151  10.301  0.3466  0.2573 -0.5502
   58MYC   H146 9033   3.661   3.140  10.228  1.0011 -1.6722 -1.0431
   58MYC   H147 9034   3.764   3.258  10.299  2.4361 -0.1232 -2.2546
   58MYC    C53 9035   3.696   3.085  10.433  0.2476  0.1942  0.3477
   58MYC   H148 9036   3.786   3.072  10.495 -0.3567 -0.7665  1.0559
   58MYC   H149 9037   3.656   2.985  10.409 -3.1541  1.3033  0.8441
   58MYC    C52 9038   3.599   3.168  10.510 -0.3796 -0.4492  0.7310
   58MYC    H99 9039   3.505   3.180  10.454 -0.2431 -3.6531 -0.3842
   58MYC   H150 9040   3.643   3.264  10.537  0.1173 -0.1171 -1.1704
   58MYC    C51 9041   3.556   3.106  10.648  1.1327  0.2248 -0.6240
   58MYC    H97 9042   3.638   3.117  10.720  0.2993  2.9291  0.0151
   58MYC    H98 9043   3.534   2.999  10.641  2.4981 -0.0838 -0.5040
   58MYC    C50 9044   3.430   3.182  10.702 -1.0426 -0.0155 -0.2242
   58MYC    H95 9045   3.351   3.182  10.627 -2.2567  1.6512  0.9899
   58MYC    H96 9046   3.455   3.287  10.719 -0.5607 -0.1151 -0.3057
   58MYC    C49 9047   3.379   3.119  10.832 -0.1333  0.2763  0.5130
   58MYC    H93 9048   3.455   3.091  10.906  0.4285  1.0108  0.2410
   58MYC    H94 9049   3.334   3.021  10.818  2.8147 -1.1542  0.2384
   58MYC    C48 9050   3.282   3.212  10.892 -0.1197 -0.0961  0.5513
   58MYC    H91 9051   3.203   3.226  10.817  1.2747  1.4627 -0.7031
   58MYC    H92 9052   3.335   3.303  10.921 -1.2275  0.4946  0.7607
   58MYC    C47 9053   3.222   3.154  11.014 -0.1949 -0.2473 -0.1313
   58MYC    H89 9054   3.295   3.135  11.094 -0.9462  0.3420  0.7091
   58MYC    H90 9055   3.181   3.057  10.983 -0.0230 -0.8412  1.3653
   58MYC    C46 9056   3.103   3.244  11.073  0.5718 -1.0086 -0.4536
   58MYC    H87 9057   3.017   3.236  11.006  0.6140 -0.5018 -0.5746
   58MYC    H88 9058   3.123   3.352  11.084  0.4082 -1.0389  0.1866
   58MYC    C45 9059   3.050   3.200  11.211 -0.2313 -0.3414  0.1812
   58MYC    H85 9060   2.984   3.278  11.251 -0.4914  0.0017 -0.8995
   58MYC    H86 9061   3.140   3.205  11.274  0.4462  1.8535 -0.8688
   58MYC    C44 9062   3.001   3.055  11.222  0.1445 -0.6680  0.7647
   58MYC    H83 9063   2.964   3.041  11.324  2.0234  2.8175  2.0906
   58MYC    H84 9064   3.079   2.982  11.198  1.4878  0.9641 -0.0652
   58MYC    C18 9065   2.886   3.032  11.125 -1.1605 -0.0486  0.3656
   58MYC    H31 9066   2.827   3.121  11.104  3.0125  2.5179 -1.6638
   58MYC    C17 9067   2.901   2.937  11.004 -0.2034 -0.2693  0.0204
   58MYC    H30 9068   2.993   2.881  10.989  0.6434  0.8018  0.9830
   58MYC    C19 9069   2.815   2.899  11.127  0.7269 -0.0876  0.1444
   58MYC    H32 9070   2.852   2.818  11.191 -0.8901  0.0550  1.3185
   58MYC    H33 9071   2.711   2.880  11.103  0.6039 -2.0416  1.8943
   58MYC    C16 9072   2.824   2.965  10.876  0.3735 -0.1087  0.3080
   58MYC    H28 9073   2.739   3.033  10.888 -1.9120 -2.7846  0.2610
   58MYC    H29 9074   2.783   2.869  10.843 -1.3262 -0.1034  2.2445
   58MYC    C15 9075   2.900   3.034  10.763 -0.0255  0.2079 -0.2848
   58MYC    H26 9076   2.949   3.123  10.803  1.0761  0.9086 -2.9460
   58MYC    H27 9077   2.836   3.064  10.679  0.4693  1.8482 -0.1133
   58MYC    C14 9078   3.010   2.949  10.703  0.1644  0.5871  0.6731
   58MYC    H24 9079   2.954   2.871  10.650  1.1784  0.7117 -0.6295
   58MYC    H25 9080   3.077   2.906  10.778  0.8731 -0.1228 -0.3563
   58MYC    C13 9081   3.089   3.015  10.588 -0.0651 -0.4191 -0.0135
   58MYC    H22 9082   3.139   3.105  10.626  0.1892 -0.4419 -0.2942
   58MYC    H23 9083   3.019   3.049  10.511  0.4253 -1.3301 -0.8766
   58MYC    C12 9084   3.195   2.929  10.528  0.3047 -0.2139  0.2590
   58MYC    H20 9085   3.156   2.828  10.512  1.3606 -0.7509  0.9536
   58MYC    H21 9086   3.277   2.917  10.600  2.2009 -1.2180 -1.9756
   58MYC    C11 9087   3.243   2.982  10.393  0.5691  0.3881  0.0294
   58MYC    H18 9088   3.286   3.082  10.410 -1.9535  1.7261 -0.8783
   58MYC    H19 9089   3.169   3.009  10.316 -1.1237 -0.9037  1.1448
   58MYC    C10 9090   3.351   2.899  10.330  0.2320  0.2929 -0.6363
   58MYC    H16 9091   3.320   2.795  10.317  1.5971 -0.1130 -0.8673
   58MYC    H17 9092   3.437   2.889  10.398 -1.0583 -0.7766  0.8960
   58MYC     C9 9093   3.388   2.973  10.196  1.3058 -0.4451 -0.3255
   58MYC    H14 9094   3.429   3.072  10.215  0.6479 -0.2405  0.0577
   58MYC    H15 9095   3.296   2.983  10.137  1.2033 -2.0792 -0.5095
   58MYC     C8 9096   3.496   2.900  10.111 -0.3570  0.4432 -0.0253
   58MYC    H12 9097   3.487   2.790  10.109  2.0877  0.1428  1.6639
   58MYC    H13 9098   3.588   2.925  10.164  0.7085  0.7539 -1.9493
   58MYC     C7 9099   3.508   2.953   9.968 -0.6236  0.0977 -0.4798
   58MYC    H10 9100   3.541   3.058   9.973  1.4300 -0.5431  0.4800
   58MYC    H11 9101   3.410   2.957   9.919 -1.4478 -0.0623  1.0851
   58MYC     C6 9102   3.611   2.870   9.887  0.3145 -0.9384 -0.1323
   58MYC     H8 9103   3.598   2.761   9.883  1.9762 -1.2639  1.5121
   58MYC     H9 9104   3.714   2.877   9.926  0.5552 -1.2839 -0.6930
   58MYC     C5 9105   3.624   2.908   9.739 -0.2118 -0.4239 -0.3540
   58MYC     H6 9106   3.725   2.873   9.711  0.2504  1.1018 -0.7178
   58MYC     H7 9107   3.628   3.018   9.737 -0.2735 -0.3528  1.6170
   58MYC     C4 9108   3.512   2.859   9.647 -0.9942  0.7391 -0.1102
   58MYC     H4 9109   3.433   2.935   9.643 -0.8089  1.2329  2.9798
   58MYC     H5 9110   3.472   2.766   9.688 -0.2500  1.1513  1.6598
   58MYC     C2 9111   3.578   2.828   9.509 -0.1612  0.2276 -0.3601
   58MYC     H2 9112   3.651   2.748   9.525  0.7607  0.7554 -1.7424
   58MYC     O3 9113   3.478   2.774   9.421 -0.5544 -0.2135  0.4850
   58MYC     H3 9114   3.404   2.838   9.422  1.4648  2.2853  1.2319
   58MYC     C1 9115   3.652   2.953   9.444  0.1188  0.4188 -0.5524
   58MYC     H1 9116   3.743   2.982   9.497 -0.4798 -0.2751  0.9284
   58MYC    C81 9117   3.564   3.079   9.448 -0.0138  0.2299  0.2738
   58MYC    O82 9118   3.573   3.165   9.529  0.1932 -0.4523 -0.4570
   58MYC    O83 9119   3.465   3.078   9.364 -0.3695 -1.0535  0.3949
   58MYC   H105 9120   3.431   3.168   9.376  1.6983 -0.1099 -0.3927
   58MYC    C20 9121   3.704   2.922   9.297 -0.5857  0.0529 -0.2237
   58MYC    H34 9122   3.620   2.891   9.235 -0.5387 -0.3566 -0.0812
   58MYC    H35 9123   3.739   3.022   9.267  1.6031 -0.7794 -0.6743
   58MYC    C21 9124   3.819   2.827   9.290  0.1739  0.0412 -0.2191
   58MYC    H36 9125   3.895   2.859   9.362  0.2716 -0.4132 -0.1134
   58MYC    H37 9126   3.794   2.729   9.334  0.9903 -0.9009 -1.7736
   58MYC    C22 9127   3.871   2.810   9.147  0.1400  0.2557  0.4528
   58MYC    H38 9128   3.784   2.770   9.093  1.4882  0.7345 -2.2119
   58MYC    H39 9129   3.891   2.906   9.100 -2.0442 -0.0938 -1.3465
   58MYC    C23 9130   3.985   2.706   9.129 -0.4891 -0.0233  0.0904
   58MYC    H40 9131   4.078   2.747   9.172 -0.3333  3.3092 -2.9462
   58MYC    H41 9132   3.961   2.612   9.179  1.1895  0.0611  1.1516
   58MYC    C24 9133   4.024   2.674   8.977 -0.2882 -0.5993  0.1070
   58MYC    H42 9134   4.089   2.586   8.977 -1.0493 -1.1840  1.1771
   58MYC    H43 9135   3.942   2.650   8.908  1.7015 -2.6637 -1.7167
   58MYC    C25 9136   4.090   2.798   8.912  0.0256 -0.0668  0.0354
   58MYC    H44 9137   4.114   2.750   8.817 -0.4318 -1.2841  0.5216
   58MYC    H45 9138   4.024   2.884   8.892 -0.4220 -0.8859 -2.3824
   58MYC    C26 9139   4.222   2.848   8.977  0.4969  0.0139 -0.1136
   58MYC    H46 9140   4.197   2.883   9.078 -0.3320 -1.1945  0.1200
   58MYC    H47 9141   4.299   2.771   8.974  0.0811 -0.3854 -1.0172
   58MYC    C27 9142   4.280   2.974   8.915 -0.8528 -0.4296  0.8887
   58MYC    H48 9143   4.205   3.052   8.933 -0.8256 -0.5915  1.7322
   58MYC    H49 9144   4.369   2.998   8.974 -1.5088  0.3057  1.5978
   58MYC    C28 9145   4.330   2.964   8.773 -0.1817 -0.2722 -0.1428
   58MYC    H50 9146   4.425   3.018   8.773  0.2234 -0.9714  0.5823
   58MYC    H51 9147   4.359   2.861   8.751  1.1462 -0.3413  1.7203
   58MYC    C29 9148   4.229   3.013   8.665  0.2400 -0.0045 -0.2465
   58MYC    H52 9149   4.127   2.978   8.685 -0.4570  0.1959 -3.1105
   58MYC    H53 9150   4.241   3.121   8.657  0.6078  0.1128  1.3909
   58MYC    C30 9151   4.269   2.962   8.526 -0.7355  0.6191 -0.0111
   58MYC    H54 9152   4.358   3.011   8.485 -0.2183 -1.3832 -1.4681
   58MYC    H55 9153   4.291   2.854   8.530  4.0574  1.3524 -0.9649
   58MYC    C31 9154   4.166   2.983   8.413  0.2451  0.0097 -0.3764
   58MYC    H56 9155   4.064   2.960   8.447  0.8848 -1.6542  0.5535
   58MYC    H57 9156   4.171   3.090   8.390 -2.1882  0.2324 -0.1553
   58MYC    C32 9157   4.195   2.901   8.288  0.2661 -0.0823 -0.4496
   58MYC    H58 9158   4.303   2.914   8.276  0.5590  1.9679  2.9520
   58MYC    H59 9159   4.177   2.794   8.304  1.0255  0.1050  2.1068
   58MYC    C33 9160   4.105   2.934   8.170 -1.0890  0.1541 -0.5999
   58MYC    H60 9161   4.006   2.908   8.210 -1.4754  1.4957 -0.6248
   58MYC    H61 9162   4.097   3.043   8.165  0.6233  0.3186 -0.1047
   58MYC    C34 9163   4.140   2.867   8.037 -0.2235  0.4334 -0.6971
   58MYC    H62 9164   4.239   2.883   7.995  1.3234 -4.0838  0.6959
   58MYC    H63 9165   4.132   2.759   8.051  0.9550  0.6286  1.9906
   58MYC    C35 9166   4.039   2.910   7.933  0.0367  0.7137  0.0858
   58MYC    H64 9167   3.938   2.873   7.951 -0.0762  1.2452  0.5829
   58MYC    H65 9168   4.024   3.019   7.936 -0.1618  0.6721  1.5926
   58MYC    C36 9169   4.067   2.846   7.793 -0.3462 -0.2593  0.0679
   58MYC    H66 9170   4.161   2.896   7.767 -0.1381 -0.0175  1.2306
   58MYC    H67 9171   4.084   2.739   7.801  1.6473 -0.1607 -2.0070
   58MYC    C37 9172   3.957   2.885   7.687  0.9439  0.4210  0.2727
   58MYC    H68 9173   3.859   2.846   7.713 -1.0184  3.3866 -2.0029
   58MYC    H69 9174   3.944   2.992   7.670  0.2649  0.1002 -1.3782
   58MYC    C38 9175   4.008   2.825   7.555 -0.1937 -0.7302  0.0004
   58MYC    H70 9176   4.116   2.841   7.543 -0.0661 -0.0639  1.7369
   58MYC    H71 9177   3.996   2.717   7.558  0.0317 -0.7544  0.0277
   58MYC    C39 9178   3.935   2.882   7.424 -0.6576  0.0595  0.1356
   58MYC    H72 9179   3.826   2.872   7.429 -0.8848  1.1357 -1.7477
   58MYC    H73 9180   3.951   2.990   7.412  1.4689 -0.0683  1.2366
   58MYC    C40 9181   3.989   2.808   7.292 -0.2992  0.4553 -0.3416
   58MYC    H74 9182   4.099   2.808   7.293 -0.2633  2.3594 -0.1909
   58MYC    H75 9183   3.961   2.703   7.290 -0.5177  0.5273 -1.4660
   58MYC    C41 9184   3.922   2.866   7.166 -0.5744  0.3220 -0.3523
   58MYC    H76 9185   3.815   2.844   7.164 -0.8323  1.4873 -0.2727
   58MYC    H77 9186   3.922   2.974   7.183 -2.3778  0.1239  1.3125
   58MYC    C42 9187   4.002   2.842   7.039  0.6240  0.7094  0.2899
   58MYC    H78 9188   4.106   2.877   7.043  1.0956 -0.4142 -1.1040
   58MYC    H79 9189   4.003   2.735   7.015  0.8268  1.1155 -1.6631
   58MYC    C43 9190   3.938   2.919   6.928 -0.4576  0.3325 -0.1069
   58MYC    H80 9191   3.944   3.024   6.957  0.4974  0.1396  0.4589
   58MYC    H81 9192   3.831   2.896   6.928 -0.7155  1.3587  1.5718
   58MYC    H82 9193   3.999   2.904   6.838  2.5349 -0.2952  1.8714
   59MYC   HH15 9194   4.500   2.998   6.819 -0.5225 -0.4404 -0.1532
   59MYC    C80 9195   4.504   2.924   6.900 -0.3264  0.1426  0.3746
   59MYC   H100 9196   4.408   2.872   6.905 -1.3808  2.0421  1.1196
   59MYC   H101 9197   4.591   2.862   6.875 -0.4802  0.8711 -2.3378
   59MYC    C79 9198   4.509   3.007   7.031  0.1207  0.0875 -0.0892
   59MYC   H102 9199   4.552   3.103   7.001 -0.0396  0.0721 -0.3714
   59MYC   H103 9200   4.572   2.954   7.102 -1.1646 -2.7971 -0.9522
   59MYC    C78 9201   4.366   3.042   7.080  0.0939  0.8792  0.2972
   59MYC   HH14 9202   4.310   2.947   7.081 -0.1334  0.9850 -0.6808
   59MYC   H104 9203   4.321   3.088   6.991  3.5478  0.2939 -1.9513
   59MYC    C77 9204   4.354   3.135   7.197  0.4830  0.6493  0.4621
   59MYC   H106 9205   4.388   3.234   7.166 -0.3220  0.9593  0.5262
   59MYC   H107 9206   4.428   3.098   7.269  0.3461 -2.4935 -0.8625
   59MYC    C76 9207   4.211   3.130   7.257 -0.0176 -0.2516 -0.2206
   59MYC   H108 9208   4.165   3.032   7.271 -0.6404 -0.0856 -1.0520
   59MYC   H109 9209   4.141   3.185   7.193  0.2403 -0.0170 -0.3057
   59MYC    C75 9210   4.198   3.212   7.396  0.0549  0.4525  0.6997
   59MYC   H110 9211   4.092   3.214   7.422 -0.5073  0.8746 -1.4356
   59MYC   H111 9212   4.238   3.313   7.382  3.9856 -0.6591  2.3171
   59MYC    C74 9213   4.263   3.141   7.512 -0.3205  0.2443 -0.1062
   59MYC   H112 9214   4.370   3.155   7.491  0.1500  0.7942  2.3760
   59MYC   H113 9215   4.247   3.033   7.508  1.6725 -0.0557 -1.4978
   59MYC    C73 9216   4.231   3.206   7.650 -0.3514 -0.3650  0.1651
   59MYC   HH13 9217   4.125   3.189   7.672 -0.3332  0.3527  0.8991
   59MYC   H114 9218   4.228   3.316   7.642 -1.0552 -0.5100 -2.1119
   59MYC    C72 9219   4.311   3.173   7.779  0.4575 -0.1476 -0.0520
   59MYC   H115 9220   4.411   3.202   7.745  0.6598 -1.6901 -0.8103
   59MYC   H116 9221   4.312   3.067   7.806 -1.0691  0.0634  0.9872
   59MYC    C71 9222   4.269   3.242   7.908  0.4642  0.0376 -0.4594
   59MYC   H117 9223   4.168   3.208   7.932  1.5155 -2.3920  0.8399
   59MYC   H118 9224   4.267   3.351   7.891 -0.2466  0.0273 -0.4572
   59MYC    C70 9225   4.365   3.218   8.029  0.3400 -0.0560 -0.0785
   59MYC   H119 9226   4.466   3.250   8.002 -0.7990  2.2439 -2.0948
   59MYC   H120 9227   4.377   3.110   8.033  1.1889 -0.0028 -0.7451
   59MYC    C69 9228   4.324   3.272   8.168  0.2524  0.1321 -0.0770
   59MYC   H121 9229   4.233   3.223   8.207 -0.3724  0.2606 -1.3322
   59MYC   H122 9230   4.295   3.377   8.167  3.3004  1.1656  2.8012
   59MYC    C68 9231   4.444   3.256   8.273  0.6194  0.3374  0.2949
   59MYC   HH12 9232   4.534   3.303   8.231  0.8878  0.6376  1.1689
   59MYC   H123 9233   4.462   3.149   8.286 -1.0823 -0.1608 -1.1118
   59MYC    C67 9234   4.408   3.318   8.405  0.3269 -0.4192  0.5746
   59MYC   H124 9235   4.307   3.292   8.438  0.6836 -0.6846  1.5056
   59MYC   H125 9236   4.396   3.426   8.391 -1.5114 -0.5130  1.1661
   59MYC    C66 9237   4.504   3.277   8.515  0.3114  0.3151  0.6721
   59MYC   H126 9238   4.599   3.313   8.474  0.4253  0.1725  0.8066
   59MYC   H127 9239   4.518   3.169   8.523 -1.2539 -0.0620 -1.1195
   59MYC    C65 9240   4.475   3.335   8.651 -0.1607  0.3031 -0.1506
   59MYC   H128 9241   4.373   3.303   8.677 -0.0244 -0.5605 -0.6353
   59MYC   H129 9242   4.478   3.445   8.652  0.8320  0.3661 -2.6032
   59MYC    C64 9243   4.577   3.276   8.758 -0.1231 -0.0239  0.7426
   59MYC   H130 9244   4.680   3.308   8.735 -0.3906  1.3047  1.3053
   59MYC   H131 9245   4.565   3.168   8.771  0.8015 -0.3586 -0.8521
   59MYC    C63 9246   4.546   3.338   8.891 -0.2200 -0.3414 -1.2150
   59MYC   HH11 9247   4.437   3.349   8.902 -0.2338  0.4827 -1.9841
   59MYC   H132 9248   4.582   3.442   8.894  1.7077 -0.8871  3.4739
   59MYC    C62 9249   4.603   3.268   9.012  0.1607  0.0497  0.3876
   59MYC   H133 9250   4.710   3.255   8.989  0.7340  2.7213  1.1562
   59MYC   H134 9251   4.558   3.168   9.009 -1.7492  0.8996 -1.0421
   59MYC    C61 9252   4.588   3.352   9.145  0.3676 -0.0252  0.1229
   59MYC   H135 9253   4.480   3.367   9.153  0.4985  1.0561  0.0100
   59MYC   H136 9254   4.644   3.446   9.137  0.1130 -0.0067 -1.9041
   59MYC    C60 9255   4.623   3.290   9.282  0.0262 -0.4884  0.3806
   59MYC   H137 9256   4.705   3.219   9.273 -1.8104 -2.6935  0.3395
   59MYC    C58 9257   4.650   3.382   9.399  0.1358 -0.3307 -0.5113
   59MYC   H138 9258   4.616   3.484   9.391 -2.8477 -1.3024 -1.3108
   59MYC    C59 9259   4.534   3.291   9.399  0.3085 -1.0489 -0.1715
   59MYC   H139 9260   4.546   3.215   9.476  0.0817  0.9408  1.9526
   59MYC   H140 9261   4.437   3.338   9.386  0.7583 -0.8138 -3.3349
   59MYC    C57 9262   4.778   3.357   9.490  0.7203  0.1271  0.5961
   59MYC   HH10 9263   4.872   3.399   9.451  2.6006 -1.4636  3.0989
   59MYC   H141 9264   4.788   3.249   9.508 -1.3675 -0.1702  0.1734
   59MYC    C56 9265   4.755   3.415   9.625 -0.3623 -0.5521 -0.4371
   59MYC   H142 9266   4.737   3.522   9.615  2.0492  0.2426  2.2532
   59MYC   H143 9267   4.845   3.400   9.687 -1.3946  0.7818  1.4778
   59MYC    C55 9268   4.636   3.343   9.700 -0.4812 -0.2693 -0.1750
   59MYC   H144 9269   4.634   3.238   9.669 -1.4269  0.1746 -1.7298
   59MYC   H145 9270   4.547   3.392   9.659 -0.3804 -1.2970 -1.7148
   59MYC    C54 9271   4.644   3.359   9.854  0.3752 -0.3526  0.2492
   59MYC   H146 9272   4.661   3.462   9.887 -0.0084 -0.0966 -0.3240
   59MYC   H147 9273   4.738   3.309   9.877  0.2203 -1.3879 -1.1887
   59MYC    C53 9274   4.525   3.304   9.922  0.6697 -0.5185 -0.1436
   59MYC   H148 9275   4.517   3.202   9.884  1.4754 -0.9274  0.7448
   59MYC   H149 9276   4.441   3.364   9.886 -0.4231 -2.8269 -1.6256
   59MYC    C52 9277   4.529   3.301  10.078 -0.2058  0.0362  0.2315
   59MYC    H99 9278   4.573   3.394  10.116 -0.1939  0.7292 -1.4007
   59MYC   H150 9279   4.593   3.216  10.105  3.9836  3.2093  1.3258
   59MYC    C51 9280   4.394   3.293  10.156 -0.0934  0.0840  0.4403
   59MYC    H97 9281   4.343   3.197  10.139 -0.4250  0.3152  0.1099
   59MYC    H98 9282   4.329   3.377  10.130 -0.0037  0.5470  1.6765
   59MYC    C50 9283   4.403   3.305  10.305  0.7156  0.0522  0.5130
   59MYC    H95 9284   4.440   3.406  10.324 -1.4322  0.9269  0.3355
   59MYC    H96 9285   4.479   3.232  10.336  3.7990  2.6308 -0.4894
   59MYC    C49 9286   4.269   3.274  10.382 -0.0547 -0.5525 -0.2749
   59MYC    H93 9287   4.220   3.183  10.345 -0.9139 -0.7655  1.3013
   59MYC    H94 9288   4.205   3.360  10.363 -0.2308 -0.8657 -1.1289
   59MYC    C48 9289   4.283   3.240  10.534 -0.5443 -0.4098  0.0167
   59MYC    H91 9290   4.313   3.325  10.596  0.7247 -1.7816  1.3707
   59MYC    H92 9291   4.370   3.173  10.535 -0.1386  0.1110 -0.0981
   59MYC    C47 9292   4.154   3.179  10.606  0.0825 -0.0413  0.2128
   59MYC    H89 9293   4.063   3.205  10.551  0.3595  0.5532  0.0271
   59MYC    H90 9294   4.146   3.242  10.695 -0.2419  0.1803  0.0257
   59MYC    C46 9295   4.168   3.037  10.640 -0.3206 -0.0306 -0.8327
   59MYC    H87 9296   4.250   3.026  10.712 -0.8213 -2.0859 -0.5278
   59MYC    H88 9297   4.213   2.981  10.557  0.4412  0.4797 -0.7822
   59MYC    C45 9298   4.041   2.962  10.680 -0.5310 -0.4342  0.2922
   59MYC    H85 9299   4.059   2.854  10.684 -0.5103 -0.4418  0.0020
   59MYC    H86 9300   3.965   2.974  10.602  0.1267  0.7359 -0.2060
   59MYC    C44 9301   3.985   3.020  10.810  0.1599 -0.3583  0.0464
   59MYC    H83 9302   3.962   3.125  10.788 -1.1438 -0.7305 -0.4013
   59MYC    H84 9303   4.057   3.013  10.892  0.7358 -0.0024 -0.4156
   59MYC    C18 9304   3.860   2.955  10.853 -0.4851  0.4792 -0.5253
   59MYC    H31 9305   3.798   2.915  10.773 -0.0164 -3.1763  0.7518
   59MYC    C17 9306   3.850   2.876  10.978 -0.5406 -0.3438  0.0843
   59MYC    H30 9307   3.937   2.873  11.044  1.2423  1.4836 -2.0380
   59MYC    C19 9308   3.774   3.007  10.970 -0.8798  0.4556 -0.2062
   59MYC    H32 9309   3.820   3.096  11.012  1.2187 -0.4209 -0.5546
   59MYC    H33 9310   3.667   3.004  10.953 -0.4562  1.2762 -4.0092
   59MYC    C16 9311   3.778   2.743  10.981  0.2000 -0.5584  0.3443
   59MYC    H28 9312   3.725   2.728  10.887 -1.2693 -0.6177  1.1589
   59MYC    H29 9313   3.698   2.753  11.055 -0.6597 -0.3110 -0.6110
   59MYC    C15 9314   3.860   2.618  11.025 -0.1415  0.1495 -0.3601
   59MYC    H26 9315   3.814   2.520  11.010 -0.0221 -0.8715  4.4595
   59MYC    H27 9316   3.859   2.624  11.134 -2.5354  3.2494 -0.3953
   59MYC    C14 9317   4.011   2.609  10.984 -0.2037  1.0068 -0.3630
   59MYC    H24 9318   4.059   2.514  11.013 -0.7129  0.3965 -1.4443
   59MYC    H25 9319   4.068   2.694  11.023  1.0353 -0.1634  0.4985
   59MYC    C13 9320   4.015   2.604  10.829  0.1378  0.3805  1.2833
   59MYC    H22 9321   3.964   2.683  10.773  5.2060  1.5103 -2.4374
   59MYC    H23 9322   3.968   2.511  10.793  1.4738 -0.1885  0.9386
   59MYC    C12 9323   4.164   2.606  10.772 -0.7866 -1.0315 -0.9148
   59MYC    H20 9324   4.208   2.697  10.814 -2.3406 -1.1278  1.0581
   59MYC    H21 9325   4.153   2.610  10.663 -1.4636  2.0564 -0.8143
   59MYC    C11 9326   4.255   2.486  10.814 -0.8312  0.0579  0.6993
   59MYC    H18 9327   4.186   2.400  10.812 -0.9057  0.1242 -0.4041
   59MYC    H19 9328   4.278   2.502  10.920  2.1084  0.9540 -0.0001
   59MYC    C10 9329   4.384   2.474  10.734 -0.1247  0.5012 -0.0414
   59MYC    H16 9330   4.434   2.572  10.730  1.6265 -0.3813 -2.3915
   59MYC    H17 9331   4.361   2.454  10.629  0.4970  3.9969 -0.9743
   59MYC     C9 9332   4.465   2.359  10.791 -0.1458  0.1587  0.2524
   59MYC    H14 9333   4.415   2.261  10.781 -0.8690  0.5618 -0.1473
   59MYC    H15 9334   4.480   2.383  10.897 -0.9454 -0.1364  0.4478
   59MYC     C8 9335   4.610   2.351  10.742  0.7359 -0.4028 -0.4580
   59MYC    H12 9336   4.670   2.276  10.795 -0.3250 -0.4766  0.6753
   59MYC    H13 9337   4.663   2.440  10.777 -2.4373  1.5076 -0.1752
   59MYC     C7 9338   4.642   2.346  10.593 -0.3153  0.7248 -0.4682
   59MYC    H10 9339   4.594   2.431  10.543 -0.7797  1.4837  1.2082
   59MYC    H11 9340   4.595   2.254  10.554 -0.4476  0.5751  0.0386
   59MYC     C6 9341   4.795   2.351  10.569 -0.3445  0.2848  0.2517
   59MYC     H8 9342   4.840   2.284  10.643 -3.3308 -2.4138 -0.1627
   59MYC     H9 9343   4.825   2.456  10.580 -0.2126  0.1838  0.9122
   59MYC     C5 9344   4.834   2.305  10.426  0.1335 -0.0062 -0.3236
   59MYC     H6 9345   4.764   2.356  10.359  0.5360 -0.6041 -1.2066
   59MYC     H7 9346   4.819   2.197  10.415  0.6872 -0.0572 -0.6110
   59MYC     C4 9347   4.979   2.348  10.385 -0.3795 -0.0828 -0.2259
   59MYC     H4 9348   4.997   2.287  10.296  0.8068 -1.2023  0.7411
   59MYC     H5 9349   5.036   2.314  10.473 -0.0955  0.3625 -0.2346
   59MYC     C2 9350   5.006   2.502  10.366  0.1790  0.5028  0.2560
   59MYC     H2 9351   5.007   2.555  10.462 -1.1720  0.6969  0.1824
   59MYC     O3 9352   5.141   2.502  10.327  0.0369 -0.4391  0.8015
   59MYC     H3 9353   5.147   2.473  10.235  1.9247  1.6206  0.1641
   59MYC     C1 9354   4.907   2.565  10.257 -0.5391 -0.8764  0.2875
   59MYC     H1 9355   4.814   2.586  10.311 -1.2705  2.2368 -1.9138
   59MYC    C81 9356   4.877   2.463  10.149  0.5595 -0.8467  0.2775
   59MYC    O82 9357   4.765   2.421  10.120 -0.0926 -0.0437  0.1412
   59MYC    O83 9358   4.976   2.448  10.054  0.0757 -0.2975  0.1713
   59MYC   H105 9359   4.935   2.395   9.984 -0.9077 -0.2268  0.6856
   59MYC    C20 9360   4.958   2.700  10.204 -0.3790 -0.8089 -0.3727
   59MYC    H34 9361   4.959   2.761  10.295 -0.5657 -0.4343 -0.6184
   59MYC    H35 9362   5.058   2.683  10.164  0.2296  3.0585 -0.9105
   59MYC    C21 9363   4.866   2.777  10.106 -0.2754 -0.1857 -0.3647
   59MYC    H36 9364   4.860   2.730  10.007 -1.5266  2.4149 -1.6259
   59MYC    H37 9365   4.764   2.770  10.146  0.4754 -2.6851  1.3054
   59MYC    C22 9366   4.905   2.916  10.083 -0.6215 -1.4989  0.1604
   59MYC    H38 9367   4.948   2.959  10.174  1.5633  0.9670 -1.8696
   59MYC    H39 9368   4.992   2.923  10.016 -0.4485  1.8689  0.5216
   59MYC    C23 9369   4.802   3.000  10.017  0.0419  0.0392 -0.0151
   59MYC    H40 9370   4.720   3.013  10.089 -0.6519  1.4578 -1.0050
   59MYC    H41 9371   4.852   3.094   9.990 -1.3917  0.3870 -1.6575
   59MYC    C24 9372   4.739   2.942   9.893  0.4762  0.3355  0.1800
   59MYC    H42 9373   4.703   2.839   9.909  1.1563  0.2160  1.0609
   59MYC    H43 9374   4.646   2.998   9.874  0.4958  0.4444  0.3966
   59MYC    C25 9375   4.823   2.962   9.761 -0.2128  0.4769  0.9640
   59MYC    H44 9376   4.830   3.071   9.753 -2.1964  0.6832  1.4067
   59MYC    H45 9377   4.918   2.914   9.786  0.8185  0.1392 -2.9433
   59MYC    C26 9378   4.759   2.898   9.628  0.2498 -0.2970 -0.4319
   59MYC    H46 9379   4.741   2.791   9.644 -0.6672 -0.4269 -2.1368
   59MYC    H47 9380   4.660   2.940   9.610  0.0916 -0.2996  0.3811
   59MYC    C27 9381   4.837   2.925   9.498  0.3989  0.0150 -0.1334
   59MYC    H48 9382   4.847   3.034   9.491 -0.0036 -0.0381 -2.3385
   59MYC    H49 9383   4.941   2.889   9.501  0.6891  0.6822 -1.3751
   59MYC    C28 9384   4.763   2.882   9.369  0.5885  0.0547  0.1048
   59MYC    H50 9385   4.749   2.773   9.367 -0.9646  0.2525 -0.4947
   59MYC    H51 9386   4.663   2.924   9.355 -0.8908 -3.9029 -3.3106
   59MYC    C29 9387   4.837   2.907   9.245 -0.1066 -0.0292  0.5962
   59MYC    H52 9388   4.863   3.013   9.240  0.7560 -0.2936 -2.8331
   59MYC    H53 9389   4.925   2.842   9.238 -0.9228 -1.0854 -0.0507
   59MYC    C30 9390   4.752   2.884   9.119 -0.2591 -0.5025  0.3373
   59MYC    H54 9391   4.719   2.779   9.125 -0.5892 -0.3568  1.2357
   59MYC    H55 9392   4.652   2.929   9.120 -0.5780 -1.1996  0.6794
   59MYC    C31 9393   4.809   2.915   8.979 -0.1941  0.3814  0.2573
   59MYC    H56 9394   4.832   3.021   8.965  1.9951 -0.4691 -4.4502
   59MYC    H57 9395   4.910   2.875   8.968  0.3786  1.9505 -0.3740
   59MYC    C32 9396   4.725   2.863   8.858  0.2719  0.7935 -0.5027
   59MYC    H58 9397   4.718   2.754   8.872 -0.5195  1.1610  2.9487
   59MYC    H59 9398   4.621   2.894   8.873  0.3891  0.5639  0.9196
   59MYC    C33 9399   4.782   2.891   8.721  1.3764 -0.2729 -0.7814
   59MYC    H60 9400   4.810   2.997   8.719 -2.7811  0.9982  0.2530
   59MYC    H61 9401   4.867   2.823   8.704  0.8509 -0.9456 -0.7580
   59MYC    C34 9402   4.677   2.869   8.599  0.0858  0.1883 -0.2139
   59MYC    H62 9403   4.616   2.780   8.619 -1.2801  1.2781  0.6233
   59MYC    H63 9404   4.606   2.952   8.590  0.9262  0.7074 -3.1734
   59MYC    C35 9405   4.751   2.845   8.458  0.4175  0.1410 -0.2200
   59MYC    H64 9406   4.852   2.887   8.460 -0.1676  1.6107  2.3944
   59MYC    H65 9407   4.758   2.735   8.452 -2.4986 -0.0732 -1.1832
   59MYC    C36 9408   4.673   2.896   8.336  0.5389 -0.4866 -0.2548
   59MYC    H66 9409   4.579   2.841   8.326  0.7627 -1.0401  0.6035
   59MYC    H67 9410   4.656   3.002   8.357  0.0895 -1.0305  2.4720
   59MYC    C37 9411   4.735   2.895   8.203  0.0853 -0.7659  0.1369
   59MYC    H68 9412   4.786   2.992   8.193 -1.6350  0.2959  1.3101
   59MYC    H69 9413   4.813   2.818   8.195 -0.8489 -1.8660  1.3592
   59MYC    C38 9414   4.640   2.885   8.075  0.1794  0.0193 -0.9825
   59MYC    H70 9415   4.577   2.795   8.081 -0.4449  0.3036 -2.6880
   59MYC    H71 9416   4.557   2.957   8.073  0.6886  0.6467 -4.1255
   59MYC    C39 9417   4.702   2.878   7.934 -0.1973  0.5040 -0.6605
   59MYC    H72 9418   4.807   2.908   7.941  0.0938 -0.5810 -0.2789
   59MYC    H73 9419   4.708   2.770   7.918 -1.3276  0.6453 -2.4438
   59MYC    C40 9420   4.627   2.943   7.820 -0.1172  0.4376  0.2011
   59MYC    H74 9421   4.525   2.903   7.822 -0.2514  0.7355  2.8445
   59MYC    H75 9422   4.615   3.050   7.841  0.1983  0.4111  0.5296
   59MYC    C41 9423   4.698   2.921   7.679  0.2455 -0.3723 -0.0856
   59MYC    H76 9424   4.793   2.973   7.694  0.2524 -0.1908 -0.7390
   59MYC    H77 9425   4.718   2.814   7.668  1.7017 -0.5212  2.8613
   59MYC    C42 9426   4.619   2.988   7.571 -0.5239 -0.3714  0.1957
   59MYC    H78 9427   4.517   2.950   7.559 -0.3905 -0.9185  0.7309
   59MYC    H79 9428   4.611   3.095   7.590 -0.5458 -0.3173 -0.1208
   59MYC    C43 9429   4.686   2.973   7.436 -0.1581  0.2998  0.0484
   59MYC    H80 9430   4.652   3.045   7.361 -1.0688 -1.1846 -1.0187
   59MYC    H81 9431   4.672   2.869   7.405 -0.5294 -0.0402  1.3073
   59MYC    H82 9432   4.795   2.980   7.449  0.2941 -1.7928 -2.0431
   60MYC   HH15 9433   5.025   2.802   6.281 -0.3538  0.2449  0.3081
   60MYC    C80 9434   4.921   2.835   6.295 -0.3737  0.3180 -0.0247
   60MYC   H100 9435   4.892   2.912   6.222  0.6572  0.3807 -0.3827
   60MYC   H101 9436   4.860   2.744   6.292  2.5179 -1.7578 -1.6503
   60MYC    C79 9437   4.904   2.900   6.431 -0.2899  0.1508  0.6671
   60MYC   H102 9438   4.797   2.902   6.454 -0.6761  0.7728 -1.0368
   60MYC   H103 9439   4.943   3.003   6.430 -1.3400  0.5648  0.9535
   60MYC    C78 9440   4.986   2.826   6.532  0.3760 -0.2947 -0.1112
   60MYC   HH14 9441   5.092   2.854   6.526 -0.2681  2.1498 -1.2894
   60MYC   H104 9442   4.986   2.717   6.522 -1.9291 -0.6309  2.4778
   60MYC    C77 9443   4.938   2.851   6.683 -0.4672  0.1345  0.0170
   60MYC   H106 9444   4.847   2.797   6.711 -0.4826  0.0866 -0.1288
   60MYC   H107 9445   4.907   2.956   6.674 -0.5766  0.0911 -0.1114
   60MYC    C76 9446   5.034   2.822   6.801 -0.0367  0.2183 -0.0222
   60MYC   H108 9447   5.119   2.891   6.795 -0.9039  1.3015  0.0413
   60MYC   H109 9448   5.068   2.717   6.796 -0.1389  0.2350 -3.2476
   60MYC    C75 9449   4.989   2.855   6.949 -0.3777  0.2915 -1.1452
   60MYC   H110 9450   4.883   2.829   6.956 -0.6849  1.5078 -1.0027
   60MYC   H111 9451   4.982   2.962   6.971 -0.7744 -0.0050  0.3144
   60MYC    C74 9452   5.072   2.793   7.065 -0.2881 -0.1153  0.2480
   60MYC   H112 9453   5.179   2.807   7.043 -0.0153  3.5825  2.7771
   60MYC   H113 9454   5.064   2.684   7.065  2.4297 -0.4043  1.4838
   60MYC    C73 9455   5.032   2.845   7.206 -0.2713 -0.2947  0.1441
   60MYC   HH13 9456   4.923   2.835   7.220 -0.0715 -3.2295  0.2333
   60MYC   H114 9457   5.044   2.954   7.206  0.0828 -0.3349 -0.1105
   60MYC    C72 9458   5.105   2.784   7.329 -0.0136  0.0597  0.5910
   60MYC   H115 9459   5.213   2.797   7.315 -0.1345 -0.8778 -1.5734
   60MYC   H116 9460   5.089   2.676   7.337 -0.7040  0.2705  2.8569
   60MYC    C71 9461   5.055   2.845   7.464 -0.2227 -0.7048  0.3460
   60MYC   H117 9462   4.954   2.811   7.488 -0.2817 -0.7031  0.0979
   60MYC   H118 9463   5.049   2.955   7.464 -0.3028 -0.6976  1.4006
   60MYC    C70 9464   5.139   2.800   7.584 -0.6177 -0.1279  0.4909
   60MYC   H119 9465   5.240   2.842   7.573 -1.0770  0.7387 -0.6132
   60MYC   H120 9466   5.144   2.690   7.583 -1.3407 -0.1774  1.4056
   60MYC    C69 9467   5.087   2.864   7.716 -0.0067  0.2265 -0.0558
   60MYC   H121 9468   4.982   2.840   7.737 -0.3296  1.6495  0.0654
   60MYC   H122 9469   5.083   2.973   7.710 -1.3563  0.2662  0.9827
   60MYC    C68 9470   5.171   2.812   7.839 -0.1523 -0.3501  0.3749
   60MYC   HH12 9471   5.274   2.848   7.833  0.8266 -2.4580  2.8237
   60MYC   H123 9472   5.170   2.703   7.822  0.5069 -0.6313  2.0071
   60MYC    C67 9473   5.114   2.840   7.984 -0.1693  0.1498 -0.4614
   60MYC   H124 9474   5.013   2.799   7.992  0.3846 -0.9086  2.7620
   60MYC   H125 9475   5.096   2.946   8.003  0.4496  0.1583  0.1194
   60MYC    C66 9476   5.205   2.797   8.108  0.1117 -0.0983 -0.6484
   60MYC   H126 9477   5.308   2.833   8.100  0.7911 -1.6989  0.3966
   60MYC   H127 9478   5.217   2.688   8.109 -0.1587 -0.1463 -1.6345
   60MYC    C65 9479   5.146   2.846   8.243 -0.1907 -0.0531  0.5363
   60MYC   H128 9480   5.038   2.836   8.256 -0.3503  1.2354  0.3132
   60MYC   H129 9481   5.173   2.952   8.243  0.6064 -0.2461 -0.1103
   60MYC    C64 9482   5.212   2.785   8.366 -0.5503 -0.4070 -0.4576
   60MYC   H130 9483   5.319   2.774   8.347 -0.6032 -1.3627 -0.2231
   60MYC   H131 9484   5.173   2.686   8.388  1.1664 -1.0609 -0.2011
   60MYC    C63 9485   5.197   2.860   8.496  0.2366  0.3893 -0.2814
   60MYC   HH11 9486   5.090   2.864   8.517  0.3441  0.7141  0.2138
   60MYC   H132 9487   5.227   2.965   8.487 -0.1334  0.5100 -0.1406
   60MYC    C62 9488   5.269   2.798   8.618 -0.5149  0.0954 -0.0206
   60MYC   H133 9489   5.375   2.823   8.606 -0.3574  0.3879  1.6497
   60MYC   H134 9490   5.271   2.688   8.627  0.0617  0.2374  2.4157
   60MYC    C61 9491   5.211   2.877   8.746 -0.3131 -0.3039  0.5633
   60MYC   H135 9492   5.102   2.863   8.752 -0.2410 -1.0264  0.2899
   60MYC   H136 9493   5.225   2.984   8.726  1.8050 -0.8235 -1.0313
   60MYC    C60 9494   5.291   2.845   8.863  0.8691  0.4558  0.2021
   60MYC   H137 9495   5.397   2.857   8.839  0.7454 -0.7934 -1.1488
   60MYC    C58 9496   5.251   2.857   9.005 -0.0760 -0.8997  0.3487
   60MYC   H138 9497   5.157   2.908   9.021 -0.2882 -1.5454  1.2264
   60MYC    C59 9498   5.238   2.720   8.942 -0.3757  0.3254 -0.1264
   60MYC   H139 9499   5.315   2.646   8.963  0.9074  1.2206 -1.4884
   60MYC   H140 9500   5.139   2.682   8.919 -0.0986 -0.0027 -0.8049
   60MYC    C57 9501   5.354   2.904   9.109  0.2174  0.4971  0.3757
   60MYC   HH10 9502   5.315   3.004   9.130  2.0137  0.9577  1.7144
   60MYC   H141 9503   5.453   2.919   9.064 -0.4992  1.0928 -1.0817
   60MYC    C56 9504   5.349   2.817   9.234 -0.3121  0.0120 -1.0036
   60MYC   H142 9505   5.440   2.816   9.295 -0.7763 -0.1013 -0.3032
   60MYC   H143 9506   5.331   2.711   9.216  2.7984 -0.8769  0.4344
   60MYC    C55 9507   5.249   2.853   9.349  0.0982 -0.7792  0.5030
   60MYC   H144 9508   5.239   2.767   9.417 -1.0673 -1.2117 -0.1872
   60MYC   H145 9509   5.152   2.870   9.300  0.2411  0.9633  0.7587
   60MYC    C54 9510   5.285   2.975   9.435 -0.2493 -0.1772  0.0041
   60MYC   H146 9511   5.299   3.062   9.370 -1.1786  0.2221  0.3196
   60MYC   H147 9512   5.376   2.949   9.491 -0.6861 -0.1221  0.7611
   60MYC    C53 9513   5.176   3.023   9.536 -0.0500  0.4292  0.3958
   60MYC   H148 9514   5.147   2.937   9.596 -0.3887 -0.7746 -1.4308
   60MYC   H149 9515   5.085   3.056   9.485 -0.4144  0.6327  1.1584
   60MYC    C52 9516   5.227   3.137   9.626  0.0730  0.1278 -0.1051
   60MYC    H99 9517   5.257   3.224   9.566 -2.9042  0.3517 -1.4700
   60MYC   H150 9518   5.312   3.105   9.687 -0.7427 -0.5524  0.7042
   60MYC    C51 9519   5.113   3.190   9.717 -0.3839 -0.4927  0.7980
   60MYC    H97 9520   5.076   3.108   9.780 -1.7822  1.2755  2.3741
   60MYC    H98 9521   5.037   3.242   9.659  0.9144  0.7357  0.1278
   60MYC    C50 9522   5.156   3.297   9.823  0.9259 -0.3972 -0.0467
   60MYC    H95 9523   5.074   3.363   9.854  2.2671  0.9197  0.8507
   60MYC    H96 9524   5.228   3.365   9.775  0.8606 -1.8506 -2.3422
   60MYC    C49 9525   5.220   3.237   9.947  0.8690 -0.4912  0.1068
   60MYC    H93 9526   5.306   3.180   9.908 -0.3082 -1.5105 -1.0681
   60MYC    H94 9527   5.150   3.174  10.002 -2.6242  2.2939 -0.7945
   60MYC    C48 9528   5.273   3.332  10.050  0.5687  0.2325 -0.0536
   60MYC    H91 9529   5.346   3.391   9.993 -1.3868  0.7552 -2.1427
   60MYC    H92 9530   5.318   3.272  10.130 -0.9121 -0.0121  0.6191
   60MYC    C47 9531   5.170   3.425  10.126  0.1349 -0.3766 -0.3522
   60MYC    H89 9532   5.103   3.354  10.175  1.9717 -1.7498  0.2854
   60MYC    H90 9533   5.120   3.490  10.054  0.1737 -0.2388 -0.2545
   60MYC    C46 9534   5.235   3.526  10.229  0.8784  0.5233 -0.1846
   60MYC    H87 9535   5.162   3.590  10.281  0.6287  1.3573 -1.5111
   60MYC    H88 9536   5.284   3.609  10.177  0.6398  1.0116  0.3587
   60MYC    C45 9537   5.335   3.468  10.336  0.2347 -0.2171 -0.3429
   60MYC    H85 9538   5.428   3.435  10.288  0.7800  0.4610  0.2268
   60MYC    H86 9539   5.289   3.385  10.391  1.0237 -0.2187  0.3220
   60MYC    C44 9540   5.371   3.579  10.435  0.8190  0.3342  0.0311
   60MYC    H83 9541   5.285   3.632  10.477  0.4938 -1.9638  2.5016
   60MYC    H84 9542   5.423   3.647  10.366 -1.6037  0.3006 -1.9980
   60MYC    C18 9543   5.452   3.532  10.547  0.5631  0.3486 -0.0004
   60MYC    H31 9544   5.404   3.454  10.606 -0.8941 -0.0193 -1.6064
   60MYC    C17 9545   5.601   3.527  10.533 -0.7798 -0.0128  0.6620
   60MYC    H30 9546   5.633   3.563  10.436  1.7589 -1.5929  0.8307
   60MYC    C19 9547   5.537   3.618  10.633 -0.0862 -0.8377 -1.0584
   60MYC    H32 9548   5.534   3.722  10.600  1.4868 -0.7972 -1.1321
   60MYC    H33 9549   5.558   3.596  10.737  3.0475  1.5965 -1.0360
   60MYC    C16 9550   5.676   3.414  10.587 -0.2347  0.1602  0.2318
   60MYC    H28 9551   5.657   3.407  10.695  1.1323  0.5155  0.5270
   60MYC    H29 9552   5.776   3.459  10.580  0.8834 -2.1093  0.7329
   60MYC    C15 9553   5.680   3.275  10.510 -0.1555  0.0349 -0.3388
   60MYC    H26 9554   5.757   3.213  10.557 -0.8605  0.4893  1.5168
   60MYC    H27 9555   5.712   3.295  10.407 -0.3553 -1.1600 -0.6444
   60MYC    C14 9556   5.543   3.206  10.499 -0.1140 -0.5694  0.5555
   60MYC    H24 9557   5.484   3.245  10.416 -0.2663 -0.5570  0.6707
   60MYC    H25 9558   5.492   3.228  10.593  0.7807 -3.1875  1.7516
   60MYC    C13 9559   5.553   3.051  10.498  0.1963  0.0216 -0.4688
   60MYC    H22 9560   5.454   3.007  10.513  0.1475  0.5525  0.9026
   60MYC    H23 9561   5.626   3.015  10.572  0.8517  1.1157 -0.5626
   60MYC    C12 9562   5.599   3.004  10.356  0.4833  0.2126  0.4344
   60MYC    H20 9563   5.609   2.895  10.361  0.1526  0.2321  2.3052
   60MYC    H21 9564   5.699   3.048  10.340  0.9007 -0.7650  0.2730
   60MYC    C11 9565   5.507   3.009  10.232 -0.0175 -0.3090  0.2902
   60MYC    H18 9566   5.486   3.115  10.211 -0.3438  0.0290  2.1480
   60MYC    H19 9567   5.411   2.962  10.257  0.2244 -0.2875  1.3091
   60MYC    C10 9568   5.578   2.942  10.109  0.6258 -0.2035 -0.1018
   60MYC    H16 9569   5.608   2.841  10.138 -1.3206 -0.4151  1.3483
   60MYC    H17 9570   5.668   2.998  10.082  0.9648 -1.2699 -1.2745
   60MYC     C9 9571   5.480   2.935   9.987 -0.5377 -0.5889 -0.5587
   60MYC    H14 9572   5.538   2.926   9.894  1.2861  2.5545  0.1394
   60MYC    H15 9573   5.420   3.026   9.986  1.1071  0.5489  0.1558
   60MYC     C8 9574   5.375   2.818  10.006 -0.3112 -0.0551  0.0418
   60MYC    H12 9575   5.303   2.849  10.083 -1.1953 -0.1033 -0.7446
   60MYC    H13 9576   5.419   2.720  10.023  0.5709  0.6531  2.1058
   60MYC     C7 9577   5.301   2.810   9.873  0.0881 -0.1568  0.2273
   60MYC    H10 9578   5.373   2.784   9.794 -0.6897  0.2440 -0.6315
   60MYC    H11 9579   5.257   2.903   9.836 -0.6977 -0.2023  1.0249
   60MYC     C6 9580   5.185   2.700   9.874 -0.1410  0.0174 -0.2230
   60MYC     H8 9581   5.115   2.713   9.957 -0.6957  2.6414 -0.9786
   60MYC     H9 9582   5.244   2.612   9.902 -2.4389 -1.2815  0.7320
   60MYC     C5 9583   5.127   2.674   9.737  0.5155 -0.5493  0.4567
   60MYC     H6 9584   5.213   2.650   9.674  0.4268  0.6700 -0.1453
   60MYC     H7 9585   5.084   2.768   9.701  2.0432  0.6488  1.6273
   60MYC     C4 9586   5.017   2.558   9.728 -0.0831  0.1452  0.0193
   60MYC     H4 9587   4.929   2.587   9.786 -0.9392 -0.7550 -0.7913
   60MYC     H5 9588   5.051   2.462   9.770  0.1050  0.2601  0.1286
   60MYC     C2 9589   4.975   2.517   9.587  0.6043  0.4817  0.2421
   60MYC     H2 9590   4.954   2.607   9.527 -2.9533 -0.2633  0.1567
   60MYC     O3 9591   5.084   2.438   9.528 -0.0343 -0.2461 -0.2738
   60MYC     H3 9592   5.079   2.464   9.434 -1.3471  0.8768  0.0681
   60MYC     C1 9593   4.842   2.436   9.579 -0.2832 -0.0749 -0.6576
   60MYC     H1 9594   4.762   2.510   9.583 -0.3924 -0.1460 -1.3577
   60MYC    C81 9595   4.812   2.332   9.690 -0.5561 -0.5345  0.4274
   60MYC    O82 9596   4.883   2.232   9.711 -0.3179  0.0653  0.3659
   60MYC    O83 9597   4.700   2.353   9.767 -0.4321  0.3349  0.0619
   60MYC   H105 9598   4.687   2.272   9.818 -0.5832 -1.2011 -2.2743
   60MYC    C20 9599   4.825   2.369   9.440  0.7587 -0.2073  0.5027
   60MYC    H34 9600   4.899   2.288   9.444  0.9696 -0.0855 -0.5993
   60MYC    H35 9601   4.730   2.315   9.433  1.3085 -1.0194 -1.6189
   60MYC    C21 9602   4.841   2.464   9.314 -0.4595 -0.3450 -0.1038
   60MYC    H36 9603   4.753   2.529   9.324 -1.2472 -1.7028  2.6640
   60MYC    H37 9604   4.927   2.531   9.320  0.0592 -1.0629  0.7331
   60MYC    C22 9605   4.845   2.398   9.175 -0.1875  0.0171 -0.1977
   60MYC    H38 9606   4.911   2.312   9.187 -0.0789  0.2373  0.9335
   60MYC    H39 9607   4.741   2.364   9.166 -0.3659  0.2591  0.8105
   60MYC    C23 9608   4.865   2.493   9.054  0.4257  0.4815  0.2182
   60MYC    H40 9609   4.790   2.572   9.051  1.1325  1.3683  2.7105
   60MYC    H41 9610   4.962   2.545   9.055  1.1679 -0.8219 -1.1204
   60MYC    C24 9611   4.860   2.410   8.923 -0.0965 -0.7137  0.2109
   60MYC    H42 9612   4.937   2.332   8.931 -1.4127 -2.2065 -0.9989
   60MYC    H43 9613   4.767   2.352   8.914  0.6388 -1.8877  0.0116
   60MYC    C25 9614   4.888   2.500   8.797 -0.6318 -0.4462 -0.4073
   60MYC    H44 9615   4.806   2.572   8.802  0.6285  1.1045 -1.3033
   60MYC    H45 9616   4.974   2.566   8.812 -1.5192  1.1131 -1.8111
   60MYC    C26 9617   4.907   2.415   8.668  0.1137  0.2477 -0.7479
   60MYC    H46 9618   4.995   2.350   8.663 -1.2207 -1.5970 -1.3324
   60MYC    H47 9619   4.817   2.353   8.662 -0.5221  0.8862  1.3815
   60MYC    C27 9620   4.908   2.509   8.551 -0.0452  0.2271  1.1968
   60MYC    H48 9621   4.855   2.603   8.568  0.1646  0.7012 -0.5232
   60MYC    H49 9622   5.012   2.537   8.531  0.3444 -1.9721 -0.1955
   60MYC    C28 9623   4.860   2.446   8.419 -0.2594 -0.6201 -0.0921
   60MYC    H50 9624   4.886   2.341   8.402  0.3577 -0.5070  0.1588
   60MYC    H51 9625   4.750   2.451   8.420 -0.2777 -0.6149 -1.0042
   60MYC    C29 9626   4.902   2.524   8.292  0.2450 -0.1908  0.1620
   60MYC    H52 9627   4.851   2.621   8.293 -0.2268 -0.4358 -0.0529
   60MYC    H53 9628   5.009   2.549   8.297 -0.4532  3.1955  0.3434
   60MYC    C30 9629   4.869   2.460   8.161 -0.3585  0.8931 -0.3298
   60MYC    H54 9630   4.901   2.355   8.160 -0.1081  0.9067  1.5125
   60MYC    H55 9631   4.763   2.456   8.137  0.4202 -0.3292 -4.2020
   60MYC    C31 9632   4.930   2.538   8.050  0.0751  0.7042 -0.1046
   60MYC    H56 9633   4.872   2.631   8.042  0.7973  1.1902  0.2113
   60MYC    H57 9634   5.024   2.585   8.081  0.1731  1.4037 -1.3959
   60MYC    C32 9635   4.937   2.472   7.914  1.1536 -0.1029  0.1308
   60MYC    H58 9636   5.038   2.500   7.882  0.1187  2.1422 -1.4986
   60MYC    H59 9637   4.922   2.364   7.919  3.1654 -0.4741 -0.7988
   60MYC    C33 9638   4.842   2.538   7.800  0.2548  0.3178  0.0684
   60MYC    H60 9639   4.744   2.570   7.836  0.0734  1.0277 -1.0256
   60MYC    H61 9640   4.908   2.622   7.776  0.9763 -0.0615  0.6711
   60MYC    C34 9641   4.834   2.444   7.677  0.1916 -0.8074  1.0406
   60MYC    H62 9642   4.927   2.390   7.660  0.5097  0.2475 -0.8614
   60MYC    H63 9643   4.752   2.373   7.695  0.2210 -2.1353 -2.9370
   60MYC    C35 9644   4.806   2.532   7.552  1.5146  0.4879  0.2409
   60MYC    H64 9645   4.718   2.596   7.566  2.2417  1.5556  0.1139
   60MYC    H65 9646   4.890   2.601   7.538  0.9179  1.2310  0.2556
   60MYC    C36 9647   4.795   2.443   7.423 -0.1001  0.3584  0.4842
   60MYC    H66 9648   4.890   2.387   7.422  0.3246  1.0720 -0.2800
   60MYC    H67 9649   4.708   2.377   7.438  0.3166 -0.3154  0.0200
   60MYC    C37 9650   4.779   2.516   7.288 -0.2432 -1.1123  0.1273
   60MYC    H68 9651   4.693   2.582   7.296  1.0555  0.6162  0.4461
   60MYC    H69 9652   4.872   2.574   7.280  0.5048 -2.0945  1.2825
   60MYC    C38 9653   4.752   2.427   7.165  0.4222 -0.2582  0.1736
   60MYC    H70 9654   4.829   2.349   7.160  1.1906  0.5571 -2.0155
   60MYC    H71 9655   4.657   2.375   7.177  0.7518 -0.8497  0.2626
   60MYC    C39 9656   4.766   2.500   7.026 -0.1998 -0.3029  0.8983
   60MYC    H72 9657   4.728   2.602   7.025 -0.9087 -0.5116 -2.0255
   60MYC    H73 9658   4.872   2.507   6.999 -0.0758  0.8776  1.6428
   60MYC    C40 9659   4.697   2.416   6.917  0.0713 -0.0948 -0.2365
   60MYC    H74 9660   4.752   2.435   6.825 -2.5902  0.5217 -1.8219
   60MYC    H75 9661   4.705   2.310   6.944 -2.3523 -0.2628  0.0578
   60MYC    C41 9662   4.545   2.449   6.888 -0.3063  0.4547  0.3192
   60MYC    H76 9663   4.491   2.445   6.983 -1.0694  0.2052 -0.1161
   60MYC    H77 9664   4.540   2.554   6.858 -1.8570  0.6504  1.1850
   60MYC    C42 9665   4.481   2.359   6.779 -0.9392 -0.1452  0.1691
   60MYC    H78 9666   4.521   2.386   6.680 -0.0829  2.6029  1.1562
   60MYC    H79 9667   4.497   2.252   6.795  0.6024  0.3048  2.0930
   60MYC    C43 9668   4.330   2.382   6.762  0.0356  0.2152  0.0560
   60MYC    H80 9669   4.302   2.488   6.756 -1.0959 -0.1279 -1.1293
   60MYC    H81 9670   4.266   2.337   6.839 -1.4357  2.3195  0.1706
   60MYC    H82 9671   4.297   2.336   6.669 -0.6024 -1.8688  1.2571
   61MYC   HH15 9672   5.540   2.691   6.473 -0.9641  1.3033  1.5587
   61MYC    C80 9673   5.442   2.644   6.479 -0.6706  0.4905  0.1976
   61MYC   H100 9674   5.379   2.690   6.402 -1.4487  0.7740  0.9943
   61MYC   H101 9675   5.445   2.535   6.461  1.2835  1.0746 -4.5338
   61MYC    C79 9676   5.372   2.670   6.619 -0.6904  0.7886  0.7562
   61MYC   H102 9677   5.267   2.642   6.631 -1.0203  0.3864 -2.2362
   61MYC   H103 9678   5.365   2.780   6.627 -0.3476  0.9142 -0.4609
   61MYC    C78 9679   5.459   2.616   6.737  0.3787 -0.6460  0.4936
   61MYC   HH14 9680   5.563   2.650   6.726  0.6133 -1.3627  0.4356
   61MYC   H104 9681   5.461   2.506   6.729 -2.0934 -0.7115 -0.0814
   61MYC    C77 9682   5.410   2.669   6.881  0.7154 -0.0977 -0.1436
   61MYC   H106 9683   5.308   2.639   6.907  1.1081 -0.0051  1.6146
   61MYC   H107 9684   5.414   2.778   6.871 -2.5587  0.0426 -1.3621
   61MYC    C76 9685   5.494   2.615   6.998  0.6832 -0.1845  0.0073
   61MYC   H108 9686   5.601   2.629   6.984  0.9334 -1.1147  0.8822
   61MYC   H109 9687   5.486   2.506   6.993  0.6405 -0.2107  0.5548
   61MYC    C75 9688   5.440   2.664   7.139 -0.7762 -0.7021  0.4747
   61MYC   H110 9689   5.334   2.642   7.155 -1.1970  1.5561  1.2718
   61MYC   H111 9690   5.444   2.773   7.150  2.8621 -0.6566 -0.1391
   61MYC    C74 9691   5.524   2.609   7.259 -0.4589 -0.7893  0.3014
   61MYC   H112 9692   5.631   2.628   7.243 -0.4573 -0.2022  0.9883
   61MYC   H113 9693   5.522   2.500   7.258  0.3396 -0.8397 -1.8133
   61MYC    C73 9694   5.481   2.655   7.395 -0.1069  0.4732  0.4765
   61MYC   HH13 9695   5.380   2.614   7.407 -0.0570 -0.0757 -0.8445
   61MYC   H114 9696   5.481   2.765   7.394  0.9043  0.4789 -1.2133
   61MYC    C72 9697   5.578   2.609   7.509  0.4155  0.0959  0.0894
   61MYC   H115 9698   5.666   2.674   7.507 -0.7072  1.9997  3.7723
   61MYC   H116 9699   5.600   2.502   7.495 -1.7527 -0.1425 -2.2021
   61MYC    C71 9700   5.520   2.637   7.649  0.1019 -0.1582  0.3155
   61MYC   H117 9701   5.424   2.588   7.667 -1.6241  2.9341  0.1080
   61MYC   H118 9702   5.495   2.743   7.660  1.3158  0.1358  0.4198
   61MYC    C70 9703   5.609   2.603   7.765 -0.7370  0.4306  0.0641
   61MYC   H119 9704   5.705   2.650   7.742  0.4991 -2.0549 -0.2107
   61MYC   H120 9705   5.628   2.495   7.770 -0.4865  0.5342  2.0343
   61MYC    C69 9706   5.555   2.630   7.904  0.3468 -0.8177  0.0913
   61MYC   H121 9707   5.469   2.565   7.925  1.1689 -2.6540 -1.8572
   61MYC   H122 9708   5.512   2.731   7.911  2.6538  0.3409 -1.1751
   61MYC    C68 9709   5.669   2.621   8.015  0.1245 -0.0058  0.1821
   61MYC   HH12 9710   5.752   2.684   7.980 -0.2121 -0.1755 -0.9456
   61MYC   H123 9711   5.709   2.519   8.023 -0.3186 -0.2430 -0.5218
   61MYC    C67 9712   5.618   2.668   8.156 -0.0156 -0.1350  0.4208
   61MYC   H124 9713   5.511   2.641   8.159  0.1083 -0.9301 -1.2314
   61MYC   H125 9714   5.623   2.777   8.160 -0.9610 -0.1261  2.4075
   61MYC    C66 9715   5.694   2.598   8.266 -0.0358  0.1745  0.2961
   61MYC   H126 9716   5.803   2.607   8.263  0.3414 -3.3954 -0.7738
   61MYC   H127 9717   5.676   2.490   8.266  3.6308 -0.5491  0.3373
   61MYC    C65 9718   5.647   2.652   8.401 -0.1788  0.3052 -0.3877
   61MYC   H128 9719   5.543   2.616   8.410 -0.0697 -0.2289 -1.1795
   61MYC   H129 9720   5.640   2.760   8.391 -0.7618  0.2982 -0.0966
   61MYC    C64 9721   5.731   2.600   8.527  0.1546 -0.5039 -0.0415
   61MYC   H130 9722   5.837   2.628   8.529  0.1732 -0.5638 -0.1785
   61MYC   H131 9723   5.741   2.492   8.541  3.8529 -0.6517 -2.4369
   61MYC    C63 9724   5.672   2.674   8.655 -0.6769  0.2792 -0.2005
   61MYC   HH11 9725   5.566   2.657   8.677 -0.7042  0.9999  0.2369
   61MYC   H132 9726   5.684   2.781   8.637  0.3364  0.4229  1.2067
   61MYC    C62 9727   5.761   2.636   8.773 -0.5423  0.2804 -0.3639
   61MYC   H133 9728   5.863   2.673   8.757  0.0183 -1.2411 -0.4922
   61MYC   H134 9729   5.769   2.529   8.797  1.3492  0.7308  1.3260
   61MYC    C61 9730   5.712   2.697   8.902 -0.1697  0.1637  0.2702
   61MYC   H135 9731   5.611   2.656   8.916  0.0216 -0.7598 -0.9230
   61MYC   H136 9732   5.702   2.803   8.878 -0.1912 -0.4155 -2.5787
   61MYC    C60 9733   5.800   2.671   9.029 -0.4705  0.9229 -1.1207
   61MYC   H137 9734   5.901   2.710   9.026 -0.2112  0.7415  1.9098
   61MYC    C58 9735   5.741   2.678   9.164 -0.6683  0.1026 -0.4800
   61MYC   H138 9736   5.635   2.689   9.183 -0.5030 -0.0473  0.5622
   61MYC    C59 9737   5.781   2.543   9.110 -0.5673 -0.4944 -0.3744
   61MYC   H139 9738   5.870   2.498   9.154 -0.1381  1.6220  1.0608
   61MYC   H140 9739   5.696   2.479   9.089 -0.9747  0.1143 -0.5577
   61MYC    C57 9740   5.827   2.744   9.271 -0.2316  0.0193 -0.3476
   61MYC   HH10 9741   5.826   2.853   9.271 -1.6855  0.1144  2.8977
   61MYC   H141 9742   5.934   2.720   9.267 -0.3264 -0.7648  1.2027
   61MYC    C56 9743   5.784   2.694   9.415  0.2559 -0.1957 -0.4333
   61MYC   H142 9744   5.814   2.589   9.424 -1.6048 -0.9868 -2.3819
   61MYC   H143 9745   5.676   2.715   9.421  0.4578  0.8353 -0.2860
   61MYC    C55 9746   5.859   2.765   9.530 -0.0374 -0.1516 -0.4254
   61MYC   H144 9747   5.793   2.751   9.616  2.3439  1.9920  1.9411
   61MYC   H145 9748   5.852   2.874   9.521 -0.6198 -0.0381  1.0779
   61MYC    C54 9749   6.013   2.722   9.541  0.3378  0.0665  0.2263
   61MYC   H146 9750   6.066   2.754   9.451 -1.9481  0.6929 -0.9913
   61MYC   H147 9751   6.032   2.616   9.562 -0.0121 -0.3676 -1.4646
   61MYC    C53 9752   6.088   2.805   9.644  0.5019  0.3524 -0.5903
   61MYC   H148 9753   6.074   2.913   9.632  0.9289  0.2210 -2.6070
   61MYC   H149 9754   6.192   2.773   9.629 -0.5128 -2.9625 -1.3262
   61MYC    C52 9755   6.055   2.774   9.795 -0.7020 -0.3868 -0.1564
   61MYC    H99 9756   6.092   2.672   9.817  0.7760  0.2120  0.2647
   61MYC   H150 9757   5.947   2.775   9.813 -0.9740  1.2236 -1.6706
   61MYC    C51 9758   6.136   2.869   9.896 -0.3326  0.3840  0.7576
   61MYC    H97 9759   6.117   2.975   9.879 -2.2375 -0.1372 -0.8263
   61MYC    H98 9760   6.243   2.862   9.877 -0.5235  2.0458 -1.2569
   61MYC    C50 9761   6.097   2.842  10.050  0.1049 -0.4689  0.1339
   61MYC    H95 9762   6.185   2.868  10.110 -0.8208  0.5305  1.1072
   61MYC    H96 9763   6.096   2.734  10.063 -2.0355 -0.3254  1.5942
   61MYC    C49 9764   5.957   2.884  10.101 -0.6881  0.2259 -0.6592
   61MYC    H93 9765   5.881   2.842  10.034 -0.1409 -0.2695 -0.9788
   61MYC    H94 9766   5.945   2.990  10.080 -0.2553  0.0729 -1.7436
   61MYC    C48 9767   5.950   2.846  10.256  0.3228 -0.6373  0.1687
   61MYC    H91 9768   5.966   2.738  10.258 -2.0696 -1.0344  0.4032
   61MYC    H92 9769   5.848   2.857  10.295  0.5921  3.0250  0.1773
   61MYC    C47 9770   6.050   2.925  10.348 -0.3448 -0.3476  1.0999
   61MYC    H89 9771   6.040   3.031  10.325  0.1646 -0.7126 -1.0100
   61MYC    H90 9772   6.158   2.909  10.342 -0.1998  0.5160  1.3567
   61MYC    C46 9773   6.009   2.894  10.497 -0.8098  0.6053  0.4166
   61MYC    H87 9774   6.069   2.813  10.540 -2.7565 -1.3839 -0.3771
   61MYC    H88 9775   5.906   2.856  10.501 -0.4213 -0.6219 -0.5025
   61MYC    C45 9776   6.024   3.017  10.593  0.0575 -0.5121 -0.8933
   61MYC    H85 9777   5.964   3.104  10.563  0.0879  0.3300  1.2653
   61MYC    H86 9778   6.130   3.047  10.602  0.9720 -3.8385  1.3164
   61MYC    C44 9779   5.996   2.988  10.737  0.0669  0.6868  0.7114
   61MYC    H83 9780   6.017   3.077  10.797 -0.0149  1.4665 -0.3909
   61MYC    H84 9781   6.069   2.911  10.766 -0.4819 -1.4141 -2.8803
   61MYC    C18 9782   5.857   2.944  10.780 -0.0580 -0.4013  0.8603
   61MYC    H31 9783   5.787   3.024  10.758  2.7148  1.6277 -1.2199
   61MYC    C17 9784   5.814   2.799  10.775  0.1528 -0.3416 -0.7360
   61MYC    H30 9785   5.879   2.717  10.745 -1.5398 -2.4574  0.9383
   61MYC    C19 9786   5.841   2.868  10.907  0.0901 -0.4320 -0.0183
   61MYC    H32 9787   5.924   2.840  10.972 -0.0111 -2.7103 -0.7740
   61MYC    H33 9788   5.754   2.890  10.967 -0.3400 -0.9205 -0.4553
   61MYC    C16 9789   5.669   2.755  10.745  0.1074 -0.5120 -0.4227
   61MYC    H28 9790   5.599   2.839  10.753  0.9587  0.1141  0.7125
   61MYC    H29 9791   5.627   2.673  10.803  1.9078 -0.1687  1.4392
   61MYC    C15 9792   5.667   2.701  10.602  0.0318  0.4903  0.6268
   61MYC    H26 9793   5.751   2.630  10.599 -2.1559 -2.4350  2.5925
   61MYC    H27 9794   5.698   2.777  10.529 -2.2007  0.8828  0.0154
   61MYC    C14 9795   5.539   2.638  10.551 -0.3589 -0.2867 -0.1551
   61MYC    H24 9796   5.476   2.724  10.525 -1.4811 -0.9827  0.1752
   61MYC    H25 9797   5.488   2.580  10.629  0.2473 -0.8100 -0.1368
   61MYC    C13 9798   5.552   2.541  10.430 -0.5664 -0.3609  0.9737
   61MYC    H22 9799   5.449   2.517  10.403 -0.8938  0.9812  0.9260
   61MYC    H23 9800   5.596   2.448  10.467 -1.6316 -0.2583  2.5780
   61MYC    C12 9801   5.620   2.588  10.301  0.7234  0.3384 -0.2551
   61MYC    H20 9802   5.726   2.607  10.319  1.3882 -1.9512 -1.3395
   61MYC    H21 9803   5.570   2.685  10.292  0.1737  0.3011  1.7586
   61MYC    C11 9804   5.600   2.481  10.189 -0.1974  0.7125  0.1024
   61MYC    H18 9805   5.522   2.502  10.114 -0.8668 -0.8797  0.3157
   61MYC    H19 9806   5.562   2.383  10.219 -2.3133  1.4039 -0.1384
   61MYC    C10 9807   5.728   2.447  10.117  0.0746  0.4222  0.6638
   61MYC    H16 9808   5.705   2.347  10.079 -0.2137  0.1183  1.5975
   61MYC    H17 9809   5.805   2.445  10.195  1.7321  1.8946 -0.8510
   61MYC     C9 9810   5.773   2.550  10.011 -0.0222 -0.4030 -0.6061
   61MYC    H14 9811   5.873   2.520   9.978  0.2089 -0.4330  0.0983
   61MYC    H15 9812   5.790   2.646  10.060  0.2695  0.0485 -1.5619
   61MYC     C8 9813   5.693   2.567   9.884 -0.3461 -1.1090 -0.1793
   61MYC    H12 9814   5.737   2.654   9.834  0.2919  0.0966  2.2795
   61MYC    H13 9815   5.595   2.604   9.915  0.8605  3.0467 -0.6784
   61MYC     C7 9816   5.674   2.434   9.804  0.4108 -0.4617  0.1129
   61MYC    H10 9817   5.615   2.366   9.867 -0.3441  0.1045  0.0405
   61MYC    H11 9818   5.770   2.384   9.793  0.7306  0.4524 -1.5930
   61MYC     C6 9819   5.615   2.462   9.661  0.7914 -0.0997 -0.1087
   61MYC     H8 9820   5.654   2.556   9.620 -2.6007  2.4639  2.0672
   61MYC     H9 9821   5.513   2.499   9.669 -0.0742 -1.7210 -2.4090
   61MYC     C5 9822   5.621   2.343   9.549  0.6101  0.1956 -0.3675
   61MYC     H6 9823   5.585   2.250   9.593  0.1227  1.9711  3.3484
   61MYC     H7 9824   5.721   2.330   9.507  0.5765  0.8999 -0.6951
   61MYC     C4 9825   5.535   2.376   9.427  0.0054  0.8335 -0.1311
   61MYC     H4 9826   5.578   2.466   9.382  2.0275 -0.6886 -1.3934
   61MYC     H5 9827   5.433   2.405   9.456 -0.5487 -0.7625 -0.3434
   61MYC     C2 9828   5.521   2.267   9.312  0.4768  0.3052  0.2871
   61MYC     H2 9829   5.629   2.259   9.293  0.1729  1.3934 -2.2881
   61MYC     O3 9830   5.478   2.142   9.363  0.3172  0.1014  0.2133
   61MYC     H3 9831   5.381   2.135   9.354  0.3257  0.0839  0.1400
   61MYC     C1 9832   5.434   2.314   9.195  0.3092  0.5927  0.4551
   61MYC     H1 9833   5.467   2.412   9.156  1.1177  0.5770  1.0854
   61MYC    C81 9834   5.284   2.346   9.232 -0.6327 -0.9987 -0.4401
   61MYC    O82 9835   5.205   2.270   9.284 -0.7230  0.3752 -0.0067
   61MYC    O83 9836   5.223   2.445   9.152 -0.3731  0.4749  0.2634
   61MYC   H105 9837   5.127   2.434   9.167  0.1573 -1.7223  2.8704
   61MYC    C20 9838   5.455   2.217   9.082  0.3145  0.7067  0.3210
   61MYC    H34 9839   5.559   2.186   9.068  0.6483  0.9975  2.0167
   61MYC    H35 9840   5.416   2.121   9.117  1.7850  0.4493  1.2940
   61MYC    C21 9841   5.395   2.240   8.937  0.9584  0.3254 -0.1310
   61MYC    H36 9842   5.429   2.157   8.875 -0.7346 -0.7540  0.3331
   61MYC    H37 9843   5.287   2.237   8.951  0.9541  0.7609 -0.0462
   61MYC    C22 9844   5.448   2.375   8.874 -0.3476  0.1992  0.2884
   61MYC    H38 9845   5.419   2.446   8.953 -0.4956 -1.7479  2.0690
   61MYC    H39 9846   5.557   2.379   8.863 -0.4382 -0.0827 -0.8018
   61MYC    C23 9847   5.367   2.399   8.736 -0.6043 -0.1033  0.0447
   61MYC    H40 9848   5.261   2.380   8.756 -0.3515 -0.2274  1.3380
   61MYC    H41 9849   5.373   2.503   8.702 -4.2143  0.0593 -0.4379
   61MYC    C24 9850   5.397   2.299   8.626 -0.3696 -0.1961  0.2881
   61MYC    H42 9851   5.506   2.295   8.615 -0.3407  0.1297  0.4499
   61MYC    H43 9852   5.369   2.196   8.650  2.3164 -1.0749  0.0055
   61MYC    C25 9853   5.336   2.355   8.494  0.3362 -0.2017  0.6244
   61MYC    H44 9854   5.227   2.356   8.511  0.1539 -0.4654 -0.4736
   61MYC    H45 9855   5.357   2.462   8.487  2.3199 -0.6575 -1.8296
   61MYC    C26 9856   5.371   2.295   8.351 -0.7736 -0.6276 -0.9663
   61MYC    H46 9857   5.477   2.319   8.332 -0.6353  0.2735  0.8009
   61MYC    H47 9858   5.374   2.186   8.346  1.4121 -0.6024 -1.0372
   61MYC    C27 9859   5.297   2.362   8.233 -0.1566  0.3764 -0.0629
   61MYC    H48 9860   5.190   2.351   8.254 -1.0063  0.3950 -3.6790
   61MYC    H49 9861   5.313   2.470   8.234 -1.1132  0.5698  2.6783
   61MYC    C28 9862   5.342   2.296   8.100 -0.5445 -0.0075  0.0638
   61MYC    H50 9863   5.444   2.329   8.078 -0.3381 -1.3842 -1.1939
   61MYC    H51 9864   5.342   2.187   8.105  1.5040 -0.2002 -2.2895
   61MYC    C29 9865   5.249   2.340   7.985  0.7189  0.5731  0.6691
   61MYC    H52 9866   5.148   2.317   8.020  0.8554  0.7981  1.2183
   61MYC    H53 9867   5.254   2.449   7.981 -0.4569  0.6691  1.3920
   61MYC    C30 9868   5.293   2.275   7.847 -0.6716 -0.4535 -0.6822
   61MYC    H54 9869   5.391   2.317   7.821 -0.8941 -0.4695 -1.6044
   61MYC    H55 9870   5.291   2.165   7.851  1.5393 -0.5383 -0.8671
   61MYC    C31 9871   5.206   2.315   7.723  0.0752  0.5272 -0.1352
   61MYC    H56 9872   5.122   2.245   7.714  1.0895 -0.7236 -0.1274
   61MYC    H57 9873   5.169   2.418   7.728 -2.7247 -0.3518 -1.0141
   61MYC    C32 9874   5.281   2.300   7.592  0.3082  0.1516 -0.0680
   61MYC    H58 9875   5.360   2.375   7.583  1.6188 -1.2775 -1.1878
   61MYC    H59 9876   5.328   2.201   7.582 -1.7641 -0.8140 -0.9883
   61MYC    C33 9877   5.178   2.310   7.479 -0.1497  0.3880  0.2857
   61MYC    H60 9878   5.114   2.221   7.477  0.2356  0.1193 -0.7495
   61MYC    H61 9879   5.102   2.389   7.488 -2.0387 -1.3560  0.2477
   61MYC    C34 9880   5.251   2.317   7.343  0.0145 -0.2669  0.2516
   61MYC    H62 9881   5.342   2.378   7.351 -0.6346  0.6550  0.9635
   61MYC    H63 9882   5.286   2.215   7.326  1.4803  0.4771 -1.4879
   61MYC    C35 9883   5.152   2.345   7.227 -0.0923  0.2550 -0.1336
   61MYC    H64 9884   5.054   2.300   7.249 -1.7529  3.4910 -0.3232
   61MYC    H65 9885   5.129   2.452   7.220 -0.0886  0.2178 -0.7486
   61MYC    C36 9886   5.217   2.303   7.088 -0.0102 -0.1274 -0.5294
   61MYC    H66 9887   5.310   2.360   7.080  1.0887 -1.7126  0.2481
   61MYC    H67 9888   5.248   2.197   7.091  0.0153 -0.0940  0.8435
   61MYC    C37 9889   5.128   2.339   6.967 -0.3652 -0.7202  0.5958
   61MYC    H68 9890   5.039   2.277   6.978 -1.0452  0.5219  2.9136
   61MYC    H69 9891   5.106   2.446   6.983 -0.6297 -0.9850  2.1090
   61MYC    C38 9892   5.201   2.324   6.836 -0.7922  0.0413  0.6492
   61MYC    H70 9893   5.290   2.387   6.837 -0.9578  0.2855  0.0118
   61MYC    H71 9894   5.227   2.218   6.820  1.6932  0.4341  1.5517
   61MYC    C39 9895   5.111   2.362   6.724  0.5056  0.8345 -1.2142
   61MYC    H72 9896   5.024   2.299   6.747  1.0712  0.4142 -0.1686
   61MYC    H73 9897   5.077   2.466   6.732  0.1304  0.7129 -1.2048
   61MYC    C40 9898   5.169   2.325   6.587 -0.3865  0.2173  0.1229
   61MYC    H74 9899   5.259   2.382   6.558 -0.5463  0.3486 -0.1173
   61MYC    H75 9900   5.201   2.220   6.597  0.3975  0.4716  0.3726
   61MYC    C41 9901   5.072   2.346   6.466  0.2185  0.4185  0.0953
   61MYC    H76 9902   5.054   2.453   6.450  2.2071  0.6196 -1.1797
   61MYC    H77 9903   5.116   2.314   6.371 -1.7716  0.1837 -0.8084
   61MYC    C42 9904   4.928   2.280   6.477  0.0728 -0.5253  0.1572
   61MYC    H78 9905   4.892   2.256   6.377 -0.4176  3.7413 -0.8937
   61MYC    H79 9906   4.928   2.192   6.543 -1.5498 -0.4147  0.3544
   61MYC    C43 9907   4.816   2.374   6.530 -0.9132  0.0497  0.2856
   61MYC    H80 9908   4.830   2.468   6.476 -0.3553 -0.2475 -0.0911
   61MYC    H81 9909   4.833   2.387   6.638  4.3113  1.1831 -0.4426
   61MYC    H82 9910   4.723   2.325   6.499 -0.9180  1.4113 -2.0337
   62MYC   HH15 9911   6.373   3.008   6.720 -1.0963  0.0783  0.7294
   62MYC    C80 9912   6.373   3.118   6.717  0.0586  0.0765  0.1665
   62MYC   H100 9913   6.434   3.145   6.630 -1.1593  0.2288 -0.6824
   62MYC   H101 9914   6.267   3.146   6.711  0.1394  0.1341 -3.2649
   62MYC    C79 9915   6.448   3.170   6.844 -0.1959 -0.1194  0.2469
   62MYC   H102 9916   6.410   3.272   6.857 -0.2643 -0.1806  0.5356
   62MYC   H103 9917   6.550   3.146   6.813 -1.0213 -2.2730 -1.0486
   62MYC    C78 9918   6.410   3.106   6.975  0.6056 -0.2704  0.0801
   62MYC   HH14 9919   6.456   3.006   6.977 -0.2060 -0.7028 -1.3177
   62MYC   H104 9920   6.301   3.109   6.977  0.6195  1.6606 -0.6984
   62MYC    C77 9921   6.461   3.177   7.103 -0.6979  0.1270  0.6390
   62MYC   H106 9922   6.412   3.275   7.109 -1.9528 -0.3409 -1.1461
   62MYC   H107 9923   6.570   3.183   7.100 -0.6733  0.9727  2.1487
   62MYC    C76 9924   6.432   3.103   7.234 -0.1033  0.3720  1.1667
   62MYC   H108 9925   6.460   2.998   7.221 -3.7675 -0.6165  0.0021
   62MYC   H109 9926   6.324   3.106   7.254 -0.5915 -0.3507 -1.0376
   62MYC    C75 9927   6.523   3.150   7.362  0.0763  0.0282 -0.3700
   62MYC   H110 9928   6.503   3.257   7.376  1.6625  0.1244  1.5143
   62MYC   H111 9929   6.630   3.130   7.352  0.0845 -0.6941  0.8729
   62MYC    C74 9930   6.477   3.082   7.489  0.2722  0.9437  0.4133
   62MYC   H112 9931   6.514   2.979   7.485 -0.4627  0.6867  0.2011
   62MYC   H113 9932   6.369   3.069   7.498  0.1809  1.0830 -0.3591
   62MYC    C73 9933   6.546   3.154   7.612 -0.2371  0.0021 -0.0832
   62MYC   HH13 9934   6.517   3.260   7.614 -1.3120 -0.2572 -0.9438
   62MYC   H114 9935   6.652   3.135   7.592 -0.9042 -2.4097 -1.8189
   62MYC    C72 9936   6.513   3.089   7.747  0.2912 -0.3973  0.1332
   62MYC   H115 9937   6.551   2.987   7.756  1.1478 -0.0376  0.8109
   62MYC   H116 9938   6.404   3.088   7.761  0.2942 -0.1362  0.1854
   62MYC    C71 9939   6.568   3.164   7.865 -0.4259 -0.2984 -0.2667
   62MYC   H117 9940   6.509   3.257   7.873  1.0874  0.9626 -2.6245
   62MYC   H118 9941   6.674   3.186   7.850 -0.4819 -0.3893 -0.8368
   62MYC    C70 9942   6.550   3.085   8.005 -0.4725 -0.2548  0.0720
   62MYC   H119 9943   6.622   3.003   7.997 -0.7777 -0.4931 -0.2586
   62MYC   H120 9944   6.446   3.050   8.013 -0.6502  0.4596  1.0976
   62MYC    C69 9945   6.583   3.182   8.118  0.3100  0.0560 -0.1141
   62MYC   H121 9946   6.522   3.273   8.111  1.5792  0.8069 -1.9833
   62MYC   H122 9947   6.687   3.215   8.109  0.2386  0.0696 -0.9404
   62MYC    C68 9948   6.558   3.123   8.257  0.0409 -0.4358 -0.3112
   62MYC   HH12 9949   6.585   3.016   8.257  0.5586 -0.3061 -0.1106
   62MYC   H123 9950   6.450   3.122   8.276  0.2623  0.5721  1.0906
   62MYC    C67 9951   6.645   3.194   8.353  0.1043  0.0239 -0.1269
   62MYC   H124 9952   6.612   3.296   8.373 -1.7553 -0.5566 -0.0705
   62MYC   H125 9953   6.745   3.171   8.313 -0.9266 -2.7911 -1.3333
   62MYC    C66 9954   6.643   3.123   8.493 -0.0364 -0.2332  0.0194
   62MYC   H126 9955   6.696   3.028   8.480 -2.8093 -1.9576  0.7120
   62MYC   H127 9956   6.541   3.095   8.520 -1.2206  2.4552 -1.3333
   62MYC    C65 9957   6.710   3.197   8.610  0.6673 -0.0840 -0.5998
   62MYC   H128 9958   6.646   3.284   8.629  0.8437  0.1491 -1.0610
   62MYC   H129 9959   6.808   3.235   8.578  0.8021  1.5866  1.5224
   62MYC    C64 9960   6.722   3.114   8.740 -0.3923 -0.7837 -0.1316
   62MYC   H130 9961   6.777   3.022   8.718  0.0390 -0.1250 -1.9678
   62MYC   H131 9962   6.623   3.074   8.766  0.0142 -1.0860  1.0328
   62MYC    C63 9963   6.777   3.192   8.859  0.3805 -0.5452  0.2715
   62MYC   HH11 9964   6.737   3.294   8.868 -0.9015 -1.0508  0.5494
   62MYC   H132 9965   6.884   3.207   8.840  0.4164  1.6847  1.7665
   62MYC    C62 9966   6.767   3.134   9.002  0.1919  0.6196 -0.0328
   62MYC   H133 9967   6.817   3.036   9.001 -2.7628 -0.9819 -0.5910
   62MYC   H134 9968   6.666   3.106   9.034  0.5657 -0.5499  0.1961
   62MYC    C61 9969   6.852   3.233   9.095  0.0362 -0.2582 -0.0622
   62MYC   H135 9970   6.796   3.327   9.089  0.9049  0.2499 -0.4028
   62MYC   H136 9971   6.954   3.248   9.057 -0.1280 -0.4676 -0.5916
   62MYC    C60 9972   6.864   3.183   9.233  0.1836  0.4297 -0.5923
   62MYC   H137 9973   6.934   3.101   9.245 -2.6616 -1.9151  1.3854
   62MYC    C58 9974   6.832   3.279   9.354 -0.1992  0.1645 -0.2486
   62MYC   H138 9975   6.799   3.381   9.333 -0.8522  0.4491  1.8861
   62MYC    C59 9976   6.732   3.170   9.312 -0.1420 -0.0995 -0.4503
   62MYC   H139 9977   6.717   3.092   9.386 -1.2345  0.6334  0.1302
   62MYC   H140 9978   6.643   3.221   9.274  0.3337  0.0420 -1.4168
   62MYC    C57 9979   6.901   3.278   9.495  0.3008  0.1461  0.8934
   62MYC   HH10 9980   6.991   3.341   9.497 -0.3436  1.4323  6.2932
   62MYC   H141 9981   6.935   3.174   9.500 -2.3060 -0.7723  0.6833
   62MYC    C56 9982   6.796   3.297   9.610 -0.7237 -0.9471  0.4500
   62MYC   H142 9983   6.715   3.224   9.603  0.7204 -2.6277  0.6977
   62MYC   H143 9984   6.761   3.401   9.604  2.7379  0.3412  0.0339
   62MYC    C55 9985   6.854   3.270   9.754  0.3112  0.4499  1.1099
   62MYC   H144 9986   6.910   3.176   9.748  2.5121  1.7083  0.4957
   62MYC   H145 9987   6.772   3.254   9.824 -0.2043 -0.4057  0.3335
   62MYC    C54 9988   6.947   3.383   9.812 -0.2610  0.3478  0.0763
   62MYC   H146 9989   7.022   3.405   9.735 -0.6236 -1.2869 -0.7969
   62MYC   H147 9990   6.998   3.328   9.892  0.6752  0.6917 -0.2689
   62MYC    C53 9991   6.879   3.516   9.858 -0.6547  0.0367  0.0836
   62MYC   H148 9992   6.822   3.489   9.948  0.1635 -1.0700  0.3024
   62MYC   H149 9993   6.817   3.563   9.781  0.0879  0.8161 -0.0545
   62MYC    C52 9994   6.980   3.631   9.882 -1.0580 -0.6225 -0.2298
   62MYC    H99 9995   7.044   3.632   9.792 -1.5744 -2.1056 -0.6488
   62MYC   H150 9996   7.042   3.597   9.966  1.0220  0.2252 -1.3245
   62MYC    C51 9997   6.931   3.770   9.927  0.0516 -0.0229 -0.0346
   62MYC    H97 9998   6.871   3.762  10.019 -1.1176  2.1577 -0.5533
   62MYC    H98 9999   6.865   3.816   9.853 -0.5169  1.1992  1.2012
   62MYC    C5010000   7.042   3.865   9.946  0.0415 -0.2527 -0.5564
   62MYC    H9510001   7.008   3.959   9.991 -3.5766 -0.8161 -1.7881
   62MYC    H9610002   7.097   3.897   9.856 -0.1829  1.2646 -0.1813
   62MYC    C4910003   7.153   3.822  10.058  0.7699 -0.5672  0.7384
   62MYC    H9310004   7.231   3.899  10.062 -0.2728  0.4644  2.2525
   62MYC    H9410005   7.212   3.740  10.015 -0.5668 -0.2262 -1.9843
   62MYC    C4810006   7.112   3.783  10.198  0.6782  0.0817 -0.2178
   62MYC    H9110007   7.073   3.681  10.194 -0.8101  0.5663  1.1398
   62MYC    H9210008   7.024   3.837  10.234  0.4974 -0.0756 -0.4219
   62MYC    C4710009   7.220   3.785  10.307  0.2583  0.4023  0.2908
   62MYC    H8910010   7.288   3.869  10.292 -3.1089  3.2814 -0.0457
   62MYC    H9010011   7.271   3.688  10.300 -1.6413 -0.6940  0.8605
   62MYC    C4610012   7.167   3.795  10.445  0.5515 -0.2475 -0.0603
   62MYC    H8710013   7.113   3.704  10.471  1.6349 -0.2633  2.3900
   62MYC    H8810014   7.094   3.877  10.443  2.0322  1.1432 -2.7568
   62MYC    C4510015   7.272   3.854  10.544 -0.5995 -0.2214  0.8035
   62MYC    H8510016   7.284   3.962  10.527  1.4707 -0.5558 -0.1513
   62MYC    H8610017   7.364   3.801  10.516  0.9282  1.4290  2.3959
   62MYC    C4410018   7.255   3.821  10.698  0.7133 -0.2741  0.0486
   62MYC    H8310019   7.353   3.817  10.746  1.0851 -2.6923 -0.7762
   62MYC    H8410020   7.202   3.726  10.705  2.6315 -1.2945  1.3115
   62MYC    C1810021   7.163   3.919  10.775 -0.7827 -0.0026  0.4457
   62MYC    H3110022   7.140   4.008  10.718 -0.9270 -1.5176 -2.0400
   62MYC    C1710023   7.057   3.878  10.867  0.0320 -0.0351  0.8909
   62MYC    H3010024   7.056   3.771  10.881 -3.3711 -0.0333  1.3396
   62MYC    C1910025   7.182   3.936  10.927 -0.5696 -0.0579  0.0810
   62MYC    H3210026   7.250   3.869  10.979 -0.1623  1.2035  1.2063
   62MYC    H3310027   7.194   4.036  10.966 -1.4132 -1.3139  4.0121
   62MYC    C1610028   6.924   3.950  10.886  0.5359  0.8167  0.0363
   62MYC    H2810029   6.946   4.058  10.890 -0.1917  0.9306  2.5624
   62MYC    H2910030   6.878   3.915  10.978 -0.6089  0.0837 -0.7892
   62MYC    C1510031   6.834   3.922  10.759 -0.1302 -0.6517 -0.8430
   62MYC    H2610032   6.891   3.939  10.667 -0.5358 -1.3828 -1.2376
   62MYC    H2710033   6.765   4.008  10.762  1.2947  0.5332 -0.8104
   62MYC    C1410034   6.753   3.788  10.773 -0.6260 -0.3255  0.4613
   62MYC    H2410035   6.683   3.794  10.856 -0.6613 -1.3269  0.5231
   62MYC    H2510036   6.823   3.706  10.791 -1.3531 -1.4806 -1.6157
   62MYC    C1310037   6.671   3.745  10.648 -0.0966  0.3476 -0.6488
   62MYC    H2210038   6.582   3.808  10.637 -0.2741  0.3280  0.5259
   62MYC    H2310039   6.620   3.653  10.678 -0.0387  0.2038 -0.9949
   62MYC    C1210040   6.744   3.721  10.521  0.5797 -0.0154 -0.3837
   62MYC    H2010041   6.816   3.647  10.556 -0.3387 -1.3746 -1.2442
   62MYC    H2110042   6.791   3.817  10.498 -0.5499  1.4801  3.0440
   62MYC    C1110043   6.641   3.680  10.404 -0.2375  0.4151  0.4005
   62MYC    H1810044   6.558   3.749  10.385 -1.1306 -0.9314 -0.7718
   62MYC    H1910045   6.588   3.588  10.429 -0.6321  0.2621 -0.8975
   62MYC    C1010046   6.711   3.655  10.264  0.0762  0.8749  1.1664
   62MYC    H1610047   6.785   3.575  10.277  0.6533  1.4579  1.5442
   62MYC    H1710048   6.762   3.748  10.237 -1.5087  1.3122 -0.5566
   62MYC     C910049   6.609   3.615  10.153  0.4264  0.2886 -0.2764
   62MYC    H1410050   6.654   3.628  10.054  1.0282 -0.8438 -0.1683
   62MYC    H1510051   6.523   3.683  10.158 -0.0886 -0.4321  1.2497
   62MYC     C810052   6.547   3.474  10.159  0.0406  0.1528  0.3518
   62MYC    H1210053   6.497   3.465  10.256 -1.1773  0.0889 -0.2619
   62MYC    H1310054   6.629   3.400  10.168  0.3845  0.6595  1.5556
   62MYC     C710055   6.439   3.443  10.054  0.2268  0.2467 -0.8144
   62MYC    H1010056   6.484   3.470   9.958  2.4766  0.0189  0.1060
   62MYC    H1110057   6.362   3.518  10.074  0.4626 -0.1244  1.9562
   62MYC     C610058   6.383   3.296  10.046 -0.0547 -0.1214  0.2026
   62MYC     H810059   6.344   3.274  10.147  2.5875 -3.5562  0.6548
   62MYC     H910060   6.464   3.223  10.041 -0.3293 -0.4831  0.7882
   62MYC     C510061   6.273   3.263   9.949  0.1687 -0.1714 -0.5677
   62MYC     H610062   6.182   3.318   9.976 -0.9996 -2.6104  0.8734
   62MYC     H710063   6.242   3.160   9.969 -0.0158  0.3464  2.2573
   62MYC     C410064   6.315   3.264   9.806  0.1209  0.0772  0.1786
   62MYC     H410065   6.394   3.192   9.782 -0.7309 -0.6082 -0.6611
   62MYC     H510066   6.341   3.367   9.779 -0.0261  0.6692  2.1575
   62MYC     C210067   6.204   3.227   9.702 -0.5308 -0.2297 -0.2089
   62MYC     H210068   6.173   3.128   9.736  0.8254 -0.4046  0.5660
   62MYC     O310069   6.100   3.321   9.711  0.4534  0.2813  0.4857
   62MYC     H310070   6.112   3.397   9.650 -1.2004 -1.0854 -1.6948
   62MYC     C110071   6.242   3.215   9.557 -0.1055 -0.2213  0.5751
   62MYC     H110072   6.311   3.130   9.559 -0.4242 -0.5062 -0.1280
   62MYC    C8110073   6.314   3.348   9.513  0.7442 -0.4227  0.2835
   62MYC    O8210074   6.260   3.452   9.491  0.4653  0.0445 -0.5931
   62MYC    O8310075   6.447   3.333   9.481 -0.5574 -0.1260  0.1227
   62MYC   H10510076   6.467   3.422   9.445 -1.3269 -0.9705 -2.5375
   62MYC    C2010077   6.129   3.189   9.455 -0.6458 -0.0672 -0.0487
   62MYC    H3410078   6.058   3.124   9.506 -2.5503  1.0236 -1.1981
   62MYC    H3510079   6.076   3.284   9.438  1.2707  1.3985  1.5548
   62MYC    C2110080   6.182   3.117   9.321  0.2876  0.0419 -0.4323
   62MYC    H3610081   6.249   3.186   9.268  0.2025 -0.8812 -1.7966
   62MYC    H3710082   6.235   3.024   9.346 -0.6053 -0.6984 -1.2180
   62MYC    C2210083   6.065   3.083   9.232  0.4598  0.9023 -0.9284
   62MYC    H3810084   5.994   3.020   9.286 -0.0840  0.2271 -2.3852
   62MYC    H3910085   6.011   3.171   9.196  1.3252  0.4843 -3.4459
   62MYC    C2310086   6.112   3.003   9.110 -0.0492  0.1623  0.8423
   62MYC    H4010087   6.215   3.024   9.081  0.1393  0.5072  1.7579
   62MYC    H4110088   6.120   2.895   9.126 -2.3729 -0.2938 -0.4916
   62MYC    C2410089   6.022   3.031   8.988  0.5523  0.2117  0.5457
   62MYC    H4210090   5.925   2.986   9.012 -0.0610  0.4898 -1.2294
   62MYC    H4310091   6.003   3.137   8.967 -1.4193 -0.6386 -2.7331
   62MYC    C2510092   6.074   2.972   8.859  0.2153  0.6920  0.2572
   62MYC    H4410093   6.175   3.007   8.835  0.4894  1.3568  2.2168
   62MYC    H4510094   6.078   2.863   8.869 -0.5135  0.6921  0.6174
   62MYC    C2610095   5.977   3.003   8.743  0.0266  0.1627 -0.1053
   62MYC    H4610096   5.871   2.989   8.768 -0.4293 -1.5251 -2.5741
   62MYC    H4710097   5.986   3.112   8.740 -1.3332  0.3079  0.4547
   62MYC    C2710098   6.033   2.947   8.614 -0.1057 -0.5678 -0.0502
   62MYC    H4810099   6.135   2.984   8.601  0.3439 -1.2329  1.3927
   62MYC    H4910100   6.041   2.838   8.620  0.9720 -0.6783 -2.3178
   62MYC    C2810101   5.940   2.981   8.497  0.0205  0.2405 -0.9194
   62MYC    H5010102   5.840   2.943   8.524  0.0907  1.1880  0.8556
   62MYC    H5110103   5.929   3.089   8.482 -0.5447  0.1470 -1.2083
   62MYC    C2910104   5.998   2.939   8.360 -0.1233  0.2004 -0.1916
   62MYC    H5210105   6.094   2.988   8.340  1.1597 -1.7401  0.9498
   62MYC    H5310106   6.028   2.834   8.364 -1.5922 -0.2341  0.4875
   62MYC    C3010107   5.898   2.962   8.249 -0.0007 -0.1457 -0.3431
   62MYC    H5410108   5.813   2.895   8.266 -0.9715  0.3731 -2.7622
   62MYC    H5510109   5.865   3.066   8.252  1.3682  0.3230 -0.8583
   62MYC    C3110110   5.951   2.923   8.112  0.4773  0.1573  0.5432
   62MYC    H5610111   6.042   2.977   8.085 -0.7690  1.5820 -0.9820
   62MYC    H5710112   5.960   2.814   8.101 -0.7498  0.1582 -0.7388
   62MYC    C3210113   5.853   2.956   7.996  0.5583  0.0909  0.0810
   62MYC    H5810114   5.752   2.915   8.008  0.7962 -1.4543 -2.3880
   62MYC    H5910115   5.849   3.065   7.996  1.0695  0.1144 -0.1485
   62MYC    C3310116   5.914   2.924   7.857 -0.6701  0.6907 -0.3943
   62MYC    H6010117   6.008   2.980   7.852 -0.2736  0.1267  0.6471
   62MYC    H6110118   5.937   2.817   7.856  2.0870  1.2088 -0.0573
   62MYC    C3410119   5.826   2.969   7.735 -0.5139  0.0329  0.5035
   62MYC    H6210120   5.730   2.922   7.757  0.8064 -2.0020  2.4060
   62MYC    H6310121   5.809   3.077   7.740  0.0798  0.2010 -0.7665
   62MYC    C3510122   5.876   2.940   7.589 -0.0531  0.1262 -0.6016
   62MYC    H6410123   5.957   3.008   7.560 -1.8563  1.6819 -2.3135
   62MYC    H6510124   5.919   2.840   7.589 -0.3673 -0.0088 -0.7042
   62MYC    C3610125   5.761   2.960   7.486 -0.2283  0.1009 -0.1312
   62MYC    H6610126   5.675   2.905   7.526  1.0463 -0.5948  1.8263
   62MYC    H6710127   5.742   3.067   7.471  3.9107  0.9285 -0.8000
   62MYC    C3710128   5.783   2.911   7.341  0.0562 -0.3182 -0.4607
   62MYC    H6810129   5.881   2.945   7.306 -0.3802 -0.5100 -1.9599
   62MYC    H6910130   5.782   2.801   7.346 -0.0996 -0.3645 -1.3827
   62MYC    C3810131   5.688   2.965   7.233 -0.0420  0.6200 -0.0394
   62MYC    H7010132   5.588   2.930   7.260  0.1863  0.5928  0.7990
   62MYC    H7110133   5.680   3.074   7.228 -1.1936  0.5957  0.7596
   62MYC    C3910134   5.723   2.920   7.094 -0.1795  0.4886 -0.3177
   62MYC    H7210135   5.830   2.942   7.082  0.1814 -1.7423 -1.6055
   62MYC    H7310136   5.704   2.813   7.084  0.4688  0.2739  0.6320
   62MYC    C4010137   5.644   2.983   6.980  0.1633  0.7446 -0.7730
   62MYC    H7410138   5.536   2.963   6.980 -0.0757  1.9796 -1.2614
   62MYC    H7510139   5.667   3.090   6.983  0.4381  0.6632  0.7216
   62MYC    C4110140   5.685   2.932   6.843 -0.0353  0.0868 -0.1015
   62MYC    H7610141   5.793   2.949   6.834 -0.0454 -0.2765 -0.9797
   62MYC    H7710142   5.673   2.825   6.819 -0.2460  0.2630 -0.8109
   62MYC    C4210143   5.615   3.007   6.730  0.5710  0.6427 -0.4041
   62MYC    H7810144   5.511   2.974   6.730 -0.0513  2.3751  1.7358
   62MYC    H7910145   5.609   3.113   6.756  0.6209  0.2870  1.1701
   62MYC    C4310146   5.675   2.990   6.597 -0.2656 -0.0812 -0.0647
   62MYC    H8010147   5.605   3.036   6.526 -0.7450 -2.6675 -1.3821
   62MYC    H8110148   5.660   2.883   6.581 -1.7190  0.3469 -2.0022
   62MYC    H8210149   5.778   3.027   6.585 -0.3264  0.5988  1.3199
   63MYC   HH1510150   0.375   3.505   6.850  0.0309  0.9183 -1.0433
   63MYC    C8010151   0.279   3.461   6.879  0.6030  0.1048 -0.3434
   63MYC   H10010152   0.210   3.501   6.803  0.3665  0.6833  0.1768
   63MYC   H10110153   0.287   3.353   6.857 -0.5521 -0.0350 -0.1566
   63MYC    C7910154   0.232   3.490   7.022  1.0339  0.0942 -0.4505
   63MYC   H10210155   0.134   3.445   7.043  1.2715 -1.0037 -1.5678
   63MYC   H10310156   0.227   3.597   7.044  3.7955  0.5085 -1.4147
   63MYC    C7810157   0.329   3.448   7.136  0.6153 -0.2302 -0.0495
   63MYC   HH1410158   0.429   3.487   7.113  0.4743 -0.2037 -0.6181
   63MYC   H10410159   0.343   3.340   7.131 -0.0750 -0.2645 -1.9064
   63MYC    C7710160   0.284   3.503   7.275  0.3405  0.1488  0.0608
   63MYC   H10610161   0.181   3.473   7.297 -0.5184  2.7770 -0.0104
   63MYC   H10710162   0.268   3.611   7.280 -1.0295 -0.0899  2.0416
   63MYC    C7610163   0.365   3.451   7.399 -0.3551 -0.6000  0.4728
   63MYC   H10810164   0.470   3.478   7.379 -0.8243 -0.6516 -2.5130
   63MYC   H10910165   0.358   3.342   7.395 -2.6557 -0.4513 -3.0082
   63MYC    C7510166   0.306   3.497   7.534 -0.2306 -0.2849  0.3487
   63MYC   H11010167   0.204   3.459   7.543 -0.3384 -0.3263 -0.9182
   63MYC   H11110168   0.301   3.607   7.532 -1.0385 -0.3112 -1.5323
   63MYC    C7410169   0.392   3.442   7.655 -0.5688  0.4022 -0.1436
   63MYC   H11210170   0.489   3.492   7.653 -0.4134  0.3610  2.6011
   63MYC   H11310171   0.396   3.333   7.645  0.2384 -0.0460  3.4892
   63MYC    C7310172   0.329   3.472   7.795  0.2335  0.5410 -0.0443
   63MYC   HH1310173   0.247   3.400   7.805  0.9564 -0.2083  0.7291
   63MYC   H11410174   0.299   3.577   7.802 -0.6658  0.2349  0.9003
   63MYC    C7210175   0.434   3.441   7.911  0.4676  1.1436 -0.8150
   63MYC   H11510176   0.526   3.496   7.891  0.5476  1.0949 -0.5878
   63MYC   H11610177   0.460   3.335   7.921 -0.3900  0.7667 -2.3372
   63MYC    C7110178   0.377   3.495   8.045  0.1432 -0.2352 -0.9045
   63MYC   H11710179   0.276   3.456   8.059 -0.4578  1.4035 -0.4661
   63MYC   H11810180   0.361   3.603   8.035 -1.8791 -0.4110 -0.0933
   63MYC    C7010181   0.470   3.468   8.164  1.7825 -0.2569 -0.2230
   63MYC   H11910182   0.567   3.515   8.145  2.6787 -2.4275 -1.3504
   63MYC   H12010183   0.479   3.359   8.165  0.7309 -0.4235 -2.3216
   63MYC    C6910184   0.407   3.523   8.297  0.3044 -1.0515  0.2155
   63MYC   H12110185   0.318   3.462   8.317 -0.4731 -0.7633 -2.0420
   63MYC   H12210186   0.378   3.628   8.283 -1.6808 -1.7864 -1.8983
   63MYC    C6810187   0.502   3.513   8.408 -0.2225 -0.0726 -0.2820
   63MYC   HH1210188   0.600   3.557   8.388 -0.2462  1.8675  3.2461
   63MYC   H12310189   0.526   3.407   8.420 -0.8954 -0.2969 -0.8330
   63MYC    C6710190   0.443   3.559   8.538 -0.0855  0.6309 -0.5762
   63MYC   H12410191   0.349   3.509   8.564 -0.2584  1.5163  0.5987
   63MYC   H12510192   0.425   3.667   8.528  1.1437  0.8494 -0.5799
   63MYC    C6610193   0.538   3.546   8.655  0.1574  0.0188 -0.1595
   63MYC   H12610194   0.635   3.583   8.621  1.3945 -3.7836 -1.1815
   63MYC   H12710195   0.559   3.441   8.679 -2.5805 -0.4119  0.6763
   63MYC    C6510196   0.492   3.620   8.779  0.0109  0.6630  0.9977
   63MYC   H12810197   0.396   3.572   8.797  0.4101 -0.1849  0.9201
   63MYC   H12910198   0.471   3.724   8.750 -1.9708 -0.4486 -2.0470
   63MYC    C6410199   0.583   3.607   8.903  0.1224  0.3762  0.5561
   63MYC   H13010200   0.663   3.682   8.904 -0.0940  0.6046  1.6395
   63MYC   H13110201   0.632   3.510   8.914 -1.3473 -0.7151 -1.8500
   63MYC    C6310202   0.505   3.637   9.032 -0.7650 -0.6720  0.4411
   63MYC   HH1110203   0.445   3.549   9.060 -0.2349 -0.8044  1.1994
   63MYC   H13210204   0.444   3.727   9.029  0.0043 -0.1057  1.3461
   63MYC    C6210205   0.602   3.653   9.154 -0.2147  0.3555 -0.0029
   63MYC   H13310206   0.683   3.726   9.145  3.9364 -3.7012  0.3461
   63MYC   H13410207   0.641   3.553   9.175 -1.7248 -0.3182 -0.2781
   63MYC    C6110208   0.532   3.692   9.289  0.5854  0.6199 -0.5808
   63MYC   H13510209   0.466   3.608   9.316 -0.8210  0.9670 -2.6787
   63MYC   H13610210   0.453   3.768   9.278 -1.9586 -1.4080  2.0002
   63MYC    C6010211   0.635   3.730   9.398  0.1505 -0.2369 -0.1715
   63MYC   H13710212   0.726   3.670   9.399  1.1114  1.1686  0.9869
   63MYC    C5810213   0.649   3.878   9.425  0.2620  0.3098 -0.1650
   63MYC   H13810214   0.583   3.932   9.358 -0.9668 -0.6842  0.2036
   63MYC    C5910215   0.595   3.792   9.529  0.6546  0.2939 -0.4951
   63MYC   H13910216   0.657   3.772   9.616  0.4222  1.4537 -0.0477
   63MYC   H14010217   0.489   3.785   9.547  0.6925  0.0415 -0.3750
   63MYC    C5710218   0.788   3.938   9.427  0.0281  0.8530 -0.9831
   63MYC   HH1010219   0.794   4.013   9.347 -2.9675  1.5014 -0.7187
   63MYC   H14110220   0.860   3.858   9.403 -1.4785 -0.0367 -2.8952
   63MYC    C5610221   0.842   3.988   9.570 -0.5022 -1.1173 -0.0462
   63MYC   H14210222   0.948   4.004   9.549 -0.9386  1.1459 -0.8021
   63MYC   H14310223   0.842   3.908   9.644  1.6029 -0.3339  0.8825
   63MYC    C5510224   0.780   4.124   9.615 -0.4878  0.1285 -0.3789
   63MYC   H14410225   0.680   4.104   9.658 -0.4430  2.1691  0.8068
   63MYC   H14510226   0.767   4.179   9.521 -0.8636  0.6170 -0.0508
   63MYC    C5410227   0.873   4.206   9.708  0.1287  0.1960 -0.0987
   63MYC   H14610228   0.843   4.311   9.710 -0.0899  0.1541 -0.8827
   63MYC   H14710229   0.974   4.223   9.669  0.8571 -0.0553  1.6029
   63MYC    C5310230   0.877   4.157   9.854 -0.1846 -1.2354 -0.6209
   63MYC   H14810231   0.932   4.063   9.866  1.1093 -0.6979 -2.0299
   63MYC   H14910232   0.776   4.143   9.894  0.2370 -3.2076 -0.1416
   63MYC    C5210233   0.941   4.258   9.947  0.5500 -0.5594  0.1768
   63MYC    H9910234   0.889   4.354   9.949 -0.3699 -1.0371 -0.2126
   63MYC   H15010235   1.042   4.281   9.911 -0.5468  0.2023 -2.6404
   63MYC    C5110236   0.925   4.211  10.089 -0.3772  0.6584  0.5363
   63MYC    H9710237   0.953   4.105  10.085  1.4222  1.1283 -1.7963
   63MYC    H9810238   0.823   4.225  10.127 -0.5145  1.1134  0.0042
   63MYC    C5010239   1.016   4.279  10.190  0.7246  0.2123  0.1719
   63MYC    H9510240   0.991   4.384  10.211  0.5075 -0.2110  2.2645
   63MYC    H9610241   1.120   4.272  10.156  0.3859  1.4642 -1.2275
   63MYC    C4910242   1.012   4.207  10.322  0.2409 -0.5055 -0.9610
   63MYC    H9310243   1.042   4.103  10.308  1.2806 -0.3208 -0.2370
   63MYC    H9410244   0.909   4.210  10.360  1.1603 -1.3721  1.8230
   63MYC    C4810245   1.116   4.260  10.431 -0.4188 -0.7760 -0.6746
   63MYC    H9110246   1.094   4.365  10.452 -1.4468 -0.4639 -2.9979
   63MYC    H9210247   1.217   4.250  10.390  0.0077  0.8432 -0.0752
   63MYC    C4710248   1.112   4.187  10.574 -0.1865 -0.4030 -0.1679
   63MYC    H8910249   1.142   4.084  10.554 -1.3903 -1.0233  1.0877
   63MYC    H9010250   1.010   4.197  10.615  0.1510  1.0043  0.4183
   63MYC    C4610251   1.215   4.254  10.675 -0.0710 -0.2563 -0.9188
   63MYC    H8710252   1.172   4.350  10.705 -1.1732 -1.2517  0.8919
   63MYC    H8810253   1.312   4.290  10.639  0.0815 -2.1224 -2.5869
   63MYC    C4510254   1.237   4.176  10.799 -1.3108 -0.4036  0.3714
   63MYC    H8510255   1.144   4.196  10.852 -1.8836  1.8317 -1.3520
   63MYC    H8610256   1.321   4.224  10.850 -0.9624 -2.0845  1.4631
   63MYC    C4410257   1.276   4.024  10.785 -1.0859 -0.7797 -0.1984
   63MYC    H8310258   1.376   4.020  10.740 -0.2020  3.6872  0.9469
   63MYC    H8410259   1.198   3.973  10.727 -2.6405  2.0176 -0.7659
   63MYC    C1810260   1.292   3.952  10.913  1.1073  0.3813  0.1358
   63MYC    H3110261   1.195   3.941  10.961  0.1027  1.0466 -1.6504
   63MYC    C1710262   1.401   3.842  10.931 -0.2916 -0.4868 -0.6225
   63MYC    H3010263   1.464   3.824  10.844 -0.5920  0.7099 -1.0993
   63MYC    C1910264   1.409   3.982  10.998 -0.2330 -0.3742 -0.0610
   63MYC    H3210265   1.486   4.051  10.966  0.3947 -1.6701 -1.5059
   63MYC    H3310266   1.379   3.983  11.103 -1.9475 -1.3401 -0.5001
   63MYC    C1610267   1.388   3.732  11.029 -0.0167  0.3612 -0.0367
   63MYC    H2810268   1.310   3.752  11.103 -0.2915 -0.2386 -0.1551
   63MYC    H2910269   1.483   3.721  11.083 -0.3029 -0.0705  0.3854
   63MYC    C1510270   1.359   3.600  10.959  0.1464 -0.2719  0.4028
   63MYC    H2610271   1.373   3.513  11.024  3.3559 -0.5170 -0.4594
   63MYC    H2710272   1.419   3.590  10.868  0.5862 -0.1521  0.6762
   63MYC    C1410273   1.214   3.601  10.907  0.1670  0.0785  0.4351
   63MYC    H2410274   1.198   3.689  10.844 -0.0335  0.8068  1.4711
   63MYC    H2510275   1.139   3.613  10.987  0.0793  2.2320  0.1065
   63MYC    C1310276   1.165   3.474  10.835 -0.2461 -0.4633  0.0413
   63MYC    H2210277   1.186   3.385  10.895  1.9629  0.3146  0.5384
   63MYC    H2310278   1.223   3.455  10.744  0.0970 -1.4259  0.4509
   63MYC    C1210279   1.020   3.491  10.792  0.8762  0.2126  0.8642
   63MYC    H2010280   1.020   3.560  10.706 -2.2050 -2.2901 -1.4459
   63MYC    H2110281   0.972   3.535  10.879  1.4178 -1.1688  1.9014
   63MYC    C1110282   0.950   3.359  10.745  0.2676 -0.1155 -0.2061
   63MYC    H1810283   0.961   3.284  10.825  1.8535  1.0310  0.7118
   63MYC    H1910284   1.025   3.325  10.673  2.2424  2.5112  0.4482
   63MYC    C1010285   0.799   3.365  10.699 -0.2456 -0.4960  0.0280
   63MYC    H1610286   0.753   3.432  10.772 -0.6506 -0.0816 -0.5945
   63MYC    H1710287   0.766   3.261  10.707 -1.8987  0.1417  3.3389
   63MYC     C910288   0.786   3.425  10.551 -0.0107 -0.0046 -0.3675
   63MYC    H1410289   0.853   3.509  10.530  0.4026 -0.7221 -2.0674
   63MYC    H1510290   0.685   3.466  10.541  0.0995  0.0156 -1.5203
   63MYC     C810291   0.813   3.318  10.442 -0.0244 -0.1815 -0.1970
   63MYC    H1210292   0.745   3.233  10.455 -1.6496  0.7956 -1.7905
   63MYC    H1310293   0.915   3.279  10.457  0.9636  1.5480 -2.0359
   63MYC     C710294   0.806   3.367  10.296  0.1237 -0.0099 -0.6981
   63MYC    H1010295   0.878   3.451  10.298 -0.2196  0.2907 -0.8271
   63MYC    H1110296   0.712   3.407  10.256  0.8683  0.5493 -1.9575
   63MYC     C610297   0.857   3.267  10.187  0.0982 -0.1026 -0.0914
   63MYC     H810298   0.804   3.177  10.220  1.5720  0.0224  3.0237
   63MYC     H910299   0.966   3.254  10.192  0.3607  1.9260  0.0604
   63MYC     C510300   0.831   3.316  10.041 -0.6345  0.0465 -0.1421
   63MYC     H610301   0.886   3.411  10.035  0.8194 -0.6840  1.0498
   63MYC     H710302   0.724   3.334  10.029 -0.7781 -0.4365  0.3804
   63MYC     C410303   0.893   3.227   9.926  0.3732  0.7314  0.5853
   63MYC     H410304   0.869   3.121   9.942  0.8097  0.1980 -1.8372
   63MYC     H510305   1.002   3.239   9.931  0.5349 -0.4794  0.2935
   63MYC     C210306   0.851   3.262   9.777  0.2479 -0.6524  0.1343
   63MYC     H210307   0.742   3.273   9.781  0.4324  1.3396  0.3428
   63MYC     O310308   0.907   3.388   9.739 -0.2250  0.1507  0.3845
   63MYC     H310309   0.989   3.368   9.691  0.4114  0.8146  1.1634
   63MYC     C110310   0.868   3.151   9.674 -0.8628  0.4093 -0.4583
   63MYC     H110311   0.788   3.078   9.689  2.0389 -2.6010  2.1374
   63MYC    C8110312   1.005   3.082   9.698 -0.3348  0.3979  0.3084
   63MYC    O8210313   1.110   3.136   9.699 -0.3099  0.1104  0.3966
   63MYC    O8310314   0.996   2.947   9.693  0.7030 -0.4302  0.5905
   63MYC   H10510315   1.084   2.921   9.726  0.4123  0.2686  2.0135
   63MYC    C2010316   0.858   3.200   9.523 -0.0429  0.8319  0.0440
   63MYC    H3410317   0.780   3.277   9.524 -2.1993 -1.1511  2.9046
   63MYC    H3510318   0.952   3.246   9.491 -0.1869  0.1720 -1.3833
   63MYC    C2110319   0.814   3.101   9.423  0.3731 -0.2154 -0.1123
   63MYC    H3610320   0.883   3.019   9.441 -0.0308 -0.4399  0.4267
   63MYC    H3710321   0.709   3.073   9.442  0.7089 -1.4222  0.0287
   63MYC    C2210322   0.834   3.162   9.274  0.1077  0.8259  0.1083
   63MYC    H3810323   0.761   3.243   9.268 -1.2364 -0.4405 -1.9321
   63MYC    H3910324   0.937   3.196   9.259  0.3028  0.0156 -0.4473
   63MYC    C2310325   0.792   3.076   9.166  0.1597  0.2618  0.0474
   63MYC    H4010326   0.864   2.994   9.172 -0.1435 -0.2507 -2.2972
   63MYC    H4110327   0.692   3.037   9.191  0.4493 -1.7765 -1.6864
   63MYC    C2410328   0.798   3.127   9.025  0.3282 -0.3436  0.4122
   63MYC    H4210329   0.758   3.229   9.029  0.8819 -0.1542  1.3101
   63MYC    H4310330   0.904   3.137   9.001  1.1726 -1.7269  3.1916
   63MYC    C2510331   0.734   3.052   8.912  0.0648  0.3884  1.1753
   63MYC    H4410332   0.789   2.957   8.904 -0.8441 -0.0122 -0.9440
   63MYC    H4510333   0.629   3.029   8.931 -1.2653  1.6916 -3.3775
   63MYC    C2610334   0.736   3.113   8.768 -0.2917 -0.1365 -1.1926
   63MYC    H4610335   0.683   3.208   8.767 -1.4153 -0.7425 -0.7475
   63MYC    H4710336   0.835   3.148   8.736 -1.0122  1.9831 -1.2481
   63MYC    C2710337   0.673   3.024   8.652  0.6404 -0.2223 -0.7352
   63MYC    H4810338   0.727   2.929   8.653  1.3138  0.1379  0.5181
   63MYC    H4910339   0.567   3.000   8.664  0.6042  1.0378  2.4916
   63MYC    C2810340   0.685   3.094   8.511  0.4294 -0.0306  0.6728
   63MYC    H5010341   0.637   3.192   8.504  0.8073  0.1598  0.7421
   63MYC    H5110342   0.791   3.102   8.487  0.0400 -1.9490 -2.1086
   63MYC    C2910343   0.608   3.017   8.391 -0.2135  0.1370  0.0261
   63MYC    H5210344   0.644   2.913   8.393  2.3779  0.9960  0.7949
   63MYC    H5310345   0.505   3.016   8.429 -0.4446 -0.2630 -0.5873
   63MYC    C3010346   0.636   3.071   8.251  0.1850 -0.4797  0.6376
   63MYC    H5410347   0.616   3.179   8.251  3.1755  0.1983  2.3405
   63MYC    H5510348   0.744   3.068   8.235  0.2248  0.7673  0.5548
   63MYC    C3110349   0.557   2.990   8.147 -0.1686  0.4677  0.2522
   63MYC    H5610350   0.582   2.885   8.167 -0.4074 -0.0126 -1.7250
   63MYC    H5710351   0.452   3.003   8.174 -0.4941  0.3122 -0.8809
   63MYC    C3210352   0.586   3.048   8.007  0.4983  0.3179  0.0340
   63MYC    H5810353   0.553   3.152   7.999 -0.1960  0.0638 -0.5309
   63MYC    H5910354   0.695   3.047   7.990  0.3363 -2.0572 -1.3716
   63MYC    C3310355   0.517   2.963   7.883 -0.8822  0.0527 -0.5352
   63MYC    H6010356   0.565   2.865   7.871 -0.2875  0.3624 -0.7407
   63MYC    H6110357   0.413   2.948   7.912 -0.1755 -1.7257  1.3143
   63MYC    C3410358   0.539   3.041   7.744 -0.0037  0.2443  0.4507
   63MYC    H6210359   0.491   3.139   7.751 -0.0634  0.2298  0.2387
   63MYC    H6310360   0.646   3.057   7.728  0.5291 -3.3969 -0.6042
   63MYC    C3510361   0.467   2.961   7.625  0.2120 -0.1303 -0.3000
   63MYC    H6410362   0.517   2.863   7.617 -0.6421 -0.5153 -1.0935
   63MYC    H6510363   0.366   2.927   7.649  0.8093  0.3127  3.3996
   63MYC    C3610364   0.478   3.040   7.488  0.3115  0.0475 -0.4508
   63MYC    H6610365   0.415   3.129   7.495 -0.6970 -0.7769  1.6324
   63MYC    H6710366   0.579   3.083   7.476  0.6066  0.0243  1.6460
   63MYC    C3710367   0.440   2.956   7.365  0.7015 -0.0323 -0.8448
   63MYC    H6810368   0.489   2.858   7.371 -4.0272 -2.6248  2.0191
   63MYC    H6910369   0.340   2.914   7.384  0.8935 -0.2768 -0.3574
   63MYC    C3810370   0.460   3.027   7.230 -0.1689  0.4518  0.0031
   63MYC    H7010371   0.413   3.126   7.222 -2.7711 -0.7308 -0.3871
   63MYC    H7110372   0.568   3.040   7.218 -0.0911 -0.4001 -0.3323
   63MYC    C3910373   0.404   2.946   7.117 -0.2658  0.4452  1.0056
   63MYC    H7210374   0.464   2.855   7.103  1.8676  1.9144  0.0795
   63MYC    H7310375   0.302   2.910   7.137  0.0938 -0.1905  1.7654
   63MYC    C4010376   0.416   3.018   6.975 -0.4317  0.1716  0.0859
   63MYC    H7410377   0.357   3.110   6.986  0.5760  0.6780  1.5946
   63MYC    H7510378   0.522   3.041   6.960 -0.1920 -0.9074  0.1094
   63MYC    C4110379   0.354   2.930   6.871  0.0365  0.7866 -0.7452
   63MYC    H7610380   0.385   2.825   6.884 -2.7656  0.2483  3.6399
   63MYC    H7710381   0.246   2.930   6.891 -0.0875 -1.2740 -1.1073
   63MYC    C4210382   0.357   2.970   6.721 -0.0722 -0.7364 -1.2560
   63MYC    H7810383   0.283   2.912   6.667 -1.4107  0.1741 -0.4568
   63MYC    H7910384   0.321   3.073   6.715  0.8851 -0.4216 -1.7446
   63MYC    C4310385   0.497   2.959   6.663  0.1054  0.7321 -0.3453
   63MYC    H8010386   0.533   2.858   6.686  1.5294  0.7960 -2.0845
   63MYC    H8110387   0.570   3.029   6.706  0.0186  0.2374  0.6133
   63MYC    H8210388   0.497   2.973   6.554  2.4568  1.0410 -0.3606
   64MYC   HH1510389   2.448   3.662   8.731 -0.6108 -0.7285  0.2504
   64MYC    C8010390   2.416   3.605   8.642 -0.2229  0.2173 -0.5104
   64MYC   H10010391   2.402   3.501   8.674  3.1863 -0.3437 -0.4089
   64MYC   H10110392   2.319   3.639   8.605 -1.0646  3.7103  3.9262
   64MYC    C7910393   2.530   3.608   8.540  0.1365  0.5520 -0.2189
   64MYC   H10210394   2.500   3.562   8.446  0.9182 -0.2544 -0.0832
   64MYC   H10310395   2.617   3.551   8.574 -1.0100  0.3640  2.6920
   64MYC    C7810396   2.584   3.747   8.497 -0.0143 -0.2237 -0.4796
   64MYC   HH1410397   2.506   3.809   8.452 -1.6598  0.0356  2.4686
   64MYC   H10410398   2.661   3.735   8.419  0.8009 -0.2583  0.3131
   64MYC    C7710399   2.667   3.834   8.600  0.8034  0.3677  0.1665
   64MYC   H10610400   2.755   3.782   8.641  1.2741 -0.8391 -2.1863
   64MYC   H10710401   2.593   3.862   8.676  1.1563 -0.7927  0.9764
   64MYC    C7610402   2.725   3.963   8.525  0.1546  0.0861 -0.7818
   64MYC   H10810403   2.641   4.021   8.484  0.4517 -0.8959 -2.8949
   64MYC   H10910404   2.783   3.929   8.439 -3.5848 -2.2470 -2.6136
   64MYC    C7510405   2.810   4.052   8.631 -0.3098 -0.1182 -0.0396
   64MYC   H11010406   2.857   4.140   8.586 -0.1762  0.6837  1.5700
   64MYC   H11110407   2.899   3.993   8.659  0.8932  0.8562 -1.6505
   64MYC    C7410408   2.746   4.086   8.773 -0.5430  0.3301 -0.3794
   64MYC   H11210409   2.822   4.147   8.822 -1.2404 -0.8445  2.3438
   64MYC   H11310410   2.740   3.997   8.836  1.1234 -0.0520 -0.7322
   64MYC    C7310411   2.616   4.168   8.770 -0.3668 -0.3337 -0.0510
   64MYC   HH1310412   2.563   4.139   8.678  0.2428 -0.8204 -0.2588
   64MYC   H11410413   2.648   4.270   8.747  0.1799 -0.1705  1.3878
   64MYC    C7210414   2.521   4.159   8.890  0.3682  0.1093 -0.8923
   64MYC   H11510415   2.569   4.191   8.983 -0.0077  1.8379 -1.2573
   64MYC   H11610416   2.500   4.053   8.908  2.1785 -0.1374 -0.1105
   64MYC    C7110417   2.386   4.234   8.870  0.5076 -1.0454  0.1745
   64MYC   H11710418   2.334   4.177   8.792 -0.6934  2.1705 -1.5635
   64MYC   H11810419   2.412   4.331   8.827 -1.5185 -0.4975  0.1023
   64MYC    C7010420   2.298   4.234   8.996 -0.7391  0.4208 -0.0950
   64MYC   H11910421   2.356   4.270   9.082 -0.4289  2.3731 -1.0583
   64MYC   H12010422   2.279   4.128   9.017  0.9113  0.5470  2.5154
   64MYC    C6910423   2.173   4.332   8.975 -0.2246  0.1461 -0.4614
   64MYC   H12110424   2.136   4.309   8.875  0.4225 -2.4996 -0.1718
   64MYC   H12210425   2.211   4.434   8.957  0.8772 -0.2730 -0.6062
   64MYC    C6810426   2.078   4.344   9.094 -0.1216  0.2188 -0.7285
   64MYC   HH1210427   2.116   4.409   9.173 -0.3484 -0.6723  0.1251
   64MYC   H12310428   2.056   4.246   9.138 -2.8388  1.5873  1.2429
   64MYC    C6710429   1.944   4.406   9.045 -0.2863 -0.1308 -0.5470
   64MYC   H12410430   1.882   4.334   8.990  0.3446 -2.3975  1.5464
   64MYC   H12510431   1.966   4.500   8.993 -2.6427  1.6299  1.4014
   64MYC    C6610432   1.850   4.455   9.160  0.0819  0.2591  0.1244
   64MYC   H12610433   1.771   4.506   9.104 -0.0359 -1.6460 -1.5758
   64MYC   H12710434   1.910   4.526   9.218 -3.3711  2.9978  0.6554
   64MYC    C6510435   1.789   4.344   9.253  0.2115  0.1316 -0.5495
   64MYC   H12810436   1.873   4.288   9.295 -0.5546 -0.2555  0.5008
   64MYC   H12910437   1.724   4.286   9.186 -0.6290  1.3178 -0.7913
   64MYC    C6410438   1.703   4.393   9.375 -0.0591 -0.3290 -0.4463
   64MYC   H13010439   1.655   4.307   9.422 -0.7367  0.2034 -0.1481
   64MYC   H13110440   1.620   4.452   9.335  2.3576  4.1417  0.4151
   64MYC    C6310441   1.779   4.486   9.477  0.0750  0.6689  0.3712
   64MYC   HH1110442   1.813   4.575   9.422 -0.5449  0.1428 -0.9217
   64MYC   H13210443   1.868   4.431   9.510  0.8786  0.8969 -1.3003
   64MYC    C6210444   1.701   4.547   9.593 -0.4140  0.3120 -0.1742
   64MYC   H13310445   1.646   4.470   9.649 -0.1277 -0.5747 -1.0852
   64MYC   H13410446   1.624   4.619   9.563 -0.1551  0.6239 -0.0982
   64MYC    C6110447   1.799   4.618   9.680 -0.4037  0.6991  0.1568
   64MYC   H13510448   1.824   4.709   9.624 -1.0365  0.4896 -0.4747
   64MYC   H13610449   1.894   4.564   9.688 -0.8003 -0.0549 -0.1520
   64MYC    C6010450   1.734   4.650   9.818 -0.2427  0.5947  0.3463
   64MYC   H13710451   1.648   4.717   9.820 -1.5976 -1.0464 -0.5331
   64MYC    C5810452   1.762   4.554   9.937  0.4875  0.2668 -0.3425
   64MYC   H13810453   1.838   4.476   9.934  0.4000 -0.1945  3.8808
   64MYC    C5910454   1.822   4.692   9.932  0.1349 -0.2551  0.1244
   64MYC   H13910455   1.787   4.760  10.009  0.9364  0.3735 -0.0450
   64MYC   H14010456   1.923   4.704   9.895 -0.3721 -1.9077 -1.9556
   64MYC    C5710457   1.653   4.515  10.038 -0.1620  0.2875  0.2452
   64MYC   HH1010458   1.599   4.598  10.085  0.9740  0.2164  1.7588
   64MYC   H14110459   1.701   4.466  10.124 -2.1653  1.0337  1.8906
   64MYC    C5610460   1.551   4.417   9.978  0.8852 -0.0394 -0.4697
   64MYC   H14210461   1.490   4.466   9.901  2.0260  1.2464 -0.5848
   64MYC   H14310462   1.470   4.396  10.048  0.7125 -0.0659 -0.6733
   64MYC    C5510463   1.611   4.287   9.913  0.0671  0.9085 -0.1442
   64MYC   H14410464   1.679   4.244   9.988  0.2541  1.5872  0.0840
   64MYC   H14510465   1.658   4.323   9.821  1.8653  0.9506  0.7486
   64MYC    C5410466   1.513   4.176   9.886 -0.4363 -0.9666 -0.1727
   64MYC   H14610467   1.470   4.129   9.976 -0.3585 -1.3264 -0.3244
   64MYC   H14710468   1.560   4.096   9.829  1.6795 -0.4372  0.7295
   64MYC    C5310469   1.400   4.221   9.777 -0.1439 -0.8272  0.4661
   64MYC   H14810470   1.438   4.299   9.710  1.8069 -1.6935  0.4894
   64MYC   H14910471   1.315   4.262   9.832 -0.4509  0.3507 -0.8375
   64MYC    C5210472   1.343   4.105   9.697  0.4380  0.4789  0.4661
   64MYC    H9910473   1.420   4.050   9.641  0.2685  0.3931  0.3181
   64MYC   H15010474   1.275   4.143   9.620  0.1618 -0.5674  0.1766
   64MYC    C5110475   1.252   4.000   9.773  0.5844  0.0771 -0.4622
   64MYC    H9710476   1.177   4.052   9.833 -1.5133  0.5278 -3.2739
   64MYC    H9810477   1.316   3.946   9.843  0.4268 -0.2836 -0.5955
   64MYC    C5010478   1.190   3.882   9.690 -0.2302  0.3879 -0.9902
   64MYC    H9510479   1.269   3.832   9.632  3.5370  1.8296  2.4136
   64MYC    H9610480   1.122   3.923   9.615 -2.5315 -0.4747  0.5183
   64MYC    C4910481   1.105   3.780   9.773  0.4751 -0.1376  0.0753
   64MYC    H9310482   1.018   3.743   9.717 -1.3863  1.4363  1.7234
   64MYC    H9410483   1.061   3.844   9.852 -0.0668 -2.6549  1.9393
   64MYC    C4810484   1.194   3.667   9.833  0.2761  0.2402  0.2593
   64MYC    H9110485   1.275   3.719   9.884  1.3862 -2.1875  1.1158
   64MYC    H9210486   1.242   3.606   9.757  2.9573 -1.0116  2.7666
   64MYC    C4710487   1.129   3.563   9.925 -0.1425 -0.2660  0.1612
   64MYC    H8910488   1.207   3.489   9.946  1.8415  1.6577  0.0095
   64MYC    H9010489   1.041   3.520   9.876 -0.1897  0.4644 -0.4162
   64MYC    C4610490   1.090   3.626  10.056  0.6640  0.0425 -0.3875
   64MYC    H8710491   1.044   3.552  10.123  0.3778  0.2823 -0.3158
   64MYC    H8810492   1.008   3.697  10.037  1.5149  0.5165 -2.5848
   64MYC    C4510493   1.205   3.676  10.140 -0.0893 -0.4905 -0.1293
   64MYC    H8510494   1.245   3.770  10.099  1.9818 -1.5607 -0.6476
   64MYC    H8610495   1.300   3.623  10.132  1.8630  2.4326  1.6561
   64MYC    C4410496   1.166   3.699  10.290  0.6933 -0.2258  0.7722
   64MYC    H8310497   1.126   3.605  10.330  2.0806 -1.5157 -0.7070
   64MYC    H8410498   1.084   3.771  10.300 -0.6827 -1.9606  3.4498
   64MYC    C1810499   1.277   3.745  10.384 -0.1578 -0.1226 -0.7194
   64MYC    H3110500   1.357   3.672  10.391 -0.0578  0.0128 -0.4380
   64MYC    C1710501   1.309   3.891  10.389  0.0051  0.2531  0.1333
   64MYC    H3010502   1.243   3.952  10.328 -1.2876 -0.9194  0.3129
   64MYC    C1910503   1.246   3.817  10.515  0.4025 -0.9570 -0.0914
   64MYC    H3210504   1.138   3.828  10.518  0.5373  2.5245 -2.0767
   64MYC    H3310505   1.302   3.780  10.600  0.1129 -0.1747  0.4428
   64MYC    C1610506   1.446   3.956  10.411  0.3921 -0.4047 -0.5219
   64MYC    H2810507   1.505   3.880  10.463  1.6012  2.2681  2.3420
   64MYC    H2910508   1.423   4.041  10.476  2.0791 -0.4239  0.1253
   64MYC    C1510509   1.506   3.997  10.277  0.6463  0.1811  0.4717
   64MYC    H2610510   1.435   4.064  10.227 -0.0015 -0.0649  1.0347
   64MYC    H2710511   1.519   3.915  10.206 -0.7204  1.8786 -1.8577
   64MYC    C1410512   1.641   4.068  10.284  0.6305  0.3891 -0.3928
   64MYC    H2410513   1.682   4.082  10.183 -0.0444  0.2741 -0.6895
   64MYC    H2510514   1.704   4.013  10.355 -0.8874  1.9567  2.3312
   64MYC    C1310515   1.614   4.216  10.326 -0.1033  0.3322 -0.3382
   64MYC    H2210516   1.544   4.219  10.411 -1.9809 -3.1533 -1.5475
   64MYC    H2310517   1.571   4.270  10.241  0.8451  0.5134 -0.7146
   64MYC    C1210518   1.746   4.290  10.355  0.4792  0.4321 -0.8821
   64MYC    H2010519   1.723   4.396  10.372  1.2279  0.9445 -2.7796
   64MYC    H2110520   1.814   4.283  10.270 -1.2010  1.4463 -2.3970
   64MYC    C1110521   1.820   4.238  10.485 -0.2974  0.3733  0.8335
   64MYC    H1810522   1.831   4.129  10.476  2.0746  0.6106  0.3357
   64MYC    H1910523   1.746   4.260  10.564 -0.9462  0.5679  0.1821
   64MYC    C1010524   1.951   4.314  10.519  0.7476 -0.7712  0.4623
   64MYC    H1610525   2.005   4.263  10.600  0.7462 -1.0853  0.2701
   64MYC    H1710526   1.927   4.411  10.563  1.1907 -0.7582  0.6755
   64MYC     C910527   2.047   4.336  10.410 -0.1919 -0.5795 -0.1092
   64MYC    H1410528   2.126   4.405  10.442 -0.1412  0.0774 -1.5784
   64MYC    H1510529   2.002   4.383  10.323  2.5933  1.9159 -0.3652
   64MYC     C810530   2.117   4.200  10.350  0.0109 -0.4910  0.1967
   64MYC    H1210531   2.043   4.120  10.364 -0.4611 -0.4436 -1.7411
   64MYC    H1310532   2.195   4.173  10.423 -0.8662 -1.2448  0.8942
   64MYC     C710533   2.187   4.201  10.210  0.0315 -0.3564  0.1062
   64MYC    H1010534   2.261   4.280  10.227  0.8047 -0.8755 -0.7563
   64MYC    H1110535   2.121   4.240  10.132  0.8543 -1.0007 -0.9434
   64MYC     C610536   2.260   4.068  10.174  0.6266 -0.1466  0.1836
   64MYC     H810537   2.191   3.985  10.192 -0.6968  1.2390  1.8747
   64MYC     H910538   2.341   4.046  10.244 -0.1570 -1.6631  0.6714
   64MYC     C510539   2.306   4.055  10.033 -0.1472 -0.3081  0.4754
   64MYC     H610540   2.350   3.955  10.020 -0.0275 -0.3911  1.3984
   64MYC     H710541   2.386   4.126  10.011  0.7342 -1.9267 -1.9397
   64MYC     C410542   2.203   4.086   9.914  0.4157 -0.3266  0.6616
   64MYC     H410543   2.163   4.187   9.925  0.0855 -0.3635 -0.1944
   64MYC     H510544   2.121   4.013   9.916 -1.1411  1.1734 -2.2812
   64MYC     C210545   2.260   4.090   9.776 -0.1873  0.1095  0.9595
   64MYC     H210546   2.326   4.178   9.780 -0.7911  0.6594 -0.4846
   64MYC     O310547   2.335   3.974   9.765  0.2544 -0.0580 -0.1131
   64MYC     H310548   2.384   3.955   9.847 -1.5963  1.7764  1.5007
   64MYC     C110549   2.155   4.115   9.659 -0.2952 -0.0288  0.4169
   64MYC     H110550   2.105   4.211   9.674 -1.0964 -0.1710 -1.1127
   64MYC    C8110551   2.042   4.014   9.662 -0.3491 -0.4641 -0.3145
   64MYC    O8210552   2.070   3.895   9.654  0.3967  0.1348 -0.5010
   64MYC    O8310553   1.915   4.067   9.659 -0.0673 -0.4322  0.1109
   64MYC   H10510554   1.923   4.162   9.677  1.4353 -0.3400 -0.8744
   64MYC    C2010555   2.206   4.117   9.509 -0.7062 -0.1257 -0.7685
   64MYC    H3410556   2.278   4.037   9.490  0.0203  0.5933 -1.1618
   64MYC    H3510557   2.124   4.088   9.442  0.6661 -3.0235 -1.3322
   64MYC    C2110558   2.280   4.249   9.453 -0.1642 -0.1957 -0.2840
   64MYC    H3610559   2.281   4.256   9.343  0.6836 -1.1349 -0.3451
   64MYC    H3710560   2.220   4.337   9.479 -0.5390  0.4176 -2.9278
   64MYC    C2210561   2.426   4.270   9.511 -1.0085 -0.3333 -0.3069
   64MYC    H3810562   2.443   4.365   9.457 -2.1944 -0.7181 -1.3987
   64MYC    H3910563   2.419   4.281   9.619  2.7217 -0.7010  0.1193
   64MYC    C2310564   2.528   4.159   9.483 -0.2689 -0.2812  0.7903
   64MYC    H4010565   2.502   4.081   9.555  3.0908 -1.3997  1.0024
   64MYC    H4110566   2.519   4.119   9.382 -1.0596 -0.1368  0.7978
   64MYC    C2410567   2.674   4.193   9.513 -0.3031  0.2506 -0.3547
   64MYC    H4210568   2.664   4.221   9.619  1.2041 -0.0609 -0.1067
   64MYC    H4310569   2.732   4.101   9.506  0.3328 -0.3762  6.3234
   64MYC    C2510570   2.733   4.303   9.428  0.1778 -0.3773 -1.1702
   64MYC    H4410571   2.666   4.389   9.438 -0.2930 -0.9129  0.7209
   64MYC    H4510572   2.833   4.330   9.464  0.1558 -0.2747 -1.1856
   64MYC    C2610573   2.750   4.271   9.277 -0.5811  0.7145  0.0009
   64MYC    H4610574   2.789   4.169   9.266  0.6485  0.8707  2.1721
   64MYC    H4710575   2.651   4.268   9.229  0.0515  3.3698 -1.6330
   64MYC    C2710576   2.836   4.370   9.187 -0.1284 -1.2361 -0.5419
   64MYC    H4810577   2.780   4.463   9.202  2.0426 -0.1864  1.5842
   64MYC    H4910578   2.933   4.387   9.234 -0.2841 -1.5176 -0.1153
   64MYC    C2810579   2.853   4.324   9.043 -0.1148  0.3199  0.9400
   64MYC    H5010580   2.888   4.220   9.052 -0.0524  0.3975  1.6576
   64MYC    H5110581   2.757   4.302   8.995  0.0190 -1.4879  1.4169
   64MYC    C2910582   2.947   4.410   8.955 -0.2699  0.3159  0.5378
   64MYC    H5210583   2.929   4.518   8.948  2.8911  0.8463 -1.9399
   64MYC    H5310584   3.047   4.395   8.996  0.0424  0.7993 -0.0355
   64MYC    C3010585   2.966   4.368   8.809 -0.0475 -0.4081  0.3057
   64MYC    H5410586   2.995   4.263   8.798  1.8351 -0.0113  1.1130
   64MYC    H5510587   2.866   4.378   8.765  0.8709  0.5360 -1.7445
   64MYC    C3110588   3.063   4.451   8.728 -0.2392 -0.0989  0.6855
   64MYC    H5610589   3.047   4.559   8.742 -2.8178 -0.2533 -0.6117
   64MYC    H5710590   3.171   4.443   8.748  0.7612  3.5901 -2.1847
   64MYC    C3210591   3.054   4.430   8.576  0.9364  0.2167 -0.1314
   64MYC    H5810592   3.103   4.336   8.546  2.0617  1.0185 -0.8420
   64MYC    H5910593   2.947   4.439   8.554  1.1278  1.9712 -0.4326
   64MYC    C3310594   3.129   4.527   8.490 -0.1438 -0.2125  0.1986
   64MYC    H6010595   3.115   4.629   8.529  0.4283 -0.9209  2.3915
   64MYC    H6110596   3.236   4.506   8.501  0.2910  0.3414 -2.3626
   64MYC    C3410597   3.099   4.513   8.338 -0.0038  0.5132  0.6593
   64MYC    H6210598   3.097   4.408   8.306 -0.9300  1.1643 -1.5927
   64MYC    H6310599   2.996   4.550   8.334  0.3055  1.3513  0.2393
   64MYC    C3510600   3.207   4.586   8.247  0.4112  0.1142 -0.4094
   64MYC    H6410601   3.203   4.694   8.265  0.0295  0.0506 -0.1098
   64MYC    H6510602   3.304   4.550   8.285 -0.1464 -0.1451  0.8097
   64MYC    C3610603   3.183   4.566   8.098  0.9186  0.5967 -0.3685
   64MYC    H6610604   3.187   4.460   8.069 -1.4211  0.4754 -0.4372
   64MYC    H6710605   3.080   4.593   8.071  1.2166  1.0377 -1.1052
   64MYC    C3710606   3.276   4.639   8.003 -0.0325  0.1048  0.1659
   64MYC    H6810607   3.278   4.747   8.021 -0.3040 -0.3223  3.3237
   64MYC    H6910608   3.375   4.598   8.023 -0.0940  0.3568  1.0532
   64MYC    C3810609   3.221   4.624   7.851  0.6976  0.3482  0.4933
   64MYC    H7010610   3.195   4.525   7.813 -0.2446  0.5129  0.6971
   64MYC    H7110611   3.124   4.675   7.845  0.8172  0.3978 -2.1632
   64MYC    C3910612   3.318   4.681   7.753  0.8025 -0.3067  0.4109
   64MYC    H7210613   3.331   4.786   7.783 -1.1093 -0.0803  0.5492
   64MYC    H7310614   3.412   4.625   7.747  0.7168 -0.2969 -1.2568
   64MYC    C4010615   3.253   4.683   7.621  0.2418 -0.5910  0.0728
   64MYC    H7410616   3.228   4.579   7.599 -3.0415  0.0980  0.0649
   64MYC    H7510617   3.175   4.760   7.612  0.9383 -0.0502 -1.7583
   64MYC    C4110618   3.353   4.736   7.511  0.5011  0.4246  0.5239
   64MYC    H7610619   3.392   4.836   7.533  0.5767  0.1559  1.6387
   64MYC    H7710620   3.445   4.677   7.508  0.7164  0.7753  0.1181
   64MYC    C4210621   3.284   4.741   7.370  0.2605  0.3739 -0.3554
   64MYC    H7810622   3.250   4.642   7.337 -1.5700  1.2159 -1.1904
   64MYC    H7910623   3.193   4.803   7.367 -0.5843 -0.7725  0.6480
   64MYC    C4310624   3.376   4.802   7.253 -0.4991  0.2844 -0.8802
   64MYC    H8010625   3.465   4.739   7.243  0.1278  0.7889  1.0588
   64MYC    H8110626   3.406   4.905   7.277 -0.2988 -0.0923  0.5790
   64MYC    H8210627   3.331   4.799   7.153  1.4468 -1.1841 -1.7745
   65MYC   HH1510628   3.344   4.220   7.247  0.8665 -2.9433  0.1418
   65MYC    C8010629   3.368   4.247   7.351  0.1297  0.5207 -0.4851
   65MYC   H10010630   3.352   4.355   7.368 -0.6395  0.2963  0.3378
   65MYC   H10110631   3.291   4.200   7.414  1.5818 -1.4665 -0.1012
   65MYC    C7910632   3.502   4.206   7.415 -0.3348 -0.0544 -0.5280
   65MYC   H10210633   3.582   4.239   7.348  0.2218  0.2976  0.2915
   65MYC   H10310634   3.508   4.099   7.437  0.1202  0.4250  2.1358
   65MYC    C7810635   3.526   4.267   7.557 -0.2298  0.6671  1.0861
   65MYC   HH1410636   3.501   4.373   7.542  2.2307  1.0199 -1.4917
   65MYC   H10410637   3.634   4.263   7.578  0.2161  0.0997 -0.9898
   65MYC    C7710638   3.450   4.199   7.678 -0.3216 -0.2784 -0.0015
   65MYC   H10610639   3.460   4.090   7.678  0.1802 -0.2418 -0.3697
   65MYC   H10710640   3.344   4.217   7.657 -0.2459  0.4719  0.2261
   65MYC    C7610641   3.481   4.258   7.820 -0.0674 -0.3705  0.3043
   65MYC   H10810642   3.449   4.363   7.816 -0.1967 -0.4431 -0.6756
   65MYC   H10910643   3.586   4.251   7.852  0.0763 -2.5636 -0.5181
   65MYC    C7510644   3.399   4.198   7.935 -0.5969  0.1460  0.3321
   65MYC   H11010645   3.412   4.090   7.917 -0.7868  0.1950 -0.1259
   65MYC   H11110646   3.299   4.238   7.915 -0.9120 -0.0565  1.4324
   65MYC    C7410647   3.443   4.229   8.078 -0.7840 -0.9264  0.0721
   65MYC   H11210648   3.421   4.336   8.083  1.2534 -0.1216 -3.8809
   65MYC   H11310649   3.551   4.227   8.097 -0.8223  1.3445  0.8361
   65MYC    C7310650   3.374   4.148   8.186 -0.2708  0.3111  0.2615
   65MYC   HH1310651   3.387   4.044   8.154 -0.1693  0.3086  0.3135
   65MYC   H11410652   3.265   4.163   8.187 -0.1343  1.4446 -0.3256
   65MYC    C7210653   3.436   4.167   8.321  0.1264  0.0152 -0.6078
   65MYC   H11510654   3.407   4.267   8.357  0.1113 -0.5332  0.9899
   65MYC   H11610655   3.545   4.155   8.311  0.3135  0.2233  0.8831
   65MYC    C7110656   3.373   4.076   8.424 -0.4736  0.1902  0.5943
   65MYC   H11710657   3.448   3.996   8.430  0.6790  1.0835 -1.1169
   65MYC   H11810658   3.283   4.033   8.381 -0.8625  1.6600 -0.1090
   65MYC    C7010659   3.339   4.126   8.567  0.0955  0.2500  0.2810
   65MYC   H11910660   3.278   4.217   8.560 -1.6819 -0.8508  0.6582
   65MYC   H12010661   3.425   4.177   8.611 -1.0133  0.2585  2.5903
   65MYC    C6910662   3.281   4.018   8.656  0.4526 -0.6725  0.1102
   65MYC   H12110663   3.344   3.928   8.649 -1.2943 -1.8280 -4.1394
   65MYC   H12210664   3.191   3.975   8.611 -0.6385  1.1643  0.4336
   65MYC    C6810665   3.250   4.057   8.804 -0.1620 -0.6679 -0.1688
   65MYC   HH1210666   3.219   4.161   8.817  2.8539  0.3886 -0.5640
   65MYC   H12310667   3.349   4.057   8.850 -0.2363 -0.0880 -0.0015
   65MYC    C6710668   3.154   3.955   8.866 -0.3585  0.1723 -0.3668
   65MYC   H12410669   3.175   3.859   8.818 -0.9035  1.0777 -2.5219
   65MYC   H12510670   3.056   3.979   8.825  0.0111 -1.0094 -2.0648
   65MYC    C6610671   3.159   3.967   9.022 -0.1366 -0.1856 -0.1945
   65MYC   H12610672   3.146   4.075   9.034  1.4691  0.0541 -0.4074
   65MYC   H12710673   3.254   3.956   9.076 -0.9227 -1.1635  1.0618
   65MYC    C6510674   3.049   3.883   9.102 -0.0768 -0.9824 -0.2735
   65MYC   H12810675   3.044   3.776   9.082 -0.9854 -1.1825  0.8912
   65MYC   H12910676   2.956   3.925   9.062 -0.4516 -0.9697  0.5948
   65MYC    C6410677   3.054   3.910   9.256  0.2733 -0.3830  0.1254
   65MYC   H13010678   3.050   4.016   9.282 -3.7824 -0.3801  0.0436
   65MYC   H13110679   3.149   3.871   9.297  1.0141  2.5066  1.3762
   65MYC    C6310680   2.933   3.836   9.317  0.2342 -0.4322  0.3348
   65MYC   HH1110681   2.929   3.733   9.280 -1.5579 -0.8217  1.5143
   65MYC   H13210682   2.842   3.886   9.283  0.8047 -1.2287 -2.6170
   65MYC    C6210683   2.923   3.825   9.471 -0.1187  0.3512 -0.2498
   65MYC   H13310684   2.879   3.916   9.514  1.6535  1.1097  0.0650
   65MYC   H13410685   3.024   3.813   9.512 -0.6890 -1.8769  0.6492
   65MYC    C6110686   2.839   3.705   9.525  0.8836  0.6826 -0.0666
   65MYC   H13510687   2.829   3.720   9.633  1.5563  0.1407  0.0761
   65MYC   H13610688   2.900   3.615   9.513 -1.4860 -1.0528  0.2939
   65MYC    C6010689   2.696   3.675   9.480 -0.2864 -0.0556  0.3620
   65MYC   H13710690   2.680   3.625   9.385 -2.5817 -0.6811  1.0079
   65MYC    C5810691   2.590   3.640   9.584 -0.0713 -0.0166  0.9945
   65MYC   H13810692   2.602   3.673   9.687 -0.6683  4.1229 -0.0685
   65MYC    C5910693   2.585   3.770   9.507  0.2043 -0.3874 -0.2468
   65MYC   H13910694   2.512   3.787   9.428 -1.3015 -0.7266  1.0285
   65MYC   H14010695   2.610   3.869   9.545 -0.5516  0.2274 -1.3053
   65MYC    C5710696   2.476   3.534   9.569 -0.5877 -0.3206  0.3620
   65MYC   HH1010697   2.516   3.454   9.632  1.7855 -1.9031 -2.8550
   65MYC   H14110698   2.486   3.487   9.471  1.8866  0.8808 -0.0592
   65MYC    C5610699   2.336   3.590   9.601  0.6569 -0.1358  0.1486
   65MYC   H14210700   2.291   3.649   9.520  3.0359 -1.0806 -1.9960
   65MYC   H14310701   2.332   3.651   9.692  0.6923 -2.0667  1.5054
   65MYC    C5510702   2.239   3.476   9.617  0.1105  0.0553  0.2752
   65MYC   H14410703   2.273   3.405   9.693  2.0850 -2.7074 -2.9138
   65MYC   H14510704   2.240   3.420   9.522 -1.2165  0.1034  0.2146
   65MYC    C5410705   2.091   3.508   9.646 -0.5599  0.0154 -0.4452
   65MYC   H14610706   2.043   3.560   9.562 -0.8112  0.1286 -0.2329
   65MYC   H14710707   2.085   3.574   9.733 -1.3275  0.2515 -0.6693
   65MYC    C5310708   2.008   3.384   9.689 -0.4087 -0.1655  0.3102
   65MYC   H14810709   2.033   3.304   9.619 -1.1993  0.7841 -1.1065
   65MYC   H14910710   1.903   3.413   9.673 -0.6593 -0.8087  0.7293
   65MYC    C5210711   2.035   3.340   9.839 -0.2902 -0.5650  0.6833
   65MYC    H9910712   2.011   3.432   9.894 -0.9127  1.0618 -2.0884
   65MYC   H15010713   2.140   3.313   9.858  0.3829  0.3444 -1.4399
   65MYC    C5110714   1.953   3.227   9.901  0.2943 -0.1475  0.7668
   65MYC    H9710715   1.970   3.144   9.832  1.1327 -0.5135  1.3898
   65MYC    H9810716   1.848   3.253   9.884 -0.9527 -2.3601  4.1193
   65MYC    C5010717   1.991   3.183  10.048 -0.4856  0.3763 -0.3683
   65MYC    H9510718   2.097   3.157  10.045 -0.2066  1.5035 -0.9950
   65MYC    H9610719   1.935   3.091  10.069 -0.2672 -0.2863 -2.4406
   65MYC    C4910720   1.968   3.288  10.157  0.5007 -0.5450  0.2618
   65MYC    H9310721   1.860   3.305  10.147  0.7171  0.4546 -0.5420
   65MYC    H9410722   2.030   3.376  10.135  2.0252 -1.5343  0.4559
   65MYC    C4810723   2.001   3.233  10.296  0.0866  0.3098 -0.3953
   65MYC    H9110724   1.939   3.143  10.304 -2.3410  2.0119  1.5072
   65MYC    H9210725   1.957   3.294  10.377 -2.2362 -2.3248  0.4844
   65MYC    C4710726   2.145   3.201  10.338 -0.2255 -0.0206  0.1914
   65MYC    H8910727   2.210   3.286  10.313 -2.6938  2.0660  0.3957
   65MYC    H9010728   2.179   3.108  10.292  1.4609  0.7985 -0.2897
   65MYC    C4610729   2.153   3.183  10.499 -0.7631 -0.0555 -0.2119
   65MYC    H8710730   2.254   3.141  10.507 -0.0007  1.4647 -1.3021
   65MYC    H8810731   2.082   3.103  10.521 -1.3646 -0.2361 -2.5857
   65MYC    C4510732   2.123   3.305  10.588 -0.3040  0.4330  0.7792
   65MYC    H8510733   2.014   3.316  10.593 -0.5655  0.9434 -2.8878
   65MYC    H8610734   2.157   3.400  10.544 -1.4119 -0.5419 -2.5101
   65MYC    C4410735   2.178   3.275  10.731  0.0294 -1.1034 -0.7108
   65MYC    H8310736   2.274   3.222  10.735 -0.2628 -1.5941  2.1232
   65MYC    H8410737   2.105   3.205  10.772 -1.4308  0.9613  0.3829
   65MYC    C1810738   2.184   3.405  10.820  0.5071 -0.0992  0.0236
   65MYC    H3110739   2.267   3.468  10.788  1.6150 -0.3230  2.2791
   65MYC    C1710740   2.056   3.447  10.884 -0.3256 -0.4881 -0.7926
   65MYC    H3010741   1.968   3.386  10.867 -1.7489  1.4340 -0.6018
   65MYC    C1910742   2.177   3.384  10.970 -0.4189 -0.0286  0.8261
   65MYC    H3210743   2.172   3.281  11.002  3.6466 -1.0309 -1.1369
   65MYC    H3310744   2.232   3.454  11.032 -0.2538 -0.9115  1.6992
   65MYC    C1610745   2.023   3.601  10.906 -0.5226 -0.1773 -0.3286
   65MYC    H2810746   1.974   3.644  10.818 -1.1195 -0.4534 -0.1397
   65MYC    H2910747   2.116   3.657  10.921 -1.0569  0.2427  1.7941
   65MYC    C1510748   1.940   3.632  11.034  0.2176  0.6517  0.0925
   65MYC    H2610749   2.002   3.650  11.123  1.8981 -1.0077 -0.6676
   65MYC    H2710750   1.863   3.556  11.052 -1.1156  1.9586 -0.0025
   65MYC    C1410751   1.851   3.756  11.022 -1.1007  0.1710 -0.7270
   65MYC    H2410752   1.787   3.765  11.111  0.5133  0.3738  0.4702
   65MYC    H2510753   1.772   3.733  10.951 -1.4354  0.1764 -0.3617
   65MYC    C1310754   1.926   3.891  11.005  0.7529  0.2671 -0.1893
   65MYC    H2210755   2.025   3.860  10.970 -0.8755 -3.1268 -2.2665
   65MYC    H2310756   1.939   3.941  11.102  1.0977 -1.4778  0.7090
   65MYC    C1210757   1.850   3.987  10.915  0.3624  0.2697  0.4437
   65MYC    H2010758   1.908   4.080  10.920  0.4028  0.1763  2.2324
   65MYC    H2110759   1.757   4.018  10.963  2.7915  5.1269  2.7436
   65MYC    C1110760   1.822   3.960  10.764  0.6432 -0.0148 -0.1617
   65MYC    H1810761   1.773   4.051  10.728 -0.4447  0.7789  2.9267
   65MYC    H1910762   1.757   3.872  10.756  1.6185 -0.7649 -0.0930
   65MYC    C1010763   1.948   3.922  10.680  0.7176 -0.3904 -0.5617
   65MYC    H1610764   2.015   3.863  10.743  0.4247 -2.6995 -2.2879
   65MYC    H1710765   2.012   4.011  10.672 -1.6689  1.5159  0.0481
   65MYC     C910766   1.923   3.844  10.557 -0.0830  0.7013  0.0383
   65MYC    H1410767   1.860   3.902  10.489 -0.0021  0.0555 -0.6028
   65MYC    H1510768   1.863   3.754  10.577  0.5360  0.7039  2.1633
   65MYC     C810769   2.046   3.783  10.484  0.0802 -0.0969 -0.2801
   65MYC    H1210770   2.093   3.700  10.537  2.9276  1.1162 -0.7284
   65MYC    H1310771   2.118   3.866  10.481  1.5456 -1.3214 -0.1980
   65MYC     C710772   2.013   3.730  10.343 -0.1945 -0.0661 -0.4582
   65MYC    H1010773   1.960   3.804  10.282 -2.1926 -0.7011  0.4231
   65MYC    H1110774   1.938   3.649  10.345 -2.1283  1.6375 -0.8625
   65MYC     C610775   2.140   3.665  10.273  0.1167 -0.2914  0.3534
   65MYC     H810776   2.169   3.570  10.318  0.9737 -0.6243 -0.8631
   65MYC     H910777   2.213   3.746  10.289  1.9715 -1.7512 -0.3171
   65MYC     C510778   2.136   3.645  10.117  0.1017  0.0106 -0.0536
   65MYC     H610779   2.147   3.742  10.068 -0.8126  1.5343  2.5586
   65MYC     H710780   2.038   3.602  10.095  0.3532 -0.1942 -0.7850
   65MYC     C410781   2.246   3.548  10.058  0.9085 -0.8075 -0.9955
   65MYC     H410782   2.238   3.519   9.952  2.9237 -1.1542 -1.0770
   65MYC     H510783   2.231   3.449  10.103  1.8273  0.5575  2.6745
   65MYC     C210784   2.387   3.598  10.084 -0.3134 -0.2880  0.0198
   65MYC     H210785   2.392   3.697  10.038  0.6702 -1.0825 -1.6720
   65MYC     O310786   2.424   3.603  10.219  0.1930 -0.5693  0.0786
   65MYC     H310787   2.412   3.514  10.256 -1.1554 -1.0487 -1.4165
   65MYC     C110788   2.488   3.521  10.004  0.3787 -0.0133 -0.2513
   65MYC     H110789   2.461   3.531   9.898 -1.6273  1.6468  0.3455
   65MYC    C8110790   2.484   3.365  10.029 -0.0779 -0.0737 -0.3163
   65MYC    O8210791   2.469   3.285   9.941 -1.1493 -0.2098  0.6257
   65MYC    O8310792   2.517   3.320  10.156  0.2465 -0.1048 -0.4642
   65MYC   H10510793   2.530   3.225  10.141  1.0866  0.3302 -2.8763
   65MYC    C2010794   2.630   3.573  10.011 -0.3495  0.0712 -0.4814
   65MYC    H3410795   2.641   3.679   9.984  2.3214 -0.6455 -2.6504
   65MYC    H3510796   2.655   3.559  10.116 -1.5174 -2.0698 -0.4264
   65MYC    C2110797   2.734   3.499   9.922  0.1647 -0.1240  0.2238
   65MYC    H3610798   2.732   3.390   9.936 -0.1956  0.0442  1.6571
   65MYC    H3710799   2.706   3.513   9.818 -1.1969 -1.1150  0.4319
   65MYC    C2210800   2.874   3.569   9.936 -0.4623 -0.6958 -0.6949
   65MYC    H3810801   2.867   3.676   9.914 -0.7177 -0.7632 -0.9475
   65MYC    H3910802   2.909   3.568  10.040 -1.4260 -1.7164 -0.3589
   65MYC    C2310803   2.976   3.519   9.836  0.4195  0.2986  0.6357
   65MYC    H4010804   3.038   3.437   9.876 -1.7860 -0.7922  2.0275
   65MYC    H4110805   2.927   3.478   9.746  2.5510  2.5272 -1.6953
   65MYC    C2410806   3.077   3.633   9.801 -0.1794  0.1558 -0.1908
   65MYC    H4210807   3.030   3.725   9.764 -0.0597 -0.2415 -1.3813
   65MYC    H4310808   3.141   3.672   9.881 -1.0708  2.9080 -0.6888
   65MYC    C2510809   3.176   3.580   9.694 -0.2542 -0.0580  0.6041
   65MYC    H4410810   3.231   3.498   9.742 -1.7493 -0.5551  1.5436
   65MYC    H4510811   3.121   3.541   9.607  0.5505 -0.8417  0.4393
   65MYC    C2610812   3.278   3.691   9.637 -0.4719 -0.1795  0.2044
   65MYC    H4610813   3.228   3.781   9.599  0.1857 -0.6814 -1.9658
   65MYC    H4710814   3.345   3.724   9.718 -0.0227 -0.6648  0.0369
   65MYC    C2710815   3.370   3.635   9.526 -0.1042  0.1293  1.1960
   65MYC    H4810816   3.453   3.706   9.513 -0.6038  0.5261 -0.0599
   65MYC    H4910817   3.417   3.538   9.549 -0.3925 -0.4190 -0.3441
   65MYC    C2810818   3.310   3.612   9.381 -0.0880 -0.5132 -0.7161
   65MYC    H5010819   3.222   3.547   9.388 -0.0816 -0.5849 -1.2570
   65MYC    H5110820   3.271   3.703   9.334  1.4631  0.2291 -0.6273
   65MYC    C2910821   3.411   3.549   9.281  0.0576 -0.5566  0.0439
   65MYC    H5210822   3.506   3.602   9.292 -0.2617  0.0414  0.0086
   65MYC    H5310823   3.431   3.447   9.315  1.6427  0.1576  1.3845
   65MYC    C3010824   3.363   3.531   9.133 -0.4163  0.5008  0.4644
   65MYC    H5410825   3.273   3.470   9.125  0.7578 -1.4069  1.0927
   65MYC    H5510826   3.337   3.630   9.095 -0.8758  0.5590  0.9273
   65MYC    C3110827   3.475   3.464   9.045  0.0759  0.1390 -0.5023
   65MYC    H5610828   3.576   3.508   9.051  0.5061 -0.6188 -1.7732
   65MYC    H5710829   3.499   3.366   9.088  1.2661 -0.8481 -3.1961
   65MYC    C3210830   3.427   3.449   8.902  0.7449  0.1481 -0.0395
   65MYC    H5810831   3.352   3.369   8.900  1.0565 -0.1385 -0.2429
   65MYC    H5910832   3.392   3.541   8.854  0.8840 -0.4853 -1.3901
   65MYC    C3310833   3.540   3.410   8.808 -0.4706 -0.4349  0.7057
   65MYC    H6010834   3.641   3.443   8.837  0.1406 -1.4829 -0.1446
   65MYC    H6110835   3.552   3.301   8.817 -0.2692 -0.3437  1.6701
   65MYC    C3410836   3.505   3.439   8.658 -0.6245  0.0012 -1.0334
   65MYC    H6210837   3.557   3.362   8.600  1.7948  0.7162  0.0403
   65MYC    H6310838   3.396   3.425   8.658 -0.7050  0.4243  0.3755
   65MYC    C3510839   3.540   3.578   8.609 -0.3175  0.2067 -0.6481
   65MYC    H6410840   3.471   3.647   8.659 -0.4333 -0.0528 -0.4471
   65MYC    H6510841   3.636   3.612   8.648  0.0255 -0.8090 -0.5835
   65MYC    C3610842   3.542   3.600   8.453 -0.4413  0.2886 -0.8395
   65MYC    H6610843   3.564   3.501   8.410 -0.3902 -0.1702  0.2268
   65MYC    H6710844   3.446   3.635   8.414  1.0170  3.0949 -2.2049
   65MYC    C3710845   3.649   3.702   8.403  0.3364  0.3940  0.1156
   65MYC    H6810846   3.643   3.798   8.455 -2.4632  0.9914 -1.1079
   65MYC    H6910847   3.750   3.667   8.427  0.4904 -0.2256 -1.2833
   65MYC    C3810848   3.649   3.720   8.253 -0.0619  0.6436  0.4332
   65MYC    H7010849   3.751   3.752   8.229  0.6111 -0.9551  1.0362
   65MYC    H7110850   3.655   3.617   8.217  1.0323  0.1094  2.0322
   65MYC    C3910851   3.526   3.792   8.187  0.8539 -0.3014  0.6477
   65MYC    H7210852   3.439   3.726   8.198 -0.9466  1.8833  0.2085
   65MYC    H7310853   3.515   3.880   8.251 -0.0673  0.5464 -0.6253
   65MYC    C4010854   3.540   3.833   8.040 -0.5198  0.2236 -1.0899
   65MYC    H7410855   3.443   3.863   7.998 -1.8016  1.0498  2.1692
   65MYC    H7510856   3.604   3.922   8.030  0.6761 -0.6087 -1.0446
   65MYC    C4110857   3.589   3.723   7.946 -0.2474  0.4181 -0.2176
   65MYC    H7610858   3.695   3.702   7.962  0.0874 -0.4025 -3.0193
   65MYC    H7710859   3.539   3.625   7.951  0.8741 -0.1015  2.1528
   65MYC    C4210860   3.594   3.773   7.793 -0.1942 -0.1867 -0.0515
   65MYC    H7810861   3.640   3.871   7.778 -0.7525  0.1732  0.5570
   65MYC    H7910862   3.652   3.698   7.737  0.6665  0.5146 -0.1121
   65MYC    C4310863   3.455   3.771   7.727 -0.1675 -0.0397 -0.0768
   65MYC    H8010864   3.403   3.861   7.762  0.4983  0.0876  0.6138
   65MYC    H8110865   3.391   3.685   7.748 -1.2908  1.0394  1.1312
   65MYC    H8210866   3.455   3.778   7.617 -1.9004 -1.9470 -0.2535
   66MYC   HH1510867   3.666   4.060   7.197  1.1610 -1.1817  1.8285
   66MYC    C8010868   3.738   4.032   7.120 -0.8032 -0.5030 -0.3970
   66MYC   H10010869   3.725   3.927   7.090 -2.0553 -0.5710  0.3378
   66MYC   H10110870   3.720   4.099   7.035 -0.1070 -1.1217 -1.0495
   66MYC    C7910871   3.887   4.054   7.168  0.0876  0.0343  0.4474
   66MYC   H10210872   3.908   4.161   7.182 -1.1873  0.2989  0.4858
   66MYC   H10310873   3.957   4.017   7.091  0.2412  0.8013  0.2024
   66MYC    C7810874   3.921   3.997   7.306 -0.0466  0.2429 -0.0457
   66MYC   HH1410875   4.025   4.028   7.316  0.5812 -1.0746 -1.9865
   66MYC   H10410876   3.923   3.888   7.308 -3.0995  0.0879 -0.1372
   66MYC    C7710877   3.835   4.047   7.430  0.3878 -1.4091 -0.2969
   66MYC   H10610878   3.734   4.004   7.435 -1.3429  2.4152  1.9672
   66MYC   H10710879   3.820   4.154   7.417 -1.9994 -1.9219 -2.4589
   66MYC    C7610880   3.905   4.016   7.567  0.2191  0.1007 -0.2756
   66MYC   H10810881   4.010   4.040   7.545  0.4860 -2.0704 -1.6366
   66MYC   H10910882   3.910   3.911   7.596 -0.1197  0.0529 -0.3826
   66MYC    C7510883   3.858   4.108   7.687  0.2375  0.0239  0.3990
   66MYC   H11010884   3.750   4.112   7.705  0.2258  0.2307  0.2905
   66MYC   H11110885   3.887   4.213   7.672  2.4249 -0.4131  1.2165
   66MYC    C7410886   3.911   4.056   7.820 -0.4666 -0.1483 -0.3395
   66MYC   H11210887   4.020   4.067   7.820 -0.5661  1.0162  0.0132
   66MYC   H11310888   3.880   3.952   7.832 -2.0715  0.0894 -2.0424
   66MYC    C7310889   3.854   4.121   7.948  0.1563 -0.6539  0.7331
   66MYC   HH1310890   3.745   4.131   7.948  0.1607 -0.1354  2.6199
   66MYC   H11410891   3.882   4.226   7.959  0.2474 -0.5945 -0.0413
   66MYC    C7210892   3.903   4.046   8.066  0.7023 -0.2730 -0.4568
   66MYC   H11510893   4.012   4.057   8.078  0.5064 -0.0310  1.3711
   66MYC   H11610894   3.876   3.940   8.056  0.3686 -0.1547 -0.8487
   66MYC    C7110895   3.848   4.096   8.197  0.2767  0.5690  0.5739
   66MYC   H11710896   3.740   4.090   8.184  0.3112  0.2221  0.4228
   66MYC   H11810897   3.876   4.201   8.211 -1.4525  1.1258  0.0971
   66MYC    C7010898   3.896   4.012   8.318 -0.9942 -0.5607  0.0005
   66MYC   H11910899   4.004   4.024   8.332 -1.1350  1.2025 -0.1853
   66MYC   H12010900   3.878   3.904   8.316  0.9393 -1.0424  2.6228
   66MYC    C6910901   3.824   4.044   8.448 -0.0858  0.7928  0.3747
   66MYC   H12110902   3.717   4.029   8.430 -0.5059 -1.0790  3.6439
   66MYC   H12210903   3.847   4.148   8.472  0.3656  0.8585 -0.2964
   66MYC    C6810904   3.877   3.949   8.562  0.8208 -1.0123  0.4046
   66MYC   HH1210905   3.987   3.955   8.563  0.8405 -1.4169  1.1106
   66MYC   H12310906   3.847   3.849   8.528  1.6144 -0.8079 -0.9971
   66MYC    C6710907   3.820   3.975   8.696  0.0769 -0.0190 -0.1663
   66MYC   H12410908   3.713   3.997   8.691  0.0906 -0.0558 -0.6388
   66MYC   H12510909   3.860   4.072   8.730 -0.9612 -0.0849  1.3465
   66MYC    C6610910   3.863   3.877   8.803  0.3421  0.6866  0.7975
   66MYC   H12610911   3.971   3.882   8.823  0.3944  2.0556  0.2454
   66MYC   H12710912   3.847   3.771   8.782 -0.4276  0.2766  3.1818
   66MYC    C6510913   3.793   3.900   8.932 -0.8966  0.4861  0.2207
   66MYC   H12810914   3.688   3.868   8.930 -0.4369 -1.0610 -1.2830
   66MYC   H12910915   3.782   4.002   8.970 -1.6637 -0.3895  2.5989
   66MYC    C6410916   3.863   3.822   9.049  0.2165  0.1405 -0.2434
   66MYC   H13010917   3.958   3.872   9.072  1.3550 -2.0615  0.1691
   66MYC   H13110918   3.897   3.722   9.018 -0.4081 -0.8493  2.0683
   66MYC    C6310919   3.778   3.803   9.184 -0.1547 -0.1002 -0.5509
   66MYC   HH1110920   3.678   3.766   9.159 -0.0325 -0.6560 -0.2175
   66MYC   H13210921   3.764   3.899   9.235  0.4003 -1.6108  2.6762
   66MYC    C6210922   3.846   3.704   9.285 -0.0418  0.1784  0.6589
   66MYC   H13310923   3.790   3.718   9.378 -1.5690 -1.0807 -0.0203
   66MYC   H13410924   3.947   3.746   9.297  0.0007  1.1441 -2.1354
   66MYC    C6110925   3.852   3.549   9.258 -0.1063 -0.2335  0.1057
   66MYC   H13510926   3.930   3.529   9.184 -1.1690  0.7832 -1.3533
   66MYC   H13610927   3.751   3.520   9.226 -0.0769 -0.3294  0.0988
   66MYC    C6010928   3.882   3.477   9.385  0.2953  0.4104  0.4897
   66MYC   H13710929   3.987   3.489   9.411  0.0655  3.3305  0.3821
   66MYC    C5810930   3.800   3.479   9.515 -0.0525 -0.3300  0.1214
   66MYC   H13810931   3.707   3.534   9.517 -1.2212 -2.1138 -1.8565
   66MYC    C5910932   3.802   3.358   9.424  0.2905  0.0408 -0.2500
   66MYC   H13910933   3.855   3.268   9.454 -1.1744 -2.0355 -3.3554
   66MYC   H14010934   3.710   3.338   9.370  0.2401 -1.5111  0.3534
   66MYC    C5710935   3.877   3.472   9.644 -0.1467 -0.0460  0.4260
   66MYC   HH1010936   3.885   3.571   9.691  0.5888  1.6096 -2.8749
   66MYC   H14110937   3.976   3.434   9.616 -0.3877  1.4214 -2.9402
   66MYC    C5610938   3.810   3.390   9.758 -0.4034  0.2807  0.0577
   66MYC   H14210939   3.886   3.388   9.838 -1.9666 -2.4926  1.6262
   66MYC   H14310940   3.805   3.285   9.726 -1.0464  0.3873 -0.1962
   66MYC    C5510941   3.682   3.435   9.821  0.2252 -0.0726  0.6135
   66MYC   H14410942   3.618   3.462   9.736  2.0894  1.9792 -0.2606
   66MYC   H14510943   3.704   3.538   9.851  2.1072 -0.0457 -0.6973
   66MYC    C5410944   3.614   3.351   9.932  0.6865 -0.5118 -0.1082
   66MYC   H14610945   3.689   3.328  10.008 -0.2775 -3.1306  0.1512
   66MYC   H14710946   3.592   3.252   9.890  0.5924  0.1468 -1.6917
   66MYC    C5310947   3.494   3.430   9.999  0.5585  0.1598 -0.6844
   66MYC   H14810948   3.429   3.441   9.912 -0.7032 -3.5306 -0.3707
   66MYC   H14910949   3.514   3.532  10.037 -0.8779 -0.0245  0.6727
   66MYC    C5210950   3.400   3.341  10.096  0.0144  0.1940  0.6314
   66MYC    H9910951   3.457   3.332  10.190  0.7226  0.6345  0.2488
   66MYC   H15010952   3.390   3.240  10.053  0.9119  1.5720 -3.1719
   66MYC    C5110953   3.260   3.408  10.121  0.5303 -0.1239 -0.7116
   66MYC    H9710954   3.202   3.416  10.028 -0.6120 -0.7599 -0.0807
   66MYC    H9810955   3.275   3.514  10.146 -1.4852  0.6385 -2.4594
   66MYC    C5010956   3.182   3.327  10.231 -0.2012 -0.6605 -0.9954
   66MYC    H9510957   3.227   3.331  10.331 -0.4295  0.2447 -0.9200
   66MYC    H9610958   3.181   3.227  10.187  1.5628 -2.3411  2.3963
   66MYC    C4910959   3.039   3.377  10.260 -0.4819 -0.3360  0.5862
   66MYC    H9310960   2.982   3.382  10.166 -0.0742  0.4282  0.3726
   66MYC    H9410961   3.052   3.484  10.277 -0.1479 -0.2199 -0.3295
   66MYC    C4810962   2.967   3.301  10.365 -0.0882 -0.1225  0.3264
   66MYC    H9110963   3.027   3.292  10.456  0.2965 -1.2492 -0.0268
   66MYC    H9210964   2.945   3.199  10.332  0.0759  0.0309 -0.2708
   66MYC    C4710965   2.830   3.367  10.394 -0.4698 -0.6593 -0.3292
   66MYC    H8910966   2.782   3.409  10.305 -0.7586  0.4188  0.3111
   66MYC    H9010967   2.852   3.454  10.457  0.3806 -1.4345  0.4763
   66MYC    C4610968   2.725   3.278  10.460 -0.8538  0.7412  0.2340
   66MYC    H8710969   2.772   3.232  10.548 -0.6013  1.8667  0.7022
   66MYC    H8810970   2.698   3.195  10.394  1.4185 -0.3661  0.6080
   66MYC    C4510971   2.597   3.343  10.503 -0.2423 -0.1766  0.0638
   66MYC    H8510972   2.524   3.265  10.527  2.7366 -3.4632 -0.6412
   66MYC    H8610973   2.564   3.411  10.424 -0.3849 -0.7996 -0.4225
   66MYC    C4410974   2.613   3.432  10.623  0.7085  0.0904 -0.2011
   66MYC    H8310975   2.525   3.492  10.645  0.7917  0.2843 -0.3919
   66MYC    H8410976   2.690   3.505  10.596  0.6789  0.5395  0.9075
   66MYC    C1810977   2.648   3.359  10.758 -0.1949  0.8571  0.5911
   66MYC    H3110978   2.728   3.287  10.750 -0.6155  0.2852  1.4165
   66MYC    C1710979   2.651   3.442  10.885  0.3072 -0.2129  0.6881
   66MYC    H3010980   2.614   3.543  10.875 -0.0106 -0.5101 -2.1075
   66MYC    C1910981   2.549   3.325  10.871 -0.9381  0.5780  1.1087
   66MYC    H3210982   2.446   3.360  10.872 -0.6983  1.7163 -1.9465
   66MYC    H3310983   2.561   3.235  10.930 -0.6111  0.3974  0.7730
   66MYC    C1610984   2.771   3.429  10.982  0.0748 -0.2773  0.0702
   66MYC    H2810985   2.815   3.329  10.974  0.5824  0.0831 -5.2111
   66MYC    H2910986   2.736   3.452  11.084 -1.6071 -0.4142 -0.4418
   66MYC    C1510987   2.884   3.535  10.950 -1.1517  0.4131  0.0268
   66MYC    H2610988   2.957   3.520  11.030 -0.6093  0.4113 -0.4675
   66MYC    H2710989   2.859   3.642  10.958  2.3277  1.4535 -1.0811
   66MYC    C1410990   2.956   3.509  10.809  0.1882  0.3633  0.1931
   66MYC    H2410991   2.883   3.525  10.729  2.4491  1.7862 -1.7129
   66MYC    H2510992   2.987   3.404  10.818 -1.6526 -0.1204  1.6096
   66MYC    C1310993   3.079   3.589  10.777  0.2359 -0.6635  0.2496
   66MYC    H2210994   3.144   3.609  10.863  1.8080 -1.7396 -0.6341
   66MYC    H2310995   3.052   3.687  10.738 -0.5999  0.5039  3.4796
   66MYC    C1210996   3.174   3.524  10.677 -0.4346  0.1932 -0.0421
   66MYC    H2010997   3.133   3.532  10.576  0.2984  1.3831 -0.2572
   66MYC    H2110998   3.197   3.419  10.698  0.5095  0.2055 -0.9275
   66MYC    C1110999   3.319   3.585  10.667  0.3637  0.1104 -0.8712
   66MYC    H1811000   3.367   3.563  10.764 -0.5883  1.0171 -0.1722
   66MYC    H1911001   3.308   3.694  10.662  0.3278  0.3100  1.7867
   66MYC    C1011002   3.404   3.536  10.544  0.1181  0.0479  0.0734
   66MYC    H1611003   3.348   3.546  10.450  1.8816  1.0780 -0.9295
   66MYC    H1711004   3.432   3.432  10.562 -0.5140 -0.6047 -2.3634
   66MYC     C911005   3.535   3.620  10.531 -0.5579 -0.0408  0.6275
   66MYC    H1411006   3.597   3.616  10.620  1.4378  0.0950 -0.6958
   66MYC    H1511007   3.502   3.723  10.510 -0.5553 -0.1661 -0.0375
   66MYC     C811008   3.617   3.567  10.398 -0.7059 -0.6348 -0.1532
   66MYC    H1211009   3.560   3.557  10.305 -0.2556  1.0255 -0.6374
   66MYC    H1311010   3.642   3.462  10.418 -3.0126 -1.0760  0.8211
   66MYC     C711011   3.752   3.647  10.380  0.7432  0.2305 -0.1918
   66MYC    H1011012   3.789   3.667  10.482  3.4140  2.3478 -1.4406
   66MYC    H1111013   3.731   3.748  10.344  3.7394  0.7340 -0.7800
   66MYC     C611014   3.856   3.573  10.288 -0.0131 -0.1308  0.2301
   66MYC     H811015   3.826   3.579  10.183 -1.6293  0.6648  0.7033
   66MYC     H911016   3.855   3.470  10.326 -2.8656 -0.3284 -0.1594
   66MYC     C511017   3.998   3.621  10.315  0.0749  0.0397  0.0809
   66MYC     H611018   4.019   3.578  10.413 -1.1749  0.0238  0.3577
   66MYC     H711019   3.995   3.728  10.337  1.4320  0.1152  0.0182
   66MYC     C411020   4.113   3.582  10.215 -0.2107  0.1050 -0.8187
   66MYC     H411021   4.097   3.476  10.194  0.1134 -0.0483 -0.3094
   66MYC     H511022   4.211   3.590  10.262 -1.1084  1.8681  0.9456
   66MYC     C211023   4.092   3.661  10.087  0.7074  0.2251 -0.1965
   66MYC     H211024   3.994   3.634  10.046 -0.4089  1.2215  1.7044
   66MYC     O311025   4.092   3.794  10.117  0.6368 -0.5255 -0.6867
   66MYC     H311026   4.170   3.831  10.073  2.3394 -1.2592  1.5595
   66MYC     C111027   4.199   3.633   9.978 -0.0503 -0.4513  0.1142
   66MYC     H111028   4.196   3.527   9.950  0.4747  0.0131 -1.8336
   66MYC    C8111029   4.335   3.681  10.023  0.1795 -0.6177 -0.5808
   66MYC    O8211030   4.436   3.612  10.031 -0.1152  0.2441  0.3261
   66MYC    O8311031   4.342   3.814  10.047  0.3236  0.2553  0.0694
   66MYC   H10511032   4.427   3.837  10.087  0.3702 -0.4762  0.4107
   66MYC    C2011033   4.167   3.728   9.856 -0.0764  0.3649  0.1590
   66MYC    H3411034   4.062   3.707   9.829  0.2336 -1.1805  0.0142
   66MYC    H3511035   4.169   3.834   9.882  0.7203  0.2789  0.4765
   66MYC    C2111036   4.262   3.703   9.733  0.0620 -0.9462 -0.0321
   66MYC    H3611037   4.363   3.717   9.773 -1.5089  3.3612  3.2037
   66MYC    H3711038   4.257   3.596   9.710 -1.0032 -0.8170 -0.4359
   66MYC    C2211039   4.217   3.792   9.612  0.0182 -0.4709 -0.4607
   66MYC    H3811040   4.111   3.772   9.595  0.0677 -2.0004  0.7416
   66MYC    H3911041   4.236   3.898   9.631 -0.8259 -0.3171 -0.4505
   66MYC    C2311042   4.302   3.760   9.490 -0.1297 -0.1024 -0.7025
   66MYC    H4011043   4.292   3.832   9.408 -0.9935 -0.1440 -0.6362
   66MYC    H4111044   4.404   3.760   9.532 -0.6329  1.1859  0.5895
   66MYC    C2411045   4.278   3.616   9.426 -0.9844 -0.2819 -0.5239
   66MYC    H4211046   4.332   3.545   9.488  0.7272 -1.0093 -2.7009
   66MYC    H4311047   4.170   3.602   9.429 -0.9474 -0.4482 -0.0047
   66MYC    C2511048   4.326   3.601   9.278 -0.1369 -0.0139  0.8205
   66MYC    H4411049   4.436   3.598   9.276 -0.0580 -1.2780  3.2652
   66MYC    H4511050   4.285   3.502   9.254  0.8097 -0.8684  2.5345
   66MYC    C2611051   4.281   3.705   9.179 -0.2180 -0.8071  0.4656
   66MYC    H4611052   4.178   3.734   9.201 -0.3756 -2.6775  2.5486
   66MYC    H4711053   4.338   3.798   9.185 -0.3567 -0.7268  0.5584
   66MYC    C2711054   4.305   3.642   9.041 -0.9358 -0.1046 -0.6712
   66MYC    H4811055   4.412   3.647   9.016 -1.1367  0.2156 -1.4973
   66MYC    H4911056   4.276   3.537   9.057  2.8360 -1.1005  0.7047
   66MYC    C2811057   4.228   3.711   8.926 -0.2927  0.4460 -0.1181
   66MYC    H5011058   4.128   3.669   8.937  0.1293 -0.6034 -0.2391
   66MYC    H5111059   4.222   3.820   8.938 -0.9698  0.3068  0.9536
   66MYC    C2911060   4.272   3.662   8.790 -0.4161  0.6471  0.3493
   66MYC    H5211061   4.380   3.673   8.779  0.1648 -1.8672  2.6471
   66MYC    H5311062   4.266   3.553   8.791  2.0629  0.3091 -3.1602
   66MYC    C3011063   4.195   3.728   8.678 -0.0750 -0.1739  0.2084
   66MYC    H5411064   4.086   3.722   8.686  0.0170 -0.6198  1.3189
   66MYC    H5511065   4.211   3.837   8.683  0.3014 -0.2172  4.7526
   66MYC    C3111066   4.250   3.671   8.540 -0.2272 -0.0445 -0.1438
   66MYC    H5611067   4.356   3.699   8.532 -0.8311  2.4721 -0.0174
   66MYC    H5711068   4.229   3.563   8.534  0.5159 -0.2385  0.4627
   66MYC    C3211069   4.162   3.717   8.424  0.2469  1.3417  0.2512
   66MYC    H5811070   4.056   3.699   8.440 -0.0979  1.3721 -1.7093
   66MYC    H5911071   4.163   3.826   8.414  1.3536  1.4800  1.5498
   66MYC    C3311072   4.208   3.655   8.286 -0.2914  0.1666 -0.0973
   66MYC    H6011073   4.317   3.651   8.270 -0.5498  0.6022 -2.3284
   66MYC    H6111074   4.180   3.549   8.281 -1.3753  0.4952 -1.9286
   66MYC    C3411075   4.125   3.706   8.160 -0.3903 -0.1747  0.5121
   66MYC    H6211076   4.019   3.684   8.173  0.1092 -4.3460 -0.9095
   66MYC    H6311077   4.121   3.814   8.145  0.0087 -0.2219  0.0324
   66MYC    C3511078   4.162   3.631   8.031 -0.7878  0.3844  0.1791
   66MYC    H6411079   4.266   3.653   8.002 -0.7641 -0.3885 -0.3376
   66MYC    H6511080   4.139   3.526   8.051  1.0371  0.1298  1.1436
   66MYC    C3611081   4.086   3.672   7.905  0.3927  0.3966 -0.3338
   66MYC    H6611082   3.982   3.688   7.934  0.7292  0.6411  0.7790
   66MYC    H6711083   4.116   3.776   7.886 -0.5184  1.3295  2.8017
   66MYC    C3711084   4.089   3.563   7.789 -0.1962  0.3087 -0.3295
   66MYC    H6811085   4.192   3.527   7.782  0.3020  1.0436  2.1257
   66MYC    H6911086   4.046   3.469   7.827  0.3265  0.6351  1.1369
   66MYC    C3811087   4.023   3.608   7.658 -0.8108  0.6480 -0.0569
   66MYC    H7011088   3.918   3.630   7.679 -0.3558 -0.6492  4.8209
   66MYC    H7111089   4.067   3.706   7.636  0.9126  0.3063  1.6080
   66MYC    C3911090   4.035   3.514   7.536 -0.5832 -0.3702 -0.3844
   66MYC    H7211091   4.139   3.498   7.506 -0.7508 -1.3355 -0.4720
   66MYC    H7311092   3.991   3.418   7.563 -2.1363  1.0738  2.7527
   66MYC    C4011093   3.945   3.574   7.426 -0.0115 -0.0547  0.3748
   66MYC    H7411094   3.838   3.558   7.443  0.1468 -2.3663 -0.3859
   66MYC    H7511095   3.951   3.683   7.424 -2.2784  0.1195 -0.0644
   66MYC    C4111096   3.984   3.516   7.287 -1.2795 -0.5601 -0.8044
   66MYC    H7611097   4.091   3.530   7.266 -0.2728 -3.2998  1.7697
   66MYC    H7711098   3.988   3.407   7.299  2.5729 -0.3822  1.4060
   66MYC    C4211099   3.916   3.580   7.173  0.3539 -0.2023 -0.0133
   66MYC    H7811100   3.809   3.592   7.194 -0.2047 -1.3930 -1.8851
   66MYC    H7911101   3.940   3.683   7.147 -0.4021 -0.4234 -1.7208
   66MYC    C4311102   3.926   3.507   7.039  0.4888  0.4251  0.6868
   66MYC    H8011103   3.860   3.560   6.970 -1.4524 -0.7872  1.5121
   66MYC    H8111104   3.897   3.401   7.049 -2.5795  0.9471 -1.3647
   66MYC    H8211105   4.030   3.504   7.003  0.0917 -0.1400 -0.4736
   67MYC   HH1511106   4.206   3.820   7.289 -0.7044 -0.5771  0.3011
   67MYC    C8011107   4.312   3.793   7.285 -0.7598 -0.7823  0.2098
   67MYC   H10011108   4.324   3.684   7.296 -0.9585 -0.6308  2.4426
   67MYC   H10111109   4.351   3.828   7.189  1.5259 -1.1412  0.9339
   67MYC    C7911110   4.388   3.874   7.393 -1.4158  0.0495  0.2496
   67MYC   H10211111   4.380   3.980   7.363  1.0022 -0.1297 -1.1941
   67MYC   H10311112   4.497   3.863   7.387 -1.3943  0.5209 -0.3737
   67MYC    C7811113   4.338   3.849   7.541  0.0520  0.4465  0.3765
   67MYC   HH1411114   4.322   3.744   7.568 -1.2870  0.5872  0.2381
   67MYC   H10411115   4.234   3.886   7.544  0.3403  1.3823 -0.5877
   67MYC    C7711116   4.421   3.906   7.655 -0.0404 -0.9958 -0.2186
   67MYC   H10611117   4.430   4.013   7.633 -1.4785 -0.8115  0.0164
   67MYC   H10711118   4.524   3.869   7.667  1.0332  1.3679 -1.4813
   67MYC    C7611119   4.350   3.906   7.796  0.2352 -0.4067  0.0567
   67MYC   H10811120   4.321   3.802   7.814 -2.8876  0.3632  0.1022
   67MYC   H10911121   4.259   3.967   7.802  1.1994  1.1089 -0.2142
   67MYC    C7511122   4.440   3.965   7.903  0.1003 -0.2762  1.1671
   67MYC   H11011123   4.445   4.074   7.900 -0.7680 -0.2521  0.1214
   67MYC   H11111124   4.542   3.926   7.892  0.3126  0.7506 -0.9906
   67MYC    C7411125   4.389   3.925   8.048 -0.8589 -0.3214  0.3620
   67MYC   H11211126   4.408   3.818   8.066  0.4105 -0.6203 -2.2576
   67MYC   H11311127   4.285   3.952   8.071 -0.7107 -0.1757  0.8632
   67MYC    C7311128   4.463   4.004   8.165  0.3423  0.0378 -1.0633
   67MYC   HH1311129   4.451   4.111   8.146 -0.7331 -0.0613 -0.9801
   67MYC   H11411130   4.569   3.975   8.173  0.0639 -0.4068  3.1188
   67MYC    C7211131   4.403   3.972   8.301 -0.2231  0.3826  0.0889
   67MYC   H11511132   4.427   3.867   8.322  0.5607  0.2742 -1.2478
   67MYC   H11611133   4.297   3.990   8.321  0.0508  2.2058  0.0775
   67MYC    C7111134   4.473   4.047   8.409 -0.6274 -0.3302 -0.6443
   67MYC   H11711135   4.453   4.153   8.387 -1.4905 -0.8368 -2.4884
   67MYC   H11811136   4.582   4.045   8.412 -0.6453 -0.4417  0.4724
   67MYC    C7011137   4.409   4.015   8.543  0.1681  0.0620  0.0306
   67MYC   H11911138   4.416   3.907   8.561 -1.4392 -0.2876 -1.2438
   67MYC   H12011139   4.302   4.035   8.531  0.1503  0.1634  0.3330
   67MYC    C6911140   4.476   4.084   8.661 -0.7114 -0.0886  0.2949
   67MYC   H12111141   4.454   4.191   8.655  1.0963  0.2860 -0.4481
   67MYC   H12211142   4.585   4.084   8.647 -0.8107  1.6425 -0.7642
   67MYC    C6811143   4.431   4.029   8.800 -0.1046 -0.6636  0.7486
   67MYC   HH1211144   4.461   3.927   8.827  1.2595 -0.5675 -0.2663
   67MYC   H12311145   4.322   4.020   8.802 -0.0809 -0.9134  0.9648
   67MYC    C6711146   4.477   4.125   8.915 -0.0252  0.5836 -0.7458
   67MYC   H12411147   4.436   4.222   8.887  0.7790  1.1076 -0.1566
   67MYC   H12511148   4.586   4.139   8.916 -0.0523  0.8432  0.2394
   67MYC    C6611149   4.434   4.084   9.053  0.0809 -0.1528 -0.0075
   67MYC   H12611150   4.432   3.975   9.061 -0.4546 -0.2208 -0.8776
   67MYC   H12711151   4.332   4.119   9.038  0.2497 -0.0197 -0.9174
   67MYC    C6511152   4.502   4.154   9.171 -0.4629 -0.1918 -0.6667
   67MYC   H12811153   4.502   4.261   9.147 -0.7975  0.2277  1.0454
   67MYC   H12911154   4.604   4.118   9.191 -1.5441 -1.6995  3.1942
   67MYC    C6411155   4.419   4.132   9.302 -0.8943  0.5522  0.5454
   67MYC   H13011156   4.435   4.026   9.328  1.9518  0.8642  0.4752
   67MYC   H13111157   4.317   4.143   9.264 -1.4891 -0.1202  1.8832
   67MYC    C6311158   4.462   4.223   9.416  0.4456  0.5019 -0.4003
   67MYC   HH1111159   4.459   4.327   9.380  0.4359  1.0883  1.2189
   67MYC   H13211160   4.564   4.203   9.451 -0.4829 -0.5931  1.8957
   67MYC    C6211161   4.369   4.206   9.545 -0.3925 -0.2756  0.2042
   67MYC   H13311162   4.396   4.108   9.586  3.8677  0.1476 -1.0350
   67MYC   H13411163   4.267   4.201   9.506 -0.9073 -1.0440  1.6003
   67MYC    C6111164   4.385   4.312   9.644  0.1804  0.5545 -0.2045
   67MYC   H13511165   4.393   4.412   9.602  1.6861  0.6786  0.3100
   67MYC   H13611166   4.480   4.290   9.693  0.8843  0.5331 -1.5401
   67MYC    C6011167   4.269   4.313   9.751  0.0093  1.8127 -0.0022
   67MYC   H13711168   4.167   4.326   9.715 -0.9261  2.3256  2.6090
   67MYC    C5811169   4.260   4.220   9.867  0.7562 -0.6350  0.6760
   67MYC   H13811170   4.336   4.143   9.863  1.0771 -0.2965  0.1473
   67MYC    C5911171   4.292   4.369   9.889  0.3011 -0.4004 -0.6499
   67MYC   H13911172   4.216   4.435   9.928  0.2898 -1.5310  1.3783
   67MYC   H14011173   4.386   4.413   9.920 -1.3259  3.3872 -0.5937
   67MYC    C5711174   4.131   4.168   9.916  0.2715 -0.3462 -0.0241
   67MYC   HH1011175   4.100   4.089   9.846  1.6965 -0.6152 -0.3905
   67MYC   H14111176   4.049   4.241   9.922  0.2442 -0.3838  0.0578
   67MYC    C5611177   4.144   4.102  10.054  0.3782 -0.4783 -0.0336
   67MYC   H14211178   4.232   4.037  10.056 -0.7777 -2.0776  1.2308
   67MYC   H14311179   4.062   4.029  10.049  1.4133 -1.5792 -2.4127
   67MYC    C5511180   4.138   4.189  10.184 -0.4591 -0.9747  0.6090
   67MYC   H14411181   4.071   4.273  10.162 -0.5783 -1.6498 -1.9327
   67MYC   H14511182   4.239   4.227  10.201 -1.2355  0.6232  1.8514
   67MYC    C5411183   4.097   4.117  10.312  0.6280 -0.5342 -0.2879
   67MYC   H14611184   4.115   4.173  10.405  0.5292 -0.5501 -0.2582
   67MYC   H14711185   4.167   4.033  10.312  0.6882 -0.4838 -0.6275
   67MYC    C5311186   3.954   4.068  10.316 -0.5426  0.1652 -0.1589
   67MYC   H14811187   3.929   4.006  10.229  0.2430 -1.6281  0.8588
   67MYC   H14911188   3.888   4.156  10.309 -2.9681 -1.2270  2.9907
   67MYC    C5211189   3.901   3.989  10.441 -0.3654 -0.2344 -0.4199
   67MYC    H9911190   3.981   3.918  10.464  0.5799  0.5619 -1.1359
   67MYC   H15011191   3.802   3.946  10.422 -1.4755  1.7625  0.5214
   67MYC    C5111192   3.876   4.074  10.563  0.2292 -0.4107  0.2982
   67MYC    H9711193   3.819   4.165  10.542  1.1544 -0.3454 -2.3007
   67MYC    H9811194   3.967   4.120  10.604  0.4919 -0.0099 -0.7078
   67MYC    C5011195   3.816   3.990  10.679 -0.3050  0.3754 -0.1892
   67MYC    H9511196   3.881   3.920  10.732  1.5214  0.0813 -2.6360
   67MYC    H9611197   3.736   3.929  10.634 -0.7732  1.4171 -0.8090
   67MYC    C4911198   3.766   4.082  10.795  0.3880  0.9258 -0.9735
   67MYC    H9311199   3.695   4.156  10.757 -1.6828  0.2323  1.2738
   67MYC    H9411200   3.854   4.135  10.832  0.4165  1.0819 -1.2623
   67MYC    C4811201   3.707   4.000  10.902  0.3404  0.5418 -0.2784
   67MYC    H9111202   3.700   4.073  10.984 -1.6656  1.0543 -0.8481
   67MYC    H9211203   3.771   3.913  10.922  2.0828  1.0643 -3.0125
   67MYC    C4711204   3.561   3.951  10.873 -0.3280 -0.7224 -0.0611
   67MYC    H8911205   3.534   3.907  10.776 -0.5226 -0.6562 -0.0377
   67MYC    H9011206   3.491   4.035  10.880  0.4271 -0.1558  0.9073
   67MYC    C4611207   3.529   3.855  10.996  0.0400 -0.6313 -0.2708
   67MYC    H8711208   3.532   3.913  11.089 -2.2710  1.4402 -1.3574
   67MYC    H8811209   3.606   3.778  10.994  0.3269 -0.3505 -0.0905
   67MYC    C4511210   3.385   3.790  10.988  0.7299  0.4073  0.5271
   67MYC    H8511211   3.387   3.721  10.903 -0.4611  0.9628  0.0367
   67MYC    H8611212   3.316   3.870  10.961 -0.3319 -0.7727 -0.4054
   67MYC    C4411213   3.332   3.731  11.120  0.1934  0.3988 -0.1075
   67MYC    H8311214   3.222   3.725  11.114  0.2338  0.3248 -0.9143
   67MYC    H8411215   3.344   3.812  11.193 -0.3680  1.8559 -1.5592
   67MYC    C1811216   3.411   3.607  11.170  0.1508 -0.3355  0.5250
   67MYC    H3111217   3.405   3.531  11.091 -0.3584  0.5816 -0.3407
   67MYC    C1711218   3.539   3.613  11.244  0.2084  0.0970  0.4203
   67MYC    H3011219   3.582   3.712  11.261  2.8842 -0.7329 -0.9691
   67MYC    C1911220   3.415   3.567  11.315 -0.7358 -0.2131  0.0781
   67MYC    H3211221   3.383   3.634  11.394  0.9724 -1.3354  1.7910
   67MYC    H3311222   3.417   3.464  11.347  0.3035 -0.4037 -0.5541
   67MYC    C1611223   3.651   3.520  11.227  0.6088 -0.3820 -0.3802
   67MYC    H2811224   3.607   3.420  11.234 -1.1810  0.4178  0.2548
   67MYC    H2911225   3.729   3.528  11.304 -0.2641 -2.2535  0.7759
   67MYC    C1511226   3.716   3.532  11.090  0.8647 -0.1169 -0.1583
   67MYC    H2611227   3.767   3.628  11.104 -1.2686  0.8333  1.6608
   67MYC    H2711228   3.644   3.539  11.007  0.7291 -1.4157 -0.1703
   67MYC    C1411229   3.812   3.419  11.069 -0.6898  0.3287 -0.0572
   67MYC    H2411230   3.758   3.327  11.040 -0.2155  0.8071 -2.7753
   67MYC    H2511231   3.853   3.404  11.169 -1.6530 -0.7002  0.2124
   67MYC    C1311232   3.921   3.433  10.958 -0.0609  0.1584  0.5763
   67MYC    H2211233   3.972   3.338  10.978 -0.6997 -0.0490  1.2491
   67MYC    H2311234   4.002   3.505  10.974  0.2544 -0.4047  1.6283
   67MYC    C1211235   3.857   3.459  10.819  0.4219 -0.3504 -0.5788
   67MYC    H2011236   3.811   3.559  10.824 -0.2426 -0.5861 -1.5332
   67MYC    H2111237   3.773   3.390  10.804  0.9475 -2.1638  3.5488
   67MYC    C1111238   3.941   3.461  10.683  0.1986  1.2082 -1.3311
   67MYC    H1811239   3.889   3.512  10.601 -1.9329 -1.1422 -1.5957
   67MYC    H1911240   3.954   3.353  10.666 -0.2852  0.8541  0.3800
   67MYC    C1011241   4.078   3.532  10.685 -0.6709  0.2875 -0.7226
   67MYC    H1611242   4.125   3.517  10.587 -0.1581  0.4803 -0.5085
   67MYC    H1711243   4.125   3.473  10.764 -1.2526 -1.6489 -1.7695
   67MYC     C911244   4.083   3.684  10.728  0.3737 -0.5124  0.2550
   67MYC    H1411245   4.019   3.703  10.815  0.3849  1.3851 -0.1053
   67MYC    H1511246   4.046   3.748  10.647 -1.7427 -0.2355  1.3684
   67MYC     C811247   4.222   3.738  10.779  0.6197  0.7656  0.0806
   67MYC    H1211248   4.244   3.692  10.876  1.6614  0.1462 -0.4359
   67MYC    H1311249   4.212   3.844  10.801 -0.8015  0.9074 -1.0250
   67MYC     C711250   4.345   3.720  10.689  0.0252  0.1927  0.6559
   67MYC    H1011251   4.364   3.615  10.666 -0.0833  0.1117  0.9298
   67MYC    H1111252   4.433   3.749  10.748 -0.8655  2.4248  0.9929
   67MYC     C611253   4.346   3.815  10.566  0.4658 -0.5178 -0.4488
   67MYC     H811254   4.322   3.918  10.598 -1.7207 -1.5357  1.4647
   67MYC     H911255   4.277   3.783  10.488  1.2667 -1.9169 -0.6109
   67MYC     C511256   4.487   3.828  10.507  0.0840  0.1110 -0.3848
   67MYC     H611257   4.560   3.852  10.586  1.1816 -1.6199 -0.8104
   67MYC     H711258   4.487   3.906  10.431  1.8304  1.8111  1.2313
   67MYC     C411259   4.537   3.707  10.424 -0.3047 -0.1581  0.4455
   67MYC     H411260   4.464   3.691  10.344 -0.7416 -3.2561  1.3242
   67MYC     H511261   4.535   3.617  10.487  0.8220  0.0000  0.7195
   67MYC     C211262   4.683   3.724  10.379  0.1981 -0.4139  0.1443
   67MYC     H211263   4.685   3.809  10.310 -1.3332  1.2630  2.0433
   67MYC     O311264   4.761   3.750  10.501 -0.5231 -0.1202  0.0272
   67MYC     H311265   4.751   3.671  10.555  3.5139 -0.8372  0.0435
   67MYC     C111266   4.744   3.607  10.291 -0.2331  0.2963  1.2539
   67MYC     H111267   4.665   3.566  10.228 -1.4145  2.7509  1.0275
   67MYC    C8111268   4.772   3.479  10.381  0.2285 -0.3850  0.4357
   67MYC    O8211269   4.829   3.474  10.484 -0.6796 -0.5285 -0.1196
   67MYC    O8311270   4.747   3.362  10.323 -0.6403  0.2985 -0.5466
   67MYC   H10511271   4.796   3.293  10.372 -0.6279  0.0059 -0.9678
   67MYC    C2011272   4.876   3.637  10.214  0.4257  0.1131  0.2526
   67MYC    H3411273   4.951   3.675  10.285  0.8269  1.4397 -0.8354
   67MYC    H3511274   4.925   3.543  10.186  0.6195  0.7456 -1.7106
   67MYC    C2111275   4.858   3.727  10.080  0.3997 -0.8839 -0.5906
   67MYC    H3611276   4.800   3.660  10.017 -2.0562 -1.4086  2.0220
   67MYC    H3711277   4.803   3.819  10.105  3.0656  0.2315  1.8386
   67MYC    C2211278   4.999   3.770  10.015  0.5765 -0.4691  0.3718
   67MYC    H3811279   5.070   3.821  10.081 -0.1746  2.3216 -0.8148
   67MYC    H3911280   5.048   3.679   9.980 -2.0957 -2.3103  1.0830
   67MYC    C2311281   4.971   3.855   9.883 -0.3777  0.4535  0.1434
   67MYC    H4011282   4.909   3.944   9.896 -2.5303 -0.8493 -0.6020
   67MYC    H4111283   5.069   3.895   9.854 -0.2497  0.6684  0.8594
   67MYC    C2411284   4.909   3.782   9.767  0.4375 -0.2962  0.2434
   67MYC    H4211285   4.971   3.696   9.738  1.5076  1.0083 -1.4893
   67MYC    H4311286   4.808   3.757   9.802 -0.2120  1.4563 -0.2951
   67MYC    C2511287   4.880   3.871   9.652  0.1163 -0.6868  0.0135
   67MYC    H4411288   4.810   3.951   9.677 -1.3465 -2.2965  1.3011
   67MYC    H4511289   4.967   3.925   9.614 -0.6716 -1.8833 -3.9707
   67MYC    C2611290   4.821   3.786   9.533 -0.6344 -0.5787 -0.0978
   67MYC    H4611291   4.896   3.708   9.512  1.5371  0.5749  2.6681
   67MYC    H4711292   4.722   3.745   9.555 -1.6442  1.4917 -0.4994
   67MYC    C2711293   4.804   3.870   9.407  0.0731  0.1156  0.4755
   67MYC    H4811294   4.709   3.924   9.415  1.6896  3.0833  1.0006
   67MYC    H4911295   4.871   3.957   9.413 -0.4823  0.7717 -1.8700
   67MYC    C2811296   4.824   3.787   9.285 -0.6528 -0.0292  0.2773
   67MYC    H5011297   4.932   3.767   9.278 -0.7928 -1.9774  2.4572
   67MYC    H5111298   4.796   3.681   9.288  0.0496 -0.2043  0.8791
   67MYC    C2911299   4.786   3.853   9.153  0.3680 -0.0056 -0.4057
   67MYC    H5211300   4.678   3.869   9.138  0.6995  1.8526 -1.1568
   67MYC    H5311301   4.837   3.950   9.155  1.9073 -0.7821  1.7127
   67MYC    C3011302   4.842   3.773   9.038  0.3293  0.3655  0.5148
   67MYC    H5411303   4.951   3.762   9.040  0.3558  0.0588 -1.1500
   67MYC    H5511304   4.819   3.666   9.050 -1.6932  0.8354  1.1460
   67MYC    C3111305   4.779   3.811   8.898 -0.0185  0.1053  0.1911
   67MYC    H5611306   4.671   3.794   8.911 -0.2688  0.3952 -1.3774
   67MYC    H5711307   4.798   3.916   8.875  0.6687  0.6226  2.7991
   67MYC    C3211308   4.826   3.715   8.783 -0.3429 -0.2558 -0.2990
   67MYC    H5811309   4.932   3.732   8.763  0.1274 -1.7453  0.7207
   67MYC    H5911310   4.808   3.612   8.814 -3.4952 -0.2711 -1.8637
   67MYC    C3311311   4.731   3.722   8.658  0.8869 -0.5432 -0.2386
   67MYC    H6011312   4.638   3.674   8.691  0.8999  0.7425  1.8622
   67MYC    H6111313   4.697   3.825   8.637 -0.8951 -1.2357 -0.9952
   67MYC    C3411314   4.776   3.649   8.525  0.4403 -0.2874  0.4420
   67MYC    H6211315   4.876   3.673   8.488 -0.3025 -0.7978 -2.1021
   67MYC    H6311316   4.774   3.543   8.553  0.4869  0.1541  2.1858
   67MYC    C3511317   4.670   3.668   8.411 -0.3097  0.9785  0.0605
   67MYC    H6411318   4.567   3.669   8.451 -0.4384 -0.6221 -0.1543
   67MYC    H6511319   4.685   3.760   8.353 -1.5002 -0.1979 -2.2487
   67MYC    C3611320   4.684   3.562   8.293  0.1969 -0.5013 -0.5823
   67MYC    H6611321   4.791   3.551   8.271  0.4236  2.7085 -1.5418
   67MYC    H6711322   4.659   3.461   8.327  0.5951 -0.4359 -0.0788
   67MYC    C3711323   4.606   3.592   8.168 -0.2069 -0.7848  0.2703
   67MYC    H6811324   4.503   3.564   8.197  0.3994  0.6480  4.5359
   67MYC    H6911325   4.610   3.696   8.133 -0.1766 -0.7996  0.2304
   67MYC    C3811326   4.657   3.510   8.047  0.6625 -0.0281 -0.6291
   67MYC    H7011327   4.763   3.523   8.023  0.5558 -0.9425 -1.7032
   67MYC    H7111328   4.664   3.401   8.057  2.5030  0.0317 -1.0130
   67MYC    C3911329   4.572   3.544   7.922 -0.1189  0.3357 -0.0563
   67MYC    H7211330   4.469   3.513   7.942  0.2746 -0.2036  1.1916
   67MYC    H7311331   4.568   3.651   7.896  1.5188  0.1732 -1.0902
   67MYC    C4011332   4.605   3.453   7.805 -0.3014 -0.0183 -0.2320
   67MYC    H7411333   4.714   3.447   7.800  0.0356 -0.8351  4.1667
   67MYC    H7511334   4.576   3.349   7.825  0.9000 -1.1012 -3.3397
   67MYC    C4111335   4.524   3.493   7.678  0.0980  0.7075 -0.2737
   67MYC    H7611336   4.418   3.474   7.699  0.0674 -0.3922 -1.3116
   67MYC    H7711337   4.538   3.601   7.674 -4.1061  1.5092  1.7074
   67MYC    C4211338   4.582   3.436   7.547 -0.7313  0.1867 -0.5747
   67MYC    H7811339   4.690   3.441   7.534 -0.5890  0.9985  0.7956
   67MYC    H7911340   4.569   3.327   7.537 -0.4075  0.0989 -0.0857
   67MYC    C4311341   4.513   3.502   7.431  0.3258  0.8396  0.7289
   67MYC    H8011342   4.534   3.608   7.413 -0.8584  0.8136 -1.0928
   67MYC    H8111343   4.406   3.497   7.452  0.5831 -3.6490  2.0680
   67MYC    H8211344   4.529   3.435   7.345 -1.7176 -1.4400  1.9957
   68MYC   HH1511345   4.882   3.149   8.282 -1.4392 -0.1612  0.5251
   68MYC    C8011346   4.947   3.211   8.344 -0.8309 -0.0002 -0.2522
   68MYC   H10011347   5.041   3.155   8.347 -2.3369 -2.6887  0.5518
   68MYC   H10111348   4.968   3.306   8.294 -1.3601 -0.1094 -0.6807
   68MYC    C7911349   4.911   3.220   8.487 -0.5071  0.2229 -1.1429
   68MYC   H10211350   4.878   3.121   8.520  1.4772 -0.2560 -0.5009
   68MYC   H10311351   4.830   3.295   8.486  0.5037  1.3388 -1.3469
   68MYC    C7811352   5.020   3.273   8.581 -0.1824  0.7998 -0.6181
   68MYC   HH1411353   5.017   3.383   8.576  1.2766  0.8528 -0.6179
   68MYC   H10411354   5.121   3.251   8.547  0.2465  0.7391  0.6569
   68MYC    C7711355   4.998   3.258   8.733 -0.5021 -0.3012 -0.6868
   68MYC   H10611356   4.993   3.151   8.755  0.8948 -0.4549 -1.0315
   68MYC   H10711357   4.905   3.307   8.765 -0.7219 -0.1176 -1.5822
   68MYC    C7611358   5.129   3.295   8.815  0.0542  0.0309 -0.2959
   68MYC   H10811359   5.196   3.376   8.784  2.0391 -0.6303  2.0040
   68MYC   H10911360   5.186   3.204   8.794 -1.3489 -0.6564 -1.2724
   68MYC    C7511361   5.120   3.303   8.969 -0.5309 -0.3173 -0.8301
   68MYC   H11011362   5.218   3.320   9.016 -1.3868 -0.2870  1.0070
   68MYC   H11111363   5.082   3.213   9.019  1.5523  0.3480  2.2371
   68MYC    C7411364   5.023   3.410   9.015 -0.6367 -0.0196 -0.3731
   68MYC   H11211365   4.922   3.378   8.988 -1.2004  1.7230 -0.4318
   68MYC   H11311366   5.027   3.508   8.966 -0.2646  0.3173  0.3094
   68MYC    C7311367   5.016   3.427   9.167 -0.6208 -0.3251 -1.0319
   68MYC   HH1311368   5.026   3.328   9.214 -1.3528 -0.2378 -0.6728
   68MYC   H11411369   4.914   3.461   9.190  0.1622  0.9587  0.8376
   68MYC    C7211370   5.133   3.519   9.217 -0.3216 -1.1406 -0.2265
   68MYC   H11511371   5.122   3.617   9.169  5.0019  0.0601  0.4094
   68MYC   H11611372   5.234   3.491   9.185  0.7024  1.0745  0.7933
   68MYC    C7111373   5.136   3.517   9.372  0.4509  0.8125  0.6159
   68MYC   H11711374   5.128   3.414   9.409  1.5445  0.0601 -1.1171
   68MYC   H11811375   5.045   3.570   9.402 -0.6385 -0.2342 -0.6856
   68MYC    C7011376   5.257   3.588   9.434 -0.9036  0.0169 -0.0517
   68MYC   H11911377   5.285   3.674   9.372 -0.3911  0.0412  0.2084
   68MYC   H12011378   5.342   3.519   9.423 -1.7807 -0.8683 -1.8971
   68MYC    C6911379   5.239   3.630   9.579  0.1965 -0.2093 -0.2369
   68MYC   H12111380   5.214   3.540   9.637 -1.2162  0.5507  0.3737
   68MYC   H12211381   5.150   3.691   9.597 -0.0860 -0.5995 -0.2908
   68MYC    C6811382   5.371   3.696   9.642  0.3185 -0.0734 -0.5911
   68MYC   HH1211383   5.383   3.786   9.580 -1.7747 -0.2909 -1.3810
   68MYC   H12311384   5.453   3.625   9.628 -0.4099 -0.9042 -0.6963
   68MYC    C6711385   5.351   3.731   9.793  1.0117  0.2264  0.1276
   68MYC   H12411386   5.323   3.637   9.842 -1.7573  0.4010 -0.9714
   68MYC   H12511387   5.272   3.805   9.807 -0.1689 -0.9551 -0.1227
   68MYC    C6611388   5.470   3.797   9.851 -0.4302  0.3257 -0.1340
   68MYC   H12611389   5.474   3.902   9.817 -1.0453  0.1668 -0.7226
   68MYC   H12711390   5.562   3.749   9.816 -0.9686 -0.8005 -0.0398
   68MYC    C6511391   5.451   3.806  10.007 -0.4569  0.4437  0.5144
   68MYC   H12811392   5.416   3.708  10.041  1.5826 -0.1710  0.9513
   68MYC   H12911393   5.375   3.882  10.027 -1.4531 -0.4805  0.3364
   68MYC    C6411394   5.586   3.846  10.075 -0.2160 -0.9035  0.2833
   68MYC   H13011395   5.614   3.941  10.029 -3.2900 -0.0736 -0.1306
   68MYC   H13111396   5.669   3.782  10.044  2.0169  1.4729  1.0322
   68MYC    C6311397   5.582   3.844  10.228 -0.2461  0.1653 -0.4875
   68MYC   HH1111398   5.679   3.886  10.258 -0.3728  0.5530 -0.6060
   68MYC   H13211399   5.577   3.739  10.257  1.1708  0.1536 -0.2163
   68MYC    C6211400   5.467   3.930  10.292  0.1323 -0.7513 -0.1756
   68MYC   H13311401   5.388   3.863  10.328 -1.6458  1.5595  0.4384
   68MYC   H13411402   5.419   3.992  10.215  2.4727  1.3324 -0.1018
   68MYC    C6111403   5.519   4.011  10.411  0.3723  0.0212  0.6419
   68MYC   H13511404   5.590   4.089  10.381 -1.9939  2.8477  1.9452
   68MYC   H13611405   5.553   3.931  10.478 -1.7015 -0.1230  1.6173
   68MYC    C6011406   5.405   4.097  10.466  0.4140  0.0480 -0.1344
   68MYC   H13711407   5.379   4.184  10.407 -0.0007 -0.2289 -0.3627
   68MYC    C5811408   5.289   4.034  10.543 -0.3838  0.5906 -0.1330
   68MYC   H13811409   5.299   3.929  10.569 -2.2160  0.3613 -0.2242
   68MYC    C5911410   5.391   4.120  10.614  0.2153  0.5541 -0.4449
   68MYC   H13911411   5.359   4.220  10.643  1.8048  1.5019 -1.7810
   68MYC   H14011412   5.450   4.063  10.685 -0.4278 -0.1129 -0.4322
   68MYC    C5711413   5.150   4.069  10.505  0.7049 -0.2993 -0.5245
   68MYC   HH1011414   5.124   4.012  10.415  0.2866  0.0824 -0.6496
   68MYC   H14111415   5.150   4.174  10.474  1.6236 -0.2303 -0.3180
   68MYC    C5611416   5.038   4.051  10.620 -0.1439  0.2059  0.3160
   68MYC   H14211417   5.067   4.102  10.713 -1.2270  0.4199  0.5469
   68MYC   H14311418   5.025   3.943  10.628 -0.9118  0.3852  1.5881
   68MYC    C5511419   4.902   4.116  10.583 -0.0014  0.0596  0.3533
   68MYC   H14411420   4.873   4.107  10.478 -0.3166  0.9371  0.3528
   68MYC   H14511421   4.925   4.222  10.597 -0.3513  0.1716  0.0976
   68MYC    C5411422   4.782   4.068  10.682 -0.0081 -0.0787  0.1008
   68MYC   H14611423   4.800   4.096  10.787 -2.6382 -1.0695  0.8960
   68MYC   H14711424   4.762   3.961  10.669  2.0272 -0.4100 -0.7330
   68MYC    C5311425   4.658   4.151  10.650 -0.3912 -0.3156 -1.0488
   68MYC   H14811426   4.627   4.123  10.548  0.3098 -0.7369 -1.1537
   68MYC   H14911427   4.696   4.253  10.657 -1.3315  0.0169 -0.5650
   68MYC    C5211428   4.545   4.138  10.745  0.6389  0.2817  0.0412
   68MYC    H9911429   4.579   4.181  10.840  1.1853 -1.3739  0.6375
   68MYC   H15011430   4.526   4.031  10.759  0.3478  0.1104 -1.4709
   68MYC    C5111431   4.421   4.211  10.687 -0.0417  0.3423 -0.1702
   68MYC    H9711432   4.386   4.154  10.601 -1.7338  0.4097  0.4287
   68MYC    H9811433   4.448   4.315  10.664  1.6584  0.3481  1.6115
   68MYC    C5011434   4.313   4.227  10.793 -0.3821 -0.7726  0.5117
   68MYC    H9511435   4.361   4.279  10.877  0.5105  0.8764 -0.9329
   68MYC    H9611436   4.283   4.127  10.824 -2.4280 -0.7861 -1.2963
   68MYC    C4911437   4.182   4.306  10.765 -0.5416  0.3196 -0.1059
   68MYC    H9311438   4.125   4.248  10.692  2.1143  0.3822 -2.3533
   68MYC    H9411439   4.202   4.397  10.708 -0.1386  1.2992  1.5279
   68MYC    C4811440   4.103   4.331  10.893  0.0039 -1.0591  0.5862
   68MYC    H9111441   4.097   4.238  10.951  1.0607  0.2000  2.8212
   68MYC    H9211442   3.996   4.354  10.879  0.1106 -0.0225  1.3737
   68MYC    C4711443   4.151   4.432  10.995 -0.6200 -0.7135  0.0377
   68MYC    H8911444   4.248   4.401  11.037 -0.2995  0.1045 -0.0911
   68MYC    H9011445   4.085   4.425  11.082 -0.6394 -0.2568  0.0628
   68MYC    C4611446   4.142   4.574  10.944  0.0965  0.4413 -0.8341
   68MYC    H8711447   4.034   4.586  10.934 -0.5578 -1.9938  1.7179
   68MYC    H8811448   4.198   4.564  10.851  1.2361 -0.9100 -0.0495
   68MYC    C4511449   4.191   4.692  11.035 -0.1483  0.9313  0.4008
   68MYC    H8511450   4.297   4.680  11.061  0.3699  0.5721 -1.6399
   68MYC    H8611451   4.125   4.676  11.121 -0.6774 -3.3941 -0.5393
   68MYC    C4411452   4.173   4.830  10.969  0.0018 -0.2757 -0.3019
   68MYC    H8311453   4.150   4.902  11.049 -0.2273  0.4861 -1.0385
   68MYC    H8411454   4.090   4.819  10.898  0.4288 -0.1353 -0.8281
   68MYC    C1811455   4.304   4.860  10.890  0.2137 -0.4164  0.1567
   68MYC    H3111456   4.393   4.866  10.951 -0.1747 -0.2333  0.7188
   68MYC    C1711457   4.331   4.810  10.748 -0.5202  1.0694 -0.2207
   68MYC    H3011458   4.257   4.748  10.697  1.0254 -0.8819 -0.1911
   68MYC    C1911459   4.290   4.950  10.774 -0.3692 -0.1001 -0.2324
   68MYC    H3211460   4.188   4.985  10.766  0.0354  0.7681 -2.3417
   68MYC    H3311461   4.372   5.022  10.771  1.1445 -1.6520  1.2875
   68MYC    C1611462   4.468   4.769  10.702 -0.0759 -0.3389  0.3026
   68MYC    H2811463   4.537   4.851  10.725  1.3514 -1.8387  1.5984
   68MYC    H2911464   4.473   4.765  10.593  1.4705 -0.9224  0.3740
   68MYC    C1511465   4.525   4.638  10.769 -0.0221 -0.7597  0.0792
   68MYC    H2611466   4.472   4.549  10.733  1.0052 -2.1093  1.7230
   68MYC    H2711467   4.501   4.639  10.876 -0.7245 -0.1531 -0.0765
   68MYC    C1411468   4.678   4.617  10.735  0.2346 -0.2782  0.0835
   68MYC    H2411469   4.731   4.713  10.747  0.9405  0.4658 -5.7314
   68MYC    H2511470   4.687   4.608  10.626 -0.3893  3.2984 -0.3984
   68MYC    C1311471   4.745   4.506  10.805 -0.2195  0.2462 -0.3260
   68MYC    H2211472   4.682   4.417  10.796 -0.5173  0.3155  0.9020
   68MYC    H2311473   4.742   4.521  10.914 -2.2948  3.9620 -0.7179
   68MYC    C1211474   4.875   4.463  10.752  0.8433 -0.7733 -0.6038
   68MYC    H2011475   4.865   4.470  10.643  0.5525  1.6426 -0.4873
   68MYC    H2111476   4.913   4.365  10.782  5.1117  1.1233  0.9246
   68MYC    C1111477   4.993   4.560  10.793 -0.0474  0.0685 -0.1328
   68MYC    H1811478   4.996   4.585  10.899 -1.9388  1.0892 -0.2861
   68MYC    H1911479   4.980   4.661  10.752  1.0723 -0.0146 -0.7334
   68MYC    C1011480   5.131   4.500  10.740  0.3946  0.1889 -0.1970
   68MYC    H1611481   5.119   4.476  10.633 -1.8860  1.0412 -0.1884
   68MYC    H1711482   5.158   4.405  10.786  2.8723  0.5404 -0.7532
   68MYC     C911483   5.260   4.589  10.749  0.8743 -0.1546 -1.0390
   68MYC    H1411484   5.289   4.618  10.851  1.0844 -0.2108 -1.0837
   68MYC    H1511485   5.240   4.682  10.694  0.9067  0.2815 -0.3282
   68MYC     C811486   5.381   4.508  10.701  0.2708  0.0548 -0.0246
   68MYC    H1211487   5.357   4.472  10.600 -1.1557  1.4071 -0.1945
   68MYC    H1311488   5.405   4.414  10.752  0.7989 -0.3459 -0.9648
   68MYC     C711489   5.509   4.588  10.690  0.4798 -0.5294 -0.0212
   68MYC    H1011490   5.534   4.627  10.790  1.3532 -0.3005 -0.3216
   68MYC    H1111491   5.482   4.676  10.630  2.0048 -1.6493 -2.5013
   68MYC     C611492   5.628   4.515  10.625  0.1560  0.0020  0.2996
   68MYC     H811493   5.653   4.444  10.704  0.8837 -0.6138 -0.4734
   68MYC     H911494   5.712   4.585  10.625 -1.0903  1.5699  0.4595
   68MYC     C511495   5.597   4.460  10.473 -0.3596 -0.2974 -0.9848
   68MYC     H611496   5.567   4.546  10.413  1.0632  0.4283 -0.7058
   68MYC     H711497   5.524   4.378  10.474 -1.2043  0.4242  0.4347
   68MYC     C411498   5.726   4.403  10.416 -0.1927 -0.5271  0.2347
   68MYC     H411499   5.761   4.317  10.474 -0.7991 -0.0844  1.2910
   68MYC     H511500   5.815   4.463  10.440  0.5084 -1.2926 -0.3913
   68MYC     C211501   5.714   4.366  10.268 -0.0684  0.3734  0.2797
   68MYC     H211502   5.630   4.296  10.266 -0.0898  0.3381  1.5998
   68MYC     O311503   5.689   4.486  10.189  0.2315  0.7656 -0.5174
   68MYC     H311504   5.769   4.540  10.185 -0.4211  1.6834 -2.2713
   68MYC     C111505   5.826   4.284  10.213 -0.0557 -0.0395 -0.2068
   68MYC     H111506   5.827   4.197  10.280 -2.6197 -1.0152 -1.3156
   68MYC    C8111507   5.960   4.357  10.226 -0.3041  0.3515  0.2066
   68MYC    O8211508   5.983   4.473  10.184  0.2362 -0.6590 -0.2287
   68MYC    O8311509   6.048   4.289  10.297 -0.0412 -0.6140 -0.3018
   68MYC   H10511510   6.119   4.353  10.315  0.0799 -0.7487 -0.2970
   68MYC    C2011511   5.790   4.244  10.064 -0.6254 -0.2852 -0.2391
   68MYC    H3411512   5.695   4.190  10.058  0.2012 -2.1610  1.9356
   68MYC    H3511513   5.781   4.333  10.001 -0.0010 -1.0996 -1.5258
   68MYC    C2111514   5.895   4.151  10.004  1.3477  0.3773 -0.3662
   68MYC    H3611515   5.993   4.187  10.036  0.2386  2.7354  0.6491
   68MYC    H3711516   5.879   4.053  10.051  1.1333 -0.7887 -2.7205
   68MYC    C2211517   5.908   4.146   9.851 -0.7123  0.5735  0.0268
   68MYC    H3811518   5.915   4.250   9.816 -0.0047  0.5296  0.0365
   68MYC    H3911519   6.006   4.100   9.836  0.3319  3.0308 -1.2643
   68MYC    C2311520   5.781   4.072   9.788  0.0872 -0.2158 -0.6036
   68MYC    H4011521   5.766   3.976   9.840  0.8295  0.3972  0.7935
   68MYC    H4111522   5.689   4.121   9.820  1.1882  0.2447  2.1593
   68MYC    C2411523   5.794   4.059   9.633 -0.2021  0.4873 -0.3509
   68MYC    H4211524   5.798   4.157   9.583  0.6900  1.0441  0.7742
   68MYC    H4311525   5.887   4.011   9.603 -0.2249 -0.4447  1.0108
   68MYC    C2511526   5.669   3.985   9.572  0.0167 -0.5459  0.3164
   68MYC    H4411527   5.671   3.880   9.606 -0.2019 -0.6131  0.1183
   68MYC    H4511528   5.574   4.031   9.598  0.1543  0.7293 -1.3232
   68MYC    C2611529   5.672   3.967   9.418 -0.4565  0.2251 -0.7294
   68MYC    H4611530   5.660   4.069   9.380  0.2662  1.1610  1.4334
   68MYC    H4711531   5.765   3.914   9.391 -2.0548 -2.4540 -1.3143
   68MYC    C2711532   5.561   3.874   9.376  0.4553  0.1298  0.5724
   68MYC    H4811533   5.569   3.771   9.412 -2.8250 -1.6935 -3.2742
   68MYC    H4911534   5.466   3.911   9.416  0.0645 -0.2368 -0.0075
   68MYC    C2811535   5.553   3.879   9.223  0.2809 -0.7475  0.8842
   68MYC    H5011536   5.535   3.983   9.191  0.2416 -0.7198  0.9947
   68MYC    H5111537   5.653   3.843   9.198 -0.6023 -2.6703 -0.0275
   68MYC    C2911538   5.450   3.785   9.162 -0.0336 -0.0963  1.5102
   68MYC    H5211539   5.480   3.686   9.200 -0.1068 -0.0767  1.6161
   68MYC    H5311540   5.353   3.808   9.207 -0.5138 -0.2397  0.5708
   68MYC    C3011541   5.459   3.785   9.006  0.1926  0.6464 -0.6978
   68MYC    H5411542   5.459   3.890   8.974 -0.2848  0.9561  0.2715
   68MYC    H5511543   5.555   3.734   8.990  0.2438  0.7838 -0.8335
   68MYC    C3111544   5.348   3.694   8.944  0.0874 -0.5775  0.1741
   68MYC    H5611545   5.380   3.593   8.972  1.5344 -0.3436 -0.5529
   68MYC    H5711546   5.250   3.703   8.993  0.0891 -0.6533  0.1925
   68MYC    C3211547   5.321   3.692   8.793  0.0830 -0.6400 -0.1338
   68MYC    H5811548   5.228   3.641   8.766 -0.1171 -0.0548 -0.5704
   68MYC    H5911549   5.326   3.797   8.763  1.0427 -0.5112  0.4442
   68MYC    C3311550   5.433   3.629   8.712 -0.9066  0.0535  0.3908
   68MYC    H6011551   5.521   3.689   8.738  0.2680 -0.9086 -1.2137
   68MYC    H6111552   5.448   3.525   8.744  2.5045  1.0765  2.7411
   68MYC    C3411553   5.419   3.646   8.554 -0.1518 -0.2278 -1.3496
   68MYC    H6211554   5.397   3.750   8.529 -1.2550  0.0590  0.6090
   68MYC    H6311555   5.513   3.625   8.502  0.3681 -1.1574 -0.0914
   68MYC    C3511556   5.312   3.558   8.494 -0.7933 -0.5509 -0.4081
   68MYC    H6411557   5.329   3.455   8.525  2.7324 -0.0613 -0.3790
   68MYC    H6511558   5.214   3.595   8.528 -1.1393 -2.3688  0.6504
   68MYC    C3611559   5.323   3.554   8.336  0.5042  0.0652  0.2393
   68MYC    H6611560   5.328   3.654   8.293  1.6454 -0.4101 -0.7876
   68MYC    H6711561   5.413   3.495   8.317 -1.1390 -2.4473 -0.2904
   68MYC    C3711562   5.197   3.478   8.268 -0.1661 -0.0911  0.1671
   68MYC    H6811563   5.201   3.373   8.299  0.4496  0.2709  1.3858
   68MYC    H6911564   5.108   3.531   8.306 -0.4311 -0.6909  0.3968
   68MYC    C3811565   5.187   3.492   8.123  0.4790 -0.0252  0.4867
   68MYC    H7011566   5.175   3.598   8.098 -3.1930  0.0061  1.7841
   68MYC    H7111567   5.278   3.447   8.081  1.7213  1.2761  1.7086
   68MYC    C3911568   5.080   3.413   8.054 -0.2231 -0.9898  0.4713
   68MYC    H7211569   5.102   3.308   8.077  0.9525 -1.5238 -2.6143
   68MYC    H7311570   4.982   3.435   8.098 -0.5562  0.1044 -0.7595
   68MYC    C4011571   5.092   3.441   7.902 -0.0116 -0.7354  0.5612
   68MYC    H7411572   5.051   3.539   7.876 -0.6616 -1.2379 -0.3688
   68MYC    H7511573   5.195   3.440   7.864  0.3969 -0.1280  1.5956
   68MYC    C4111574   5.011   3.350   7.820  0.0499  0.0685 -0.3086
   68MYC    H7611575   5.070   3.258   7.811  0.0179  0.1773 -1.9507
   68MYC    H7711576   4.917   3.327   7.870  0.7894 -1.0345  0.6405
   68MYC    C4211577   4.982   3.400   7.674 -0.1328 -0.1938 -0.3028
   68MYC    H7811578   4.896   3.468   7.674 -0.6585 -0.8482 -0.0225
   68MYC    H7911579   5.070   3.438   7.620 -0.7243 -1.5784 -2.3608
   68MYC    C4311580   4.930   3.283   7.589 -0.0580 -0.6001 -0.0125
   68MYC    H8011581   4.904   3.318   7.489 -0.2502 -1.1645 -0.1641
   68MYC    H8111582   4.842   3.234   7.633 -1.2503  1.0232 -0.5192
   68MYC    H8211583   5.002   3.202   7.572 -0.1451 -0.7193  0.1699
   69MYC   HH1511584   5.591   3.466   6.704  1.0463 -1.7654 -0.0967
   69MYC    C8011585   5.492   3.434   6.740  0.3188  0.2789 -0.1348
   69MYC   H10011586   5.418   3.468   6.667  0.8725 -1.0051 -1.3555
   69MYC   H10111587   5.497   3.324   6.732 -0.8925 -0.0233  2.2971
   69MYC    C7911588   5.475   3.498   6.883  0.0641 -1.1627 -0.3846
   69MYC   H10211589   5.370   3.492   6.912  0.0911 -0.7837 -0.2005
   69MYC   H10311590   5.499   3.605   6.878  1.9655 -1.4781  1.0835
   69MYC    C7811591   5.565   3.433   6.987  0.4078  0.6010 -0.8341
   69MYC   HH1411592   5.668   3.451   6.951  0.8862 -0.9557 -0.2859
   69MYC   H10411593   5.548   3.325   6.988 -1.8118  0.8485  2.1753
   69MYC    C7711594   5.542   3.488   7.130 -0.1910 -0.8020  0.7806
   69MYC   H10611595   5.435   3.472   7.151 -0.3448  0.0363  0.6854
   69MYC   H10711596   5.555   3.597   7.126  0.1478 -0.8702 -1.7271
   69MYC    C7611597   5.636   3.440   7.240 -0.0302  0.3092  0.7267
   69MYC   H10811598   5.736   3.484   7.227 -0.9415  2.2540 -0.2375
   69MYC   H10911599   5.650   3.334   7.220  0.5489  0.7015 -1.1662
   69MYC    C7511600   5.584   3.479   7.384 -0.1288  0.1184  0.4660
   69MYC   H11011601   5.478   3.451   7.386 -0.2253  0.5081  1.2677
   69MYC   H11111602   5.585   3.588   7.383 -2.3338  0.2013  1.9229
   69MYC    C7411603   5.659   3.418   7.499  0.9085  0.4682  0.0848
   69MYC   H11211604   5.762   3.456   7.493  0.5190  1.7386  0.9299
   69MYC   H11311605   5.659   3.309   7.497  0.0270  0.4465  0.8085
   69MYC    C7311606   5.615   3.480   7.641  0.2304  0.1763  0.0663
   69MYC   HH1311607   5.510   3.454   7.660  0.1785 -0.8016 -1.3799
   69MYC   H11411608   5.631   3.587   7.624  1.1965  0.1033  0.4572
   69MYC    C7211609   5.701   3.430   7.756  0.2077  1.1973 -0.2310
   69MYC   H11511610   5.804   3.462   7.737  0.9139 -0.6777  0.1976
   69MYC   H11611611   5.701   3.321   7.766  0.3086  1.0792 -1.4074
   69MYC    C7111612   5.664   3.492   7.892 -1.0175  0.3025  0.2181
   69MYC   H11711613   5.563   3.455   7.912 -0.5982 -0.7648  0.4237
   69MYC   H11811614   5.663   3.601   7.886  3.0961  0.4658 -1.8025
   69MYC    C7011615   5.771   3.445   7.996  0.4695  0.2913  0.5544
   69MYC   H11911616   5.871   3.484   7.973  1.5705 -1.5260  1.9308
   69MYC   H12011617   5.780   3.337   7.979 -0.0008  0.4420 -0.8394
   69MYC    C6911618   5.719   3.474   8.138  0.3720 -0.1693  0.4058
   69MYC   H12111619   5.626   3.420   8.159  0.6063  0.3401  3.2258
   69MYC   H12211620   5.697   3.581   8.150  1.6214  0.2869 -1.1191
   69MYC    C6811621   5.825   3.436   8.238 -0.2575 -0.0396  0.1491
   69MYC   HH1211622   5.920   3.480   8.208  1.0071 -1.1919  2.2313
   69MYC   H12311623   5.837   3.327   8.245  1.2304  0.2075  2.6631
   69MYC    C6711624   5.786   3.477   8.383 -0.3232 -0.3186  0.6769
   69MYC   H12411625   5.691   3.428   8.410 -1.2589 -0.4703 -2.5262
   69MYC   H12511626   5.751   3.580   8.373 -0.9441 -0.6502 -0.7462
   69MYC    C6611627   5.898   3.460   8.491 -0.2835  0.8195  0.5165
   69MYC   H12611628   5.997   3.495   8.459 -0.5927  1.1038 -0.1442
   69MYC   H12711629   5.910   3.352   8.506  1.8107  0.7734 -1.0908
   69MYC    C6511630   5.880   3.522   8.631  0.5905  0.8555  0.0436
   69MYC   H12811631   5.858   3.627   8.610 -0.5592  0.4175 -1.0933
   69MYC   H12911632   5.967   3.502   8.695  0.4986  0.4862  0.0542
   69MYC    C6411633   5.775   3.457   8.719 -0.2304  0.5179  0.0455
   69MYC   H13011634   5.812   3.356   8.739 -0.2574  0.0722 -1.8853
   69MYC   H13111635   5.684   3.449   8.658 -0.5203  0.0693  0.5282
   69MYC    C6311636   5.744   3.539   8.850 -0.0717 -0.4065 -0.2433
   69MYC   HH1111637   5.648   3.505   8.889 -0.5199 -2.0453 -2.5837
   69MYC   H13211638   5.741   3.647   8.832 -0.6714  0.0517  2.2714
   69MYC    C6211639   5.861   3.519   8.956 -0.0034 -0.3208 -0.1304
   69MYC   H13311640   5.958   3.545   8.912 -0.2476 -0.4452 -0.7500
   69MYC   H13411641   5.872   3.412   8.974 -1.1848 -0.4725 -0.2710
   69MYC    C6111642   5.852   3.597   9.085 -0.0886 -0.4421 -0.6215
   69MYC   H13511643   5.769   3.559   9.144  1.7696 -0.2675  2.3144
   69MYC   H13611644   5.821   3.700   9.064 -0.2460  0.2108  2.3687
   69MYC    C6011645   5.982   3.589   9.163  0.4420 -0.0799  0.2365
   69MYC   H13711646   6.067   3.636   9.114  0.9418 -2.0677 -0.8886
   69MYC    C5811647   5.972   3.605   9.314  0.6665  0.1686 -0.1555
   69MYC   H13811648   5.870   3.621   9.348  0.4087 -0.1497 -0.7436
   69MYC    C5911649   6.016   3.471   9.251  0.1267  0.8442  0.5352
   69MYC   H13911650   6.120   3.440   9.240 -0.4247 -0.7688 -0.5203
   69MYC   H14011651   5.943   3.392   9.266  2.4844 -1.4000  0.8875
   69MYC    C5711652   6.064   3.697   9.396 -0.1296 -0.0206  0.2178
   69MYC   HH1011653   6.046   3.802   9.370  1.6954  0.5289  1.0629
   69MYC   H14111654   6.169   3.673   9.376  1.0214  2.4930  2.6121
   69MYC    C5611655   6.034   3.691   9.551  0.9065  0.2276 -0.5592
   69MYC   H14211656   6.020   3.588   9.586  0.3540  0.9933  1.6107
   69MYC   H14311657   5.933   3.731   9.565  0.3807 -1.1112 -0.3743
   69MYC    C5511658   6.149   3.761   9.628 -0.3566 -0.4659 -0.3392
   69MYC   H14411659   6.149   3.865   9.593  0.5620 -0.2384  0.3051
   69MYC   H14511660   6.239   3.708   9.597  0.4436 -0.0752  1.2114
   69MYC    C5411661   6.127   3.766   9.781  0.3162  0.2165  0.0595
   69MYC   H14611662   6.142   3.666   9.823  0.3573  0.2670  0.1658
   69MYC   H14711663   6.018   3.776   9.793  0.3493  0.2288  0.3458
   69MYC    C5311664   6.201   3.865   9.864 -0.5940 -0.0030  0.7711
   69MYC   H14811665   6.179   3.967   9.832  2.0024  0.5547  0.5796
   69MYC   H14911666   6.310   3.862   9.851 -0.7259  2.7867 -2.1545
   69MYC    C5211667   6.169   3.849  10.011 -0.0085  0.6364  0.1328
   69MYC    H9911668   6.187   3.747  10.046  0.7223  1.0816  1.1011
   69MYC   H15011669   6.061   3.859  10.023 -0.0334  0.1024  0.3831
   69MYC    C5111670   6.244   3.958  10.100  0.3436  0.1389  0.0284
   69MYC    H9711671   6.211   4.057  10.068 -0.3765 -0.5547 -1.5411
   69MYC    H9811672   6.347   3.963  10.064  0.5586  0.5398  0.7070
   69MYC    C5011673   6.230   3.925  10.248  0.4131 -0.7536 -0.6400
   69MYC    H9511674   6.303   3.994  10.293  1.7762 -2.8703  0.6296
   69MYC    H9611675   6.264   3.824  10.274 -1.2076 -0.9302  1.0208
   69MYC    C4911676   6.084   3.937  10.310  0.1413  0.4872  0.3282
   69MYC    H9311677   6.019   3.863  10.263  0.0440  1.6387 -1.4483
   69MYC    H9411678   6.045   4.037  10.286  0.7973  0.8026  0.5445
   69MYC    C4811679   6.088   3.914  10.461  0.9254  0.1341  0.4271
   69MYC    H9111680   6.165   3.976  10.507  2.1727 -1.1452  0.1388
   69MYC    H9211681   6.125   3.813  10.484 -2.2028 -1.0220  0.8751
   69MYC    C4711682   5.950   3.925  10.524  0.2073 -0.2235 -0.3966
   69MYC    H8911683   5.880   3.858  10.473 -1.9627  0.9845  0.8056
   69MYC    H9011684   5.906   4.021  10.494 -1.6403 -1.4050 -1.7063
   69MYC    C4611685   5.953   3.899  10.677 -0.0463  0.6786  0.0662
   69MYC    H8711686   5.863   3.950  10.713 -0.4220 -0.0241  0.1391
   69MYC    H8811687   6.044   3.933  10.726 -0.8706  0.7457  1.6126
   69MYC    C4511688   5.931   3.748  10.715 -0.1137  0.2131  0.0674
   69MYC    H8511689   5.999   3.688  10.654  0.9912  2.3084 -0.8808
   69MYC    H8611690   5.827   3.722  10.690  0.3953 -0.3981 -1.5189
   69MYC    C4411691   5.953   3.714  10.860  0.1662  0.0914 -0.4484
   69MYC    H8311692   5.867   3.756  10.914 -0.2912 -2.0669  0.6149
   69MYC    H8411693   6.048   3.757  10.895 -0.0404 -0.4330  0.8093
   69MYC    C1811694   5.942   3.565  10.889  0.8244  0.3251 -0.3005
   69MYC    H3111695   5.923   3.505  10.800  0.6823  1.1925 -0.8713
   69MYC    C1711696   6.041   3.504  10.986 -0.2845  0.1187  0.6580
   69MYC    H3011697   6.111   3.570  11.035  0.1610 -1.3142  2.0499
   69MYC    C1911698   5.896   3.509  11.019 -0.1813  0.2143  0.0424
   69MYC    H3211699   5.862   3.572  11.101 -0.8106  0.8706 -0.7119
   69MYC    H3311700   5.851   3.411  11.020 -0.4984  0.3445 -0.8769
   69MYC    C1611701   6.108   3.367  10.951 -0.4319  0.3574 -0.4221
   69MYC    H2811702   6.041   3.291  10.908  1.0895 -1.6204  0.5437
   69MYC    H2911703   6.134   3.313  11.043 -2.4035 -0.7108 -0.4361
   69MYC    C1511704   6.238   3.368  10.853 -0.0898  0.2449 -0.4243
   69MYC    H2611705   6.287   3.270  10.854  2.4719  1.4078  1.8326
   69MYC    H2711706   6.315   3.441  10.879  0.3621 -0.1738 -0.5774
   69MYC    C1411707   6.202   3.400  10.710  0.2674 -0.2188  0.6765
   69MYC    H2411708   6.216   3.508  10.698  0.2647 -0.0961  1.6981
   69MYC    H2511709   6.100   3.371  10.686  0.3706 -1.0691  1.2370
   69MYC    C1311710   6.293   3.337  10.607 -0.0563 -0.2437  0.0543
   69MYC    H2211711   6.278   3.228  10.614  1.9067 -0.5572  0.1906
   69MYC    H2311712   6.396   3.357  10.639  0.4888 -1.0879 -1.0911
   69MYC    C1211713   6.262   3.397  10.466  0.9002 -0.1953  0.4455
   69MYC    H2011714   6.324   3.349  10.389 -0.1868 -1.3170  0.2426
   69MYC    H2111715   6.285   3.503  10.453  1.5009 -0.6014 -2.6353
   69MYC    C1111716   6.120   3.371  10.420  0.2489  0.1102  0.0633
   69MYC    H1811717   6.054   3.432  10.483 -0.9637 -2.4569  1.4233
   69MYC    H1911718   6.104   3.263  10.424  0.0686 -0.0684 -2.9756
   69MYC    C1011719   6.089   3.414  10.274  0.1964  0.0642  0.6640
   69MYC    H1611720   6.171   3.399  10.203 -1.0683  1.4882 -1.1868
   69MYC    H1711721   6.086   3.523  10.280  0.7077  0.1330 -0.1865
   69MYC     C911722   5.959   3.369  10.207 -0.9336 -0.0909  0.1943
   69MYC    H1411723   5.887   3.388  10.288  0.2935  1.1651  1.0343
   69MYC    H1511724   5.969   3.262  10.184 -2.0027  0.2765 -2.2220
   69MYC     C811725   5.914   3.460  10.096 -0.0948 -0.2202  0.3289
   69MYC    H1211726   5.970   3.429  10.007  0.3882 -3.2196  1.5502
   69MYC    H1311727   5.939   3.562  10.126  0.9573 -0.2759 -0.3229
   69MYC     C711728   5.760   3.457  10.079  0.0037 -0.5344  0.2398
   69MYC    H1011729   5.738   3.526   9.997  1.0904  0.0359  0.4073
   69MYC    H1111730   5.722   3.511  10.166  1.0577 -0.8693  0.9199
   69MYC     C611731   5.698   3.314  10.063 -0.5564 -0.0397 -0.4529
   69MYC     H811732   5.590   3.328  10.048 -0.0645  0.5387 -4.8710
   69MYC     H911733   5.715   3.247  10.147 -0.8509  1.0304  0.4886
   69MYC     C511734   5.749   3.246   9.929  0.1614 -0.3619 -1.1031
   69MYC     H611735   5.712   3.143   9.925 -0.4239 -0.1430 -1.4696
   69MYC     H711736   5.858   3.246   9.926  0.4107  0.7543  2.7167
   69MYC     C411737   5.703   3.298   9.799 -0.1663 -0.2950  0.2246
   69MYC     H411738   5.762   3.390   9.786  2.2571 -1.7802 -0.0681
   69MYC     H511739   5.596   3.319   9.798  0.1843  1.9288 -2.5419
   69MYC     C211740   5.733   3.195   9.680 -0.2814  0.1605  0.0451
   69MYC     H211741   5.829   3.144   9.692  0.5991  1.1520 -2.1757
   69MYC     O311742   5.629   3.103   9.682 -0.2086  0.0892 -0.6632
   69MYC     H311743   5.552   3.156   9.657  2.4569  3.5571 -2.2635
   69MYC     C111744   5.727   3.259   9.541 -0.0770 -0.0860 -0.1084
   69MYC     H111745   5.814   3.324   9.532 -0.2253 -0.1307 -2.2279
   69MYC    C8111746   5.607   3.365   9.531 -0.8213 -0.1583  0.0960
   69MYC    O8211747   5.491   3.332   9.535  0.1834 -0.1538 -0.6650
   69MYC    O8311748   5.660   3.493   9.521  0.0121 -0.0690  0.8844
   69MYC   H10511749   5.590   3.560   9.528  0.1688  0.2422 -0.3981
   69MYC    C2011750   5.736   3.164   9.414  0.2505 -0.1700  0.3225
   69MYC    H3411751   5.843   3.149   9.396  0.6345 -0.8749  2.7565
   69MYC    H3511752   5.692   3.069   9.446 -2.3205  1.8791  3.5621
   69MYC    C2111753   5.655   3.210   9.283  0.7124  0.1060  0.1581
   69MYC    H3611754   5.551   3.181   9.300  1.1141 -0.7329  1.3731
   69MYC    H3711755   5.659   3.318   9.269 -1.1607  0.3640  1.2563
   69MYC    C2211756   5.700   3.154   9.152  0.6819  0.1806 -0.6680
   69MYC    H3811757   5.803   3.181   9.127  0.2311  1.5625 -1.1004
   69MYC    H3911758   5.711   3.045   9.161 -1.1115  0.0201 -0.0009
   69MYC    C2311759   5.605   3.188   9.045  0.2489  0.0725  0.3045
   69MYC    H4011760   5.502   3.175   9.080  0.3640 -0.0406  0.6053
   69MYC    H4111761   5.623   3.296   9.037  1.1114  0.1616  2.7548
   69MYC    C2411762   5.630   3.106   8.924 -0.1171 -0.1814  0.7312
   69MYC    H4211763   5.737   3.110   8.900 -0.4959 -0.7402 -1.2652
   69MYC    H4311764   5.604   3.001   8.942  0.3606 -0.0028  2.6682
   69MYC    C2511765   5.555   3.165   8.796  0.2580 -0.2948 -0.8476
   69MYC    H4411766   5.447   3.161   8.820  0.2177  1.1814 -0.6796
   69MYC    H4511767   5.580   3.271   8.786  0.1467 -0.2123 -0.3153
   69MYC    C2611768   5.584   3.086   8.667  0.3557  0.7736 -0.1289
   69MYC    H4611769   5.692   3.082   8.654  0.1968 -1.3906 -1.2084
   69MYC    H4711770   5.553   2.983   8.684  1.1896  0.4715 -0.4148
   69MYC    C2711771   5.511   3.141   8.541  0.7191 -0.5064 -0.5407
   69MYC    H4811772   5.402   3.145   8.552  0.4640 -0.9033 -2.4308
   69MYC    H4911773   5.545   3.244   8.521 -0.8360 -0.2250 -2.0579
   69MYC    C2811774   5.540   3.058   8.416 -0.0025  0.0126  0.2660
   69MYC    H5011775   5.647   3.046   8.396 -0.0185  2.1278 -1.3978
   69MYC    H5111776   5.500   2.956   8.428  0.2042  0.1121  1.9531
   69MYC    C2911777   5.476   3.132   8.296  0.0822  0.5564 -0.3612
   69MYC    H5211778   5.368   3.116   8.310  0.4641 -1.2680  0.8580
   69MYC    H5311779   5.503   3.238   8.291 -0.1772  0.6198 -0.4719
   69MYC    C3011780   5.504   3.071   8.153  0.1089  0.2888 -0.2486
   69MYC    H5411781   5.609   3.061   8.123  0.0888 -1.8728  0.2526
   69MYC    H5511782   5.463   2.970   8.157  0.7856  0.0410  0.7922
   69MYC    C3111783   5.439   3.145   8.034  0.9014 -0.6990  0.3091
   69MYC    H5611784   5.333   3.120   8.028  0.3910  1.5935 -2.5715
   69MYC    H5711785   5.458   3.253   8.041  0.9193 -0.7395  0.9712
   69MYC    C3211786   5.484   3.111   7.892 -0.0960  0.3623 -0.2905
   69MYC    H5811787   5.589   3.141   7.881  0.3105 -1.3391 -1.4249
   69MYC    H5911788   5.494   3.003   7.878  1.9518  0.2816  1.3730
   69MYC    C3311789   5.389   3.173   7.788  0.3601  0.1415  0.2300
   69MYC    H6011790   5.288   3.131   7.799  0.7929 -1.5033 -1.5815
   69MYC    H6111791   5.382   3.280   7.813  1.9210  0.0793  1.0451
   69MYC    C3411792   5.438   3.137   7.645  0.4928  1.1262  0.9969
   69MYC    H6211793   5.540   3.170   7.624 -0.1242  1.5374 -1.6034
   69MYC    H6311794   5.436   3.028   7.629  1.5340  1.3380 -0.8302
   69MYC    C3511795   5.332   3.177   7.545  0.0254 -0.4452 -0.5004
   69MYC    H6411796   5.240   3.124   7.573 -0.0830  0.6992  1.5519
   69MYC    H6511797   5.327   3.286   7.554  2.3390 -0.3450  0.2351
   69MYC    C3611798   5.376   3.132   7.407 -0.2229  0.8268 -0.2021
   69MYC    H6611799   5.469   3.177   7.371  0.0207  0.5713  0.1049
   69MYC    H6711800   5.407   3.027   7.418  0.5873  1.2733  2.1440
   69MYC    C3711801   5.283   3.151   7.286  0.2004  0.3919  0.1526
   69MYC    H6811802   5.191   3.091   7.288  0.0248  0.6214 -0.6436
   69MYC    H6911803   5.257   3.257   7.297  1.7158  0.9255 -1.0124
   69MYC    C3811804   5.347   3.124   7.148 -0.0985 -1.1076  0.0911
   69MYC    H7011805   5.443   3.175   7.138  0.4300 -2.2238 -0.5789
   69MYC    H7111806   5.373   3.018   7.143  1.6929 -0.7395  0.8500
   69MYC    C3911807   5.251   3.166   7.043  0.6394  0.8089  0.4534
   69MYC    H7211808   5.150   3.128   7.064  0.8227  0.1380  0.1501
   69MYC    H7311809   5.233   3.274   7.038  1.4650  0.9871  1.2296
   69MYC    C4011810   5.285   3.109   6.902 -0.2645 -0.4599  0.2587
   69MYC    H7411811   5.382   3.155   6.880 -0.4790  0.8080  1.7818
   69MYC    H7511812   5.299   3.001   6.912  0.4772 -0.4574 -0.6249
   69MYC    C4111813   5.198   3.160   6.785 -0.4046 -0.7987 -0.2520
   69MYC    H7611814   5.100   3.112   6.799 -1.5948  0.8466 -2.3914
   69MYC    H7711815   5.183   3.268   6.787  0.1974 -0.5678 -3.2193
   69MYC    C4211816   5.252   3.114   6.648 -0.2353 -0.2736 -0.1382
   69MYC    H7811817   5.353   3.148   6.625 -0.1646 -1.5832 -1.9735
   69MYC    H7911818   5.255   3.004   6.648  0.3107 -0.3321  2.4739
   69MYC    C4311819   5.166   3.164   6.534 -0.6993  0.1965  0.0877
   69MYC    H8011820   5.204   3.118   6.442  3.5596  0.0860  1.6919
   69MYC    H8111821   5.169   3.273   6.528 -1.9715  0.1814 -2.0811
   69MYC    H8211822   5.064   3.134   6.563 -0.5499  1.1448  1.7410
   70MYC   HH1511823   5.925   3.923   7.370  0.6334  0.2770 -0.2680
   70MYC    C8011824   5.908   3.815   7.361  0.8366  0.1796  0.4457
   70MYC   H10011825   5.801   3.789   7.357  0.6638  0.3015  3.0199
   70MYC   H10111826   5.965   3.787   7.271  1.5609  0.2404  0.8761
   70MYC    C7911827   5.966   3.761   7.494 -0.6782 -0.2011 -0.2918
   70MYC   H10211828   6.069   3.796   7.503 -0.5767 -0.9296  2.2835
   70MYC   H10311829   5.982   3.652   7.489 -0.0250 -0.2549  1.9694
   70MYC    C7811830   5.890   3.806   7.623 -0.1470 -0.5461  0.2162
   70MYC   HH1411831   5.807   3.734   7.626  1.8620 -3.0741  3.7920
   70MYC   H10411832   5.848   3.907   7.622  2.0261  0.4003 -0.4906
   70MYC    C7711833   5.967   3.786   7.759  0.3892 -0.0266  0.0059
   70MYC   H10611834   6.065   3.833   7.744 -0.1147  1.1181  0.2337
   70MYC   H10711835   5.996   3.681   7.772  0.4416  0.2724  2.9567
   70MYC    C7611836   5.908   3.827   7.884  0.6034  0.1178  0.5399
   70MYC   H10811837   5.812   3.776   7.891  1.1713 -1.0316  0.1436
   70MYC   H10911838   5.900   3.937   7.882  0.1542  0.0845  0.3514
   70MYC    C7511839   5.997   3.792   8.014 -1.1743 -0.5072  0.0373
   70MYC   H11011840   6.093   3.845   8.009 -1.9142  0.7799 -1.1997
   70MYC   H11111841   6.025   3.686   8.018 -1.0781 -0.5482 -1.3127
   70MYC    C7411842   5.921   3.809   8.146  1.0416 -0.3345 -0.1451
   70MYC   H11211843   5.838   3.738   8.150  1.3254 -0.7597 -1.5988
   70MYC   H11311844   5.874   3.908   8.148  1.4289 -0.1498 -0.0067
   70MYC    C7311845   6.009   3.789   8.263 -0.6895 -0.3786  0.1122
   70MYC   HH1311846   6.107   3.833   8.241 -0.2745 -1.5237 -0.4085
   70MYC   H11411847   6.041   3.684   8.272  1.7053  0.0947 -1.8564
   70MYC    C7211848   5.952   3.840   8.399 -0.0644  0.0670 -0.0376
   70MYC   H11511849   5.867   3.778   8.431 -1.5394  1.8805 -0.2548
   70MYC   H11611850   5.923   3.946   8.402  1.7725  0.6109 -0.4136
   70MYC    C7111851   6.052   3.839   8.518  0.5531 -0.6854 -0.2893
   70MYC   H11711852   6.148   3.886   8.492  1.2705 -1.0735  1.5211
   70MYC   H11811853   6.083   3.739   8.549  0.4507  0.3452  3.7440
   70MYC    C7011854   5.989   3.912   8.637 -0.7467  0.2561  0.1003
   70MYC   H11911855   5.884   3.888   8.659 -0.3925 -0.9202  0.5376
   70MYC   H12011856   5.997   4.021   8.623  0.5414  0.7910  3.8661
   70MYC    C6911857   6.064   3.865   8.762 -0.0316  0.7036  0.3078
   70MYC   H12111858   6.172   3.882   8.758  0.6884 -3.0869 -2.1927
   70MYC   H12211859   6.059   3.756   8.777  1.7242  0.8713  2.7328
   70MYC    C6811860   6.003   3.931   8.883  0.1612 -0.2921  0.4488
   70MYC   HH1211861   5.915   3.873   8.913  0.5221 -0.6110  0.8991
   70MYC   H12311862   5.967   4.032   8.859  0.2179 -0.7050 -1.5007
   70MYC    C6711863   6.095   3.950   9.001 -0.9951  0.9364 -0.3512
   70MYC   H12411864   6.183   4.009   8.973  0.5485 -0.3274  1.5772
   70MYC   H12511865   6.144   3.856   9.029 -1.4591  0.6641 -0.4405
   70MYC    C6611866   6.025   4.009   9.123 -0.4179 -0.1758 -0.1928
   70MYC   H12611867   5.961   3.934   9.171 -1.7110  0.6390 -0.5839
   70MYC   H12711868   5.965   4.099   9.106 -0.0735  0.1466  0.2643
   70MYC    C6511869   6.145   4.036   9.227 -0.0823  0.7920  0.8572
   70MYC   H12811870   6.228   4.068   9.162 -0.0243 -1.0218 -0.0086
   70MYC   H12911871   6.176   3.945   9.278 -1.5418 -0.3518 -0.2115
   70MYC    C6411872   6.117   4.144   9.330 -0.0803  0.2634 -0.3921
   70MYC   H13011873   6.016   4.124   9.368  0.5072 -1.4890  0.3200
   70MYC   H13111874   6.073   4.232   9.281 -1.7862 -0.2848  0.0948
   70MYC    C6311875   6.228   4.182   9.437  0.4521  0.8881  0.9232
   70MYC   HH1111876   6.314   4.226   9.386  0.7384  1.5682  1.9622
   70MYC   H13211877   6.261   4.084   9.471  2.0394 -0.1016 -2.9174
   70MYC    C6211878   6.181   4.253   9.565 -0.4865  0.8791  0.5178
   70MYC   H13311879   6.113   4.188   9.621 -0.4972 -1.1441 -1.6859
   70MYC   H13411880   6.130   4.348   9.547 -0.4314  1.5838  3.5267
   70MYC    C6111881   6.304   4.275   9.654 -0.3210  0.0516  0.6211
   70MYC   H13511882   6.378   4.347   9.619  1.8684 -1.7436  1.3058
   70MYC   H13611883   6.359   4.180   9.660  2.2143  1.3164 -0.8814
   70MYC    C6011884   6.258   4.322   9.790  0.0443 -0.4841 -0.0603
   70MYC   H13711885   6.218   4.240   9.849 -0.0330 -1.0997 -0.9459
   70MYC    C5811886   6.340   4.425   9.855 -0.3142 -0.7813 -0.1547
   70MYC   H13811887   6.430   4.445   9.798 -0.9837  0.0082 -0.9608
   70MYC    C5911888   6.205   4.460   9.800 -0.4055 -0.8440  0.0287
   70MYC   H13911889   6.122   4.479   9.868 -1.2084  0.0853 -1.1863
   70MYC   H14011890   6.198   4.510   9.704 -1.3739 -0.5869  0.2185
   70MYC    C5711891   6.362   4.440  10.012  0.6764 -0.8447 -0.2352
   70MYC   HH1011892   6.425   4.358  10.048 -0.7230 -1.2048  1.5211
   70MYC   H14111893   6.264   4.447  10.061 -0.0129 -1.6175 -1.4600
   70MYC    C5611894   6.424   4.573  10.054 -0.0914 -0.0073 -0.0800
   70MYC   H14211895   6.350   4.653  10.042  0.8172  1.1768  1.6795
   70MYC   H14311896   6.513   4.596   9.995  0.9607  1.3883  1.9095
   70MYC    C5511897   6.462   4.579  10.202  0.0069  0.0018  0.8906
   70MYC   H14411898   6.526   4.495  10.230  2.0804  1.1971 -0.0014
   70MYC   H14511899   6.368   4.571  10.258 -0.4123  1.4479  0.4371
   70MYC    C5411900   6.540   4.710  10.231  0.0504 -0.6287 -1.2448
   70MYC   H14611901   6.638   4.709  10.181  0.4860 -1.2497 -0.4015
   70MYC   H14711902   6.547   4.700  10.340  2.1402 -3.9444 -1.5467
   70MYC    C5311903   6.467   4.847  10.208  0.6495  0.6609 -0.9233
   70MYC   H14811904   6.371   4.853  10.262  1.1304  0.3274 -0.0224
   70MYC   H14911905   6.444   4.857  10.101 -1.7037  0.1994 -0.5273
   70MYC    C5211906   6.546   4.966  10.252 -0.6289  0.7139  0.8030
   70MYC    H9911907   6.629   4.976  10.181 -0.1482 -1.4685  0.9765
   70MYC   H15011908   6.589   4.935  10.348 -1.8134  0.4054  1.2601
   70MYC    C5111909   6.470   5.097  10.260  0.8942 -0.2169 -0.7346
   70MYC    H9711910   6.421   5.125  10.166 -1.9366  0.9689  0.9844
   70MYC    H9811911   6.537   5.184  10.262 -1.1179  1.3971  0.0979
   70MYC    C5011912   6.364   5.103  10.370  0.2933 -0.5389  0.4091
   70MYC    H9511913   6.291   5.026  10.343 -1.2727  0.2947  2.0146
   70MYC    H9611914   6.304   5.193  10.349  0.9756 -0.8106 -3.3546
   70MYC    C4911915   6.403   5.078  10.518 -0.3802  0.0631 -0.6323
   70MYC    H9311916   6.486   5.144  10.546  0.3359 -1.0654  0.0158
   70MYC    H9411917   6.450   4.979  10.511  1.1179  0.7108 -0.1718
   70MYC    C4811918   6.281   5.068  10.614  0.4584 -0.2727 -0.0517
   70MYC    H9111919   6.191   5.027  10.568  0.9759  0.5085 -1.8751
   70MYC    H9211920   6.234   5.167  10.625  0.6913  0.1198 -2.1597
   70MYC    C4711921   6.317   5.018  10.760 -0.2556  0.7962 -0.1977
   70MYC    H8911922   6.229   5.030  10.824  0.9128  0.8527  1.4776
   70MYC    H9011923   6.399   5.071  10.811 -1.3390  2.0011  0.3595
   70MYC    C4611924   6.366   4.868  10.747 -0.0261 -0.3479 -0.8170
   70MYC    H8711925   6.374   4.825  10.847  1.0391  1.7914  0.0856
   70MYC    H8811926   6.469   4.868  10.709 -0.1301 -2.1366 -1.1951
   70MYC    C4511927   6.281   4.768  10.671  0.4812 -0.5798  0.3012
   70MYC    H8511928   6.303   4.768  10.564  1.8706 -4.7842  0.3854
   70MYC    H8611929   6.174   4.790  10.679  0.7624  1.3407 -0.6207
   70MYC    C4411930   6.307   4.620  10.712  0.5974 -0.3060  0.0860
   70MYC    H8311931   6.287   4.619  10.820 -2.5987  0.8462 -0.3864
   70MYC    H8411932   6.416   4.603  10.714  1.1221  2.5480  0.9706
   70MYC    C1811933   6.227   4.514  10.639  0.2793  0.0230  0.1588
   70MYC    H3111934   6.245   4.516  10.532  0.6964  1.2634  0.2354
   70MYC    C1711935   6.174   4.396  10.721  0.1717 -0.1668  0.0419
   70MYC    H3011936   6.217   4.410  10.819 -1.0804  1.9754  0.3363
   70MYC    C1911937   6.079   4.500  10.668  0.1336  0.0205  0.0834
   70MYC    H3211938   6.037   4.569  10.741  1.0899  0.8598 -0.1390
   70MYC    H3311939   6.014   4.484  10.582 -0.8960 -1.4861  1.1021
   70MYC    C1611940   6.168   4.252  10.678 -0.4997  0.4291 -0.0412
   70MYC    H2811941   6.137   4.243  10.574 -0.5308  0.3220 -0.0231
   70MYC    H2911942   6.101   4.189  10.738 -0.7390 -2.2842 -2.8715
   70MYC    C1511943   6.310   4.194  10.695  0.3457  0.0267 -0.3048
   70MYC    H2611944   6.300   4.085  10.699  1.9058 -0.1728 -1.1953
   70MYC    H2711945   6.354   4.219  10.792  0.6233  0.6491 -0.5864
   70MYC    C1411946   6.397   4.220  10.569 -0.0840  0.0960 -0.1649
   70MYC    H2411947   6.404   4.325  10.537 -0.8221  0.4159  0.6853
   70MYC    H2511948   6.355   4.182  10.475 -0.0810 -0.9737  0.2538
   70MYC    C1311949   6.544   4.178  10.589  0.2032  0.0905 -0.6051
   70MYC    H2211950   6.547   4.069  10.579 -0.8821  0.0875 -1.0462
   70MYC    H2311951   6.580   4.196  10.691  0.0351 -1.0140 -0.3440
   70MYC    C1211952   6.638   4.243  10.485  0.2842 -0.4033  0.3629
   70MYC    H2011953   6.650   4.348  10.515 -1.5342  0.2149 -0.8774
   70MYC    H2111954   6.596   4.235  10.383 -0.3527  3.3822  0.1699
   70MYC    C1111955   6.772   4.173  10.480 -0.0838 -0.3958 -0.8321
   70MYC    H1811956   6.765   4.065  10.463 -1.9759 -0.5190  0.4841
   70MYC    H1911957   6.807   4.190  10.582 -0.9312  0.0863 -0.6065
   70MYC    C1011958   6.870   4.237  10.377 -0.6650 -0.1077  0.0870
   70MYC    H1611959   6.967   4.209  10.420 -1.2937  0.3266  1.8539
   70MYC    H1711960   6.861   4.345  10.387  0.2900  0.1417 -1.3786
   70MYC     C911961   6.884   4.181  10.234 -0.4166 -0.5025  0.0940
   70MYC    H1411962   6.885   4.072  10.248 -0.8167 -0.3769  1.2615
   70MYC    H1511963   6.970   4.212  10.174 -1.4658  1.1134 -0.6420
   70MYC     C811964   6.770   4.223  10.140  0.0253 -0.5489 -0.6792
   70MYC    H1211965   6.756   4.330  10.121 -3.4817 -0.9307 -0.8888
   70MYC    H1311966   6.669   4.211  10.181 -0.5627 -0.4260 -2.0276
   70MYC     C711967   6.779   4.156  10.001 -0.2178 -0.1160 -0.5963
   70MYC    H1011968   6.768   4.047  10.005  0.2773 -0.1194  2.1268
   70MYC    H1111969   6.877   4.176   9.955  0.2926  0.6076  0.7463
   70MYC     C611970   6.680   4.221   9.897 -0.2186 -0.2842  0.0585
   70MYC     H811971   6.690   4.330   9.891 -2.5686  0.1836  2.6430
   70MYC     H911972   6.578   4.212   9.937 -0.8908 -1.2822 -1.7276
   70MYC     C511973   6.679   4.156   9.756 -0.3706 -0.4861  0.7317
   70MYC     H611974   6.780   4.143   9.713 -0.1469 -0.7883  1.3418
   70MYC     H711975   6.628   4.219   9.682  0.5298 -1.8613 -1.1600
   70MYC     C411976   6.601   4.018   9.746  1.0072 -0.0591  0.3100
   70MYC     H411977   6.512   4.050   9.802  1.8347  2.5295  0.3049
   70MYC     H511978   6.646   3.939   9.807  0.3840 -0.8498 -0.2417
   70MYC     C211979   6.572   3.965   9.601  0.3578  0.3725  0.1401
   70MYC     H211980   6.499   4.029   9.551  0.1465 -0.9208 -1.2905
   70MYC     O311981   6.693   3.983   9.529  0.1810 -0.0443 -0.8853
   70MYC     H311982   6.761   3.946   9.586  0.5888 -1.6982 -2.3469
   70MYC     C111983   6.518   3.822   9.588  0.4305  0.0155  0.0576
   70MYC     H111984   6.419   3.816   9.635 -0.3296  2.1067 -1.1342
   70MYC    C8111985   6.603   3.716   9.656  0.2810 -0.0019 -0.9443
   70MYC    O8211986   6.721   3.708   9.636  0.1619 -0.0878 -0.4234
   70MYC    O8311987   6.541   3.665   9.765 -0.2284  0.3922 -0.2399
   70MYC   H10511988   6.606   3.622   9.822 -0.4320  1.2438  0.6564
   70MYC    C2011989   6.471   3.781   9.443  0.0560  0.0291 -0.3896
   70MYC    H3411990   6.401   3.696   9.451 -0.2239  0.0675 -1.9349
   70MYC    H3511991   6.394   3.851   9.409 -0.5865 -0.6435 -0.3579
   70MYC    C2111992   6.572   3.759   9.335 -0.4968  0.3647  0.1797
   70MYC    H3611993   6.615   3.859   9.324  0.9094 -0.0053  1.8769
   70MYC    H3711994   6.651   3.693   9.372 -2.8559 -2.2750  0.9165
   70MYC    C2211995   6.517   3.700   9.196 -0.4512  0.7023 -0.1844
   70MYC    H3811996   6.424   3.749   9.163 -1.1854 -1.1816 -1.0543
   70MYC    H3911997   6.576   3.723   9.107 -2.6755 -1.0129 -2.2411
   70MYC    C2311998   6.484   3.551   9.208  0.2814  0.8216 -0.5275
   70MYC    H4011999   6.558   3.493   9.264 -0.2755  1.5360  0.9920
   70MYC    H4112000   6.394   3.551   9.270  0.3628 -0.6808 -0.3784
   70MYC    C2412001   6.471   3.479   9.063 -0.5353  0.8382 -0.4175
   70MYC    H4212002   6.426   3.546   8.989 -0.7357  0.9657 -0.1803
   70MYC    H4312003   6.570   3.446   9.029 -1.2175 -2.4717  0.4564
   70MYC    C2512004   6.385   3.354   9.069 -0.4765  0.1511  0.1292
   70MYC    H4412005   6.435   3.287   9.140 -0.6998 -0.2012 -0.0367
   70MYC    H4512006   6.293   3.385   9.119  0.2146 -0.9863  2.2390
   70MYC    C2612007   6.363   3.269   8.934 -0.0699 -0.0830 -0.0129
   70MYC    H4612008   6.464   3.240   8.900  0.8833  1.5039  1.3060
   70MYC    H4712009   6.304   3.180   8.955 -1.9640  1.0388 -0.3969
   70MYC    C2712010   6.281   3.347   8.827 -0.1333  0.5502  0.7158
   70MYC    H4812011   6.178   3.341   8.863 -0.5287 -0.3098 -0.4991
   70MYC    H4912012   6.309   3.453   8.832  0.7087  0.2778  2.3140
   70MYC    C2812013   6.299   3.288   8.682  0.2470 -0.0159 -0.1776
   70MYC    H5012014   6.404   3.308   8.655  0.6342  1.3834  2.0640
   70MYC    H5112015   6.288   3.181   8.703 -0.1454  0.3747  1.8189
   70MYC    C2912016   6.216   3.339   8.569 -0.3208  0.2329  0.7817
   70MYC    H5212017   6.114   3.299   8.577 -1.2337  2.2294 -0.2144
   70MYC    H5312018   6.189   3.445   8.570  1.8247  0.8262  1.4613
   70MYC    C3012019   6.261   3.291   8.427 -0.4157  0.1910  0.7795
   70MYC    H5412020   6.351   3.349   8.402 -0.0634  0.7238  3.0492
   70MYC    H5512021   6.285   3.185   8.436 -0.4871  0.2228  1.3712
   70MYC    C3112022   6.155   3.311   8.317 -0.1542  0.6702 -0.1187
   70MYC    H5612023   6.059   3.269   8.349  0.9344 -0.3879  1.9387
   70MYC    H5712024   6.146   3.420   8.317  1.1292  0.8084 -1.1252
   70MYC    C3212025   6.204   3.253   8.180 -0.3090  0.4642 -0.0704
   70MYC    H5812026   6.299   3.302   8.156 -0.8826  1.3836 -0.5174
   70MYC    H5912027   6.214   3.144   8.186 -1.8746  0.1347 -2.1398
   70MYC    C3312028   6.113   3.273   8.060  0.1125 -0.2670  0.4131
   70MYC    H6012029   6.022   3.213   8.074 -0.7150  1.1788  1.5485
   70MYC    H6112030   6.083   3.379   8.060  1.8098  0.2414 -0.3530
   70MYC    C3412031   6.163   3.235   7.918  0.0162 -0.3102 -0.2211
   70MYC    H6212032   6.263   3.278   7.899 -0.1949  0.3578  0.1439
   70MYC    H6312033   6.175   3.126   7.915  0.0668 -0.3434  0.9376
   70MYC    C3512034   6.066   3.270   7.803 -0.2212 -0.2392  0.2536
   70MYC    H6412035   5.971   3.219   7.822  0.0685 -0.6535  0.6077
   70MYC    H6512036   6.079   3.379   7.803  2.1525 -0.4141  3.0967
   70MYC    C3612037   6.131   3.211   7.667  0.3610 -0.5128  0.2431
   70MYC    H6612038   6.234   3.248   7.671  0.3128 -0.3489 -0.0163
   70MYC    H6712039   6.139   3.102   7.661 -1.9367 -0.8004  1.4063
   70MYC    C3712040   6.040   3.266   7.551  0.5895  0.1117  0.2192
   70MYC    H6812041   5.934   3.247   7.570  0.5437 -0.3533 -0.4449
   70MYC    H6912042   6.043   3.375   7.555 -2.0853  0.2321  0.8561
   70MYC    C3812043   6.080   3.225   7.404  0.9148 -0.7769  0.0716
   70MYC    H7012044   6.174   3.275   7.377  0.1384  1.3468  1.0242
   70MYC    H7112045   6.100   3.118   7.394  1.2062 -0.7569  0.3908
   70MYC    C3912046   5.983   3.278   7.301  0.0736 -0.0966 -0.6618
   70MYC    H7212047   5.878   3.257   7.322  0.4234  0.2407  1.7209
   70MYC    H7312048   5.988   3.387   7.311 -1.7072  0.0424 -1.0032
   70MYC    C4012049   6.020   3.237   7.161  0.3661 -0.0773 -0.4192
   70MYC    H7412050   6.121   3.277   7.148 -0.1992  1.9872  0.8645
   70MYC    H7512051   6.015   3.129   7.149  0.7578 -0.0472 -0.8687
   70MYC    C4112052   5.917   3.291   7.059 -0.3040 -0.1089  0.4161
   70MYC    H7612053   5.820   3.241   7.067  0.3396 -2.0915 -2.6805
   70MYC    H7712054   5.895   3.396   7.084 -0.0563  0.0632 -0.0810
   70MYC    C4212055   5.967   3.275   6.910 -0.8070  0.5887  0.0302
   70MYC    H7812056   5.990   3.171   6.886  0.7637  0.7700  0.5940
   70MYC    H7912057   5.896   3.315   6.837  0.4347  0.2699 -1.4187
   70MYC    C4312058   6.083   3.365   6.884 -0.4594  0.3853  0.3132
   70MYC    H8012059   6.178   3.315   6.904 -0.2906  0.3926 -0.4580
   70MYC    H8112060   6.077   3.456   6.945  1.0068  0.0681  0.9745
   70MYC    H8212061   6.089   3.399   6.780  2.2643  4.6106  1.6196
   71MYC   HH1512062   0.015   3.758   6.699  0.1747  0.8995  0.6390
   71MYC    C8012063  -0.061   3.696   6.749  0.6695 -0.1161  0.1584
   71MYC   H10012064  -0.161   3.728   6.717  1.7562  1.0195 -2.4576
   71MYC   H10112065  -0.030   3.594   6.725 -0.4131 -0.5122  0.3860
   71MYC    C7912066  -0.042   3.710   6.896 -0.3445  0.8147  0.7211
   71MYC   H10212067  -0.078   3.809   6.927 -2.1661  0.0471  1.1668
   71MYC   H10312068   0.065   3.704   6.917 -0.3106 -0.2820  0.3235
   71MYC    C7812069  -0.133   3.615   6.981 -0.2563  0.2318 -0.4341
   71MYC   HH1412070  -0.105   3.512   6.958 -0.7594  0.4260 -2.0475
   71MYC   H10412071  -0.239   3.627   6.954 -0.6772 -2.5353 -0.2945
   71MYC    C7712072  -0.126   3.658   7.136  0.1140 -0.3971 -0.0098
   71MYC   H10612073  -0.181   3.752   7.147  1.0136  0.0483  0.7105
   71MYC   H10712074  -0.022   3.672   7.168  1.1610 -1.2384 -2.7289
   71MYC    C7612075  -0.204   3.545   7.218 -0.8304 -0.0020 -0.0927
   71MYC   H10812076  -0.153   3.449   7.202 -0.4314  0.4417 -1.6170
   71MYC   H10912077  -0.308   3.547   7.185 -1.5737  1.2683  2.0876
   71MYC    C7512078  -0.221   3.577   7.366 -0.5111 -0.3186 -0.4366
   71MYC   H11012079  -0.292   3.506   7.409 -0.5045 -2.5354 -3.7075
   71MYC   H11112080  -0.261   3.678   7.381 -0.2567 -0.2033 -0.5286
   71MYC    C7412081  -0.091   3.564   7.451 -0.4290  0.1909  0.4806
   71MYC   H11212082  -0.014   3.638   7.425  0.5694 -1.1415 -0.4770
   71MYC   H11312083  -0.042   3.469   7.428  0.2032  0.6125  0.0407
   71MYC    C7312084  -0.132   3.560   7.602  0.0451 -0.3310 -0.1274
   71MYC   HH1312085  -0.178   3.462   7.620 -1.2757  0.1463 -0.7947
   71MYC   H11412086  -0.215   3.629   7.617 -0.5777 -1.1426  0.2525
   71MYC    C7212087  -0.022   3.578   7.713  0.1034  0.2109  0.1032
   71MYC   H11512088   0.063   3.643   7.689  2.0823 -2.4345 -0.5399
   71MYC   H11612089   0.026   3.482   7.735 -0.4575  0.3792  2.2888
   71MYC    C7112090  -0.083   3.609   7.844  0.0608 -0.4574 -0.8271
   71MYC   H11712091  -0.158   3.535   7.875 -1.1166  0.7433 -0.7245
   71MYC   H11812092  -0.121   3.711   7.831  1.3383  0.1829  0.2128
   71MYC    C7012093   0.008   3.630   7.971 -0.1259 -0.3010  0.3565
   71MYC   H11912094   0.076   3.716   7.963  0.4945 -0.6060  2.0362
   71MYC   H12012095   0.064   3.537   7.985 -0.4444 -0.7294 -1.0225
   71MYC    C6912096  -0.072   3.643   8.107 -0.0044 -0.0198 -0.2661
   71MYC   H12112097  -0.118   3.544   8.123  1.0167 -0.7988 -1.8507
   71MYC   H12212098  -0.146   3.723   8.101  1.1274  0.9343 -2.5807
   71MYC    C6812099   0.020   3.689   8.224  0.8063  0.7392  0.2642
   71MYC   HH1212100   0.063   3.789   8.206  1.7360  1.1907  4.0898
   71MYC   H12312101   0.110   3.626   8.226  0.0920 -0.2893  1.6313
   71MYC    C6712102  -0.047   3.695   8.367 -0.1119  0.1996  0.3123
   71MYC   H12412103  -0.100   3.602   8.389 -1.5304  1.2731  1.6207
   71MYC   H12512104  -0.111   3.783   8.381  0.4150  0.5576  0.5575
   71MYC    C6612105   0.062   3.712   8.474 -0.0826  0.3075  0.1952
   71MYC   H12612106   0.112   3.807   8.456 -0.3267  0.5329  0.7036
   71MYC   H12712107   0.132   3.628   8.482  3.5124  3.0546 -0.0958
   71MYC    C6512108   0.002   3.723   8.616  0.0931  0.8539 -0.0156
   71MYC   H12812109  -0.037   3.627   8.651 -0.3985  1.7877  2.1663
   71MYC   H12912110  -0.081   3.795   8.615 -2.7182 -2.2035 -1.0308
   71MYC    C6412111   0.103   3.768   8.726 -0.1383 -0.1070 -0.4815
   71MYC   H13012112   0.194   3.707   8.728 -0.6937 -1.0327 -1.8095
   71MYC   H13112113   0.052   3.762   8.823  0.8823 -0.2657  0.0552
   71MYC    C6312114   0.139   3.923   8.709 -0.4752  0.1061  0.2633
   71MYC   HH1112115   0.065   3.988   8.660  1.5599  0.8704 -2.0321
   71MYC   H13212116   0.226   3.915   8.642 -0.7207  2.0302 -0.3601
   71MYC    C6212117   0.197   3.996   8.838  0.1357  0.2774 -0.2614
   71MYC   H13312118   0.252   4.086   8.808 -1.5814  0.6603 -2.4966
   71MYC   H13412119   0.272   3.925   8.874  2.0094  1.8236 -0.9134
   71MYC    C6112120   0.097   4.038   8.949  0.3969 -0.2094  0.6468
   71MYC   H13512121   0.030   3.954   8.970  0.1155  0.7894  4.4467
   71MYC   H13612122   0.039   4.124   8.914 -1.2099 -1.9812 -1.3759
   71MYC    C6012123   0.157   4.065   9.084 -1.1620 -0.1867  0.0258
   71MYC   H13712124   0.214   3.981   9.122  0.0766  0.4730 -0.3501
   71MYC    C5812125   0.194   4.203   9.136 -0.1591 -0.2677  0.6912
   71MYC   H13812126   0.194   4.275   9.055  0.6510 -0.6400  0.3466
   71MYC    C5912127   0.070   4.127   9.188  0.4205 -0.4661  0.1070
   71MYC   H13912128   0.077   4.083   9.287 -1.4339  0.4844  0.7064
   71MYC   H14012129  -0.021   4.168   9.147  0.9194  3.2890  2.3324
   71MYC    C5712130   0.317   4.223   9.220 -0.4405  0.2362 -0.3294
   71MYC   HH1012131   0.396   4.277   9.168  0.9054 -1.1152  0.2313
   71MYC   H14112132   0.363   4.125   9.240 -0.2047 -0.0109 -1.9989
   71MYC    C5612133   0.289   4.303   9.357 -0.2473 -0.2423  0.4918
   71MYC   H14212134   0.202   4.265   9.410 -0.3117  0.1533  0.6728
   71MYC   H14312135   0.260   4.406   9.332  0.9320  0.1771  0.7657
   71MYC    C5512136   0.418   4.316   9.438  0.1096  0.5664 -0.2276
   71MYC   H14412137   0.503   4.331   9.370 -0.1681  0.7195 -0.5515
   71MYC   H14512138   0.432   4.217   9.480 -3.4721 -0.5807 -1.3176
   71MYC    C5412139   0.434   4.420   9.545  0.4505 -0.4176  0.2235
   71MYC   H14612140   0.335   4.425   9.592  0.2163 -0.1241 -0.2922
   71MYC   H14712141   0.448   4.523   9.510 -1.5182 -0.4919 -0.8973
   71MYC    C5312142   0.538   4.391   9.656 -0.1633 -0.4953  0.6779
   71MYC   H14812143   0.632   4.402   9.601  1.0135 -2.0533  2.2599
   71MYC   H14912144   0.523   4.287   9.685 -0.6326 -1.0356 -1.3394
   71MYC    C5212145   0.509   4.488   9.773 -0.8182 -0.2380  0.2049
   71MYC    H9912146   0.401   4.479   9.791 -1.4269 -2.0876 -3.4388
   71MYC   H15012147   0.539   4.586   9.733  1.5529 -0.9712  0.0330
   71MYC    C5112148   0.583   4.449   9.903  0.0442  0.0676 -0.2249
   71MYC    H9712149   0.691   4.446   9.884  0.2682  2.2227  0.4333
   71MYC    H9812150   0.556   4.349   9.938 -0.4348  0.7241  1.3695
   71MYC    C5012151   0.544   4.545  10.023 -1.1722 -0.6272 -0.0134
   71MYC    H9512152   0.577   4.502  10.118  1.5820 -2.1791 -1.5160
   71MYC    H9612153   0.435   4.553  10.029 -1.0213  0.9408  1.4362
   71MYC    C4912154   0.610   4.686  10.011  0.2759 -0.4015  0.4976
   71MYC    H9312155   0.574   4.733   9.918  0.1978 -2.4892 -0.6039
   71MYC    H9412156   0.717   4.680   9.986  0.9640 -1.3223  3.3454
   71MYC    C4812157   0.594   4.777  10.134  0.7082  0.5121  0.1345
   71MYC    H9112158   0.685   4.754  10.192  1.2500  0.8775 -0.5597
   71MYC    H9212159   0.508   4.754  10.197  1.3407  0.4493  1.0010
   71MYC    C4712160   0.591   4.920  10.100 -0.1505  0.1034 -0.3051
   71MYC    H8912161   0.512   4.932  10.025 -0.6280 -0.9449  0.0195
   71MYC    H9012162   0.686   4.944  10.050 -0.8098 -0.4156 -1.8700
   71MYC    C4612163   0.582   5.027  10.211 -0.1237  0.2154 -0.7990
   71MYC    H8712164   0.621   5.121  10.171  0.5343 -0.2156 -1.1996
   71MYC    H8812165   0.652   4.999  10.290  0.0365  0.7392 -0.7522
   71MYC    C4512166   0.450   5.039  10.290  0.7029  0.4142 -0.3113
   71MYC    H8512167   0.415   4.951  10.344 -0.1151 -0.3491 -2.0234
   71MYC    H8612168   0.370   5.039  10.215 -1.8569 -1.0450  2.2508
   71MYC    C4412169   0.451   5.168  10.384  0.2538 -0.0560  0.4584
   71MYC    H8312170   0.425   5.256  10.324 -2.8021  0.2494  2.0515
   71MYC    H8412171   0.555   5.194  10.408 -0.6648  1.4900  3.2268
   71MYC    C1812172   0.354   5.161  10.499 -0.2635 -0.0358  0.1538
   71MYC    H3112173   0.253   5.150  10.462 -0.6909 -0.3369  1.3975
   71MYC    C1712174   0.390   5.096  10.631  0.5636 -0.2768  0.0630
   71MYC    H3012175   0.494   5.071  10.646  0.4551 -0.3217  0.7754
   71MYC    C1912176   0.351   5.237  10.619  0.1153 -0.4842  0.5728
   71MYC    H3212177   0.428   5.313  10.632 -1.1060  0.8298  0.3340
   71MYC    H3312178   0.251   5.254  10.658 -0.5341  1.3496 -1.6779
   71MYC    C1612179   0.300   4.986  10.695  0.4804  0.1991  0.3950
   71MYC    H2812180   0.193   5.012  10.689  0.6129  0.8268  0.6174
   71MYC    H2912181   0.314   4.988  10.804 -0.4182  1.4569  0.5208
   71MYC    C1512182   0.322   4.843  10.637  0.3788 -0.6807  0.2055
   71MYC    H2612183   0.309   4.862  10.530 -0.9864 -0.3094  0.4162
   71MYC    H2712184   0.257   4.766  10.681  1.6301 -1.4506  0.7583
   71MYC    C1412185   0.463   4.791  10.653 -0.3820 -0.4027  0.4045
   71MYC    H2412186   0.487   4.785  10.760 -1.7222 -0.4992  0.7158
   71MYC    H2512187   0.527   4.868  10.608  0.3874  0.1703  2.3398
   71MYC    C1312188   0.489   4.659  10.574 -0.4031 -0.0076 -0.1207
   71MYC    H2212189   0.462   4.682  10.470  1.1881  0.5905 -0.4161
   71MYC    H2312190   0.423   4.586  10.624 -1.5191  2.3256  2.0439
   71MYC    C1212191   0.632   4.602  10.595 -0.1868 -0.5049  0.8208
   71MYC    H2012192   0.640   4.496  10.565  1.7791 -0.3350  0.5782
   71MYC    H2112193   0.650   4.606  10.703  1.2432 -2.3735  0.7107
   71MYC    C1112194   0.727   4.697  10.519  0.0444 -0.2572 -0.2414
   71MYC    H1812195   0.735   4.783  10.588  1.8052 -0.4807 -0.1218
   71MYC    H1912196   0.678   4.742  10.432 -2.3439  0.9210  1.5768
   71MYC    C1012197   0.872   4.651  10.494  0.2017 -0.3937 -0.4254
   71MYC    H1612198   0.852   4.612  10.393  0.7630 -1.4790 -0.1328
   71MYC    H1712199   0.889   4.569  10.564 -2.2759  0.6760  1.5780
   71MYC     C912200   0.981   4.759  10.487 -0.1958  0.7508 -0.1067
   71MYC    H1412201   1.084   4.721  10.485 -0.1729  0.8066  0.0239
   71MYC    H1512202   0.981   4.824  10.575  4.4427  0.2911  0.4948
   71MYC     C812203   0.962   4.836  10.356  0.0251 -0.2355 -0.3582
   71MYC    H1212204   0.855   4.857  10.345  0.1832  0.7885 -0.0364
   71MYC    H1312205   0.991   4.773  10.271  0.1337 -0.8971  0.1507
   71MYC     C712206   1.037   4.976  10.333  0.2671  0.5970 -0.1788
   71MYC    H1012207   1.019   5.002  10.228 -2.4930  0.5963  0.2137
   71MYC    H1112208   1.144   4.971  10.355  0.6593  0.3052 -1.9981
   71MYC     C612209   0.995   5.086  10.433  0.4041  1.0284 -0.2202
   71MYC     H812210   1.018   5.065  10.538 -0.8109 -1.6934 -0.4117
   71MYC     H912211   0.885   5.086  10.427  0.1659 -0.6055  2.4018
   71MYC     C512212   1.054   5.228  10.408 -0.7172  0.2518  0.6866
   71MYC     H612213   0.994   5.275  10.329 -0.3773 -2.0357 -1.0553
   71MYC     H712214   1.151   5.218  10.358 -0.4969 -0.4795  1.2373
   71MYC     C412215   1.041   5.318  10.538  0.1559 -0.9632 -0.0635
   71MYC     H412216   1.076   5.270  10.630  1.6023 -0.4498 -0.3223
   71MYC     H512217   0.936   5.343  10.555  0.6817  0.2841  1.5929
   71MYC     C212218   1.095   5.464  10.519 -0.5905 -0.0816 -0.3455
   71MYC     H212219   1.086   5.494  10.414  2.0716  1.6026 -0.1917
   71MYC     O312220   1.014   5.549  10.607 -0.4329 -0.0639 -0.4789
   71MYC     H312221   1.045   5.641  10.607 -3.0761  0.9783  1.6665
   71MYC     C112222   1.249   5.480  10.560 -0.1773  0.4640 -0.4846
   71MYC     H112223   1.305   5.391  10.529  0.1249 -0.1192  1.5503
   71MYC    C8112224   1.279   5.482  10.714  0.9945 -0.4094 -0.0277
   71MYC    O8212225   1.256   5.587  10.785 -0.1391  0.4074 -0.2315
   71MYC    O8312226   1.377   5.401  10.750  0.2959 -0.6566  0.1178
   71MYC   H10512227   1.398   5.441  10.836  1.1903 -1.7387  0.4209
   71MYC    C2012228   1.304   5.603  10.485  0.4594 -0.7278  0.1433
   71MYC    H3412229   1.273   5.599  10.380  1.0780 -1.1156 -0.0222
   71MYC    H3512230   1.248   5.695  10.508 -0.2080 -0.4915 -2.1519
   71MYC    C2112231   1.455   5.619  10.485 -0.3923 -0.5226 -0.2434
   71MYC    H3612232   1.487   5.650  10.585 -2.6598  0.1519  0.3283
   71MYC    H3712233   1.509   5.528  10.457  0.2965 -0.7631  1.6751
   71MYC    C2212234   1.493   5.722  10.374  0.1856  0.2878  0.0994
   71MYC    H3812235   1.431   5.705  10.285 -1.5573  1.8043  0.9662
   71MYC    H3912236   1.449   5.819  10.398  2.0007  0.7842  1.5872
   71MYC    C2312237   1.646   5.730  10.335 -0.1359 -0.4012 -0.7895
   71MYC    H4012238   1.667   5.830  10.293  0.6423 -0.1645  0.1245
   71MYC    H4112239   1.698   5.732  10.431 -2.6379 -1.2429  0.6676
   71MYC    C2412240   1.697   5.614  10.242 -0.7702  0.5585 -0.2009
   71MYC    H4212241   1.683   5.518  10.294  0.0984  1.8562  2.6165
   71MYC    H4312242   1.639   5.614  10.149 -0.1173  0.6039 -0.6107
   71MYC    C2512243   1.844   5.634  10.217 -0.1641 -0.1123 -0.8296
   71MYC    H4412244   1.872   5.738  10.196  1.0923  0.0972  1.4800
   71MYC    H4512245   1.901   5.612  10.308 -1.8273 -1.9471 -0.1752
   71MYC    C2612246   1.910   5.543  10.118  0.6956  0.8885  0.5759
   71MYC    H4612247   2.016   5.559  10.140  1.2346 -2.0035  0.4855
   71MYC    H4712248   1.876   5.441  10.138 -1.6806  1.4293 -0.2968
   71MYC    C2712249   1.882   5.572   9.973  0.4699  0.1297  0.3280
   71MYC    H4812250   1.776   5.562   9.945  1.0847  2.1207 -3.4013
   71MYC    H4912251   1.897   5.680   9.966  1.0542  0.1092  1.0969
   71MYC    C2812252   1.980   5.509   9.873 -0.9387  0.2007 -0.2773
   71MYC    H5012253   2.083   5.532   9.902 -1.2997 -0.5175  1.7426
   71MYC    H5112254   1.981   5.400   9.883  1.2364  0.3708  3.0169
   71MYC    C2912255   1.951   5.555   9.727 -0.1898  0.2170  0.0523
   71MYC    H5212256   1.842   5.556   9.718 -0.3931 -0.8861  1.8599
   71MYC    H5312257   1.984   5.660   9.718 -1.5858  0.5209 -1.9594
   71MYC    C3012258   2.012   5.467   9.620 -0.2038  0.3249 -0.2946
   71MYC    H5412259   2.119   5.447   9.638 -0.5725 -1.8069 -0.2079
   71MYC    H5512260   1.964   5.369   9.631  1.5972 -0.5513  0.3135
   71MYC    C3112261   2.002   5.520   9.471  0.0779  0.7120 -0.1477
   71MYC    H5612262   1.900   5.552   9.445  0.6288  1.3970 -1.6212
   71MYC    H5712263   2.050   5.619   9.462 -0.3167  0.7705 -1.9544
   71MYC    C3212264   2.047   5.412   9.364 -0.1063  0.0053  0.5259
   71MYC    H5812265   2.156   5.402   9.376  0.1671  0.1107 -1.5144
   71MYC    H5912266   1.999   5.317   9.388 -1.8497  0.7383  0.0455
   71MYC    C3312267   2.009   5.452   9.221  0.6284 -0.4070  0.4552
   71MYC    H6012268   1.899   5.459   9.224  0.5096 -1.7584 -0.1708
   71MYC    H6112269   2.042   5.551   9.186 -2.3617  0.4953 -0.1690
   71MYC    C3412270   2.033   5.344   9.103 -0.1347  0.5705 -0.5301
   71MYC    H6212271   1.985   5.251   9.137  0.0725  0.4226 -0.6438
   71MYC    H6312272   1.976   5.384   9.018 -1.0104  0.8354  0.1566
   71MYC    C3512273   2.183   5.320   9.062 -0.4420  0.0903 -0.3193
   71MYC    H6412274   2.210   5.412   9.008 -2.0249 -0.2487 -1.7858
   71MYC    H6512275   2.246   5.320   9.151 -0.3644  0.6702 -0.3720
   71MYC    C3612276   2.197   5.194   8.969 -0.0445 -0.3721  0.4259
   71MYC    H6612277   2.192   5.096   9.017  3.0218 -0.0688  1.6246
   71MYC    H6712278   2.120   5.192   8.890  1.2035  0.7908 -0.8784
   71MYC    C3712279   2.340   5.198   8.897  0.1899 -0.0421  0.0363
   71MYC    H6812280   2.343   5.287   8.833 -3.0573  2.1588  2.5951
   71MYC    H6912281   2.419   5.208   8.972 -1.4784 -0.6691  1.9791
   71MYC    C3812282   2.357   5.075   8.811  0.0877 -0.0519 -1.0373
   71MYC    H7012283   2.462   5.063   8.781  0.2494  0.6633 -0.7788
   71MYC    H7112284   2.319   4.988   8.865  0.6477 -0.3340 -1.0902
   71MYC    C3912285   2.269   5.079   8.683  0.8883  0.2683  0.1487
   71MYC    H7212286   2.167   5.066   8.721  1.1829 -1.2258  0.4958
   71MYC    H7312287   2.289   5.175   8.633  0.1501  1.8949  2.7633
   71MYC    C4012288   2.275   4.965   8.577 -0.3502 -0.0534 -0.6254
   71MYC    H7412289   2.283   4.870   8.633 -2.1979  0.4963  0.6919
   71MYC    H7512290   2.179   4.964   8.524 -0.8609  0.6044  0.2573
   71MYC    C4112291   2.394   4.969   8.481  0.7421 -0.1966  0.1938
   71MYC    H7612292   2.486   5.001   8.532  0.0890  1.9661  0.1444
   71MYC    H7712293   2.410   4.866   8.450  2.4230  0.1814 -0.2643
   71MYC    C4212294   2.364   5.075   8.367 -0.2684  0.0369 -0.2617
   71MYC    H7812295   2.262   5.076   8.326 -0.9018  1.5379  1.2029
   71MYC    H7912296   2.359   5.171   8.421  3.2368 -0.1953  0.7317
   71MYC    C4312297   2.462   5.078   8.253 -0.3967 -0.2030  0.3935
   71MYC    H8012298   2.555   5.128   8.283  0.0158 -1.0518  0.5585
   71MYC    H8112299   2.421   5.144   8.175  1.4318  2.7102  1.6867
   71MYC    H8212300   2.487   4.988   8.196 -3.1732 -0.6746 -0.1913
   72MYC   HH1512301   2.676   4.554   7.773 -0.5493 -0.8916  1.4125
   72MYC    C8012302   2.763   4.496   7.804  0.0794 -0.2729  0.8653
   72MYC   H10012303   2.737   4.391   7.786 -1.5235  0.3307 -0.5536
   72MYC   H10112304   2.854   4.531   7.755  0.3754 -1.0858  0.8119
   72MYC    C7912305   2.789   4.518   7.945  0.1982  0.0447  0.0878
   72MYC   H10212306   2.876   4.463   7.985 -1.8036 -0.9668  3.4545
   72MYC   H10312307   2.705   4.472   7.999  2.2455 -3.7654  0.4301
   72MYC    C7812308   2.798   4.667   7.980 -0.1072  1.0783  0.0725
   72MYC   HH1412309   2.719   4.713   7.920  0.9648  0.7845 -1.6379
   72MYC   H10412310   2.886   4.708   7.929 -1.3019  0.7595 -2.4023
   72MYC    C7712311   2.791   4.691   8.130  0.4851 -0.3299 -0.0218
   72MYC   H10612312   2.874   4.651   8.189  1.1181  0.9424 -0.0210
   72MYC   H10712313   2.702   4.632   8.155  1.5688 -2.0469 -0.1021
   72MYC    C7612314   2.778   4.841   8.163  0.0947 -0.8477 -0.1811
   72MYC   H10812315   2.709   4.905   8.107  3.5127  4.6462  1.1355
   72MYC   H10912316   2.878   4.882   8.147  0.1363 -1.2026 -0.8954
   72MYC    C7512317   2.745   4.880   8.313  0.4150 -0.7169 -0.1510
   72MYC   H11012318   2.648   4.841   8.345  1.2560 -1.7617  1.2584
   72MYC   H11112319   2.734   4.989   8.313 -0.5450 -0.7956  0.7276
   72MYC    C7412320   2.862   4.863   8.415 -0.5341  0.3294  0.0838
   72MYC   H11212321   2.961   4.888   8.374 -0.5350  0.8377  0.3874
   72MYC   H11312322   2.866   4.754   8.423 -1.1780  0.3895  1.3159
   72MYC    C7312323   2.851   4.927   8.555  0.0673  0.3857  0.6432
   72MYC   HH1312324   2.810   5.029   8.548  1.1231  0.8421  0.9794
   72MYC   H11412325   2.950   4.929   8.601  0.5002  0.9057 -0.2900
   72MYC    C7212326   2.746   4.860   8.648  0.3172  0.5431 -0.2436
   72MYC   H11512327   2.649   4.855   8.597 -0.6407  2.1779  1.3032
   72MYC   H11612328   2.733   4.932   8.729  0.4859 -0.1405  0.3995
   72MYC    C7112329   2.787   4.729   8.726 -0.6696  0.5859  0.4565
   72MYC   H11712330   2.874   4.761   8.783 -0.4955  2.7425 -0.8930
   72MYC   H11812331   2.815   4.657   8.648 -0.4935  2.5525 -1.3988
   72MYC    C7012332   2.681   4.669   8.826  0.2456  0.1855 -0.1283
   72MYC   H11912333   2.700   4.563   8.847 -0.2858  0.5576  2.5229
   72MYC   H12012334   2.585   4.676   8.774  0.2034 -2.9560 -0.6527
   72MYC    C6912335   2.669   4.742   8.958 -1.2523  0.5196  0.3801
   72MYC   H12112336   2.628   4.841   8.936  0.6362  1.1479 -0.5141
   72MYC   H12212337   2.763   4.769   9.007 -1.4956  0.4433  0.8938
   72MYC    C6812338   2.581   4.679   9.069 -0.1517 -0.6839 -0.3560
   72MYC   HH1212339   2.593   4.741   9.158 -1.9415 -1.5196  0.5306
   72MYC   H12312340   2.597   4.570   9.073 -2.2476 -1.0098  0.7304
   72MYC    C6712341   2.426   4.684   9.037 -0.0109 -0.5732  0.0318
   72MYC   H12412342   2.407   4.613   8.956 -1.9962  0.1974 -0.2282
   72MYC   H12512343   2.385   4.776   8.994 -0.6765 -0.8290  0.1123
   72MYC    C6612344   2.340   4.630   9.155 -0.0022 -0.3878 -0.0089
   72MYC   H12612345   2.349   4.522   9.172 -2.1322 -0.8486 -1.3264
   72MYC   H12712346   2.238   4.649   9.118  1.0648  3.9369 -1.3026
   72MYC    C6512347   2.363   4.697   9.290 -0.3164  0.2881 -0.3953
   72MYC   H12812348   2.385   4.798   9.255  0.8800 -1.1990 -4.6556
   72MYC   H12912349   2.451   4.658   9.342 -0.0162 -0.7541 -1.6278
   72MYC    C6412350   2.241   4.707   9.376  0.6480 -0.3810 -0.8975
   72MYC   H13012351   2.272   4.759   9.468  0.7385 -2.1163  0.0833
   72MYC   H13112352   2.218   4.606   9.411 -0.5979  0.3825  0.6324
   72MYC    C6312353   2.114   4.776   9.316  0.5122  0.2524  0.7908
   72MYC   HH1112354   2.077   4.713   9.234  0.5211  3.1367 -1.6232
   72MYC   H13212355   2.142   4.867   9.260 -1.7371  0.1254 -0.6901
   72MYC    C6212356   2.009   4.829   9.417 -0.6842 -0.3358 -0.0009
   72MYC   H13312357   2.049   4.888   9.500  0.0903  0.6842 -1.0639
   72MYC   H13412358   1.982   4.744   9.481  0.9352  0.1868  1.4478
   72MYC    C6112359   1.892   4.905   9.354  0.2161  0.8766  0.3368
   72MYC   H13512360   1.856   4.840   9.274  0.8858 -2.9582  2.9191
   72MYC   H13612361   1.933   4.994   9.304 -1.4800  1.6945  0.3162
   72MYC    C6012362   1.781   4.954   9.454 -0.2722 -0.2530 -0.5948
   72MYC   H13712363   1.701   4.881   9.460 -1.2318  0.6722 -1.5263
   72MYC    C5812364   1.807   5.052   9.566  0.1511 -0.7692  0.4992
   72MYC   H13812365   1.907   5.092   9.573  0.7768 -1.3658 -3.2211
   72MYC    C5912366   1.733   5.097   9.442 -0.1820  0.4404 -0.5243
   72MYC   H13912367   1.625   5.107   9.438 -0.2230  0.7053  0.7541
   72MYC   H14012368   1.795   5.169   9.390  1.5002 -0.1970  0.4856
   72MYC    C5712369   1.740   5.033   9.701  0.0528 -0.3778  0.1223
   72MYC   HH1012370   1.794   4.951   9.750 -1.4199 -2.1770 -1.1370
   72MYC   H14112371   1.634   5.005   9.697 -0.0639  0.0070  0.5219
   72MYC    C5612372   1.755   5.163   9.786  0.2761 -0.1796  0.2676
   72MYC   H14212373   1.714   5.244   9.725  1.1817  0.8781  1.0382
   72MYC   H14312374   1.857   5.194   9.809 -0.5193  2.9074  0.0887
   72MYC    C5512375   1.681   5.161   9.922  0.4721 -0.3385  0.1488
   72MYC   H14412376   1.592   5.097   9.920  0.2096  0.0336 -0.6021
   72MYC   H14512377   1.650   5.263   9.948 -1.3740 -0.3084 -1.8971
   72MYC    C5412378   1.767   5.120  10.046  0.5877 -0.0920  0.3638
   72MYC   H14612379   1.868   5.161  10.037  1.0490 -1.1849  0.4415
   72MYC   H14712380   1.772   5.012  10.031 -0.6087  0.1698 -2.4552
   72MYC    C5312381   1.684   5.143  10.177  0.1119 -0.0063 -0.2732
   72MYC   H14812382   1.582   5.105  10.163 -0.1713  0.9846 -0.9923
   72MYC   H14912383   1.660   5.248  10.192  3.3508  0.3552  4.8191
   72MYC    C5212384   1.744   5.077  10.300  0.4779 -0.0892 -0.3697
   72MYC    H9912385   1.820   5.147  10.336 -1.2254 -0.5562  4.9489
   72MYC   H15012386   1.786   4.978  10.277 -0.0045 -1.1906  2.8808
   72MYC    C5112387   1.642   5.069  10.415 -0.4370 -0.0071 -0.1374
   72MYC    H9712388   1.565   4.996  10.388 -2.8405  2.0506  0.7380
   72MYC    H9812389   1.587   5.163  10.428 -2.6898 -1.3138  0.2314
   72MYC    C5012390   1.710   5.020  10.551  0.9354 -0.6916  0.4309
   72MYC    H9512391   1.767   4.928  10.536  0.7140 -1.0604  1.7199
   72MYC    H9612392   1.625   5.002  10.619 -1.2499  2.0836 -1.3363
   72MYC    C4912393   1.808   5.125  10.608 -0.1250  0.1920  0.4477
   72MYC    H9312394   1.752   5.219  10.596 -2.3751 -0.9162  1.6175
   72MYC    H9412395   1.900   5.139  10.550 -0.2745 -0.8554 -0.0730
   72MYC    C4812396   1.849   5.091  10.758 -0.7132  0.0506  0.5134
   72MYC    H9112397   1.763   5.072  10.823 -0.5761 -2.4978  0.0454
   72MYC    H9212398   1.898   5.181  10.797  2.5643 -0.5807 -1.7545
   72MYC    C4712399   1.961   4.979  10.754  0.1706  0.4105 -0.4775
   72MYC    H8912400   2.048   5.013  10.697 -1.0175  0.8352 -2.1226
   72MYC    H9012401   1.924   4.890  10.702  2.2480  0.2844 -1.8395
   72MYC    C4612402   2.010   4.949  10.901 -0.0361 -0.1830  0.1166
   72MYC    H8712403   1.923   4.915  10.958  1.4587 -1.9416  1.4749
   72MYC    H8812404   2.028   5.041  10.958 -2.0887 -0.5622  1.4884
   72MYC    C4512405   2.126   4.852  10.900 -0.1747  0.4075 -0.2016
   72MYC    H8512406   2.155   4.842  11.006 -0.5233  1.8808  0.0588
   72MYC    H8612407   2.207   4.902  10.847 -1.2213  0.6555 -1.6292
   72MYC    C4412408   2.109   4.716  10.831 -0.0831 -1.2536 -0.0347
   72MYC    H8312409   2.208   4.671  10.842  2.0835  3.0517 -0.2420
   72MYC    H8412410   2.084   4.732  10.726 -1.8903 -1.1980  0.3653
   72MYC    C1812411   1.994   4.640  10.890 -0.1005  0.9939 -0.0452
   72MYC    H3112412   1.988   4.642  10.999 -1.6760 -0.0308 -0.0824
   72MYC    C1712413   1.870   4.624  10.812 -0.5703 -0.3510 -0.6048
   72MYC    H3012414   1.867   4.673  10.716 -0.9824  0.3867 -0.2198
   72MYC    C1912415   1.961   4.502  10.832 -0.1622 -0.4951 -0.2784
   72MYC    H3212416   2.014   4.462  10.746  2.8937  0.1829  1.1454
   72MYC    H3312417   1.939   4.431  10.911  0.7182  0.3585  0.7817
   72MYC    C1612418   1.743   4.620  10.882  0.2484 -0.2175 -0.4204
   72MYC    H2812419   1.713   4.725  10.894  2.2907  0.3844 -0.1895
   72MYC    H2912420   1.758   4.568  10.977 -2.0768 -1.8764 -0.8891
   72MYC    C1512421   1.644   4.534  10.800  0.6401  0.1568  0.4247
   72MYC    H2612422   1.561   4.497  10.861 -0.0921  1.6157  0.3698
   72MYC    H2712423   1.692   4.443  10.764  0.4393  0.1948  0.0543
   72MYC    C1412424   1.580   4.607  10.674 -0.3919 -0.5455 -0.7645
   72MYC    H2412425   1.645   4.683  10.628 -0.0165 -1.7967 -2.4071
   72MYC    H2512426   1.495   4.660  10.719  0.1062  0.8218 -1.3794
   72MYC    C1312427   1.519   4.507  10.582  0.9084  0.3575  0.2769
   72MYC    H2212428   1.420   4.485  10.624  1.9828 -1.5963  1.9213
   72MYC    H2312429   1.571   4.412  10.571 -1.7043 -1.0769 -0.4556
   72MYC    C1212430   1.495   4.559  10.440 -0.3733  0.5976  0.2983
   72MYC    H2012431   1.457   4.481  10.374 -0.8536 -0.1908  1.4862
   72MYC    H2112432   1.589   4.605  10.405 -1.0305  2.1830  0.5496
   72MYC    C1112433   1.401   4.678  10.433 -0.0468  0.3731 -0.3425
   72MYC    H1812434   1.456   4.761  10.478 -2.2526  1.4823  0.4064
   72MYC    H1912435   1.312   4.653  10.492 -0.1769  3.5318  0.9681
   72MYC    C1012436   1.366   4.716  10.287  0.2253 -0.4087 -0.4408
   72MYC    H1612437   1.460   4.721  10.232 -0.0328 -2.5613 -1.1553
   72MYC    H1712438   1.317   4.813  10.300 -1.6623 -1.5176  1.4066
   72MYC     C912439   1.270   4.614  10.215  0.1923  0.0344  0.0467
   72MYC    H1412440   1.177   4.613  10.274  0.2724 -0.7179  0.1627
   72MYC    H1512441   1.302   4.510  10.216  0.5841  0.1439 -0.6334
   72MYC     C812442   1.234   4.658  10.072 -0.0481 -0.1861  0.0690
   72MYC    H1212443   1.331   4.676  10.024  0.2331 -3.0651 -0.6365
   72MYC    H1312444   1.190   4.758  10.078 -1.0817 -0.6401  0.2597
   72MYC     C712445   1.146   4.567   9.986 -0.1411  0.4594  1.1258
   72MYC    H1012446   1.052   4.537  10.034 -1.7271 -0.1662 -2.1178
   72MYC    H1112447   1.201   4.475   9.964  1.7428  1.7598  0.1252
   72MYC     C612448   1.101   4.643   9.845  0.1274  0.0435 -0.0294
   72MYC     H812449   1.188   4.684   9.794 -0.7053  1.0547 -0.6907
   72MYC     H912450   1.026   4.721   9.858  0.2371  0.0726  0.4286
   72MYC     C512451   1.048   4.538   9.738  0.6115  0.0892 -0.4417
   72MYC     H612452   0.949   4.500   9.766  1.0851 -0.7820  0.1121
   72MYC     H712453   1.110   4.447   9.737 -1.9324 -1.7697 -1.9299
   72MYC     C412454   1.041   4.592   9.601  0.6511 -0.7270  0.3401
   72MYC     H412455   1.133   4.650   9.585 -1.3369  2.1092 -1.8056
   72MYC     H512456   0.966   4.671   9.595  2.0371  0.5830 -0.7940
   72MYC     C212457   1.002   4.498   9.479 -0.2191  1.1633 -0.5375
   72MYC     H212458   0.906   4.455   9.510 -0.1537 -0.6825 -2.6843
   72MYC     O312459   0.978   4.583   9.368 -0.2394  0.0193 -0.4479
   72MYC     H312460   1.065   4.598   9.326 -0.0991 -0.1587 -0.2234
   72MYC     C112461   1.113   4.389   9.454 -0.3667 -0.3133 -0.2092
   72MYC     H112462   1.140   4.339   9.547 -0.1040  0.2645  0.0327
   72MYC    C8112463   1.248   4.456   9.400 -0.5931  0.4801 -1.1269
   72MYC    O8212464   1.265   4.522   9.298 -0.3800 -0.7072 -0.0936
   72MYC    O8312465   1.356   4.454   9.490  0.4711  0.2619 -0.5122
   72MYC   H10512466   1.421   4.503   9.438 -1.4437  2.2076 -1.2459
   72MYC    C2012467   1.061   4.270   9.377 -0.2110  0.6655 -0.1834
   72MYC    H3412468   0.982   4.216   9.430 -0.3869 -1.0449 -2.0847
   72MYC    H3512469   1.011   4.309   9.288 -2.1833  0.4972  0.7968
   72MYC    C2112470   1.181   4.178   9.334  0.4345  0.5337  0.2184
   72MYC    H3612471   1.238   4.222   9.252  1.0715 -2.1493 -0.8875
   72MYC    H3712472   1.255   4.167   9.414  0.5646  1.3978  0.2212
   72MYC    C2212473   1.144   4.036   9.291  1.6614  0.2458  0.8171
   72MYC    H3812474   1.234   3.973   9.287  1.1165 -0.4946 -0.2467
   72MYC    H3912475   1.073   3.996   9.364 -0.9838 -0.3416 -1.8898
   72MYC    C2312476   1.085   4.019   9.156 -0.2554  0.8390  0.1961
   72MYC    H4012477   0.984   4.062   9.161  0.9283  3.9208 -0.2021
   72MYC    H4112478   1.161   4.074   9.100 -1.2295  0.0141 -2.0377
   72MYC    C2412479   1.073   3.872   9.114 -0.1260  0.1736  0.1341
   72MYC    H4212480   1.016   3.818   9.190 -0.4192  0.1597 -0.0927
   72MYC    H4312481   1.016   3.861   9.021 -1.2308 -0.6384  0.8832
   72MYC    C2512482   1.206   3.791   9.095  0.1435 -0.3032  0.0077
   72MYC    H4412483   1.244   3.823   8.997  0.1950  1.5107  0.5834
   72MYC    H4512484   1.285   3.806   9.169  1.9509 -0.8624 -1.7212
   72MYC    C2612485   1.176   3.638   9.078 -0.3924 -0.2996 -0.2083
   72MYC    H4612486   1.271   3.584   9.090 -1.0777 -1.3853  0.5403
   72MYC    H4712487   1.127   3.600   9.168  0.3489 -0.3014  0.2006
   72MYC    C2712488   1.114   3.603   8.938  0.2069 -0.8618  0.2111
   72MYC    H4812489   1.027   3.666   8.917  0.9585 -0.6691 -2.7025
   72MYC    H4912490   1.185   3.621   8.857 -1.4511  1.1412 -0.8935
   72MYC    C2812491   1.071   3.461   8.937 -0.1967 -0.2887  0.5592
   72MYC    H5012492   1.160   3.404   8.908 -0.7634 -0.7895 -0.2468
   72MYC    H5112493   1.022   3.426   9.029  0.2287 -1.1637  0.4595
   72MYC    C2912494   0.970   3.426   8.826  0.8626 -0.7265  0.1292
   72MYC    H5212495   0.968   3.318   8.806  2.2731 -0.2912 -2.9310
   72MYC    H5312496   0.872   3.461   8.862  1.7029  1.5702  0.3311
   72MYC    C3012497   0.986   3.489   8.678 -0.4815  0.4520  0.5580
   72MYC    H5412498   0.960   3.595   8.673  2.1522  1.1337 -0.7215
   72MYC    H5512499   1.092   3.476   8.653 -0.4019  0.0864  1.0739
   72MYC    C3112500   0.903   3.412   8.576 -0.2412 -0.3208  0.5091
   72MYC    H5612501   0.935   3.308   8.584  1.2010  0.2201  2.2069
   72MYC    H5712502   0.797   3.419   8.602  0.1498 -0.3624  2.1925
   72MYC    C3212503   0.922   3.460   8.428  0.4919 -0.7609  0.4249
   72MYC    H5812504   0.868   3.556   8.422  0.9882 -0.5428 -0.8908
   72MYC    H5912505   1.026   3.490   8.411 -0.2882  1.1674 -1.4953
   72MYC    C3312506   0.869   3.365   8.321 -0.0617  0.5439 -0.0611
   72MYC    H6012507   0.945   3.286   8.334  1.4119  1.8607 -0.4170
   72MYC    H6112508   0.769   3.329   8.346  0.5512  0.0533  1.9362
   72MYC    C3412509   0.876   3.434   8.188 -0.8010 -0.6841 -0.6049
   72MYC    H6212510   0.819   3.527   8.188  0.6776  0.2785  0.1850
   72MYC    H6312511   0.980   3.465   8.168 -1.5486  1.6510 -1.1692
   72MYC    C3512512   0.830   3.349   8.061  0.4112  0.6336 -0.0926
   72MYC    H6412513   0.904   3.268   8.060  1.6803  1.7426 -0.8166
   72MYC    H6512514   0.731   3.306   8.076  0.6085 -0.2227 -1.1471
   72MYC    C3612515   0.836   3.417   7.931 -0.0906 -0.2171  0.4017
   72MYC    H6612516   0.760   3.496   7.929  2.2200  2.3008  3.3002
   72MYC    H6712517   0.930   3.472   7.920 -0.6117  1.0040  1.7916
   72MYC    C3712518   0.806   3.325   7.807 -0.2564  0.0112  0.0225
   72MYC    H6812519   0.875   3.241   7.793 -0.4912 -0.1697 -0.0491
   72MYC    H6912520   0.707   3.277   7.807 -0.3565  0.1964  1.3424
   72MYC    C3812521   0.823   3.420   7.683 -0.1448 -0.1977  0.0971
   72MYC    H7012522   0.748   3.499   7.679 -0.6300 -0.6961 -0.9359
   72MYC    H7112523   0.925   3.459   7.685  0.2467 -0.9909 -1.8397
   72MYC    C3912524   0.795   3.332   7.560  0.2882 -0.0483 -0.1575
   72MYC    H7212525   0.886   3.271   7.547  2.1037  2.7044 -1.5836
   72MYC    H7312526   0.703   3.274   7.568  0.1677  0.2443  0.6702
   72MYC    C4012527   0.782   3.419   7.429 -0.2502  0.3127  0.0544
   72MYC    H7412528   0.699   3.491   7.428 -0.7683 -0.2537 -1.6685
   72MYC    H7512529   0.867   3.488   7.422  0.3772 -0.3929  0.6139
   72MYC    C4112530   0.768   3.343   7.294  0.3547 -0.2356 -0.0157
   72MYC    H7612531   0.867   3.298   7.278  1.4581  2.2142 -0.4789
   72MYC    H7712532   0.691   3.265   7.305 -2.9461  2.4034 -2.3590
   72MYC    C4212533   0.736   3.435   7.171 -0.3040  0.3927 -0.8856
   72MYC    H7812534   0.648   3.498   7.181 -3.0764 -3.0454 -1.5423
   72MYC    H7912535   0.820   3.505   7.163 -0.4314  0.5511 -0.8225
   72MYC    C4312536   0.719   3.353   7.044  0.0393  0.0759  0.1267
   72MYC    H8012537   0.625   3.297   7.052 -0.5292  1.0523  0.6750
   72MYC    H8112538   0.802   3.285   7.024  0.2089 -0.2467  1.7793
   72MYC    H8212539   0.706   3.423   6.961  1.7786  1.9053  1.2843
   73MYC   HH1512540   3.784   5.155   7.417 -0.9978 -1.0682  0.4489
   73MYC    C8012541   3.799   5.047   7.410  0.2062 -0.9014  0.1460
   73MYC   H10012542   3.803   5.004   7.310 -0.8182 -0.5549 -0.0537
   73MYC   H10112543   3.898   5.017   7.445  0.6393  2.3443  2.1520
   73MYC    C7912544   3.700   4.975   7.497 -0.0365  0.9118  0.3583
   73MYC   H10212545   3.702   4.868   7.475  0.7349  0.8497  0.7066
   73MYC   H10312546   3.598   5.008   7.474 -0.5444 -1.0146 -0.3164
   73MYC    C7812547   3.724   4.996   7.651 -0.4895 -0.1499 -0.1654
   73MYC   HH1412548   3.731   5.106   7.658  0.0611 -0.2437  0.9310
   73MYC   H10412549   3.826   4.972   7.683 -0.6543  1.8980  2.2168
   73MYC    C7712550   3.613   4.947   7.740 -1.0558 -0.2021  0.9253
   73MYC   H10612551   3.603   4.841   7.712  3.8242 -0.7540  0.5104
   73MYC   H10712552   3.521   5.003   7.716 -0.9903 -0.1861  0.7141
   73MYC    C7612553   3.640   4.967   7.884  0.9478 -0.8087 -0.2133
   73MYC   H10812554   3.647   5.075   7.902 -1.0088 -0.5493 -0.8013
   73MYC   H10912555   3.736   4.920   7.905  0.8344 -0.2814  1.7369
   73MYC    C7512556   3.533   4.916   7.983  0.4350 -0.2793  0.0858
   73MYC   H11012557   3.523   4.812   7.949  1.3106  0.1206 -1.5212
   73MYC   H11112558   3.439   4.972   7.967  1.2326  0.7490 -1.2414
   73MYC    C7412559   3.580   4.923   8.129  0.7627  0.6588 -0.3478
   73MYC   H11212560   3.581   5.032   8.147 -2.9593  0.6136  1.1837
   73MYC   H11312561   3.677   4.876   8.143 -0.4249 -1.2754  2.2621
   73MYC    C7312562   3.472   4.853   8.222  0.1003  0.2101 -0.0868
   73MYC   HH1312563   3.473   4.748   8.193  1.3608  0.2050 -0.0789
   73MYC   H11412564   3.376   4.902   8.203  0.2250  0.3690 -0.3161
   73MYC    C7212565   3.510   4.863   8.372  0.0601  0.3916 -0.0193
   73MYC   H11512566   3.515   4.966   8.409 -0.9268  0.0347  1.1943
   73MYC   H11612567   3.602   4.807   8.393 -1.1112 -0.8279  2.3161
   73MYC    C7112568   3.408   4.789   8.461 -0.1748  0.1919 -0.9234
   73MYC   H11712569   3.407   4.681   8.446  0.6523  0.1746 -0.9358
   73MYC   H11812570   3.314   4.844   8.461  1.1623  2.6809  0.7376
   73MYC    C7012571   3.453   4.805   8.609 -0.3016  0.0256  0.7515
   73MYC   H11912572   3.456   4.913   8.626 -1.2020  0.3566 -0.9907
   73MYC   H12012573   3.552   4.767   8.637  0.0336  0.8399  0.6984
   73MYC    C6912574   3.352   4.741   8.708  0.4666  0.0844  0.6547
   73MYC   H12112575   3.351   4.636   8.678  1.0427  0.5643 -1.1675
   73MYC   H12212576   3.253   4.779   8.679  1.5425  2.4008 -0.2392
   73MYC    C6812577   3.385   4.775   8.856  0.1682 -0.1129 -0.2109
   73MYC   HH1212578   3.400   4.883   8.866  0.2230 -0.1104 -0.3183
   73MYC   H12312579   3.478   4.723   8.885  1.1727  2.2007  1.0319
   73MYC    C6712580   3.288   4.720   8.958 -1.2741 -0.2290 -0.3278
   73MYC   H12412581   3.355   4.730   9.044  0.6262  0.7273 -1.8299
   73MYC   H12512582   3.252   4.619   8.934  1.5188 -1.2239 -0.6559
   73MYC    C6612583   3.157   4.803   8.974  0.1824 -0.5599  0.1760
   73MYC   H12612584   3.103   4.792   8.879  0.7979 -1.5601 -0.0749
   73MYC   H12712585   3.173   4.907   9.004  1.4049 -1.0925  1.5005
   73MYC    C6512586   3.067   4.746   9.091  0.1412  0.2286  0.0955
   73MYC   H12812587   3.055   4.641   9.065  1.3013  0.5215 -1.8577
   73MYC   H12912588   2.972   4.799   9.103  2.2182  4.1489  1.2346
   73MYC    C6412589   3.129   4.747   9.237  0.2900  0.0935 -0.1230
   73MYC   H13012590   3.147   4.851   9.267  0.3607  0.0418  0.0145
   73MYC   H13112591   3.223   4.691   9.231 -1.2137 -2.3886 -2.0840
   73MYC    C6312592   3.046   4.681   9.346  0.3773  0.5015 -0.0118
   73MYC   HH1112593   3.102   4.693   9.439  1.4739  1.8575 -0.8131
   73MYC   H13212594   3.034   4.573   9.330 -0.0518  0.0672  2.6809
   73MYC    C6212595   2.906   4.737   9.364  0.2340 -0.0069 -0.5359
   73MYC   H13312596   2.839   4.719   9.280 -1.6748  0.8818  0.7378
   73MYC   H13412597   2.917   4.844   9.385  0.5513 -0.1657  0.1363
   73MYC    C6112598   2.855   4.665   9.496  0.0640  0.6390 -0.0498
   73MYC   H13512599   2.893   4.711   9.588 -0.8269  1.3274  0.0007
   73MYC   H13612600   2.891   4.562   9.501 -0.7527  0.3861  1.8040
   73MYC    C6012601   2.702   4.670   9.509 -0.0162 -0.3827 -0.1029
   73MYC   H13712602   2.651   4.611   9.433  0.9079  0.0120 -1.0464
   73MYC    C5812603   2.633   4.667   9.645 -1.2208 -0.0160  0.5935
   73MYC   H13812604   2.697   4.671   9.733 -1.2069  0.6633  0.5568
   73MYC    C5912605   2.633   4.792   9.562 -0.1449  0.2208  0.6810
   73MYC   H13912606   2.550   4.820   9.496  0.3239 -1.1218 -0.5331
   73MYC   H14012607   2.685   4.883   9.589 -1.2921  2.0926 -2.7597
   73MYC    C5712608   2.508   4.591   9.668  0.2399 -0.1616  0.1274
   73MYC   HH1012609   2.538   4.503   9.727  0.8462 -0.3400 -0.4278
   73MYC   H14112610   2.467   4.547   9.576 -3.1421 -1.4548  2.0971
   73MYC    C5612611   2.392   4.672   9.735 -0.3610  0.2650 -0.4185
   73MYC   H14212612   2.383   4.762   9.673 -0.4193 -0.7391 -1.9384
   73MYC   H14312613   2.425   4.719   9.828  0.1544 -0.8985 -0.0046
   73MYC    C5512614   2.250   4.606   9.749 -0.6210  0.1367 -0.6161
   73MYC   H14412615   2.217   4.555   9.658  0.5399 -0.8336 -0.5189
   73MYC   H14512616   2.182   4.689   9.771  0.6610  0.3259  3.4561
   73MYC    C5412617   2.245   4.495   9.855 -0.2906 -0.6423 -0.6022
   73MYC   H14612618   2.305   4.407   9.826 -0.4263 -0.0351 -2.8983
   73MYC   H14712619   2.141   4.463   9.869 -0.2016 -0.2661  1.0880
   73MYC    C5312620   2.310   4.539   9.988  0.4396  0.0335  0.0472
   73MYC   H14812621   2.411   4.558   9.951 -0.3046  0.5244 -1.8428
   73MYC   H14912622   2.313   4.449  10.051  0.7210  0.6398  0.9167
   73MYC    C5212623   2.245   4.661  10.059 -0.2803 -0.8058 -0.1778
   73MYC    H9912624   2.136   4.653  10.070 -0.4016 -0.1005 -0.7596
   73MYC   H15012625   2.272   4.755  10.009 -0.0556 -0.0797  1.2593
   73MYC    C5112626   2.307   4.667  10.207  0.3368  0.4281  0.4119
   73MYC    H9712627   2.404   4.717  10.198  1.6929 -1.7251  2.0751
   73MYC    H9812628   2.326   4.570  10.254  1.6191  1.2535  1.6456
   73MYC    C5012629   2.216   4.759  10.296 -0.0136  0.6368  0.4697
   73MYC    H9512630   2.115   4.718  10.292 -0.0075  0.6812 -1.8083
   73MYC    H9612631   2.205   4.856  10.247  3.5663  0.9553  0.0235
   73MYC    C4912632   2.279   4.787  10.438  0.0247  0.3297  0.2385
   73MYC    H9312633   2.301   4.691  10.486  1.2566 -0.2189 -1.3256
   73MYC    H9412634   2.210   4.844  10.501  0.1085 -1.1396  1.7090
   73MYC    C4812635   2.414   4.870  10.429  0.7181  0.0076 -0.1113
   73MYC    H9112636   2.399   4.958  10.365 -2.2044 -0.1720  0.1918
   73MYC    H9212637   2.479   4.804  10.371 -1.4269 -2.5040  0.1385
   73MYC    C4712638   2.477   4.904  10.564 -0.3948  0.3403  0.3340
   73MYC    H8912639   2.493   4.820  10.632 -0.7861  2.0049  2.6008
   73MYC    H9012640   2.399   4.962  10.615 -0.9605  0.6680 -0.8718
   73MYC    C4612641   2.606   4.982  10.540  0.1155 -0.0337  0.2201
   73MYC    H8712642   2.580   5.082  10.505  3.1233  0.6892 -0.2458
   73MYC    H8812643   2.677   4.929  10.474  1.3069  1.9186 -0.1447
   73MYC    C4512644   2.696   5.014  10.669 -0.4309 -0.3898  0.2784
   73MYC    H8512645   2.646   5.088  10.732 -0.5644  1.3355 -1.7311
   73MYC    H8612646   2.794   5.055  10.642 -0.0115 -1.7795 -0.4343
   73MYC    C4412647   2.742   4.890  10.746  0.4381 -0.0710 -0.2147
   73MYC    H8312648   2.845   4.906  10.779  0.4433  0.2813 -0.4052
   73MYC    H8412649   2.744   4.798  10.686  0.8643 -0.0477 -0.2376
   73MYC    C1812650   2.641   4.868  10.861 -0.6319  0.0501  0.0789
   73MYC    H3112651   2.541   4.899  10.833 -0.9014 -0.8472  0.0056
   73MYC    C1712652   2.656   4.759  10.965 -0.2165  0.3979 -0.5728
   73MYC    H3012653   2.742   4.694  10.950 -1.1716 -1.4365  1.3819
   73MYC    C1912654   2.679   4.904  11.000 -0.4060 -0.3022  0.7916
   73MYC    H3212655   2.781   4.941  11.010  0.0879 -1.5638  0.5608
   73MYC    H3312656   2.614   4.946  11.077 -0.7063 -0.2655  0.5191
   73MYC    C1612657   2.540   4.680  11.017  0.0087 -0.0583 -0.0244
   73MYC    H2812658   2.458   4.752  11.013  1.3070  1.7347  2.5832
   73MYC    H2912659   2.552   4.649  11.121  0.6294 -1.3353 -0.4439
   73MYC    C1512660   2.514   4.556  10.931 -0.5069 -0.3143 -0.0028
   73MYC    H2612661   2.607   4.502  10.915  0.7535  2.2047 -1.9735
   73MYC    H2712662   2.473   4.588  10.834 -0.0153  1.4134  0.3156
   73MYC    C1412663   2.413   4.465  10.998 -0.0583 -0.1329  0.5134
   73MYC    H2412664   2.315   4.513  10.999 -1.2461 -2.2622 -1.7105
   73MYC    H2512665   2.445   4.447  11.101 -2.8082 -0.6770  1.3400
   73MYC    C1312666   2.390   4.328  10.926  0.4438  0.7630 -0.4800
   73MYC    H2212667   2.304   4.272  10.965  1.6275 -1.7440 -1.2730
   73MYC    H2312668   2.473   4.259  10.947  0.6654  0.1559 -3.0668
   73MYC    C1212669   2.385   4.336  10.768  0.0021  0.7980 -0.1639
   73MYC    H2012670   2.483   4.366  10.730  0.1187 -0.0895 -0.5828
   73MYC    H2112671   2.323   4.415  10.723  0.2965  0.9485 -0.3053
   73MYC    C1112672   2.331   4.211  10.698  0.1828 -0.0437  0.0921
   73MYC    H1812673   2.339   4.233  10.591 -0.1270  1.5652  0.3774
   73MYC    H1912674   2.224   4.188  10.707  0.7225 -2.5568  0.9727
   73MYC    C1012675   2.398   4.080  10.730 -0.2847 -0.0170 -0.1369
   73MYC    H1612676   2.404   4.050  10.835 -1.2388  2.8219  0.8313
   73MYC    H1712677   2.506   4.093  10.717  0.5726 -0.8129  4.5382
   73MYC     C912678   2.346   3.961  10.650  0.1792  0.5584 -0.2389
   73MYC    H1412679   2.295   3.991  10.558 -1.9600  0.2637  0.7912
   73MYC    H1512680   2.267   3.912  10.708  1.5364 -1.1940  0.2224
   73MYC     C812681   2.444   3.848  10.634  0.0406 -0.1045 -0.1603
   73MYC    H1212682   2.395   3.768  10.577  0.1585 -1.2705  1.3356
   73MYC    H1312683   2.471   3.794  10.725  1.9768  0.9459 -0.0551
   73MYC     C712684   2.580   3.886  10.558  0.4055  0.1638  0.1141
   73MYC    H1012685   2.628   3.788  10.561 -1.3494 -0.7461 -0.0309
   73MYC    H1112686   2.640   3.964  10.606 -0.9196  1.0007  0.4879
   73MYC     C612687   2.552   3.918  10.410  0.4362 -0.3377  0.3542
   73MYC     H812688   2.499   4.014  10.399 -1.4998 -1.3370  0.4851
   73MYC     H912689   2.474   3.855  10.367 -0.6370 -0.7521  2.7733
   73MYC     C512690   2.687   3.920  10.331  0.2101  0.0763  0.0468
   73MYC     H612691   2.733   3.821  10.329 -0.0614 -0.0483 -1.5000
   73MYC     H712692   2.748   3.995  10.383 -2.0353  2.2118 -0.2282
   73MYC     C412693   2.681   3.957  10.187  0.8177 -0.1666  0.0153
   73MYC     H412694   2.630   4.053  10.177  1.0306  0.2973  2.8079
   73MYC     H512695   2.621   3.883  10.132  0.3396 -0.0826  0.4220
   73MYC     C212696   2.816   3.971  10.111 -0.6368  0.2029  0.1989
   73MYC     H212697   2.862   4.053  10.168 -1.8809  0.9949  0.0957
   73MYC     O312698   2.889   3.845  10.126 -0.1231  0.6419 -0.2971
   73MYC     H312699   2.834   3.779  10.080  0.1509 -0.6301  1.1380
   73MYC     C112700   2.813   4.030   9.965 -1.1577  0.8695 -0.4113
   73MYC     H112701   2.806   4.139   9.967 -1.6896  0.8706 -1.3898
   73MYC    C8112702   2.698   3.980   9.878  0.6659  0.3854 -0.1669
   73MYC    O8212703   2.704   3.877   9.808  0.5187 -0.2658  0.4400
   73MYC    O8312704   2.624   4.076   9.831  0.5578  0.0080 -0.7500
   73MYC   H10512705   2.571   4.043   9.756 -0.2988 -0.0517 -0.1358
   73MYC    C2012706   2.952   4.015   9.896  0.4478  0.2617  0.1891
   73MYC    H3412707   3.032   4.033   9.969 -1.4919  1.2989  2.1805
   73MYC    H3512708   2.966   3.909   9.872  2.7743 -0.4538  3.8840
   73MYC    C2112709   2.974   4.104   9.770  0.5690 -0.3642 -0.0695
   73MYC    H3612710   2.903   4.076   9.691  1.4918 -2.3705 -0.2521
   73MYC    H3712711   2.961   4.210   9.796  0.7781 -0.0793 -1.0842
   73MYC    C2212712   3.107   4.099   9.706 -0.4366 -0.5512 -0.4501
   73MYC    H3812713   3.170   4.160   9.772 -1.5039 -2.1116  2.1406
   73MYC    H3912714   3.151   4.000   9.719 -0.2583 -0.4982 -0.6435
   73MYC    C2312715   3.120   4.154   9.563 -0.0750  0.0644  0.0517
   73MYC    H4012716   3.050   4.096   9.502 -1.3748  1.1180  0.5006
   73MYC    H4112717   3.076   4.254   9.568 -0.0496  0.1470 -1.2296
   73MYC    C2412718   3.267   4.161   9.507  0.2735 -0.0588  0.0356
   73MYC    H4212719   3.340   4.202   9.578  0.3998 -0.6223  0.2337
   73MYC    H4312720   3.293   4.061   9.470 -4.6035 -0.9789 -1.5701
   73MYC    C2512721   3.267   4.249   9.377  0.6792  0.7674 -0.0225
   73MYC    H4412722   3.172   4.253   9.322  1.0904 -1.5698 -1.0622
   73MYC    H4512723   3.282   4.354   9.403 -0.7245  1.5998 -2.2825
   73MYC    C2612724   3.380   4.216   9.276 -0.2534 -0.4840 -0.2224
   73MYC    H4612725   3.474   4.223   9.332 -1.2662  0.1337  1.4903
   73MYC    H4712726   3.374   4.111   9.248  0.1263 -0.5773  0.0356
   73MYC    C2712727   3.400   4.311   9.155 -0.3744  0.7123  0.5001
   73MYC    H4812728   3.300   4.323   9.113 -0.5604 -0.0653  0.7000
   73MYC    H4912729   3.431   4.409   9.194 -2.6746  0.2555  3.9339
   73MYC    C2812730   3.509   4.275   9.051 -0.5183 -0.0640 -0.0463
   73MYC    H5012731   3.607   4.255   9.098  0.0168  1.0006 -0.6820
   73MYC    H5112732   3.476   4.177   9.015 -1.2919  0.4592 -0.7965
   73MYC    C2912733   3.520   4.374   8.937  0.9062  0.1158 -0.3493
   73MYC    H5212734   3.421   4.399   8.899  0.3746  0.0970  0.9925
   73MYC    H5312735   3.559   4.468   8.977 -0.6333  0.4736  0.3589
   73MYC    C3012736   3.613   4.345   8.812  0.0982  0.0109  0.0774
   73MYC    H5412737   3.717   4.368   8.839  0.1382  0.2977 -0.3133
   73MYC    H5512738   3.607   4.240   8.783  0.1071  0.2929 -0.9904
   73MYC    C3112739   3.576   4.439   8.698 -0.1961 -0.0115  0.5841
   73MYC    H5612740   3.478   4.431   8.649  0.0696 -1.9787  0.2655
   73MYC    H5712741   3.587   4.541   8.736 -3.8384  1.1459 -0.9851
   73MYC    C3212742   3.668   4.417   8.572 -0.1782 -1.0035  0.3166
   73MYC    H5812743   3.774   4.431   8.593  0.3067  1.0326 -2.8317
   73MYC    H5912744   3.653   4.315   8.534 -0.4196 -0.5000 -1.0118
   73MYC    C3312745   3.636   4.515   8.444 -0.3314  0.5649 -0.0741
   73MYC    H6012746   3.527   4.521   8.435 -0.5150 -0.2825  1.3063
   73MYC    H6112747   3.667   4.620   8.455 -2.7334  1.4947 -1.3743
   73MYC    C3412748   3.702   4.461   8.317  0.6047 -0.4187 -0.1590
   73MYC    H6212749   3.808   4.441   8.332  0.2506 -1.6961  0.8016
   73MYC    H6312750   3.661   4.362   8.297 -0.2132 -0.6686  2.3881
   73MYC    C3512751   3.682   4.542   8.193 -0.4652  0.7011 -0.7348
   73MYC    H6412752   3.575   4.543   8.167 -0.8664  1.6059  0.8629
   73MYC    H6512753   3.711   4.643   8.224  0.0519  0.2450  0.2999
   73MYC    C3612754   3.760   4.500   8.072 -0.7299 -0.0723  0.4499
   73MYC    H6612755   3.867   4.505   8.096 -0.5045 -0.8815 -0.3190
   73MYC    H6712756   3.748   4.391   8.066  0.3523 -0.3550  2.3173
   73MYC    C3712757   3.732   4.570   7.939 -0.0741 -0.6365 -0.2275
   73MYC    H6812758   3.625   4.582   7.921 -0.1289  1.2947  1.0949
   73MYC    H6912759   3.762   4.675   7.952  0.3551 -0.7860  0.0239
   73MYC    C3812760   3.794   4.508   7.813  0.6470 -0.0472 -0.0665
   73MYC    H7012761   3.903   4.512   7.823  1.0380 -0.5512 -3.0517
   73MYC    H7112762   3.769   4.401   7.806 -2.0857  0.6022 -1.5128
   73MYC    C3912763   3.751   4.575   7.674 -0.2360 -0.3322 -0.8810
   73MYC    H7212764   3.642   4.568   7.680 -0.1494 -2.1560 -0.9998
   73MYC    H7312765   3.777   4.681   7.674 -2.0756  0.2066  1.7273
   73MYC    C4012766   3.808   4.495   7.553 -0.0775  0.2697  0.9156
   73MYC    H7412767   3.916   4.511   7.553 -0.1239  0.6012  0.6722
   73MYC    H7512768   3.786   4.389   7.565  1.3224 -0.0514  0.6945
   73MYC    C4112769   3.756   4.555   7.421 -0.4358  0.1430  0.5362
   73MYC    H7612770   3.647   4.550   7.412 -0.3313  1.4217 -2.6850
   73MYC    H7712771   3.789   4.658   7.403  1.6809 -1.0323 -3.4344
   73MYC    C4212772   3.826   4.480   7.300  0.1461 -0.3090  0.5834
   73MYC    H7812773   3.935   4.473   7.314 -0.1293 -0.1317  3.2073
   73MYC    H7912774   3.787   4.378   7.313  4.1394 -2.0253  0.7396
   73MYC    C4312775   3.790   4.523   7.160 -0.7960 -0.6182  0.5553
   73MYC    H8012776   3.791   4.632   7.144  1.0932 -0.5579  0.8972
   73MYC    H8112777   3.683   4.505   7.143 -1.1643  1.6886  0.0342
   73MYC    H8212778   3.872   4.478   7.103 -0.3229 -0.7611  1.3388
   74MYC   HH1512779   4.195   5.063   7.034 -0.3453 -0.0681  0.6762
   74MYC    C8012780   4.105   5.003   7.055 -0.6833  0.3645  0.4876
   74MYC   H10012781   4.084   5.015   7.162 -1.0095  0.0149  0.4640
   74MYC   H10112782   4.022   5.054   7.004 -0.2793 -0.9241 -1.5604
   74MYC    C7912783   4.142   4.859   7.006  0.1571  0.0303  0.7908
   74MYC   H10212784   4.162   4.859   6.898  0.5678  1.3788  0.8585
   74MYC   H10312785   4.054   4.795   7.015 -1.0009  1.5984  0.9897
   74MYC    C7812786   4.262   4.790   7.084  0.7350  0.2987  0.2308
   74MYC   HH1412787   4.334   4.868   7.113  0.8886  0.1729  0.1896
   74MYC   H10412788   4.313   4.714   7.024  0.5935 -1.9739  2.8005
   74MYC    C7712789   4.234   4.714   7.214 -0.1645  0.5346 -0.5108
   74MYC   H10612790   4.325   4.671   7.259 -1.8198 -2.5677  0.1354
   74MYC   H10712791   4.166   4.631   7.192 -0.3717 -0.1916  2.4307
   74MYC    C7612792   4.163   4.793   7.323 -0.5583  0.8870 -0.8643
   74MYC   H10812793   4.056   4.798   7.300 -0.6035  3.3079 -0.4067
   74MYC   H10912794   4.208   4.892   7.335 -0.6995  0.8508  0.0247
   74MYC    C7512795   4.170   4.723   7.457  0.0666  0.8063 -0.4027
   74MYC   H11012796   4.275   4.704   7.481  0.1649 -0.7486 -1.9196
   74MYC   H11112797   4.115   4.628   7.459 -0.6961  1.2079  1.9323
   74MYC    C7412798   4.117   4.798   7.580 -0.0094  0.1541  0.1414
   74MYC   H11212799   4.010   4.823   7.584 -0.6734 -2.5183  2.2646
   74MYC   H11312800   4.169   4.893   7.595 -0.2690  0.3582 -0.2349
   74MYC    C7312801   4.129   4.732   7.721 -0.2907  0.1228 -0.1060
   74MYC   HH1312802   4.232   4.698   7.735 -0.9401 -1.7696  0.4620
   74MYC   H11412803   4.073   4.637   7.721 -0.2516  0.0996  0.1189
   74MYC    C7212804   4.083   4.819   7.842  0.2411 -0.3555 -0.1123
   74MYC   H11512805   3.985   4.869   7.834 -0.5694 -1.4713  2.1196
   74MYC   H11612806   4.152   4.905   7.849 -0.8442  0.7269 -1.9648
   74MYC    C7112807   4.084   4.736   7.976 -0.2234  0.0618  0.0740
   74MYC   H11712808   4.185   4.705   8.003 -0.0637  0.8530  0.4205
   74MYC   H11812809   4.021   4.649   7.954 -0.7807  0.8869 -1.8601
   74MYC    C7012810   4.031   4.808   8.100 -0.3896 -0.1495  0.3977
   74MYC   H11912811   3.932   4.852   8.085  0.5822  2.2142  0.4295
   74MYC   H12012812   4.095   4.897   8.104  0.6618 -0.9133  0.9915
   74MYC    C6912813   4.058   4.733   8.231 -0.7070  0.8621 -0.1794
   74MYC   H12112814   4.161   4.705   8.258 -1.4811  0.0278  2.1104
   74MYC   H12212815   4.012   4.634   8.220  1.4471 -0.4256  1.4600
   74MYC    C6812816   4.006   4.796   8.356 -0.0411 -0.1370  0.2014
   74MYC   HH1212817   3.899   4.815   8.339 -0.4105 -0.5395  1.8949
   74MYC   H12312818   4.052   4.895   8.367  2.1357 -1.2076  1.2453
   74MYC    C6712819   4.012   4.701   8.484  0.0217  0.0636 -0.6962
   74MYC   H12412820   4.113   4.673   8.515 -0.6309  0.7729  2.3628
   74MYC   H12512821   3.957   4.611   8.455 -0.2576  0.2939 -0.8931
   74MYC    C6612822   3.951   4.772   8.603 -0.2999 -0.1260  0.4282
   74MYC   H12612823   3.844   4.781   8.579 -0.4397 -0.4316  0.9112
   74MYC   H12712824   3.977   4.878   8.606 -1.0064  0.0561  0.4610
   74MYC    C6512825   3.958   4.703   8.745  0.2367 -0.8376  0.2588
   74MYC   H12812826   4.058   4.688   8.787  1.2001 -0.6185 -1.8619
   74MYC   H12912827   3.927   4.600   8.722 -1.0635 -0.1327 -1.3186
   74MYC    C6412828   3.877   4.768   8.852  0.0447 -0.0176 -0.3349
   74MYC   H13012829   3.784   4.802   8.806  0.5429  0.5051 -0.9775
   74MYC   H13112830   3.922   4.861   8.888 -0.3230  0.4188 -0.9869
   74MYC    C6312831   3.852   4.666   8.964  0.2101 -0.1713 -0.4697
   74MYC   HH1112832   3.952   4.646   9.002 -1.0647 -1.3851  2.5614
   74MYC   H13212833   3.788   4.587   8.923 -1.9394  0.7444  0.9343
   74MYC    C6212834   3.765   4.720   9.079 -0.3759  0.3131 -0.0170
   74MYC   H13312835   3.674   4.763   9.035 -0.2376  1.9294  1.1571
   74MYC   H13412836   3.809   4.806   9.131 -3.1871  0.5390  2.2912
   74MYC    C6112837   3.723   4.619   9.196 -0.1028 -0.1742  0.3357
   74MYC   H13512838   3.820   4.582   9.231 -0.6039 -0.8472  1.0462
   74MYC   H13612839   3.666   4.536   9.153 -1.6256  1.1134 -0.2472
   74MYC    C6012840   3.663   4.691   9.319 -0.4336 -0.4430 -0.0959
   74MYC   H13712841   3.579   4.757   9.300 -1.1046 -0.4708  2.3819
   74MYC    C5812842   3.676   4.652   9.462 -0.3566  0.7851  0.2447
   74MYC   H13812843   3.735   4.564   9.485 -0.3615  0.0595 -2.1700
   74MYC    C5912844   3.759   4.762   9.411  0.0458  0.4213 -0.1870
   74MYC   H13912845   3.736   4.866   9.434  0.6433  0.3510  0.7830
   74MYC   H14012846   3.864   4.740   9.395  0.0919 -1.0480  1.7279
   74MYC    C5712847   3.562   4.688   9.563 -0.6992 -0.5408  0.0076
   74MYC   HH1012848   3.521   4.783   9.526 -1.6308 -1.4995 -1.5393
   74MYC   H14112849   3.606   4.708   9.661  1.3171 -0.7540 -0.7904
   74MYC    C5612850   3.455   4.575   9.574  0.6728 -0.4421  0.4125
   74MYC   H14212851   3.494   4.481   9.614 -0.7064 -1.3798 -0.3771
   74MYC   H14312852   3.417   4.549   9.475  0.4228 -0.6579  0.5641
   74MYC    C5512853   3.349   4.632   9.669  0.6130 -0.1623  0.0965
   74MYC   H14412854   3.292   4.712   9.620  0.5745 -0.1554  0.1522
   74MYC   H14512855   3.390   4.681   9.758  1.5605  0.1212 -0.4823
   74MYC    C5412856   3.252   4.530   9.724  0.4927  0.4259  0.1737
   74MYC   H14612857   3.307   4.474   9.800  0.3875 -1.0330 -0.8014
   74MYC   H14712858   3.210   4.461   9.650 -0.4424 -1.5504  2.4042
   74MYC    C5312859   3.127   4.589   9.798 -0.4075 -0.2213  0.7531
   74MYC   H14812860   3.081   4.663   9.732  0.2797  1.5536  2.1762
   74MYC   H14912861   3.150   4.643   9.891 -3.0098  0.0083  1.3387
   74MYC    C5212862   3.021   4.489   9.833 -0.0305 -0.3659 -0.4275
   74MYC    H9912863   3.066   4.405   9.886  1.2299  0.9882  0.7411
   74MYC   H15012864   2.963   4.459   9.745 -0.3585 -0.8129 -0.0606
   74MYC    C5112865   2.923   4.551   9.930 -0.7885 -0.2066 -0.1833
   74MYC    H9712866   2.890   4.644   9.882 -0.8893 -0.3801 -0.4509
   74MYC    H9812867   2.976   4.580  10.022  0.0667 -1.0812 -0.3866
   74MYC    C5012868   2.804   4.462   9.955  0.7116  0.0134  0.2852
   74MYC    H9512869   2.837   4.366   9.997  0.7988  0.5407  1.4727
   74MYC    H9612870   2.778   4.432   9.853  1.0354 -0.8909  0.4526
   74MYC    C4912871   2.688   4.522  10.034  0.9910 -0.0635 -0.1749
   74MYC    H9312872   2.616   4.441  10.049 -2.9628  2.7777 -2.0201
   74MYC    H9412873   2.642   4.594   9.964  0.6914  0.9066  0.9893
   74MYC    C4812874   2.712   4.592  10.168 -0.4828  0.3529  0.6647
   74MYC    H9112875   2.634   4.668  10.180 -1.0380 -0.2147  0.6506
   74MYC    H9212876   2.805   4.650  10.159 -1.1882  1.5806  0.9948
   74MYC    C4712877   2.728   4.499  10.295  0.2371 -0.0606  0.5276
   74MYC    H8912878   2.801   4.426  10.260 -0.1105  0.1105 -0.5963
   74MYC    H9012879   2.637   4.440  10.313  0.9926 -0.8910  1.7775
   74MYC    C4612880   2.757   4.571  10.433 -0.3798  0.2119 -0.4861
   74MYC    H8712881   2.668   4.633  10.447  0.1773  0.7017  1.0969
   74MYC    H8812882   2.851   4.625  10.421 -0.2014  0.1254  0.4926
   74MYC    C4512883   2.750   4.465  10.557 -0.0595  0.3366  0.8314
   74MYC    H8512884   2.665   4.396  10.556  2.4167 -3.0351  2.0428
   74MYC    H8612885   2.741   4.527  10.647 -0.6324  0.3145  0.7925
   74MYC    C4412886   2.882   4.385  10.566 -0.1926  0.1500  0.6599
   74MYC    H8312887   2.964   4.458  10.575  0.8456 -1.0394  1.1745
   74MYC    H8412888   2.899   4.334  10.471  1.9678  0.4429  0.8322
   74MYC    C1812889   2.885   4.277  10.680  0.4253  0.0909  0.4397
   74MYC    H3112890   2.815   4.198  10.654 -0.6925  1.2948 -0.3766
   74MYC    C1712891   3.011   4.260  10.765  0.1439  0.0427 -0.3020
   74MYC    H3012892   3.078   4.345  10.773  0.6564 -0.5302  3.1652
   74MYC    C1912893   2.884   4.312  10.828 -0.3829  0.1259  0.5374
   74MYC    H3212894   2.900   4.414  10.863 -2.3261  0.9968 -0.9429
   74MYC    H3312895   2.826   4.248  10.894  0.6785 -0.0860  1.2927
   74MYC    C1612896   3.068   4.119  10.789  0.3471  0.0183 -0.0430
   74MYC    H2812897   2.985   4.063  10.834 -1.5166  1.5581 -1.3873
   74MYC    H2912898   3.141   4.110  10.870  0.5395  0.4143 -0.1703
   74MYC    C1512899   3.122   4.043  10.668  0.0602  0.3395 -0.6218
   74MYC    H2612900   3.039   4.003  10.608  0.6401 -1.1792 -0.4586
   74MYC    H2712901   3.178   3.963  10.718 -2.8490  0.1861  2.7908
   74MYC    C1412902   3.227   4.115  10.584 -0.6352 -0.0576  0.1581
   74MYC    H2412903   3.306   4.158  10.646 -1.3015 -0.1356  1.0848
   74MYC    H2512904   3.174   4.194  10.529 -0.8944  0.8756  1.7097
   74MYC    C1312905   3.289   4.036  10.466  0.0638  0.4639  0.5935
   74MYC    H2212906   3.284   3.932  10.500 -1.4714  0.2167 -0.2685
   74MYC    H2312907   3.391   4.071  10.451  0.5073 -1.1118 -0.2445
   74MYC    C1212908   3.195   4.031  10.336 -0.4117  0.1933 -0.0415
   74MYC    H2012909   3.166   4.133  10.308 -2.6293 -0.0255  1.2551
   74MYC    H2112910   3.097   3.988  10.360  0.1644 -1.0439  0.1450
   74MYC    C1112911   3.265   3.954  10.220  0.6070  0.2131  0.0811
   74MYC    H1812912   3.193   3.908  10.152  1.2870 -2.2004  0.8706
   74MYC    H1912913   3.311   3.857  10.246  2.8444  0.7761 -1.4451
   74MYC    C1012914   3.368   4.036  10.145 -0.6564 -0.9291 -0.5835
   74MYC    H1612915   3.438   4.073  10.220 -2.5184 -2.0580  1.8557
   74MYC    H1712916   3.315   4.126  10.113  0.2071  0.1157  0.8297
   74MYC     C912917   3.428   3.951  10.023  0.1095  0.0297  0.3428
   74MYC    H1412918   3.458   4.016   9.940  0.1531  0.1991  0.4911
   74MYC    H1512919   3.344   3.892   9.983 -0.1836  0.1121  0.8306
   74MYC     C812920   3.534   3.857  10.068 -0.2045 -0.6517 -0.3705
   74MYC    H1212921   3.556   3.783   9.990  0.1340 -1.8219  0.8036
   74MYC    H1312922   3.495   3.790  10.145  0.0161  0.9468  1.2016
   74MYC     C712923   3.667   3.925  10.113  0.4976 -0.2203 -0.5410
   74MYC    H1012924   3.743   3.848  10.131  1.4311  1.2711  2.7644
   74MYC    H1112925   3.659   3.971  10.212  0.8705 -1.2435 -0.0224
   74MYC     C612926   3.722   4.031  10.013  0.0515  0.5770  0.3064
   74MYC     H812927   3.794   4.095  10.064 -0.1009 -0.9311  2.5769
   74MYC     H912928   3.647   4.105   9.983 -1.1687 -0.7987 -0.1724
   74MYC     C512929   3.776   3.967   9.890  0.6172 -0.5280 -0.0846
   74MYC     H612930   3.690   3.916   9.845 -2.1896  2.2143  1.7950
   74MYC     H712931   3.855   3.896   9.919  0.4735 -0.0894  1.4677
   74MYC     C412932   3.818   4.064   9.775  0.1750 -0.1143  0.1006
   74MYC     H412933   3.894   4.137   9.806  0.3707 -0.4683  0.4656
   74MYC     H512934   3.741   4.135   9.745 -0.2090  0.0096  1.3434
   74MYC     C212935   3.881   4.012   9.638 -0.5307 -0.6409 -0.3205
   74MYC     H212936   3.987   3.990   9.658 -0.4627  1.2461  1.8612
   74MYC     O312937   3.816   3.886   9.605  0.1304  0.1525 -0.0301
   74MYC     H312938   3.726   3.894   9.568 -0.0153  0.4720  0.3826
   74MYC     C112939   3.893   4.120   9.521 -0.5202 -0.0792  0.6526
   74MYC     H112940   3.953   4.202   9.563 -0.9020 -0.5612  2.1981
   74MYC    C8112941   3.756   4.156   9.476  1.6690  0.0034 -0.0707
   74MYC    O8212942   3.681   4.076   9.413 -0.0116  0.4937 -0.3586
   74MYC    O8312943   3.714   4.282   9.508  0.6072 -0.3357  0.1394
   74MYC   H10512944   3.622   4.288   9.477  1.0400  0.3854 -1.0942
   74MYC    C2012945   3.981   4.064   9.394  0.3213  0.2862 -0.2255
   74MYC    H3412946   4.085   4.076   9.425 -0.0134 -0.1087  1.1424
   74MYC    H3512947   3.967   3.956   9.380  1.7980  0.0484 -0.0361
   74MYC    C2112948   3.955   4.135   9.256 -0.0233 -0.2171  0.4424
   74MYC    H3612949   4.007   4.074   9.181  0.5168 -0.7792  1.2497
   74MYC    H3712950   3.851   4.143   9.225  0.3966 -0.3275 -1.0786
   74MYC    C2212951   4.015   4.279   9.255  0.3150 -0.0381 -0.2146
   74MYC    H3812952   3.983   4.333   9.346  1.8144 -0.9876  0.9277
   74MYC    H3912953   4.122   4.262   9.271  0.5637  0.7491 -0.9374
   74MYC    C2312954   3.986   4.354   9.126 -0.2479  0.0785  0.0644
   74MYC    H4012955   3.878   4.346   9.112 -0.1245  0.2284 -1.0234
   74MYC    H4112956   4.021   4.456   9.146 -1.1132  0.3002  0.5189
   74MYC    C2412957   4.058   4.286   9.001  0.7866 -0.4249  0.0329
   74MYC    H4212958   4.164   4.298   9.024  0.2647  0.0065  2.4425
   74MYC    H4312959   4.041   4.178   9.000 -0.5777 -0.2361 -0.4800
   74MYC    C2512960   4.024   4.339   8.857  0.4699  0.3930  0.8080
   74MYC    H4412961   3.920   4.317   8.830  0.7024  0.7464 -0.4494
   74MYC    H4512962   4.039   4.447   8.850  2.8556  0.2286  2.1161
   74MYC    C2612963   4.109   4.285   8.746 -0.9336  0.0020 -0.1658
   74MYC    H4612964   4.209   4.302   8.788 -2.2364  2.7008  2.2209
   74MYC    H4712965   4.088   4.181   8.719 -1.1001 -0.4222  1.4948
   74MYC    C2712966   4.088   4.363   8.610 -0.0448  0.7979 -0.3587
   74MYC    H4812967   3.980   4.358   8.592  0.0664 -0.1157 -0.8424
   74MYC    H4912968   4.131   4.463   8.626 -1.6396  1.2556  1.4279
   74MYC    C2812969   4.146   4.299   8.487 -0.2609 -0.4926  0.1285
   74MYC    H5012970   4.253   4.287   8.504 -0.4060 -0.8740  0.8157
   74MYC    H5112971   4.108   4.196   8.478 -1.7574 -0.0907  1.3939
   74MYC    C2912972   4.131   4.377   8.350  0.2793  0.8827  0.5319
   74MYC    H5212973   4.027   4.406   8.336 -1.2104 -4.2718 -0.8791
   74MYC    H5312974   4.191   4.467   8.370  1.1114  0.1993  1.2185
   74MYC    C3012975   4.182   4.298   8.230 -0.1181  0.4919  0.1705
   74MYC    H5412976   4.281   4.253   8.247 -0.2837  0.6955  1.8287
   74MYC    H5512977   4.131   4.201   8.219  1.9839 -0.6389 -0.1523
   74MYC    C3112978   4.176   4.381   8.096  0.1412  0.1859 -0.2692
   74MYC    H5612979   4.069   4.392   8.076  0.0936  0.7953  0.2846
   74MYC    H5712980   4.224   4.479   8.097 -1.0712  0.7968 -0.4635
   74MYC    C3212981   4.228   4.302   7.974  0.3629  0.3979  1.0711
   74MYC    H5812982   4.334   4.276   7.987 -0.3297 -2.3159  2.0854
   74MYC    H5912983   4.176   4.205   7.975  0.8947  0.0968  0.6079
   74MYC    C3312984   4.200   4.349   7.842  0.6211 -0.7129  0.7503
   74MYC    H6012985   4.095   4.377   7.824  0.5441 -1.0056  0.7275
   74MYC    H6112986   4.253   4.445   7.838 -2.3765  1.0269 -0.7502
   74MYC    C3412987   4.252   4.272   7.719 -0.1451 -0.0734 -0.4219
   74MYC    H6212988   4.361   4.274   7.711 -0.2259  0.8904 -1.5913
   74MYC    H6312989   4.217   4.168   7.725 -1.8636  0.4895 -0.1553
   74MYC    C3512990   4.205   4.333   7.586 -0.0981  1.1738  0.2992
   74MYC    H6412991   4.096   4.325   7.571 -0.0782 -0.8088  0.9360
   74MYC    H6512992   4.236   4.436   7.568 -0.8899  1.0726 -2.0400
   74MYC    C3612993   4.258   4.246   7.469  0.3902  0.2624 -0.1249
   74MYC    H6612994   4.368   4.240   7.468  0.3318 -1.2742 -1.2150
   74MYC    H6712995   4.228   4.140   7.473  0.9054 -0.0242 -2.3456
   74MYC    C3712996   4.197   4.298   7.338  0.8775  0.0350 -0.4215
   74MYC    H6812997   4.090   4.276   7.339  0.7719  0.4685  2.0491
   74MYC    H6912998   4.213   4.406   7.327 -0.8224  0.1131 -2.9792
   74MYC    C3812999   4.263   4.224   7.212 -0.1856  0.3032  0.1328
   74MYC    H7013000   4.372   4.232   7.210 -0.0763 -0.8865  0.1090
   74MYC    H7113001   4.246   4.116   7.222  1.4028  0.1730  1.9954
   74MYC    C3913002   4.213   4.282   7.082 -0.8186  0.1393 -0.2324
   74MYC    H7213003   4.103   4.278   7.088 -0.7630  0.6462  1.6212
   74MYC    H7313004   4.240   4.387   7.070 -1.1058  0.2665  0.2121
   74MYC    C4013005   4.263   4.201   6.961 -0.0200 -0.3466 -0.1021
   74MYC    H7413006   4.370   4.219   6.950  0.3696 -0.9266  2.1812
   74MYC    H7513007   4.255   4.093   6.978  2.0523 -0.8891 -2.1247
   74MYC    C4113008   4.200   4.238   6.826 -0.3173  0.1555  0.1400
   74MYC    H7613009   4.230   4.170   6.747 -2.6901 -0.6910 -0.1267
   74MYC    H7713010   4.092   4.218   6.837 -0.3510 -0.0357 -0.5459
   74MYC    C4213011   4.239   4.390   6.779  0.2811 -0.2920 -0.4063
   74MYC    H7813012   4.150   4.437   6.736 -1.5020 -2.4529  0.7283
   74MYC    H7913013   4.270   4.454   6.863  0.3635  0.0977 -0.7288
   74MYC    C4313014   4.341   4.404   6.663 -0.3560 -0.9526 -0.4560
   74MYC    H8013015   4.437   4.371   6.704 -0.0863 -1.0911 -1.1736
   74MYC    H8113016   4.347   4.511   6.640 -1.7702 -0.5632  0.8469
   74MYC    H8213017   4.318   4.355   6.567 -0.6827  0.1840 -0.9812
   75MYC   HH1513018   4.788   4.413   7.145  0.2980  2.4049  0.6449
   75MYC    C8013019   4.728   4.437   7.056  0.0148  0.1255  0.1657
   75MYC   H10013020   4.752   4.542   7.039 -0.8754  0.3815  0.4075
   75MYC   H10113021   4.776   4.381   6.976  0.3228  1.8833 -0.9193
   75MYC    C7913022   4.584   4.391   7.087  0.4402  0.1372 -0.2107
   75MYC   H10213023   4.577   4.284   7.111  0.9284 -0.0188 -0.7431
   75MYC   H10313024   4.517   4.401   7.001 -0.0229 -0.1224  0.1147
   75MYC    C7813025   4.532   4.474   7.204 -0.9672  0.7132 -0.5408
   75MYC   HH1413026   4.423   4.467   7.199 -1.0750  2.2835 -0.7660
   75MYC   H10413027   4.550   4.581   7.187 -1.1509  1.3805  2.7461
   75MYC    C7713028   4.588   4.426   7.339 -0.1206  0.4400  0.1460
   75MYC   H10613029   4.697   4.436   7.351  0.1945 -1.3859 -0.7496
   75MYC   H10713030   4.567   4.318   7.343  0.0270  0.4410  3.6789
   75MYC    C7613031   4.521   4.505   7.460  0.1309  0.0329  0.4176
   75MYC   H10813032   4.415   4.480   7.468  0.4034 -1.5597 -0.3911
   75MYC   H10913033   4.521   4.612   7.437 -1.3868 -0.3844 -1.8918
   75MYC    C7513034   4.588   4.479   7.596  0.8775 -0.3077  0.1676
   75MYC   H11013035   4.696   4.492   7.606  0.9009 -0.4233  0.0575
   75MYC   H11113036   4.575   4.373   7.622 -0.1419 -0.0489  0.8232
   75MYC    C7413037   4.522   4.561   7.713 -0.1691 -0.0160  1.0724
   75MYC   H11213038   4.413   4.555   7.702 -0.0698 -0.9438  0.4750
   75MYC   H11313039   4.552   4.666   7.701 -1.5405  0.0533 -3.8721
   75MYC    C7313040   4.568   4.525   7.856  0.2514 -0.9941 -0.2007
   75MYC   HH1313041   4.677   4.530   7.861  0.1950  0.7181 -0.2929
   75MYC   H11413042   4.528   4.423   7.863 -1.6313 -0.2778  0.1011
   75MYC    C7213043   4.503   4.607   7.971  0.1334 -0.0749  0.1751
   75MYC   H11513044   4.396   4.619   7.952  0.4503  2.6966 -0.3454
   75MYC   H11613045   4.542   4.710   7.973  0.8936 -0.3581  1.5734
   75MYC    C7113046   4.521   4.541   8.096 -0.3392  0.3271 -0.2010
   75MYC   H11713047   4.629   4.527   8.108 -0.2519 -1.3920 -2.3105
   75MYC   H11813048   4.474   4.442   8.100 -1.2440  0.6877 -1.4196
   75MYC    C7013049   4.453   4.619   8.221  0.1846  0.2282 -0.2236
   75MYC   H11913050   4.345   4.614   8.207  0.1992  1.5517 -1.0073
   75MYC   H12013051   4.478   4.726   8.217 -3.3401  1.3075  2.1039
   75MYC    C6913052   4.495   4.560   8.352 -0.0164 -0.3966  0.3766
   75MYC   H12113053   4.604   4.556   8.359  0.0020  0.8784  0.9809
   75MYC   H12213054   4.479   4.451   8.355  2.0978 -0.7277  2.1231
   75MYC    C6813055   4.435   4.632   8.482 -0.5498 -0.6500  0.0473
   75MYC   HH1213056   4.327   4.643   8.469 -0.4748 -1.4093 -1.4789
   75MYC   H12313057   4.486   4.729   8.486  1.4565 -1.5928 -0.8538
   75MYC    C6713058   4.463   4.553   8.603 -0.1553  0.5325  0.1064
   75MYC   H12413059   4.573   4.547   8.608 -0.0590 -1.0614 -2.4814
   75MYC   H12513060   4.405   4.461   8.597  0.4356 -0.2012  3.3282
   75MYC    C6613061   4.410   4.622   8.730 -0.0161  0.2205 -0.1396
   75MYC   H12613062   4.301   4.616   8.725  0.0387  0.1013 -1.6834
   75MYC   H12713063   4.446   4.725   8.743  1.3685 -0.3269  0.6198
   75MYC    C6513064   4.438   4.546   8.861  0.7273  0.0643 -0.0094
   75MYC   H12813065   4.545   4.540   8.885  0.7200 -2.6776 -0.3114
   75MYC   H12913066   4.387   4.449   8.853 -0.0879  0.4284  0.6219
   75MYC    C6413067   4.371   4.628   8.979  0.3862  0.5971 -0.1113
   75MYC   H13013068   4.270   4.657   8.947 -0.3142 -1.0232  0.5327
   75MYC   H13113069   4.418   4.726   8.987  1.8464 -0.1396  0.6484
   75MYC    C6313070   4.368   4.553   9.111 -0.6129  0.7250 -0.1066
   75MYC   HH1113071   4.469   4.526   9.144 -0.6521 -1.6874 -1.6883
   75MYC   H13213072   4.309   4.463   9.089  1.4088 -0.2793 -1.6416
   75MYC    C6213073   4.307   4.640   9.217  0.7528  0.4921 -0.6260
   75MYC   H13313074   4.229   4.702   9.173 -0.0817 -0.8824 -1.1188
   75MYC   H13413075   4.383   4.708   9.258  0.9382 -0.2977  0.3891
   75MYC    C6113076   4.253   4.569   9.351  0.4970 -0.5566  0.1872
   75MYC   H13513077   4.335   4.520   9.404 -0.1104 -1.6688  0.1186
   75MYC   H13613078   4.185   4.494   9.310  0.8251 -0.5921 -0.3063
   75MYC    C6013079   4.174   4.666   9.444  0.1627 -0.2290  0.0278
   75MYC   H13713080   4.091   4.724   9.405 -0.0296  0.5634  1.5074
   75MYC    C5813081   4.151   4.625   9.589 -0.1744  0.2637  0.4977
   75MYC   H13813082   4.187   4.528   9.621 -0.6154 -0.0989 -0.0751
   75MYC    C5913083   4.255   4.728   9.561  0.1786 -0.2743 -0.2318
   75MYC   H13913084   4.231   4.829   9.592  0.2841 -0.8610  1.9369
   75MYC   H14013085   4.361   4.708   9.564  0.0731 -0.8835 -0.4147
   75MYC    C5713086   4.019   4.656   9.658 -0.9560 -0.3464  0.5118
   75MYC   HH1013087   3.937   4.597   9.616  1.4721 -2.7038 -1.2310
   75MYC   H14113088   3.993   4.762   9.647 -1.6131 -0.5284  0.2287
   75MYC    C5613089   4.009   4.641   9.810  0.0727  0.6748 -0.2288
   75MYC   H14213090   4.087   4.705   9.853 -0.1435  0.3681  0.6338
   75MYC   H14313091   4.030   4.537   9.839 -0.1765  0.4617 -0.8013
   75MYC    C5513092   3.868   4.679   9.863  0.3309  0.1395 -0.3364
   75MYC   H14413093   3.789   4.649   9.792 -0.6507 -1.3870  1.3144
   75MYC   H14513094   3.872   4.788   9.853  3.6862  0.0200 -1.2358
   75MYC    C5413095   3.827   4.630  10.001 -0.5289 -0.0649  0.1179
   75MYC   H14613096   3.731   4.670  10.035 -1.1846 -0.3778 -1.2971
   75MYC   H14713097   3.900   4.673  10.071  0.5632  0.0884 -1.0563
   75MYC    C5313098   3.808   4.474  10.013 -1.0678  0.8376  0.0196
   75MYC   H14813099   3.905   4.425  10.001 -0.1967  1.9652  1.9639
   75MYC   H14913100   3.751   4.438   9.927 -0.5259  1.0028 -0.4156
   75MYC    C5213101   3.743   4.410  10.144 -0.5290 -0.8193  0.2227
   75MYC    H9913102   3.816   4.430  10.224  0.3206  0.1345 -0.7496
   75MYC   H15013103   3.738   4.303  10.123  1.3126 -0.8661 -0.1440
   75MYC    C5113104   3.603   4.465  10.185 -0.3648 -0.3208 -0.2438
   75MYC    H9713105   3.629   4.567  10.218 -1.7270 -0.0308  0.0163
   75MYC    H9813106   3.565   4.412  10.273 -1.7487  0.4177 -0.3624
   75MYC    C5013107   3.488   4.472  10.078 -0.6129  0.5109 -0.4466
   75MYC    H9513108   3.459   4.379  10.027 -1.8560 -0.5241  1.9816
   75MYC    H9613109   3.510   4.533   9.989 -3.7080  1.5006 -0.6609
   75MYC    C4913110   3.359   4.528  10.142 -0.0983  0.0639  0.0451
   75MYC    H9313111   3.301   4.568  10.058  2.3395 -1.2475 -2.4426
   75MYC    H9413112   3.379   4.624  10.191  1.2621  0.2708 -0.8448
   75MYC    C4813113   3.272   4.439  10.231  0.1105 -0.4766  0.7924
   75MYC    H9113114   3.344   4.381  10.290 -1.3732 -1.1902  1.9885
   75MYC    H9213115   3.207   4.360  10.192  0.6059 -1.8016  2.5172
   75MYC    C4713116   3.175   4.513  10.326 -1.0428  0.6018  0.4524
   75MYC    H8913117   3.108   4.438  10.371 -0.2081 -0.5397 -0.1573
   75MYC    H9013118   3.126   4.591  10.267  1.0823  0.9886 -0.9106
   75MYC    C4613119   3.253   4.594  10.438 -0.4935 -0.0497 -0.0247
   75MYC    H8713120   3.181   4.666  10.480 -1.0300 -0.3675 -0.3870
   75MYC    H8813121   3.333   4.658  10.399  0.4149 -1.5263 -0.6460
   75MYC    C4513122   3.292   4.516  10.554 -0.7849  0.5800  0.8221
   75MYC    H8513123   3.350   4.425  10.534 -0.3048  0.5295  2.2803
   75MYC    H8613124   3.199   4.483  10.602 -1.4242  3.8021  2.0477
   75MYC    C4413125   3.383   4.588  10.654 -0.8247 -0.5167  0.4834
   75MYC    H8313126   3.327   4.673  10.693  0.1476  0.7180 -0.7455
   75MYC    H8413127   3.479   4.624  10.615 -0.8487 -0.8289  0.1284
   75MYC    C1813128   3.402   4.489  10.772  0.9366  0.1280 -0.4931
   75MYC    H3113129   3.461   4.401  10.746 -0.2435 -0.6697 -0.5570
   75MYC    C1713130   3.439   4.538  10.911 -0.8365  0.0366  0.4603
   75MYC    H3013131   3.448   4.645  10.930 -0.4003 -0.2980  2.3617
   75MYC    C1913132   3.300   4.483  10.894 -0.8824 -0.5188  0.0380
   75MYC    H3213133   3.224   4.560  10.900 -0.7393 -0.4481  1.3059
   75MYC    H3313134   3.274   4.383  10.930  1.6204 -1.0876  0.5168
   75MYC    C1613135   3.535   4.459  11.005  0.5754 -0.5069  0.1561
   75MYC    H2813136   3.569   4.369  10.954  2.7880  0.9328 -1.0940
   75MYC    H2913137   3.485   4.434  11.099  0.1473 -0.1465  0.0272
   75MYC    C1513138   3.668   4.528  11.039  0.1733 -0.6549 -0.6888
   75MYC    H2613139   3.744   4.456  11.071  0.3248 -0.5104 -0.7188
   75MYC    H2713140   3.657   4.591  11.128 -0.7862 -0.3619 -0.9961
   75MYC    C1413141   3.733   4.620  10.927 -0.0615 -0.3344  0.0029
   75MYC    H2413142   3.829   4.658  10.965 -0.3851 -0.8533  1.3837
   75MYC    H2513143   3.666   4.699  10.890 -0.6243 -1.1364 -0.7466
   75MYC    C1313144   3.764   4.547  10.796  0.5256 -0.3945  0.3118
   75MYC    H2213145   3.670   4.508  10.754 -0.7903  1.6050  1.2294
   75MYC    H2313146   3.819   4.454  10.815 -0.5163 -1.8222 -2.8741
   75MYC    C1213147   3.842   4.630  10.693  0.3474 -0.2401 -0.4719
   75MYC    H2013148   3.951   4.624  10.700  0.2680 -2.1479 -0.2199
   75MYC    H2113149   3.808   4.734  10.699 -1.2139 -0.7752  1.2208
   75MYC    C1113150   3.829   4.578  10.548 -0.0348  0.2086 -0.3761
   75MYC    H1813151   3.727   4.575  10.511  0.0848 -2.5727 -0.7111
   75MYC    H1913152   3.856   4.472  10.540 -0.9884 -0.0539 -0.2405
   75MYC    C1013153   3.916   4.658  10.447 -0.8709  0.5179 -0.2633
   75MYC    H1613154   3.914   4.766  10.463  0.7166  0.6890 -1.1159
   75MYC    H1713155   3.880   4.642  10.345 -1.7318  0.1491  0.0845
   75MYC     C913156   4.066   4.617  10.452  0.0813  0.3968  0.5273
   75MYC    H1413157   4.110   4.648  10.548  1.9784 -0.9247  0.1315
   75MYC    H1513158   4.124   4.678  10.382  1.7896 -0.0001  1.5367
   75MYC     C813159   4.109   4.479  10.423 -0.4418  0.1034  0.7996
   75MYC    H1213160   4.070   4.453  10.324  1.8208  1.9035 -0.6593
   75MYC    H1313161   4.069   4.403  10.490  1.1071 -1.8009 -0.3317
   75MYC     C713162   4.265   4.459  10.425  0.5787  0.2275  0.0957
   75MYC    H1013163   4.284   4.351  10.417  1.5506  0.3994  0.0230
   75MYC    H1113164   4.291   4.484  10.528 -2.5670  1.0223  0.7973
   75MYC     C613165   4.350   4.545  10.321 -0.2151  0.0232  0.3210
   75MYC     H813166   4.332   4.650  10.348  2.5218  0.9160 -0.9842
   75MYC     H913167   4.310   4.537  10.219 -0.6953  0.4307  0.4697
   75MYC     C513168   4.495   4.512  10.322  0.4338 -0.4589 -0.4177
   75MYC     H613169   4.536   4.533  10.422  0.9410 -0.7219 -0.5680
   75MYC     H713170   4.548   4.585  10.261 -2.3469  0.5753 -1.7708
   75MYC     C413171   4.533   4.371  10.273  0.2610 -0.5945  0.8130
   75MYC     H413172   4.457   4.342  10.200  0.0643 -1.3057  1.2896
   75MYC     H513173   4.505   4.300  10.352 -0.7424 -1.5749 -0.4049
   75MYC     C213174   4.682   4.366  10.213  0.9701 -0.3175 -0.0700
   75MYC     H213175   4.714   4.456  10.160  0.5726 -1.0773 -1.6563
   75MYC     O313176   4.782   4.367  10.321  0.4367  0.1752  0.9447
   75MYC     H313177   4.829   4.449  10.299 -0.8188  1.1536  1.7583
   75MYC     C113178   4.689   4.242  10.119 -0.2837  0.4529 -0.0237
   75MYC     H113179   4.614   4.263  10.042  0.6823  1.7142 -0.6613
   75MYC    C8113180   4.648   4.113  10.197  0.2321 -0.2257  0.0434
   75MYC    O8213181   4.696   4.072  10.300 -0.0831  0.4505  0.1449
   75MYC    O8313182   4.545   4.048  10.148  0.1352  0.2440 -0.3028
   75MYC   H10513183   4.521   3.985  10.219 -0.2216  0.4956 -0.1987
   75MYC    C2013184   4.830   4.215  10.050  0.4205 -0.6978  0.2367
   75MYC    H3413185   4.908   4.213  10.127  2.0710 -3.1831 -1.3453
   75MYC    H3513186   4.816   4.112  10.015 -1.9056 -1.1502  2.2931
   75MYC    C2113187   4.865   4.317   9.937 -0.6347 -0.2686  0.4631
   75MYC    H3613188   4.851   4.418   9.976 -0.4228  0.0498 -0.2669
   75MYC    H3713189   4.970   4.285   9.932 -0.4643 -0.5544  3.5533
   75MYC    C2213190   4.805   4.283   9.798  0.2269  0.0440  0.8564
   75MYC    H3813191   4.805   4.174   9.785 -0.5254  0.1552 -0.1516
   75MYC    H3913192   4.698   4.306   9.806  0.2389  1.4754 -1.8673
   75MYC    C2313193   4.874   4.353   9.680  0.1336  0.7030 -0.2972
   75MYC    H4013194   4.881   4.461   9.697  0.6779  0.5898  0.2546
   75MYC    H4113195   4.979   4.323   9.690 -0.1923 -0.0354  1.2465
   75MYC    C2413196   4.820   4.325   9.541 -0.1699 -0.1696  0.4674
   75MYC    H4213197   4.818   4.216   9.530  0.2340 -0.1497  0.2036
   75MYC    H4313198   4.720   4.368   9.529 -0.2620 -0.5688 -0.2315
   75MYC    C2513199   4.902   4.377   9.419 -0.0549 -0.5175  0.6129
   75MYC    H4413200   4.888   4.486   9.416  1.5037 -0.2977  0.6322
   75MYC    H4513201   5.009   4.356   9.415  0.9728  3.8546 -1.5564
   75MYC    C2613202   4.833   4.328   9.285  1.1441 -0.0366 -0.2155
   75MYC    H4613203   4.829   4.219   9.283 -1.1969  0.0031 -0.2862
   75MYC    H4713204   4.726   4.353   9.293  1.1434 -0.3742  1.0779
   75MYC    C2713205   4.890   4.371   9.150  0.4954 -0.8104  0.1645
   75MYC    H4813206   4.890   4.480   9.144  1.0237 -0.8843 -1.5758
   75MYC    H4913207   4.996   4.345   9.136  1.1449  0.6994  1.8304
   75MYC    C2813208   4.803   4.327   9.025 -0.2683  1.1986  0.1993
   75MYC    H5013209   4.792   4.218   9.020  0.3915  1.0322  1.9244
   75MYC    H5113210   4.699   4.362   9.030 -1.3317 -1.4494 -1.0075
   75MYC    C2913211   4.881   4.358   8.896  0.2254 -0.1099 -0.0662
   75MYC    H5213212   4.873   4.468   8.894 -0.6292 -0.1817 -1.9390
   75MYC    H5313213   4.982   4.314   8.900 -0.0247 -0.6331  1.1037
   75MYC    C3013214   4.802   4.305   8.775  0.0018  0.3592  0.3077
   75MYC    H5413215   4.811   4.196   8.765  1.2971  0.6149 -1.8108
   75MYC    H5513216   4.696   4.333   8.782 -0.4328 -1.5545  3.4981
   75MYC    C3113217   4.860   4.357   8.638 -0.8827  0.4126 -0.1283
   75MYC    H5613218   4.870   4.465   8.629  1.8936  0.1384 -1.2971
   75MYC    H5713219   4.963   4.329   8.614 -0.4055  1.3236  0.8018
   75MYC    C3213220   4.766   4.307   8.534 -1.1520 -0.3774  0.0370
   75MYC    H5813221   4.767   4.198   8.543  3.0287 -0.5977 -0.7916
   75MYC    H5913222   4.663   4.344   8.541 -0.7676  0.6603  0.4883
   75MYC    C3313223   4.823   4.343   8.394 -0.4031 -0.6409 -0.6882
   75MYC    H6013224   4.829   4.450   8.373 -0.5198 -0.0633  1.8980
   75MYC    H6113225   4.929   4.315   8.389 -0.6286 -1.5937 -0.3117
   75MYC    C3413226   4.751   4.263   8.282  0.4310 -0.1175 -0.0759
   75MYC    H6213227   4.761   4.157   8.308 -1.3242 -0.4835 -0.7847
   75MYC    H6313228   4.644   4.284   8.287  0.6238  0.7614  0.7606
   75MYC    C3513229   4.821   4.305   8.153  0.6026 -0.6122  0.6602
   75MYC    H6413230   4.804   4.412   8.137  0.7534 -0.8000 -0.9918
   75MYC    H6513231   4.922   4.264   8.152  1.8975  2.3311  1.7026
   75MYC    C3613232   4.744   4.248   8.034  0.1531 -0.0922 -0.1075
   75MYC    H6613233   4.715   4.145   8.057 -0.0219  0.2512  1.3287
   75MYC    H6713234   4.648   4.299   8.021 -0.1050 -0.2541  0.9926
   75MYC    C3713235   4.815   4.248   7.902  0.1926 -0.3401 -0.0706
   75MYC    H6813236   4.858   4.348   7.884  0.5309 -0.7051 -1.3641
   75MYC    H6913237   4.904   4.186   7.918  0.3320 -0.1245  0.0000
   75MYC    C3813238   4.739   4.185   7.787 -0.4243 -0.0303 -0.3801
   75MYC    H7013239   4.727   4.077   7.804  2.3380 -0.6873 -1.9641
   75MYC    H7113240   4.640   4.232   7.778 -0.0719  0.4822 -1.9285
   75MYC    C3913241   4.812   4.195   7.657 -0.0728  0.0061  0.0601
   75MYC    H7213242   4.831   4.300   7.631  0.7770 -0.1018  0.2011
   75MYC    H7313243   4.909   4.149   7.676  1.3539  2.0457 -1.7080
   75MYC    C4013244   4.734   4.127   7.541 -0.7613 -0.2656 -0.4263
   75MYC    H7413245   4.705   4.025   7.569 -2.3958 -0.7957 -3.5456
   75MYC    H7513246   4.647   4.188   7.513 -0.2045  2.2051  2.6679
   75MYC    C4113247   4.820   4.114   7.410 -0.6811 -0.3289  0.4075
   75MYC    H7613248   4.754   4.082   7.329 -1.9558 -0.0667  1.3012
   75MYC    H7713249   4.864   4.212   7.390 -0.1596 -0.6862 -0.2283
   75MYC    C4213250   4.918   3.999   7.418  0.0031 -0.7608  0.4446
   75MYC    H7813251   4.975   4.006   7.512  0.6526  4.0697 -0.0248
   75MYC    H7913252   4.853   3.911   7.419 -0.7979 -0.1942 -0.2647
   75MYC    C4313253   5.009   3.978   7.294 -1.3447  0.1569  0.1603
   75MYC    H8013254   5.053   4.070   7.255 -1.1099  0.0778  0.2385
   75MYC    H8113255   4.952   3.931   7.213 -1.3102  0.9521 -0.3354
   75MYC    H8213256   5.094   3.912   7.313  1.0326  2.4470 -1.8273
   76MYC   HH1513257   4.828   3.682   7.862  2.4888 -1.6637 -0.1024
   76MYC    C8013258   4.854   3.788   7.846 -1.0011 -0.7442 -0.5339
   76MYC   H10013259   4.894   3.810   7.747 -2.7331 -1.9783 -1.5558
   76MYC   H10113260   4.763   3.849   7.853  0.4310  1.3113  1.7750
   76MYC    C7913261   4.955   3.826   7.956  0.0602 -0.1922 -0.2002
   76MYC   H10213262   4.986   3.929   7.935 -2.0537  0.1427 -2.1658
   76MYC   H10313263   5.030   3.747   7.961  0.1109 -0.1613 -0.4429
   76MYC    C7813264   4.892   3.824   8.093 -0.2058  0.1416  0.1587
   76MYC   HH1413265   4.856   3.721   8.099 -1.2474  0.3594 -1.6899
   76MYC   H10413266   4.801   3.884   8.101 -0.8128 -0.8869  1.6356
   76MYC    C7713267   4.987   3.845   8.215  0.5266  0.2024 -0.1939
   76MYC   H10613268   5.068   3.771   8.216  0.8373  0.3908  3.7980
   76MYC   H10713269   4.933   3.846   8.310  1.0969 -0.7803  0.1507
   76MYC    C7613270   5.054   3.978   8.221 -0.9482 -0.1278 -0.3127
   76MYC   H10813271   4.976   4.055   8.210 -0.4892  0.2707 -0.8391
   76MYC   H10913272   5.120   3.996   8.136 -1.4194  0.9948 -0.4696
   76MYC    C7513273   5.145   4.005   8.350  0.1481 -0.1173  0.2943
   76MYC   H11013274   5.187   4.107   8.350 -1.2014  0.5041 -1.7186
   76MYC   H11113275   5.219   3.924   8.348 -0.1125 -0.3500 -1.5627
   76MYC    C7413276   5.067   3.991   8.482 -0.5265  0.0954 -0.1545
   76MYC   H11213277   5.042   3.887   8.503 -0.5741  0.5552  2.3713
   76MYC   H11313278   4.969   4.040   8.482 -0.7356 -0.2733 -1.2853
   76MYC    C7313279   5.160   4.046   8.596  0.3530 -0.2431 -0.9098
   76MYC   HH1313280   5.167   4.155   8.582 -2.4448  0.1229 -0.1107
   76MYC   H11413281   5.261   4.004   8.590  0.8781  0.5791  1.1648
   76MYC    C7213282   5.106   4.017   8.737  0.0873 -0.7021 -0.4027
   76MYC   H11513283   5.091   3.910   8.749  0.4325 -0.5158  2.1271
   76MYC   H11613284   5.005   4.058   8.752  0.7315  1.2220 -0.9591
   76MYC    C7113285   5.203   4.053   8.844 -0.3994  0.1208 -0.0925
   76MYC   H11713286   5.252   4.146   8.813  0.4038  0.2434  1.4735
   76MYC   H11813287   5.282   3.977   8.840 -1.3825 -0.8849 -1.5759
   76MYC    C7013288   5.150   4.063   8.986  0.2814  0.4829  0.2323
   76MYC   H11913289   5.133   3.960   9.020  0.9998  0.5171  0.7330
   76MYC   H12013290   5.050   4.107   8.986  0.1681  0.2346  0.7016
   76MYC    C6913291   5.233   4.141   9.087 -0.7436 -0.3083 -0.3297
   76MYC   H12113292   5.207   4.247   9.073  0.0716 -0.0800 -0.1798
   76MYC   H12213293   5.337   4.126   9.057 -1.9539 -0.5012 -5.3984
   76MYC    C6813294   5.193   4.100   9.227  0.2993 -0.3513 -0.5195
   76MYC   HH1213295   5.227   3.996   9.243  0.7812 -0.3791 -1.6006
   76MYC   H12313296   5.087   4.101   9.251 -0.0063  0.2816 -1.7895
   76MYC    C6713297   5.255   4.174   9.346 -0.1057  0.0844 -0.0813
   76MYC   H12413298   5.245   4.283   9.346  1.5920  0.3079 -2.1611
   76MYC   H12513299   5.364   4.170   9.334  0.2452  0.8390  2.3186
   76MYC    C6613300   5.212   4.132   9.485  0.0868  0.8479 -0.2830
   76MYC   H12613301   5.230   4.024   9.499 -0.6483  0.9699  2.0113
   76MYC   H12713302   5.105   4.154   9.491  0.4952  2.5603  1.2021
   76MYC    C6513303   5.297   4.208   9.592 -0.0193  0.9233  0.7348
   76MYC   H12813304   5.297   4.316   9.576 -0.5891  0.7049 -0.9635
   76MYC   H12913305   5.404   4.186   9.589 -0.2267 -0.3593  1.7495
   76MYC    C6413306   5.256   4.167   9.732  0.0974  0.6897 -0.0817
   76MYC   H13013307   5.285   4.063   9.746 -0.6095  0.8363  3.6318
   76MYC   H13113308   5.147   4.171   9.744  0.0493 -1.1970  0.4123
   76MYC    C6313309   5.332   4.264   9.839  0.2099 -1.2717  0.5444
   76MYC   HH1113310   5.300   4.368   9.826  0.0178 -1.2806  0.9200
   76MYC   H13213311   5.434   4.279   9.804 -0.3256  0.7588 -0.2760
   76MYC    C6213312   5.311   4.215   9.987  0.3795  0.2357 -0.2660
   76MYC   H13313313   5.366   4.120   9.993  0.5796  0.3815  0.2498
   76MYC   H13413314   5.205   4.202  10.012 -0.1449  0.7345 -2.0767
   76MYC    C6113315   5.368   4.313  10.088  0.2079 -0.5418 -0.7648
   76MYC   H13513316   5.432   4.386  10.037 -1.1912  0.9077 -0.5285
   76MYC   H13613317   5.430   4.262  10.163 -0.7602 -1.2553 -0.4247
   76MYC    C6013318   5.264   4.383  10.175 -0.7955  0.1874  0.0940
   76MYC   H13713319   5.217   4.318  10.248  0.3203  0.2067  0.8528
   76MYC    C5813320   5.254   4.532  10.189  0.0668 -0.8620  0.7148
   76MYC   H13813321   5.345   4.575  10.148  0.4189 -2.3679 -0.1769
   76MYC    C5913322   5.155   4.458  10.089 -0.5372 -0.6812  0.0341
   76MYC   H13913323   5.053   4.433  10.115 -0.2501 -1.5168  0.4044
   76MYC   H14013324   5.166   4.484   9.984  2.2726  0.5019  0.5196
   76MYC    C5713325   5.193   4.599  10.317 -0.2294 -0.0008  0.4474
   76MYC   HH1013326   5.251   4.675  10.370  3.5430 -1.7882 -0.8148
   76MYC   H14113327   5.173   4.521  10.391  1.1992  0.7862  1.7075
   76MYC    C5613328   5.055   4.667  10.290 -0.5183  0.5894  0.3939
   76MYC   H14213329   4.987   4.606  10.229 -0.5790  0.9000  0.1458
   76MYC   H14313330   5.075   4.752  10.223 -0.3577 -1.2073 -1.9652
   76MYC    C5513331   4.976   4.717  10.417 -0.4819  0.0456  0.8054
   76MYC   H14413332   5.041   4.792  10.464  0.1787  0.6843 -1.0423
   76MYC   H14513333   4.987   4.638  10.492 -0.0586 -0.5238  0.1453
   76MYC    C5413334   4.831   4.774  10.405 -0.7649  0.1844  0.8142
   76MYC   H14613335   4.790   4.796  10.504 -2.2689  0.3350  0.1967
   76MYC   H14713336   4.767   4.696  10.362 -0.4107  0.9569 -1.2509
   76MYC    C5313337   4.827   4.904  10.321 -0.4180 -0.4841  0.2688
   76MYC   H14813338   4.890   4.890  10.233 -1.6891  0.2781 -0.7965
   76MYC   H14913339   4.869   4.989  10.377  0.5704 -1.2472  0.7280
   76MYC    C5213340   4.687   4.935  10.261 -0.3576 -0.0532  0.1894
   76MYC    H9913341   4.648   4.844  10.215  0.8360  0.5904 -2.2130
   76MYC   H15013342   4.715   5.003  10.180 -0.6361  1.7674  1.5476
   76MYC    C5113343   4.590   5.006  10.344  0.7021 -0.1296 -0.1100
   76MYC    H9713344   4.575   4.952  10.438  0.7422 -0.1796 -0.1329
   76MYC    H9813345   4.495   4.997  10.290  1.5886 -1.2278 -1.5420
   76MYC    C5013346   4.591   5.154  10.369 -0.4247  0.1426 -0.2461
   76MYC    H9513347   4.594   5.221  10.282  2.3755  0.1413 -0.2463
   76MYC    H9613348   4.677   5.176  10.434 -0.5895  0.3837 -0.1067
   76MYC    C4913349   4.484   5.198  10.468 -0.2308 -0.7053  0.0604
   76MYC    H9313350   4.501   5.136  10.557  1.7091  1.7042  1.4722
   76MYC    H9413351   4.387   5.183  10.419 -1.2947  1.9646  1.1604
   76MYC    C4813352   4.497   5.354  10.494  0.4003 -0.1248 -0.2070
   76MYC    H9113353   4.490   5.403  10.397  1.5220 -1.4874 -1.0078
   76MYC    H9213354   4.596   5.370  10.539  0.2010 -0.1147  0.2387
   76MYC    C4713355   4.392   5.415  10.589  0.0017 -0.0075  0.0594
   76MYC    H8913356   4.300   5.393  10.535  0.0337 -4.5987  1.3913
   76MYC    H9013357   4.414   5.522  10.594  0.7265 -0.1736  0.7466
   76MYC    C4613358   4.413   5.351  10.723 -0.1314  0.2115 -0.4231
   76MYC    H8713359   4.519   5.361  10.747 -0.3518  1.2781  0.1570
   76MYC    H8813360   4.389   5.244  10.719 -0.0883  0.1821  0.1263
   76MYC    C4513361   4.328   5.419  10.837  0.2252  0.7735 -0.1367
   76MYC    H8513362   4.345   5.379  10.938  2.8633  2.2651  0.0930
   76MYC    H8613363   4.223   5.397  10.815  0.4148 -0.5307  0.1831
   76MYC    C4413364   4.351   5.569  10.855 -0.2850 -0.1742 -0.3291
   76MYC    H8313365   4.274   5.607  10.923 -1.1551 -3.8213  0.9668
   76MYC    H8413366   4.340   5.626  10.762  0.5025  2.8440  1.2794
   76MYC    C1813367   4.477   5.594  10.921 -0.3595 -0.5721  0.2398
   76MYC    H3113368   4.480   5.565  11.026  0.5733 -0.3390  0.2895
   76MYC    C1713369   4.608   5.615  10.846  0.2341 -0.5652 -0.5493
   76MYC    H3013370   4.607   5.599  10.739 -0.7385 -1.8412 -0.3674
   76MYC    C1913371   4.536   5.731  10.902  0.5391 -0.4651 -0.4439
   76MYC    H3213372   4.490   5.803  10.835  1.9724  0.8386 -0.0855
   76MYC    H3313373   4.573   5.778  10.993  1.1089 -1.0600 -0.3606
   76MYC    C1613374   4.749   5.576  10.910 -0.7117 -0.1918 -0.7735
   76MYC    H2813375   4.734   5.569  11.019 -0.4927  0.0710 -0.7260
   76MYC    H2913376   4.820   5.656  10.888 -0.6024 -0.0905 -0.0715
   76MYC    C1513377   4.812   5.445  10.874  0.5785 -0.0297 -0.1367
   76MYC    H2613378   4.843   5.465  10.770 -0.6720  0.9090 -0.3550
   76MYC    H2713379   4.738   5.365  10.881  1.2452 -0.6164  0.2746
   76MYC    C1413380   4.926   5.403  10.970 -0.8866  0.3525  0.1242
   76MYC    H2413381   4.901   5.427  11.074 -1.6133  2.0548 -0.4066
   76MYC    H2513382   5.020   5.450  10.938 -0.9991 -1.0926 -2.6144
   76MYC    C1313383   4.957   5.246  10.972  0.5414 -0.5160 -0.4883
   76MYC    H2213384   4.868   5.188  10.998  0.2746 -0.5789 -1.4999
   76MYC    H2313385   5.035   5.225  11.045  0.1796 -1.3571 -0.3368
   76MYC    C1213386   5.010   5.198  10.834  0.0810  0.4254 -0.2747
   76MYC    H2013387   5.106   5.246  10.809  0.0743 -0.4639 -2.2117
   76MYC    H2113388   4.945   5.236  10.754 -2.7166 -2.2869  0.5341
   76MYC    C1113389   5.013   5.041  10.832 -0.3363  0.7161  0.1207
   76MYC    H1813390   4.914   4.998  10.853  0.2234 -0.5064  0.3666
   76MYC    H1913391   5.062   5.007  10.924 -2.0267  2.0489  1.5951
   76MYC    C1013392   5.067   4.976  10.706 -0.4025 -0.0567 -0.1446
   76MYC    H1613393   5.007   5.007  10.620  0.6829 -2.4644 -1.9096
   76MYC    H1713394   5.045   4.869  10.708  0.7789 -0.3101  0.3634
   76MYC     C913395   5.226   5.014  10.681  0.1068  0.6884  1.0799
   76MYC    H1413396   5.281   4.987  10.772  0.8464  2.0142  1.0419
   76MYC    H1513397   5.231   5.122  10.668 -2.1341  0.8633  1.1882
   76MYC     C813398   5.299   4.955  10.557  0.6029  0.4626 -0.7609
   76MYC    H1213399   5.244   4.975  10.465 -2.6685  3.3450  1.5520
   76MYC    H1313400   5.298   4.846  10.568  3.5356  0.5775  2.5685
   76MYC     C713401   5.443   4.996  10.553 -0.4190 -0.3154  0.2308
   76MYC    H1013402   5.501   4.970  10.642 -1.1028 -0.5212  0.6203
   76MYC    H1113403   5.451   5.102  10.523  1.1173 -0.3875  0.3214
   76MYC     C613404   5.524   4.920  10.446  0.5386  0.3090 -0.1704
   76MYC     H813405   5.554   4.819  10.476  0.1704 -0.1430 -1.2794
   76MYC     H913406   5.604   4.988  10.414 -1.3930  1.8577 -1.9722
   76MYC     C513407   5.441   4.904  10.318  0.2722 -0.3976 -0.4218
   76MYC     H613408   5.405   5.005  10.294  3.5423  0.6806 -1.4790
   76MYC     H713409   5.356   4.837  10.329 -0.4593  0.6220  0.3068
   76MYC     C413410   5.522   4.860  10.195 -0.2035 -0.3041 -0.0446
   76MYC     H413411   5.564   4.759  10.211  2.6988  0.9212  0.7925
   76MYC     H513412   5.610   4.924  10.182 -0.0206 -0.4686  0.3476
   76MYC     C213413   5.454   4.858  10.055  0.6250 -0.6602 -0.7556
   76MYC     H213414   5.358   4.805  10.059  1.2671 -1.7994  1.6000
   76MYC     O313415   5.416   4.992  10.017  0.1468 -0.3418 -0.1701
   76MYC     H313416   5.498   5.043  10.018 -0.7222  1.1125 -0.4691
   76MYC     C113417   5.556   4.788   9.956 -0.5710  0.1626 -0.1798
   76MYC     H113418   5.557   4.681   9.981  1.0916 -0.2305 -1.6781
   76MYC    C8113419   5.705   4.833   9.954  0.6264 -0.4989  0.4700
   76MYC    O8213420   5.726   4.954   9.947 -0.2345  0.4227 -0.3388
   76MYC    O8313421   5.788   4.749   9.885  0.2247 -0.3161 -0.0213
   76MYC   H10513422   5.867   4.802   9.863  2.3258 -2.5440  1.5711
   76MYC    C2013423   5.496   4.797   9.806 -0.1492  0.1850  0.9099
   76MYC    H3413424   5.496   4.903   9.780 -1.1810  0.0953  0.4796
   76MYC    H3513425   5.565   4.743   9.739  1.4117 -0.7967  3.2055
   76MYC    C2113426   5.356   4.741   9.774  0.2821 -0.0262  0.2823
   76MYC    H3613427   5.353   4.632   9.790 -0.2597 -0.0085  0.3399
   76MYC    H3713428   5.292   4.782   9.853  1.0132  1.4968  0.1092
   76MYC    C2213429   5.305   4.787   9.637 -0.1824 -0.2671  0.1010
   76MYC    H3813430   5.297   4.896   9.629  0.1031  0.0452  3.0151
   76MYC    H3913431   5.385   4.752   9.571 -1.9527 -1.0668 -1.7157
   76MYC    C2313432   5.182   4.717   9.586 -0.1885 -0.2605  0.8575
   76MYC    H4013433   5.207   4.610   9.593  2.5724 -0.0645 -3.1723
   76MYC    H4113434   5.105   4.747   9.658 -0.4731  1.0343  0.0462
   76MYC    C2413435   5.142   4.732   9.436  0.2932  0.8728  0.7130
   76MYC    H4213436   5.036   4.707   9.424  0.5608  0.8231 -2.4047
   76MYC    H4313437   5.152   4.837   9.406 -0.0069  0.7173  0.0501
   76MYC    C2513438   5.225   4.647   9.339 -0.3479 -0.1945  0.4101
   76MYC    H4413439   5.323   4.694   9.325 -1.1994  1.2750 -0.9447
   76MYC    H4513440   5.230   4.546   9.381 -0.2618 -0.3806 -0.0390
   76MYC    C2613441   5.166   4.636   9.197 -0.3378  0.0772  0.1354
   76MYC    H4613442   5.084   4.562   9.193 -1.0536  0.8510  0.2421
   76MYC    H4713443   5.134   4.734   9.160 -0.0329 -0.8008 -2.7532
   76MYC    C2713444   5.263   4.595   9.086 -0.1405 -0.3623 -0.1797
   76MYC    H4813445   5.338   4.668   9.056 -0.4778 -0.1019 -0.3956
   76MYC    H4913446   5.320   4.506   9.116 -1.6901 -1.1287  0.6224
   76MYC    C2813447   5.186   4.554   8.961  0.1748 -0.0739  0.8658
   76MYC    H5013448   5.134   4.461   8.986  1.1958 -0.5407  1.2801
   76MYC    H5113449   5.116   4.634   8.934  0.2155 -0.3101  0.0362
   76MYC    C2913450   5.283   4.531   8.841  0.6478 -0.2278  0.4931
   76MYC    H5213451   5.328   4.625   8.806  0.5818 -0.6671 -0.8509
   76MYC    H5313452   5.362   4.463   8.873  2.6544  0.9588 -1.6074
   76MYC    C3013453   5.206   4.468   8.716 -0.2904 -0.3345  0.5418
   76MYC    H5413454   5.164   4.367   8.729 -0.3457 -0.5344 -1.0402
   76MYC    H5513455   5.119   4.529   8.690  0.1009 -0.2151 -0.5199
   76MYC    C3113456   5.304   4.475   8.593 -0.2713  0.1070  0.2410
   76MYC    H5613457   5.327   4.581   8.578 -1.1878  0.0074 -2.4845
   76MYC    H5713458   5.402   4.427   8.606 -1.2441 -2.0413  0.0082
   76MYC    C3213459   5.244   4.433   8.450  0.0619 -0.5917 -0.3246
   76MYC    H5813460   5.201   4.333   8.467 -3.0404  0.2766 -2.1770
   76MYC    H5913461   5.162   4.492   8.407  1.0938  0.6033 -0.6974
   76MYC    C3313462   5.356   4.415   8.347 -0.2335 -0.0931 -0.9993
   76MYC    H6013463   5.390   4.518   8.329 -1.1679  0.4227  0.0717
   76MYC    H6113464   5.436   4.356   8.393 -0.0148  0.3327 -0.8263
   76MYC    C3413465   5.321   4.358   8.202 -0.5963  0.0992 -0.5854
   76MYC    H6213466   5.413   4.357   8.141 -0.3861 -3.2446 -0.4255
   76MYC    H6313467   5.290   4.253   8.207 -0.5931  0.1306  3.1510
   76MYC    C3513468   5.210   4.441   8.127 -0.1631 -0.0218 -0.0633
   76MYC    H6413469   5.117   4.430   8.183 -0.1263  3.7044  0.9772
   76MYC    H6513470   5.230   4.549   8.126 -1.6856  0.3486  2.2686
   76MYC    C3613471   5.171   4.405   7.977  0.1012  0.4653 -0.3392
   76MYC    H6613472   5.149   4.299   7.962  1.6875  0.1792 -0.8595
   76MYC    H6713473   5.080   4.464   7.969 -0.0705  0.1429 -0.7892
   76MYC    C3713474   5.268   4.433   7.859  1.0179 -0.3628 -0.0136
   76MYC    H6813475   5.293   4.540   7.858 -0.1625 -0.0824 -0.6180
   76MYC    H6913476   5.357   4.372   7.879  1.1766 -0.3258 -0.5730
   76MYC    C3813477   5.205   4.385   7.727  0.3820 -0.0817 -0.0516
   76MYC    H7013478   5.209   4.275   7.719  1.2360  0.0457 -2.1978
   76MYC    H7113479   5.100   4.413   7.735  0.6297  0.9228 -0.1494
   76MYC    C3913480   5.272   4.441   7.591 -0.3884  0.6233 -0.0696
   76MYC    H7213481   5.268   4.551   7.591 -0.1607  0.6513  1.4066
   76MYC    H7313482   5.379   4.419   7.601 -0.5475  0.3319  1.2530
   76MYC    C4013483   5.205   4.392   7.466 -0.2295  0.2198  0.2603
   76MYC    H7413484   5.224   4.284   7.466 -1.9521 -0.1081 -0.3795
   76MYC    H7513485   5.096   4.401   7.471 -0.1604  0.3135  2.3664
   76MYC    C4113486   5.263   4.442   7.334 -0.0298 -0.1013 -0.3634
   76MYC    H7613487   5.257   4.551   7.333 -0.3158 -0.1175 -1.2400
   76MYC    H7713488   5.368   4.410   7.335  0.3845  0.8279  3.5529
   76MYC    C4213489   5.179   4.375   7.217 -0.1370  0.0288  0.7144
   76MYC    H7813490   5.204   4.269   7.207 -1.4764 -0.4688  2.2585
   76MYC    H7913491   5.072   4.367   7.242 -0.4902  0.7941 -0.4552
   76MYC    C4313492   5.205   4.437   7.082  0.2683  0.1612  0.0472
   76MYC    H8013493   5.141   4.524   7.064 -0.7158 -0.6408 -0.4307
   76MYC    H8113494   5.178   4.377   6.994  0.9251 -0.9434  0.5717
   76MYC    H8213495   5.305   4.480   7.073 -0.3329  1.6426  0.1508
   77MYC   HH1513496   5.630   4.348   7.228  2.5610 -1.6685 -0.7335
   77MYC    C8013497   5.659   4.402   7.137  0.3563  0.8769 -0.0809
   77MYC   H10013498   5.766   4.376   7.139 -0.4100 -2.8864  0.2866
   77MYC   H10113499   5.608   4.357   7.052  0.9535 -0.3038  0.1589
   77MYC    C7913500   5.627   4.555   7.142  0.0119  0.5191  0.5959
   77MYC   H10213501   5.519   4.573   7.149 -0.5910 -2.7236  0.9560
   77MYC   H10313502   5.665   4.602   7.051 -1.7701 -0.0197 -0.4813
   77MYC    C7813503   5.686   4.628   7.267 -0.3841  0.7693 -0.0635
   77MYC   HH1413504   5.704   4.735   7.250  2.9845  0.1925 -0.7866
   77MYC   H10413505   5.790   4.598   7.287 -0.5945  0.7435  1.0617
   77MYC    C7713506   5.613   4.589   7.392 -0.0418 -0.2521  0.2440
   77MYC   H10613507   5.626   4.481   7.403  2.8159 -0.1426 -1.1525
   77MYC   H10713508   5.512   4.631   7.386  0.8061  1.7341 -1.6243
   77MYC    C7613509   5.666   4.658   7.529  0.4098  0.7342  1.0957
   77MYC   H10813510   5.665   4.767   7.513 -0.9849  0.4772 -0.9839
   77MYC   H10913511   5.773   4.636   7.540  0.6217  1.1910  0.0384
   77MYC    C7513512   5.591   4.623   7.654  0.3075 -0.7315  0.5724
   77MYC   H11013513   5.588   4.514   7.658  0.1592 -0.7408  0.2437
   77MYC   H11113514   5.486   4.652   7.640  0.3685 -0.8275 -0.1241
   77MYC    C7413515   5.647   4.687   7.779 -0.2751  0.7131 -0.0159
   77MYC   H11213516   5.644   4.797   7.772  0.8421  0.6565 -2.1276
   77MYC   H11313517   5.751   4.652   7.782  0.2043  1.9587 -1.1054
   77MYC    C7313518   5.578   4.650   7.918  0.4461  0.2856 -0.6089
   77MYC   HH1313519   5.564   4.542   7.928 -1.3157  0.5501  0.0568
   77MYC   H11413520   5.478   4.694   7.923 -0.1725 -1.1541  1.3180
   77MYC    C7213521   5.655   4.707   8.040  0.6504 -0.3289  0.0472
   77MYC   H11513522   5.678   4.812   8.021 -0.0244 -0.2097 -0.1456
   77MYC   H11613523   5.752   4.657   8.045  0.6989 -0.2713 -0.2796
   77MYC    C7113524   5.593   4.694   8.178  0.0619  0.0236  0.1462
   77MYC   H11713525   5.565   4.590   8.199  0.0922  0.2971  1.6732
   77MYC   H11813526   5.509   4.763   8.194  0.3203  0.7495 -1.4920
   77MYC    C7013527   5.680   4.742   8.298 -0.3343  0.2115  0.6401
   77MYC   H11913528   5.703   4.849   8.286 -3.2857  0.8402 -0.1427
   77MYC   H12013529   5.776   4.688   8.299  0.0942  0.9377  2.3713
   77MYC    C6913530   5.617   4.715   8.437 -0.0881  0.2255 -0.3457
   77MYC   H12113531   5.598   4.608   8.455 -1.2050  0.3322 -0.7938
   77MYC   H12213532   5.515   4.756   8.438 -0.1780 -0.0069  0.5442
   77MYC    C6813533   5.704   4.779   8.552 -0.6298 -0.0885  0.5611
   77MYC   HH1213534   5.722   4.884   8.527 -2.5725  0.0004 -0.6387
   77MYC   H12313535   5.795   4.718   8.564 -0.9765 -0.4118  1.6501
   77MYC    C6713536   5.627   4.763   8.686 -0.7421 -0.0806 -0.4153
   77MYC   H12413537   5.659   4.668   8.730 -2.0583  0.0338  0.8568
   77MYC   H12513538   5.520   4.752   8.665 -0.5998 -0.6805 -0.8651
   77MYC    C6613539   5.656   4.875   8.792  0.2922 -0.1562 -0.8233
   77MYC   H12613540   5.627   4.964   8.736 -2.0783 -1.8627 -2.5110
   77MYC   H12713541   5.764   4.869   8.808  0.2766  1.4951  0.0356
   77MYC    C6513542   5.570   4.868   8.922 -0.0220 -0.0720 -0.4394
   77MYC   H12813543   5.587   4.765   8.954 -2.7837 -0.3626  0.3138
   77MYC   H12913544   5.464   4.872   8.895  0.0111  0.3425 -0.5208
   77MYC    C6413545   5.613   4.969   9.022  0.0037 -0.3433 -0.4973
   77MYC   H13013546   5.614   5.066   8.971 -2.0565 -0.1954 -0.3512
   77MYC   H13113547   5.713   4.937   9.052 -0.5235 -0.9951  0.6665
   77MYC    C6313548   5.518   4.973   9.149 -0.2335  1.1607 -0.1242
   77MYC   HH1113549   5.523   4.874   9.196  0.1844  0.6842 -1.1527
   77MYC   H13213550   5.413   4.991   9.122 -1.4905 -1.1406  2.6440
   77MYC    C6213551   5.565   5.079   9.251 -0.2784  0.5196  0.7871
   77MYC   H13313552   5.556   5.179   9.207 -0.4941  0.6381  1.0939
   77MYC   H13413553   5.669   5.062   9.282  0.7977  0.2000 -2.6510
   77MYC    C6113554   5.481   5.076   9.380  0.4275 -0.3482 -0.5088
   77MYC   H13513555   5.478   4.974   9.422  0.5287 -0.5049 -0.8731
   77MYC   H13613556   5.380   5.104   9.348  0.1219 -1.2683 -0.3813
   77MYC    C6013557   5.530   5.185   9.483 -0.1342  0.1408  0.7391
   77MYC   H13713558   5.526   5.286   9.442  0.5570  1.6300  4.0411
   77MYC    C5813559   5.493   5.191   9.625  0.3389 -0.0374 -0.0780
   77MYC   H13813560   5.455   5.096   9.663 -0.5438 -1.4510 -4.0372
   77MYC    C5913561   5.636   5.161   9.584  0.6354 -0.0232  0.0413
   77MYC   H13913562   5.703   5.244   9.603  1.5166 -1.1827  2.4357
   77MYC   H14013563   5.682   5.063   9.600  0.1009  0.0140  2.0067
   77MYC    C5713564   5.450   5.318   9.704  0.0570 -0.3453  0.4078
   77MYC   HH1013565   5.346   5.340   9.675 -0.1882 -0.8525  0.8986
   77MYC   H14113566   5.512   5.404   9.675  1.2873 -0.6698  1.9137
   77MYC    C5613567   5.464   5.307   9.859  0.5670 -0.3906  0.1729
   77MYC   H14213568   5.403   5.224   9.898 -0.2273 -0.6906 -1.5867
   77MYC   H14313569   5.423   5.391   9.915 -0.6142 -0.1873 -0.9627
   77MYC    C5513570   5.606   5.287   9.910 -0.2242 -0.4531  0.1199
   77MYC   H14413571   5.666   5.347   9.841 -0.8099 -0.9067 -0.8073
   77MYC   H14513572   5.630   5.180   9.909  0.5824 -0.2779  0.3597
   77MYC    C5413573   5.626   5.335  10.052  0.4265 -0.1980  0.2972
   77MYC   H14613574   5.557   5.286  10.122  1.0413 -1.0760  0.3100
   77MYC   H14713575   5.592   5.439  10.056 -1.4883 -0.7074 -1.1317
   77MYC    C5313576   5.768   5.318  10.121 -0.2593  0.3325 -0.8949
   77MYC   H14813577   5.845   5.369  10.061  2.0188 -1.5317  0.2488
   77MYC   H14913578   5.795   5.213  10.137  4.1142  1.5724  1.6748
   77MYC    C5213579   5.776   5.374  10.266 -0.3238  0.1227 -0.2253
   77MYC    H9913580   5.706   5.326  10.335  0.0070 -0.2440 -0.1376
   77MYC   H15013581   5.767   5.483  10.256  1.1698  0.4400  1.3102
   77MYC    C5113582   5.916   5.343  10.323  0.0272 -0.3014 -0.7499
   77MYC    H9713583   5.994   5.355  10.247 -1.8624  2.3145 -2.4282
   77MYC    H9813584   5.917   5.237  10.351 -0.0015  0.3757  2.1887
   77MYC    C5013585   5.941   5.418  10.455 -0.1522 -0.4019 -0.5679
   77MYC    H9513586   5.963   5.523  10.432  2.7349 -0.2415  2.1762
   77MYC    H9613587   6.039   5.376  10.482 -0.0701 -0.0152 -0.2608
   77MYC    C4913588   5.832   5.417  10.560 -0.4089  0.4829 -0.0531
   77MYC    H9313589   5.789   5.316  10.559 -1.5919  0.9785 -1.4916
   77MYC    H9413590   5.757   5.490  10.529 -0.0458 -0.1466 -2.6020
   77MYC    C4813591   5.875   5.459  10.700 -0.0417 -0.2236 -0.5373
   77MYC    H9113592   5.779   5.450  10.752 -0.6671 -0.4705 -1.6969
   77MYC    H9213593   5.913   5.561  10.693 -0.5357  0.1034  1.1165
   77MYC    C4713594   5.986   5.368  10.766 -0.1646 -0.4046  0.1363
   77MYC    H8913595   6.033   5.415  10.853 -1.8428  1.8064 -0.0660
   77MYC    H9013596   6.063   5.358  10.688  0.0721  1.0128  0.1736
   77MYC    C4613597   5.939   5.229  10.803  0.6071  0.1460 -0.2616
   77MYC    H8713598   6.028   5.192  10.855  1.5896  0.5339 -1.6013
   77MYC    H8813599   5.920   5.156  10.723  1.0344 -0.3292  0.0656
   77MYC    C4513600   5.811   5.226  10.889 -0.2652 -0.4851  0.7835
   77MYC    H8513601   5.722   5.250  10.830  0.8223  1.5863 -0.1049
   77MYC    H8613602   5.821   5.307  10.963  1.0433  0.2520 -0.1640
   77MYC    C4413603   5.785   5.109  10.972 -0.1347 -0.0412  0.1391
   77MYC    H8313604   5.725   5.146  11.056 -0.7533  2.6687 -1.3968
   77MYC    H8413605   5.881   5.090  11.020  0.3822 -0.2988 -0.9707
   77MYC    C1813606   5.735   4.984  10.901 -0.1130  0.8162 -0.6477
   77MYC    H3113607   5.640   5.001  10.852  1.0067 -0.9935 -3.6911
   77MYC    C1713608   5.832   4.891  10.836 -0.2683  0.3334  0.4071
   77MYC    H3013609   5.935   4.924  10.847 -0.1719 -0.0302  0.5918
   77MYC    C1913610   5.743   4.849  10.954 -0.2114  0.2932 -0.2918
   77MYC    H3213611   5.787   4.812  11.047 -2.0946 -2.1155 -0.2588
   77MYC    H3313612   5.656   4.784  10.942  0.8735 -1.2805 -0.0021
   77MYC    C1613613   5.817   4.826  10.697  0.3691 -0.6430 -0.5271
   77MYC    H2813614   5.712   4.802  10.676  0.7365 -0.8004 -2.4007
   77MYC    H2913615   5.885   4.740  10.701  2.8096  1.1872 -0.6421
   77MYC    C1513616   5.867   4.918  10.581 -0.5757  0.2321  0.0631
   77MYC    H2613617   5.967   4.944  10.617 -0.1932  1.1048 -1.5331
   77MYC    H2713618   5.801   5.004  10.567 -1.0837  0.0150  1.0245
   77MYC    C1413619   5.880   4.837  10.447 -0.6954  0.0438  0.5409
   77MYC    H2413620   5.776   4.820  10.416  0.2980 -3.6554 -1.2419
   77MYC    H2513621   5.917   4.734  10.445 -1.3664 -0.1933 -0.4246
   77MYC    C1313622   5.963   4.919  10.344 -0.1017 -0.3805 -0.2083
   77MYC    H2213623   6.058   4.939  10.396 -0.6807  1.5267  0.2301
   77MYC    H2313624   5.926   5.022  10.337  1.4058  0.2371  0.3634
   77MYC    C1213625   5.989   4.863  10.205  0.3584  0.3451  0.1974
   77MYC    H2013626   5.895   4.814  10.175  0.2898 -0.9264  2.2928
   77MYC    H2113627   6.062   4.781  10.210 -0.3936 -0.4191 -0.8123
   77MYC    C1113628   6.041   4.959  10.097  0.1690  0.0272 -0.2783
   77MYC    H1813629   6.101   5.037  10.146 -0.2158 -0.5246  1.0968
   77MYC    H1913630   5.957   5.015  10.054  0.9876  1.9184  0.4599
   77MYC    C1013631   6.103   4.891   9.979 -0.1923 -0.8242  0.6830
   77MYC    H1613632   6.016   4.849   9.927 -0.4160  2.1659 -1.6304
   77MYC    H1713633   6.175   4.814  10.009  1.6783 -0.0325 -1.4305
   77MYC     C913634   6.167   4.987   9.883  0.2734 -1.2512 -0.0342
   77MYC    H1413635   6.205   5.079   9.930  0.7407 -1.3715 -0.1662
   77MYC    H1513636   6.087   5.039   9.831 -0.8074 -2.0708  0.7609
   77MYC     C813637   6.262   4.938   9.773 -0.2641  0.2992  0.0417
   77MYC    H1213638   6.355   4.904   9.820 -0.2614 -1.1934 -1.0016
   77MYC    H1313639   6.281   5.024   9.707 -1.1018 -0.1145 -0.7516
   77MYC     C713640   6.206   4.815   9.699 -0.3609  0.1513 -0.3494
   77MYC    H1013641   6.177   4.745   9.778 -2.3021  0.5479 -0.6783
   77MYC    H1113642   6.277   4.775   9.625 -1.1460  0.6744 -1.4116
   77MYC     C613643   6.076   4.865   9.624  0.4706  0.3974  0.6758
   77MYC     H813644   6.086   4.970   9.595 -0.0006  0.5754  1.1316
   77MYC     H913645   5.997   4.873   9.699 -0.0610  0.2179  0.1371
   77MYC     C513646   6.023   4.765   9.520  0.1160 -0.2157 -0.0961
   77MYC     H613647   6.113   4.714   9.485  1.6091  0.4594  2.4929
   77MYC     H713648   5.973   4.819   9.439  2.0380  0.1080 -1.1356
   77MYC     C413649   5.939   4.647   9.587  0.1456 -0.2958 -0.1224
   77MYC     H413650   5.852   4.694   9.632  0.3192 -1.2647  1.2725
   77MYC     H513651   5.996   4.619   9.676 -1.6714  1.5245  1.6991
   77MYC     C213652   5.899   4.531   9.501 -0.4022 -0.4075 -0.0405
   77MYC     H213653   5.987   4.482   9.456  0.4629 -0.8973  2.0838
   77MYC     O313654   5.820   4.442   9.573 -0.5931  1.1275  0.6337
   77MYC     H313655   5.808   4.471   9.665 -1.1007  1.1109  0.5743
   77MYC     C113656   5.810   4.582   9.382  0.6492  0.3956 -0.0003
   77MYC     H113657   5.869   4.658   9.329  2.1870  0.8233  2.2202
   77MYC    C8113658   5.680   4.663   9.426  0.1846  0.2605 -0.6827
   77MYC    O8213659   5.586   4.618   9.486  0.5356  0.2238 -0.5242
   77MYC    O8313660   5.690   4.798   9.398 -0.2092  0.9809  0.3160
   77MYC   H10513661   5.612   4.833   9.446 -0.1111  1.5328  0.0775
   77MYC    C2013662   5.774   4.469   9.280  0.2756 -0.4188 -0.2174
   77MYC    H3413663   5.868   4.445   9.229  0.6183 -0.9874  0.6681
   77MYC    H3513664   5.747   4.378   9.334  2.0389 -1.8403 -1.5702
   77MYC    C2113665   5.673   4.506   9.175 -0.2161  0.4314 -0.3523
   77MYC    H3613666   5.575   4.520   9.222 -0.0957  0.0288  0.0243
   77MYC    H3713667   5.702   4.595   9.119  2.1643  0.2093  0.3966
   77MYC    C2213668   5.661   4.407   9.060  0.6185  1.0213  0.2559
   77MYC    H3813669   5.581   4.446   8.995 -0.0589  0.8377  0.9598
   77MYC    H3913670   5.755   4.417   9.005  0.0080  4.0594 -0.4012
   77MYC    C2313671   5.635   4.255   9.099  0.2202 -0.5294 -1.0415
   77MYC    H4013672   5.707   4.214   9.171 -0.9309 -0.9456 -0.1004
   77MYC    H4113673   5.539   4.245   9.150  0.8564  2.6515  1.1149
   77MYC    C2413674   5.660   4.170   8.978 -0.1876 -0.2693  0.2212
   77MYC    H4213675   5.760   4.178   8.935 -1.3392  0.0190 -2.6077
   77MYC    H4313676   5.658   4.064   9.006  4.3522 -0.3235  1.1501
   77MYC    C2513677   5.569   4.209   8.856 -0.1047  0.0134 -0.3292
   77MYC    H4413678   5.463   4.219   8.879  0.0904 -1.6969  1.6309
   77MYC    H4513679   5.604   4.293   8.796  1.0556 -0.1933  0.0198
   77MYC    C2613680   5.588   4.092   8.755  0.0874  0.2638  1.1273
   77MYC    H4613681   5.687   4.046   8.744 -0.5104 -0.3760 -3.3284
   77MYC    H4713682   5.530   4.002   8.778 -0.4290 -0.5275 -2.6544
   77MYC    C2713683   5.546   4.131   8.613  0.1219 -0.3768  0.2749
   77MYC    H4813684   5.439   4.156   8.608 -0.5408 -3.0919 -0.9264
   77MYC    H4913685   5.596   4.226   8.593  1.5517 -1.2944 -0.6859
   77MYC    C2813686   5.584   4.027   8.503 -0.1026  0.2253 -0.4288
   77MYC    H5013687   5.692   4.033   8.488 -0.0766  3.1495  0.3246
   77MYC    H5113688   5.561   3.927   8.542  1.6153 -0.2042 -0.4490
   77MYC    C2913689   5.506   4.034   8.376 -0.5508 -0.0648  0.8027
   77MYC    H5213690   5.401   4.017   8.402 -0.6190 -2.7189 -0.8626
   77MYC    H5313691   5.514   4.134   8.333 -0.3962  0.2716  1.6033
   77MYC    C3013692   5.560   3.934   8.271 -0.0264  0.4799  0.2190
   77MYC    H5413693   5.667   3.955   8.256  0.4355 -0.9894  1.2808
   77MYC    H5513694   5.557   3.830   8.303  1.1155 -1.1454 -4.1557
   77MYC    C3113695   5.484   3.947   8.139  0.8799  0.1540  0.7973
   77MYC    H5613696   5.377   3.969   8.147  0.6725 -0.0205 -1.0249
   77MYC    H5713697   5.531   4.035   8.092  1.3532 -0.1233  0.7423
   77MYC    C3213698   5.494   3.828   8.044 -0.6301  0.0139 -0.6012
   77MYC    H5813699   5.596   3.802   8.015 -1.5308 -4.0223 -0.8308
   77MYC    H5913700   5.448   3.740   8.090 -0.9664  0.1144 -0.7445
   77MYC    C3313701   5.404   3.848   7.926  0.3733 -0.7290  0.7038
   77MYC    H6013702   5.301   3.868   7.958  0.5684  2.5344 -0.2739
   77MYC    H6113703   5.440   3.942   7.882 -2.2090  0.3310  0.6992
   77MYC    C3413704   5.407   3.735   7.815 -0.1569 -0.0253  0.0614
   77MYC    H6213705   5.505   3.733   7.764 -0.0455 -1.6687  0.2861
   77MYC    H6313706   5.409   3.633   7.855 -4.0581 -1.7426 -3.4000
   77MYC    C3513707   5.288   3.751   7.723 -0.1451 -0.1284  0.0921
   77MYC    H6413708   5.204   3.713   7.782 -0.0010 -0.9886 -0.2385
   77MYC    H6513709   5.279   3.856   7.692 -0.9384 -0.9084 -2.6145
   77MYC    C3613710   5.308   3.674   7.595  0.3280  0.1391  0.0835
   77MYC    H6613711   5.404   3.695   7.547 -0.4357 -0.5592 -1.8298
   77MYC    H6713712   5.311   3.568   7.626 -2.2296  0.1206  0.4672
   77MYC    C3713713   5.195   3.687   7.495 -0.2524 -0.0597  0.1852
   77MYC    H6813714   5.098   3.662   7.541 -0.8350 -1.8927 -1.8477
   77MYC    H6913715   5.195   3.792   7.465 -1.8227 -0.6918 -2.3395
   77MYC    C3813716   5.206   3.582   7.384 -0.7816  0.5879  0.9124
   77MYC    H7013717   5.304   3.588   7.333 -2.4285  1.8638 -2.4446
   77MYC    H7113718   5.188   3.482   7.423 -2.6355 -1.1497 -3.6697
   77MYC    C3913719   5.084   3.597   7.279  0.1789 -0.0856 -0.3463
   77MYC    H7213720   4.991   3.620   7.332  0.3608 -0.8016  0.3054
   77MYC    H7313721   5.106   3.677   7.207 -1.7346 -0.5353 -1.5131
   77MYC    C4013722   5.053   3.475   7.191  0.2818 -0.5365 -0.1027
   77MYC    H7413723   5.150   3.446   7.149  1.0922  0.1359  1.2356
   77MYC    H7513724   5.018   3.391   7.253 -3.3994  0.4069 -0.6206
   77MYC    C4113725   4.947   3.501   7.084 -0.1823 -0.4211  0.2495
   77MYC    H7613726   4.853   3.542   7.123 -0.9896  0.1543 -2.1348
   77MYC    H7713727   4.977   3.585   7.020  1.1839  0.4985  1.9899
   77MYC    C4213728   4.911   3.373   7.001 -0.3558 -0.1730  0.8588
   77MYC    H7813729   4.837   3.398   6.924  0.0347 -0.8762  0.2437
   77MYC    H7913730   4.996   3.335   6.944 -0.3866  2.7804 -1.4171
   77MYC    C4313731   4.855   3.256   7.087  0.7285 -0.2982  0.1328
   77MYC    H8013732   4.788   3.193   7.027  0.2124  1.3452 -1.0874
   77MYC    H8113733   4.792   3.303   7.162 -0.3000  0.2931 -1.0701
   77MYC    H8213734   4.932   3.190   7.130  0.5530 -0.9081 -0.4726
   78MYC   HH1513735   5.258   4.045   6.961 -0.0780  2.3289  0.4314
   78MYC    C8013736   5.362   4.031   6.931 -0.4243 -0.7067  0.3497
   78MYC   H10013737   5.365   4.002   6.825 -0.0256 -1.7478  0.6248
   78MYC   H10113738   5.411   4.128   6.945  0.5268 -0.9967 -0.8530
   78MYC    C7913739   5.430   3.916   7.005 -0.3122 -0.3892 -0.0231
   78MYC   H10213740   5.538   3.921   6.987 -0.1802  0.0575  0.8461
   78MYC   H10313741   5.391   3.823   6.964  2.9297 -2.1475  0.5327
   78MYC    C7813742   5.410   3.919   7.159  0.1945  0.3871  0.3767
   78MYC   HH1413743   5.436   3.822   7.202 -1.8306 -0.5630 -0.4251
   78MYC   H10413744   5.301   3.920   7.170 -0.0407  1.0517 -1.7133
   78MYC    C7713745   5.477   4.031   7.239 -0.1263  0.1504 -0.3437
   78MYC   H10613746   5.425   4.122   7.205 -1.1241 -0.3941 -0.3121
   78MYC   H10713747   5.583   4.033   7.211 -0.0451 -0.2232 -0.0735
   78MYC    C7613748   5.480   4.003   7.393 -0.1234 -0.5070  0.0983
   78MYC   H10813749   5.528   3.905   7.406 -2.4172 -1.4715  2.1341
   78MYC   H10913750   5.388   3.970   7.441  0.4276  0.3856  1.8711
   78MYC    C7513751   5.542   4.102   7.476 -0.8739 -0.0611  0.4059
   78MYC   H11013752   5.486   4.197   7.478  2.0877  1.8119 -0.2679
   78MYC   H11113753   5.639   4.119   7.429 -1.2522 -0.4252 -0.5274
   78MYC    C7413754   5.567   4.062   7.622 -0.4167  0.1037  0.3522
   78MYC   H11213755   5.641   3.982   7.635  0.2888  0.4360 -1.2649
   78MYC   H11313756   5.468   4.038   7.662 -0.3599  0.3935  0.6687
   78MYC    C7313757   5.626   4.183   7.684  0.6016  0.6026 -0.8418
   78MYC   HH1313758   5.551   4.263   7.675 -0.6424 -0.5947 -1.5231
   78MYC   H11413759   5.720   4.219   7.640  1.1587  0.7695  0.4572
   78MYC    C7213760   5.654   4.169   7.839  0.3754  0.5823 -0.3631
   78MYC   H11513761   5.680   4.066   7.866 -0.1409  1.0801  2.2912
   78MYC   H11613762   5.560   4.205   7.880  0.2160  0.3464 -0.5162
   78MYC    C7113763   5.760   4.262   7.910 -0.4715  0.2661 -0.6855
   78MYC   H11713764   5.728   4.364   7.887  1.0842  1.9928  3.7185
   78MYC   H11813765   5.856   4.242   7.861 -0.8437 -0.7119 -1.0455
   78MYC    C7013766   5.777   4.241   8.057  0.4631 -0.1551 -0.3092
   78MYC   H11913767   5.812   4.138   8.070 -0.0721 -0.5306 -1.6964
   78MYC   H12013768   5.672   4.243   8.091  0.1363  0.2386 -1.3266
   78MYC    C6913769   5.880   4.347   8.118 -0.4429 -0.0045 -0.3503
   78MYC   H12113770   5.841   4.448   8.098  1.1412  0.6724 -0.2064
   78MYC   H12213771   5.980   4.332   8.076  0.2766  2.7232  0.1901
   78MYC    C6813772   5.920   4.344   8.275  0.5290 -0.6971 -0.1086
   78MYC   HH1213773   5.993   4.424   8.286 -0.3686  0.3817 -1.6512
   78MYC   H12313774   5.971   4.247   8.281  1.1442 -0.7031 -3.4416
   78MYC    C6713775   5.800   4.362   8.365 -0.0962  0.7000 -0.6378
   78MYC   H12413776   5.764   4.261   8.390  1.9309  0.0835 -0.0535
   78MYC   H12513777   5.724   4.421   8.312  2.0380  0.8958 -3.7390
   78MYC    C6613778   5.828   4.432   8.495 -0.3513 -0.7342  0.1202
   78MYC   H12613779   5.738   4.442   8.557  0.8664  0.7555  1.7551
   78MYC   H12713780   5.852   4.538   8.483 -0.3166 -0.8004 -0.3986
   78MYC    C6513781   5.939   4.377   8.590 -0.4384 -0.4093 -0.4458
   78MYC   H12813782   6.036   4.360   8.542 -0.3655  0.0589 -0.4682
   78MYC   H12913783   5.900   4.277   8.616 -1.7768  0.0865 -0.4821
   78MYC    C6413784   5.958   4.459   8.722 -0.3563 -0.1715 -0.2081
   78MYC   H13013785   5.863   4.473   8.773  0.3632  0.1872  1.0781
   78MYC   H13113786   5.990   4.557   8.685  0.1547 -0.1806  0.1938
   78MYC    C6313787   6.062   4.395   8.812  0.5915  0.1653 -0.5176
   78MYC   HH1113788   6.160   4.376   8.765  1.4807 -1.5420  1.8236
   78MYC   H13213789   6.026   4.293   8.827 -1.4607  0.9705  0.4124
   78MYC    C6213790   6.082   4.467   8.953  0.5230 -0.5254  0.0982
   78MYC   H13313791   5.991   4.459   9.012  1.0217 -1.7836  0.7229
   78MYC   H13413792   6.109   4.572   8.933  0.1138 -0.3326  0.5400
   78MYC    C6113793   6.194   4.399   9.034 -0.5986  0.3573 -0.5357
   78MYC   H13513794   6.276   4.379   8.965  0.5372  0.5744  0.7103
   78MYC   H13613795   6.157   4.300   9.063 -0.3269 -0.1753 -1.9301
   78MYC    C6013796   6.220   4.484   9.157  0.1593  0.2836 -0.1965
   78MYC   H13713797   6.158   4.461   9.243  1.3043 -0.5103  0.4373
   78MYC    C5813798   6.358   4.513   9.207 -0.2708 -0.0497  0.7802
   78MYC   H13813799   6.435   4.475   9.141 -1.2244  0.2329 -0.5344
   78MYC    C5913800   6.278   4.625   9.142  0.6818  0.1007  0.1571
   78MYC   H13913801   6.257   4.706   9.211  1.6853 -0.3406  1.0025
   78MYC   H14013802   6.322   4.659   9.048  1.3223  0.8069  0.7007
   78MYC    C5713803   6.401   4.491   9.352  0.8011 -0.6481  0.3175
   78MYC   HH1013804   6.463   4.401   9.354 -2.0676 -2.8035 -0.8285
   78MYC   H14113805   6.316   4.471   9.418  1.4716 -0.2693  1.3258
   78MYC    C5613806   6.494   4.607   9.411  0.3187 -0.4022  0.3987
   78MYC   H14213807   6.450   4.706   9.393  3.4308  1.2452  1.1354
   78MYC   H14313808   6.586   4.606   9.351 -0.8366 -1.2958 -1.4528
   78MYC    C5513809   6.532   4.592   9.558 -0.0356 -0.0283  0.7268
   78MYC   H14413810   6.611   4.517   9.570  1.1405  1.4538  3.2532
   78MYC   H14513811   6.446   4.572   9.623  1.1299 -0.0904  2.3004
   78MYC    C5413812   6.579   4.729   9.606 -0.3360  0.8246 -0.0080
   78MYC   H14613813   6.506   4.810   9.593  1.4401  2.3907 -0.5606
   78MYC   H14713814   6.671   4.746   9.549  0.5952  2.6771  1.8959
   78MYC    C5313815   6.614   4.731   9.756 -0.1911 -0.0200 -0.3458
   78MYC   H14813816   6.672   4.640   9.777 -2.1426 -0.7342  2.6598
   78MYC   H14913817   6.522   4.730   9.816  0.3987  0.7477  0.5936
   78MYC    C5213818   6.714   4.845   9.801 -0.2065 -0.3042 -0.1195
   78MYC    H9913819   6.791   4.862   9.724  1.3305  0.1184  1.4520
   78MYC   H15013820   6.768   4.798   9.884  1.3716  0.3976 -0.7087
   78MYC    C5113821   6.648   4.980   9.834  0.7243  0.3252  0.3627
   78MYC    H9713822   6.574   4.968   9.913 -0.6144 -1.0539 -1.0213
   78MYC    H9813823   6.581   4.999   9.749  0.1285 -2.4302  0.1180
   78MYC    C5013824   6.744   5.099   9.868  0.8062 -0.1903  0.2448
   78MYC    H9513825   6.809   5.117   9.781  0.2643 -0.9000 -0.3211
   78MYC    H9613826   6.812   5.060   9.944  0.8122 -0.8072 -0.0714
   78MYC    C4913827   6.675   5.235   9.917  0.8770 -0.3392 -0.0049
   78MYC    H9313828   6.604   5.203   9.995  1.5205 -0.1103  0.6887
   78MYC    H9413829   6.608   5.266   9.836  1.9192  0.9718 -0.4009
   78MYC    C4813830   6.784   5.333   9.960 -0.3203 -0.3323 -0.4360
   78MYC    H9113831   6.864   5.331   9.886 -1.4617 -0.0011 -1.7244
   78MYC    H9213832   6.835   5.292  10.048 -1.7406 -0.1300  0.5197
   78MYC    C4713833   6.732   5.475   9.985  0.2678  0.4548 -0.8026
   78MYC    H8913834   6.675   5.467  10.078  0.7600  1.4515 -0.3993
   78MYC    H9013835   6.664   5.507   9.905 -0.3962 -0.2356 -0.5230
   78MYC    C4613836   6.844   5.580   9.993  0.5947  0.0630 -0.4809
   78MYC    H8713837   6.793   5.672  10.024  0.6058  0.4746 -1.6182
   78MYC    H8813838   6.870   5.606   9.889  0.5077 -0.5043 -0.6487
   78MYC    C4513839   6.977   5.558  10.075 -0.3960  0.5035  0.6422
   78MYC    H8513840   7.067   5.609  10.040 -2.2800  2.5682 -1.5423
   78MYC    H8613841   6.996   5.451  10.059 -2.2738 -0.0114  1.5287
   78MYC    C4413842   6.948   5.586  10.227  0.1304 -0.0137 -0.6977
   78MYC    H8313843   6.878   5.515  10.273 -0.3710  2.1121  2.1237
   78MYC    H8413844   6.908   5.688  10.226  0.0468 -0.0136  0.5401
   78MYC    C1813845   7.072   5.578  10.315  0.0940 -1.5339 -0.1223
   78MYC    H3113846   7.141   5.660  10.302 -0.4246 -1.1857 -0.7530
   78MYC    C1713847   7.061   5.505  10.444 -0.4291 -0.8111  0.9229
   78MYC    H3013848   6.967   5.451  10.456 -0.1434 -1.8423 -1.0270
   78MYC    C1913849   7.150   5.450  10.335 -0.2080  0.3584  0.8707
   78MYC    H3213850   7.122   5.359  10.283  0.2585  0.1480  0.9856
   78MYC    H3313851   7.256   5.451  10.360 -0.5413  3.5371  2.7247
   78MYC    C1613852   7.108   5.568  10.568  0.3467 -0.7502 -0.1318
   78MYC    H2813853   7.216   5.589  10.573 -0.0375  1.3700 -0.2147
   78MYC    H2913854   7.082   5.500  10.650 -0.6619  0.7503  0.8345
   78MYC    C1513855   7.035   5.695  10.603  0.4509  0.2033 -0.4841
   78MYC    H2613856   7.083   5.775  10.546 -0.0510  0.0652 -1.1178
   78MYC    H2713857   7.056   5.726  10.706  1.2561 -0.4007 -0.4624
   78MYC    C1413858   6.880   5.706  10.581 -1.0521 -0.2721  0.5586
   78MYC    H2413859   6.840   5.661  10.489  0.2948 -1.4508  0.5020
   78MYC    H2513860   6.867   5.813  10.567  2.1335  0.5704  2.8477
   78MYC    C1313861   6.782   5.648  10.689  0.0754 -0.2879  0.2180
   78MYC    H2213862   6.806   5.688  10.788  0.0936 -1.2781  0.6305
   78MYC    H2313863   6.800   5.540  10.696  2.3138 -0.0179 -0.8090
   78MYC    C1213864   6.631   5.675  10.664  0.2173  0.5762  0.0800
   78MYC    H2013865   6.621   5.782  10.640  1.8641  0.5216 -1.0232
   78MYC    H2113866   6.575   5.648  10.754 -0.9586  0.3013 -0.7134
   78MYC    C1113867   6.569   5.583  10.551 -1.4633 -0.4969  0.1622
   78MYC    H1813868   6.588   5.480  10.583  2.7146  0.3251  0.8416
   78MYC    H1913869   6.616   5.616  10.458 -0.1997  0.0147  0.9516
   78MYC    C1013870   6.417   5.604  10.524 -0.3718 -0.3919  0.3119
   78MYC    H1613871   6.398   5.712  10.520  0.5178 -0.2320  0.0852
   78MYC    H1713872   6.366   5.571  10.615  0.5980  0.2972  1.1278
   78MYC     C913873   6.359   5.532  10.405 -0.0309  0.3913  1.2410
   78MYC    H1413874   6.250   5.521  10.413  0.1085 -1.0799  1.4666
   78MYC    H1513875   6.394   5.428  10.415  0.1605  0.0351 -2.0096
   78MYC     C813876   6.412   5.577  10.262 -0.1154 -0.3073  0.2831
   78MYC    H1213877   6.512   5.534  10.257  0.1613 -0.0474  2.4386
   78MYC    H1313878   6.415   5.687  10.271 -1.1839 -0.3013  0.7891
   78MYC     C713879   6.332   5.559  10.136 -0.4096  0.1451  0.5723
   78MYC    H1013880   6.376   5.631  10.066  0.6157 -0.5120  0.5151
   78MYC    H1113881   6.225   5.573  10.157 -0.3374  1.8472 -0.0813
   78MYC     C613882   6.356   5.413  10.076  0.4443  0.1957 -0.1772
   78MYC     H813883   6.313   5.344  10.149 -0.7119  1.2210  0.1540
   78MYC     H913884   6.460   5.381  10.070  0.6903  0.4172  1.9942
   78MYC     C513885   6.271   5.387   9.949  0.7945 -0.0758  0.0573
   78MYC     H613886   6.166   5.384   9.981  0.5974  2.1202 -0.2519
   78MYC     H713887   6.311   5.292   9.912  3.1514  0.0412  2.1187
   78MYC     C413888   6.267   5.496   9.835 -0.1722 -0.6018  0.9623
   78MYC     H413889   6.363   5.516   9.787 -0.7978 -1.3313 -0.6840
   78MYC     H513890   6.227   5.584   9.886  0.3613  1.3052 -1.7090
   78MYC     C213891   6.171   5.475   9.719  0.5031  0.2766 -0.0676
   78MYC     H213892   6.080   5.444   9.771 -0.3065 -0.5227 -1.8449
   78MYC     O313893   6.149   5.591   9.642  0.0536  0.1268 -0.9029
   78MYC     H313894   6.206   5.598   9.563  0.5042 -0.0341 -0.5978
   78MYC     C113895   6.202   5.358   9.621  0.1338  0.0161 -0.3496
   78MYC     H113896   6.190   5.261   9.671 -3.7798  0.7838  0.5707
   78MYC    C8113897   6.349   5.356   9.565 -0.8616 -0.1130 -0.4329
   78MYC    O8213898   6.409   5.453   9.521 -0.3612 -0.1472  0.2516
   78MYC    O8313899   6.426   5.253   9.620  0.4148  0.1127  0.2455
   78MYC   H10513900   6.521   5.274   9.629  0.3838 -0.2756  1.7763
   78MYC    C2013901   6.105   5.351   9.502  0.4463 -0.8219 -0.4316
   78MYC    H3413902   6.005   5.330   9.543  0.7438 -1.4698 -0.0189
   78MYC    H3513903   6.102   5.452   9.460 -0.8948  0.2857  2.0552
   78MYC    C2113904   6.138   5.245   9.406  0.4110  0.7746 -0.1090
   78MYC    H3613905   6.222   5.273   9.341  0.3943 -1.2171 -1.0565
   78MYC    H3713906   6.168   5.152   9.456 -0.3314  0.6687  0.1403
   78MYC    C2213907   6.020   5.234   9.308  0.3328  0.0301  0.1963
   78MYC    H3813908   5.930   5.201   9.362  0.0414 -2.5648 -1.6941
   78MYC    H3913909   5.994   5.332   9.265 -0.4838 -1.5202 -3.1634
   78MYC    C2313910   6.041   5.147   9.192  1.1274  0.0635  0.1998
   78MYC    H4013911   6.130   5.184   9.138  0.7149  2.4434  1.0563
   78MYC    H4113912   6.059   5.041   9.215  1.0090 -0.0183 -0.0726
   78MYC    C2413913   5.922   5.148   9.092 -0.0232 -0.6338 -0.0078
   78MYC    H4213914   5.936   5.066   9.021  0.6437 -1.7288  1.3566
   78MYC    H4313915   5.824   5.127   9.137 -1.1856  1.5632 -1.3106
   78MYC    C2513916   5.914   5.290   9.014  1.2017 -0.3670  0.9738
   78MYC    H4413917   5.907   5.378   9.078  1.5305 -0.2005  0.7860
   78MYC    H4513918   6.001   5.310   8.949  0.8037  1.7423  1.0233
   78MYC    C2613919   5.792   5.285   8.914 -0.7345  0.3738 -0.8016
   78MYC    H4613920   5.792   5.186   8.867 -2.0833 -0.3627  0.6684
   78MYC    H4713921   5.705   5.291   8.980  0.9194  1.9655  1.4119
   78MYC    C2713922   5.773   5.394   8.812  0.2272 -0.0094 -0.4016
   78MYC    H4813923   5.751   5.489   8.861 -0.5000  0.3306 -1.3527
   78MYC    H4913924   5.864   5.401   8.752 -0.5666  1.7222 -1.4815
   78MYC    C2813925   5.646   5.364   8.724  0.6615 -0.1461 -0.4227
   78MYC    H5013926   5.561   5.343   8.791 -0.6952  0.7213 -1.8043
   78MYC    H5113927   5.618   5.462   8.682 -1.7972 -0.8774 -0.6127
   78MYC    C2913928   5.662   5.270   8.611  0.3945 -0.3185  0.3969
   78MYC    H5213929   5.729   5.315   8.536 -2.3510  1.5631 -1.1283
   78MYC    H5313930   5.693   5.172   8.648  0.4297 -0.4942 -0.0905
   78MYC    C3013931   5.534   5.246   8.527  0.0033  0.3528  0.0548
   78MYC    H5413932   5.454   5.220   8.598  1.9164 -2.2956  1.4095
   78MYC    H5513933   5.507   5.344   8.485 -1.1612  0.4762  1.0146
   78MYC    C3113934   5.547   5.128   8.429  0.2508 -0.2867  0.9274
   78MYC    H5613935   5.547   5.039   8.493 -0.6894 -0.0087  1.3265
   78MYC    H5713936   5.465   5.110   8.360  0.5158  0.1548  0.4856
   78MYC    C3213937   5.677   5.143   8.338  0.3790 -0.1370  0.0559
   78MYC    H5813938   5.765   5.149   8.403  0.2064  0.4904  0.2415
   78MYC    H5913939   5.698   5.053   8.279  2.8856  0.0188  0.6079
   78MYC    C3313940   5.679   5.254   8.235 -0.2191 -0.5380  0.1125
   78MYC    H6013941   5.653   5.346   8.288 -0.5089 -0.0661 -0.8326
   78MYC    H6113942   5.785   5.255   8.207 -0.1683  1.4064  0.2281
   78MYC    C3413943   5.579   5.244   8.110 -0.9216  0.0642 -0.2384
   78MYC    H6213944   5.597   5.148   8.060 -0.1323  0.1567 -0.1488
   78MYC    H6313945   5.477   5.226   8.144 -0.2103 -3.9195  0.2740
   78MYC    C3513946   5.601   5.343   7.997  0.0442 -0.0418 -0.3185
   78MYC    H6413947   5.533   5.323   7.913  0.0508 -1.2045 -0.0646
   78MYC    H6513948   5.579   5.442   8.040  1.8067 -0.5852  1.9722
   78MYC    C3613949   5.747   5.356   7.935 -0.8453 -0.3848  0.6464
   78MYC    H6613950   5.746   5.430   7.854 -0.2632 -1.8515 -0.7628
   78MYC    H6713951   5.803   5.397   8.020  0.0955 -1.3738  0.5182
   78MYC    C3713952   5.817   5.217   7.883  0.8539 -0.3125 -0.2031
   78MYC    H6813953   5.919   5.232   7.847  0.6410 -2.5216 -1.9514
   78MYC    H6913954   5.831   5.152   7.971 -2.9611  0.0302  0.8348
   78MYC    C3813955   5.740   5.139   7.772 -0.1534 -0.7838 -0.3903
   78MYC    H7013956   5.799   5.054   7.735 -1.6362 -2.4012  0.7793
   78MYC    H7113957   5.661   5.087   7.827  0.6993 -1.0533  0.6213
   78MYC    C3913958   5.674   5.220   7.647 -1.0229  0.1450 -0.0714
   78MYC    H7213959   5.640   5.140   7.581 -1.6888  0.3498  0.0143
   78MYC    H7313960   5.594   5.283   7.687  0.4366  1.2989  1.2016
   78MYC    C4013961   5.768   5.308   7.558 -0.4245 -0.1459  0.9005
   78MYC    H7413962   5.825   5.386   7.612  0.6053  0.7128 -1.3098
   78MYC    H7513963   5.843   5.240   7.517 -1.2967 -0.4151 -0.3016
   78MYC    C4113964   5.700   5.362   7.431  0.1331  0.5204  0.0385
   78MYC    H7613965   5.671   5.272   7.375  2.6339  0.1427 -0.7525
   78MYC    H7713966   5.614   5.426   7.454  0.6135  1.1297  0.1707
   78MYC    C4213967   5.785   5.455   7.334 -0.5052 -0.2483  0.0866
   78MYC    H7813968   5.874   5.395   7.309  0.5590  1.1209  0.4425
   78MYC    H7913969   5.730   5.461   7.240  0.2094 -2.0122 -0.4878
   78MYC    C4313970   5.823   5.599   7.379 -0.5051 -0.0757 -0.1581
   78MYC    H8013971   5.896   5.642   7.310 -1.1606  0.2219 -0.6752
   78MYC    H8113972   5.859   5.602   7.482 -2.7785  0.0706  0.6767
   78MYC    H8213973   5.734   5.662   7.371  0.5576  1.4468 -0.4962
   79MYC   HH1513974   2.305   5.170   7.566  0.7815 -0.0051  1.8140
   79MYC    C8013975   2.362   5.262   7.548 -0.0668  0.1497 -0.3630
   79MYC   H10013976   2.368   5.265   7.438 -1.6555 -1.3182 -0.5179
   79MYC   H10113977   2.296   5.346   7.572  1.0629  0.7924  0.6148
   79MYC    C7913978   2.494   5.279   7.635  0.2596 -0.1633  1.1342
   79MYC   H10213979   2.573   5.210   7.604  0.7176  0.8340 -0.0242
   79MYC   H10313980   2.472   5.264   7.741  0.4534  1.8413  1.5044
   79MYC    C7813981   2.554   5.426   7.617  0.2962 -0.8945  0.1032
   79MYC   HH1413982   2.476   5.504   7.623  0.9393 -0.0870 -1.4350
   79MYC   H10413983   2.593   5.435   7.515  2.3263 -0.5996  0.8758
   79MYC    C7713984   2.665   5.464   7.723  0.7250  0.5047 -0.1471
   79MYC   H10613985   2.701   5.567   7.711  0.2882  0.5361 -1.3366
   79MYC   H10713986   2.755   5.405   7.704  0.8830  0.7737 -0.2464
   79MYC    C7613987   2.643   5.425   7.871  0.6353  0.5918  0.6588
   79MYC   H10813988   2.636   5.315   7.879  0.7787  0.5044 -0.3187
   79MYC   H10913989   2.543   5.457   7.901  0.3781 -0.7956  1.3871
   79MYC    C7513990   2.728   5.495   7.980  0.6937  0.2669 -0.6740
   79MYC   H11013991   2.836   5.485   7.963  1.0991 -0.0066  1.7443
   79MYC   H11113992   2.692   5.444   8.070 -1.5840 -1.4351 -2.4516
   79MYC    C7413993   2.698   5.644   7.990  0.2199 -0.6407  0.6575
   79MYC   H11213994   2.591   5.665   7.983  0.2064 -0.0207  2.1757
   79MYC   H11313995   2.742   5.695   7.904  0.2361  0.0239  1.0549
   79MYC    C7313996   2.762   5.704   8.119  0.0049  0.0283 -0.4685
   79MYC   HH1313997   2.784   5.810   8.103 -0.3307 -0.1504 -2.3368
   79MYC   H11413998   2.863   5.662   8.125 -0.0683 -0.1057 -0.1873
   79MYC    C7213999   2.707   5.677   8.254  0.7486 -0.2415 -0.7177
   79MYC   H11514000   2.788   5.697   8.324  0.8408 -1.4382 -0.4730
   79MYC   H11614001   2.679   5.573   8.272 -1.1708  0.3858  0.2248
   79MYC    C7114002   2.575   5.755   8.283 -0.1699 -0.0764 -0.4280
   79MYC   H11714003   2.497   5.712   8.219 -1.3817  0.7654  0.4466
   79MYC   H11814004   2.593   5.862   8.266  1.0295 -0.3482 -1.0158
   79MYC    C7014005   2.540   5.739   8.428 -0.1330 -0.7093 -0.1732
   79MYC   H11914006   2.621   5.780   8.490 -1.9506  2.0984  0.5519
   79MYC   H12014007   2.524   5.633   8.447 -1.7569 -0.5636 -0.5544
   79MYC    C6914008   2.420   5.819   8.486  0.2198 -0.9418 -0.4173
   79MYC   H12114009   2.334   5.798   8.421  0.0067 -2.8588  0.4239
   79MYC   H12214010   2.433   5.927   8.480 -1.3149 -0.7513 -0.5384
   79MYC    C6814011   2.391   5.788   8.634  0.5511  0.3497  0.0122
   79MYC   HH1214012   2.482   5.807   8.692  1.4167  1.3008 -1.5794
   79MYC   H12314013   2.367   5.682   8.641 -1.5051  0.7480 -0.1524
   79MYC    C6714014   2.270   5.857   8.691 -0.0074  0.4010 -0.2493
   79MYC   H12414015   2.176   5.838   8.637 -0.2077 -0.4411  0.3743
   79MYC   H12514016   2.280   5.966   8.681 -0.3794  0.2879 -2.2369
   79MYC    C6614017   2.248   5.832   8.846  0.1823  0.5732  0.1322
   79MYC   H12614018   2.337   5.863   8.903 -0.0572  1.0818  0.2384
   79MYC   H12714019   2.221   5.727   8.856 -3.4614  1.5054  1.4957
   79MYC    C6514020   2.131   5.898   8.916 -0.1074  0.3690 -0.3649
   79MYC   H12814021   2.037   5.875   8.865 -1.4633  0.6905  1.8150
   79MYC   H12914022   2.152   6.006   8.917  0.7855  0.2191 -1.3097
   79MYC    C6414023   2.122   5.844   9.060 -1.4039  0.7360  0.0584
   79MYC   H13014024   2.222   5.857   9.105 -1.6771 -1.1534  1.3251
   79MYC   H13114025   2.099   5.737   9.057  1.6118 -0.0105 -1.7770
   79MYC    C6314026   2.033   5.929   9.152 -0.6756 -0.0836  0.4410
   79MYC   HH1114027   1.948   5.954   9.088  0.4320 -1.0333 -1.4875
   79MYC   H13214028   2.092   6.018   9.176 -1.1842  0.1426  0.8769
   79MYC    C6214029   1.976   5.856   9.274  0.3154  0.1218  0.2069
   79MYC   H13314030   2.063   5.809   9.322  1.4788 -0.5446 -2.3948
   79MYC   H13414031   1.902   5.783   9.241  2.0786 -0.8498 -1.8297
   79MYC    C6114032   1.900   5.955   9.371 -1.3115  0.1977  0.1816
   79MYC   H13514033   1.834   6.030   9.326 -2.8297  0.5730  2.8112
   79MYC   H13614034   1.967   6.026   9.420 -0.3611  2.2993 -3.7595
   79MYC    C6014035   1.833   5.886   9.483  0.2736  0.2664  0.4641
   79MYC   H13714036   1.889   5.797   9.511 -1.6649 -0.9967  0.5842
   79MYC    C5814037   1.745   5.947   9.593 -0.0286  0.5091  0.4854
   79MYC   H13814038   1.741   6.055   9.589  0.5633  0.6248 -5.1900
   79MYC    C5914039   1.686   5.881   9.476  0.1602  0.0677  0.4156
   79MYC   H13914040   1.628   5.792   9.500  1.1717 -0.1088  2.3575
   79MYC   H14014041   1.639   5.950   9.406  2.6282  0.8815 -0.5596
   79MYC    C5714042   1.738   5.892   9.732 -0.4058  0.3870  0.4130
   79MYC   HH1014043   1.814   5.945   9.791 -0.7574  1.7178 -0.3135
   79MYC   H14114044   1.772   5.789   9.752 -0.8959  0.2995  0.8182
   79MYC    C5614045   1.601   5.915   9.791 -0.0049  0.4898  0.3987
   79MYC   H14214046   1.527   5.848   9.746  1.2128  0.2808 -1.4099
   79MYC   H14314047   1.574   6.020   9.780 -0.6499  0.1834 -1.1785
   79MYC    C5514048   1.599   5.902   9.947 -0.0675 -0.4972 -0.5160
   79MYC   H14414049   1.683   5.960   9.984 -1.5149  1.0649  0.4490
   79MYC   H14514050   1.613   5.795   9.970 -1.9642 -0.5913  0.3884
   79MYC    C5414051   1.477   5.960  10.025 -0.4730 -0.3982 -0.0321
   79MYC   H14614052   1.474   6.069  10.016 -0.8337 -0.5249 -2.0364
   79MYC   H14714053   1.491   5.938  10.131 -1.1852 -0.3261  0.0789
   79MYC    C5314054   1.344   5.919   9.957  0.6325  0.3908  0.3469
   79MYC   H14814055   1.340   5.956   9.853 -0.0360  0.2989  0.3354
   79MYC   H14914056   1.267   5.977  10.010 -2.0024 -1.0117 -1.7123
   79MYC    C5214057   1.322   5.765   9.953 -0.6528  0.1636 -0.3564
   79MYC    H9914058   1.341   5.721  10.052 -0.6181  0.4392 -0.2409
   79MYC   H15014059   1.393   5.722   9.881  1.4804  0.3981  1.4904
   79MYC    C5114060   1.173   5.729   9.928  0.2299  0.2657  0.4034
   79MYC    H9714061   1.163   5.620   9.927  0.4990  0.2355 -0.4869
   79MYC    H9814062   1.160   5.762   9.824 -1.3265  3.2539  1.4030
   79MYC    C5014063   1.059   5.795  10.017 -0.2410 -0.7550 -0.3062
   79MYC    H9514064   0.965   5.750   9.983  0.0624 -0.6530 -1.2969
   79MYC    H9614065   1.051   5.903   9.999 -2.0852 -0.9602 -0.8711
   79MYC    C4914066   1.074   5.770  10.171  0.6589 -0.3113 -0.3330
   79MYC    H9314067   1.161   5.822  10.215  1.4192 -1.9830  0.2142
   79MYC    H9414068   1.076   5.664  10.196 -0.8302 -0.0346  1.0683
   79MYC    C4814069   0.956   5.836  10.249  0.1232 -0.7809 -0.2863
   79MYC    H9114070   0.869   5.776  10.219 -0.3629  0.0274 -0.5106
   79MYC    H9214071   0.925   5.931  10.206  2.2415 -1.0681 -2.6671
   79MYC    C4714072   0.965   5.831  10.398 -0.0613 -0.6670  0.2097
   79MYC    H8914073   0.991   5.727  10.422 -0.5277 -0.6999  0.5747
   79MYC    H9014074   0.863   5.846  10.435  0.2447  1.9291  0.1893
   79MYC    C4614075   1.044   5.938  10.461 -0.3905  0.4162 -0.0772
   79MYC    H8714076   1.009   6.039  10.434  2.0649  1.8442  1.5680
   79MYC    H8814077   1.146   5.934  10.418 -0.9354  0.4336 -1.4398
   79MYC    C4514078   1.044   5.923  10.614  0.7281  0.1800  0.4540
   79MYC    H8514079   1.088   5.823  10.623  1.0005  0.1766 -0.7206
   79MYC    H8614080   0.943   5.918  10.655  0.0666 -1.9642 -1.1950
   79MYC    C4414081   1.149   6.013  10.677 -0.1505  0.5265 -0.6627
   79MYC    H8314082   1.248   6.012  10.631  0.0554  3.5025 -0.4887
   79MYC    H8414083   1.160   5.985  10.783  2.4303 -2.3908 -1.5535
   79MYC    C1814084   1.094   6.154  10.686  0.1675 -0.4973 -0.2873
   79MYC    H3114085   1.105   6.201  10.589 -0.4780  0.6665  0.1822
   79MYC    C1714086   0.988   6.189  10.780  0.2372 -0.0965  0.0413
   79MYC    H3014087   0.953   6.106  10.841 -0.2125  0.7106  0.9032
   79MYC    C1914088   1.131   6.233  10.806 -0.5414 -0.4216 -0.9239
   79MYC    H3214089   1.186   6.184  10.886  0.0135  0.0917 -0.9911
   79MYC    H3314090   1.153   6.338  10.792 -1.7693 -0.0302 -0.0992
   79MYC    C1614091   0.878   6.291  10.739  0.0997 -0.0741  0.3934
   79MYC    H2814092   0.917   6.364  10.667 -2.5041  0.6149 -0.4255
   79MYC    H2914093   0.850   6.349  10.829  0.1516 -1.5447  1.3861
   79MYC    C1514094   0.752   6.231  10.681  0.0096  0.2103  0.1777
   79MYC    H2614095   0.675   6.308  10.671  0.2148  0.3543 -0.3529
   79MYC    H2714096   0.718   6.158  10.755 -1.8808 -0.8154 -1.6017
   79MYC    C1414097   0.761   6.169  10.539 -0.7681  0.0288 -0.2989
   79MYC    H2414098   0.808   6.073  10.561 -1.2665 -0.2154 -0.2880
   79MYC    H2514099   0.823   6.229  10.472 -3.3610  2.8750 -0.4076
   79MYC    C1314100   0.630   6.119  10.473 -0.6574 -0.4198 -0.1085
   79MYC    H2214101   0.555   6.198  10.469  0.3772  0.5920 -0.2323
   79MYC    H2314102   0.583   6.038  10.530 -1.4027 -2.1839 -3.0109
   79MYC    C1214103   0.661   6.056  10.331  0.5037  0.2620  0.4042
   79MYC    H2014104   0.724   5.967  10.342 -1.2213 -0.9619  0.8489
   79MYC    H2114105   0.717   6.130  10.272 -0.0170 -0.1509 -0.6361
   79MYC    C1114106   0.534   6.012  10.263  0.0650  0.3053 -0.3369
   79MYC    H1814107   0.483   6.107  10.242 -0.6166  0.0433  0.0824
   79MYC    H1914108   0.465   5.970  10.337  0.9402  0.7406  0.7471
   79MYC    C1014109   0.549   5.922  10.126  0.2131  0.3224 -0.7591
   79MYC    H1614110   0.460   5.864  10.101  0.8144 -1.6808  1.3563
   79MYC    H1714111   0.617   5.843  10.158  2.6851  2.2016 -1.0759
   79MYC     C914112   0.614   6.003  10.005  0.0481 -0.0659  0.3604
   79MYC    H1414113   0.715   6.044  10.017 -0.3960  1.2705 -0.3238
   79MYC    H1514114   0.557   6.095   9.993  1.4238  0.9537  1.2888
   79MYC     C814115   0.608   5.919   9.879 -0.2782  0.0323 -0.3240
   79MYC    H1214116   0.502   5.899   9.857  0.4179 -1.8818 -2.2826
   79MYC    H1314117   0.650   5.818   9.879  1.4309  0.7060 -1.5978
   79MYC     C714118   0.672   5.991   9.751 -0.8898  0.0668 -0.5451
   79MYC    H1014119   0.621   6.086   9.731  1.6243  1.6032 -0.1335
   79MYC    H1114120   0.640   5.934   9.663  1.0951 -1.1311 -0.5439
   79MYC     C614121   0.824   6.025   9.753  0.0326  0.6127 -0.0784
   79MYC     H814122   0.883   5.933   9.758 -1.2706 -0.1910  1.2275
   79MYC     H914123   0.843   6.096   9.835 -1.8193 -1.8309  2.6749
   79MYC     C514124   0.862   6.082   9.625 -0.6922  0.5175 -0.5608
   79MYC     H614125   0.819   6.182   9.615  0.3060  1.0489  0.2686
   79MYC     H714126   0.812   6.016   9.553 -1.3563 -0.7738  0.9894
   79MYC     C414127   1.015   6.091   9.605  0.4064  0.0142  0.0553
   79MYC     H414128   1.064   5.993   9.603  1.1547  0.3661  0.7210
   79MYC     H514129   1.059   6.147   9.688  1.3063  2.0286 -1.6612
   79MYC     C214130   1.044   6.168   9.472 -0.3415  0.0866  1.2380
   79MYC     H214131   0.991   6.127   9.385  1.5069  0.3135 -0.0631
   79MYC     O314132   1.011   6.309   9.483  0.2460 -0.2045  0.1878
   79MYC     H314133   0.914   6.302   9.487  0.3676 -2.1884  0.8683
   79MYC     C114134   1.195   6.154   9.441 -0.5556 -0.4421  0.0274
   79MYC     H114135   1.228   6.055   9.475 -1.0230 -0.3187  0.8635
   79MYC    C8114136   1.280   6.249   9.531 -0.0716  0.1427 -0.0523
   79MYC    O8214137   1.287   6.367   9.508 -0.1756  0.6181  0.4678
   79MYC    O8314138   1.345   6.195   9.632 -0.3577  0.3633 -0.2475
   79MYC   H10514139   1.375   6.272   9.682 -0.0486 -0.7022  1.2867
   79MYC    C2014140   1.228   6.162   9.284 -0.6322  0.2043  0.4347
   79MYC    H3414141   1.145   6.100   9.247 -0.4704 -0.5539  1.3229
   79MYC    H3514142   1.209   6.258   9.234 -0.4691  0.7413  1.3724
   79MYC    C2114143   1.371   6.109   9.240 -0.0637  0.0728  0.2387
   79MYC    H3614144   1.444   6.181   9.280  0.4045 -0.8257  1.0438
   79MYC    H3714145   1.378   6.012   9.291  1.6735  0.7371  1.3634
   79MYC    C2214146   1.382   6.076   9.091 -0.3611  0.5440  0.0470
   79MYC    H3814147   1.459   5.999   9.075 -1.2546 -0.6172  1.0602
   79MYC    H3914148   1.294   6.025   9.051 -0.0985  2.1482 -2.7860
   79MYC    C2314149   1.422   6.185   8.998  0.1971  0.7407 -0.4456
   79MYC    H4014150   1.418   6.137   8.900 -2.8645 -0.5147  0.1796
   79MYC    H4114151   1.339   6.256   8.984 -1.1934 -1.0254 -1.5664
   79MYC    C2414152   1.566   6.246   9.034  0.3595  0.2522  0.1194
   79MYC    H4214153   1.548   6.327   9.106 -0.3998  0.0307  0.1852
   79MYC    H4314154   1.635   6.171   9.075  1.1296  0.3233 -0.9974
   79MYC    C2514155   1.649   6.288   8.918  0.1189 -0.4979  0.8252
   79MYC    H4414156   1.672   6.201   8.856  0.9827 -0.3990  0.9911
   79MYC    H4514157   1.597   6.356   8.849  1.1035  0.1534  0.7013
   79MYC    C2614158   1.786   6.351   8.956 -0.3198  0.7246 -0.3187
   79MYC    H4614159   1.827   6.415   8.877  0.1128  1.4455  0.4714
   79MYC    H4714160   1.771   6.418   9.041  1.5119  1.3829 -0.4574
   79MYC    C2714161   1.884   6.240   8.998  0.2967  0.4600  0.2646
   79MYC    H4814162   1.854   6.182   9.086  0.1434  2.3292  1.4934
   79MYC    H4914163   1.889   6.165   8.917  1.7134  0.1114  0.6365
   79MYC    C2814164   2.034   6.285   9.013  0.5966 -0.7699 -0.1564
   79MYC    H5014165   2.040   6.360   9.094 -1.6148 -1.1005  0.3575
   79MYC    H5114166   2.094   6.203   9.054  0.2340 -0.0890  1.8353
   79MYC    C2914167   2.109   6.330   8.883  0.4891  0.0028  0.0435
   79MYC    H5214168   2.090   6.247   8.813 -0.6394 -0.8563  1.3223
   79MYC    H5314169   2.070   6.419   8.833  1.0668 -0.2801 -0.9332
   79MYC    C3014170   2.262   6.349   8.898  0.4144  0.0505 -0.7138
   79MYC    H5414171   2.281   6.419   8.980  2.4446 -1.5302  0.2439
   79MYC    H5514172   2.314   6.261   8.939  0.1724  0.9765  1.7328
   79MYC    C3114173   2.327   6.402   8.770 -0.0142  0.2741 -0.1395
   79MYC    H5614174   2.289   6.500   8.738 -1.8877 -0.6562 -0.9418
   79MYC    H5714175   2.429   6.438   8.785 -0.3802  2.2466 -1.8419
   79MYC    C3214176   2.338   6.296   8.654 -0.1228 -0.6369 -0.6523
   79MYC    H5814177   2.383   6.205   8.694  2.4325 -0.9900 -3.8682
   79MYC    H5914178   2.240   6.270   8.611 -0.0800 -0.1801 -1.0459
   79MYC    C3314179   2.437   6.346   8.538  0.0166  0.2316  0.1515
   79MYC    H6014180   2.405   6.445   8.502 -0.3540  0.2048  0.4140
   79MYC    H6114181   2.532   6.355   8.591 -0.1401 -1.3024  0.7283
   79MYC    C3414182   2.439   6.244   8.423  0.1725 -0.0070  0.3041
   79MYC    H6214183   2.505   6.158   8.443  0.4475 -0.4468 -2.1399
   79MYC    H6314184   2.338   6.212   8.398  0.1740  0.7513 -0.7192
   79MYC    C3514185   2.506   6.305   8.288  0.2589 -0.3451  0.0721
   79MYC    H6414186   2.451   6.393   8.252  0.0199  0.1486  1.5548
   79MYC    H6514187   2.605   6.340   8.321 -0.4866  0.9347  1.0762
   79MYC    C3614188   2.513   6.215   8.168  0.0580  0.6153 -0.7226
   79MYC    H6614189   2.561   6.125   8.208  4.4515  1.5770 -3.0776
   79MYC    H6714190   2.413   6.188   8.133  0.7193  0.1221 -2.3385
   79MYC    C3714191   2.591   6.251   8.045  0.1469 -0.3979  0.6231
   79MYC    H6814192   2.687   6.300   8.068 -0.1180  0.3537  0.1738
   79MYC    H6914193   2.612   6.159   7.990 -1.0153  0.6179 -1.6653
   79MYC    C3814194   2.510   6.347   7.948  0.1298  1.1249 -0.7687
   79MYC    H7014195   2.411   6.307   7.920  0.5828 -1.4403  0.9476
   79MYC    H7114196   2.477   6.428   8.013  0.9412  1.3242 -0.5931
   79MYC    C3914197   2.581   6.421   7.832 -0.2669 -0.3489  0.2812
   79MYC    H7214198   2.515   6.501   7.795 -0.7760  0.0251  1.9083
   79MYC    H7314199   2.667   6.473   7.876 -0.0978  0.7536 -1.2803
   79MYC    C4014200   2.629   6.323   7.714 -0.6373 -0.1101  0.3683
   79MYC    H7414201   2.682   6.236   7.754  1.2832  0.7232 -0.2342
   79MYC    H7514202   2.537   6.281   7.672 -0.2119 -0.5418 -0.1598
   79MYC    C4114203   2.723   6.390   7.612  0.3808 -0.6050 -0.3321
   79MYC    H7614204   2.817   6.422   7.659  0.0360  0.0034 -0.0376
   79MYC    H7714205   2.736   6.327   7.524 -3.6757  0.6068 -2.0493
   79MYC    C4214206   2.661   6.514   7.542 -0.4389  0.2892  0.8443
   79MYC    H7814207   2.571   6.488   7.485  1.3835 -2.4204 -1.0408
   79MYC    H7914208   2.639   6.592   7.616 -1.0789 -0.7961  1.8379
   79MYC    C4314209   2.758   6.574   7.434 -0.0621  0.5864 -0.3186
   79MYC    H8014210   2.792   6.503   7.357  2.9120 -0.1914  1.5170
   79MYC    H8114211   2.845   6.614   7.486  1.4316 -0.0873 -2.1486
   79MYC    H8214212   2.714   6.651   7.370  1.1513  0.1043 -1.8016
   80MYC   HH1514213   3.591   5.441   7.405 -0.8220 -0.1179  0.0559
   80MYC    C8014214   3.576   5.448   7.514 -0.7724  0.8240  0.0181
   80MYC   H10014215   3.514   5.532   7.546 -2.3850 -0.0010 -0.7717
   80MYC   H10114216   3.528   5.351   7.536 -0.6171  0.7219 -0.0880
   80MYC    C7914217   3.703   5.451   7.589 -0.7099  0.3314  0.0167
   80MYC   H10214218   3.776   5.518   7.542 -0.1479  0.0742  0.5171
   80MYC   H10314219   3.751   5.353   7.593 -2.3269 -0.4779  0.6434
   80MYC    C7814220   3.685   5.482   7.741 -0.5774 -0.6453 -0.3003
   80MYC   HH1414221   3.669   5.590   7.756  2.1853 -0.3943  1.7767
   80MYC   H10414222   3.778   5.464   7.797 -1.5986 -0.5927  1.4868
   80MYC    C7714223   3.568   5.409   7.815 -1.1115  0.1769  0.4988
   80MYC   H10614224   3.595   5.304   7.803  1.9037  0.4540  3.3793
   80MYC   H10714225   3.471   5.438   7.772 -0.5331 -0.3279 -1.2089
   80MYC    C7614226   3.569   5.439   7.964 -0.5599 -0.2276  0.3916
   80MYC   H10814227   3.520   5.537   7.972  0.9831  0.7936 -1.7081
   80MYC   H10914228   3.672   5.450   7.999 -0.6969  1.3415  0.3584
   80MYC    C7514229   3.499   5.329   8.043  0.7125 -0.3256 -0.2428
   80MYC   H11014230   3.537   5.229   8.020 -1.8197 -0.9428 -2.1727
   80MYC   H11114231   3.395   5.335   8.006  1.2499  1.4964 -1.6493
   80MYC    C7414232   3.496   5.365   8.186 -0.5406 -0.5585 -0.0392
   80MYC   H11214233   3.449   5.462   8.205  1.4888  0.2042  1.4137
   80MYC   H11314234   3.601   5.381   8.213 -1.4164  0.6025  2.9695
   80MYC    C7314235   3.422   5.262   8.273  0.6408 -0.3826  0.6421
   80MYC   HH1314236   3.458   5.159   8.280  0.6600 -0.4424 -0.2642
   80MYC   H11414237   3.324   5.241   8.229  0.6992  1.8451 -0.6924
   80MYC    C7214238   3.403   5.309   8.418 -0.0163  0.2362 -0.0836
   80MYC   H11514239   3.376   5.415   8.422 -0.8160  0.0356 -0.1356
   80MYC   H11614240   3.493   5.304   8.480 -1.9790  1.6971  3.0829
   80MYC    C7114241   3.290   5.229   8.478 -0.3673  0.5580 -0.1069
   80MYC   H11714242   3.319   5.124   8.474 -1.9159  0.0589  0.6299
   80MYC   H11814243   3.195   5.238   8.424  0.0925 -1.2706 -1.2772
   80MYC    C7014244   3.274   5.249   8.631  0.3497  0.2686  0.1033
   80MYC   H11914245   3.281   5.356   8.655  0.8979  0.4412 -0.7714
   80MYC   H12014246   3.362   5.209   8.682  0.3057 -1.1537 -0.8821
   80MYC    C6914247   3.155   5.173   8.692 -0.1724 -0.0160  0.0114
   80MYC   H12114248   3.193   5.072   8.707  2.8956  1.0457  0.2038
   80MYC   H12214249   3.069   5.163   8.626  0.1185 -3.0511 -0.0469
   80MYC    C6814250   3.115   5.217   8.830 -0.0343  0.2201  0.5784
   80MYC   HH1214251   3.093   5.324   8.832 -0.3838  0.1421  1.1560
   80MYC   H12314252   3.197   5.198   8.901 -0.0998 -0.2529  0.5304
   80MYC    C6714253   2.989   5.138   8.882 -0.4347  0.0684  0.3890
   80MYC   H12414254   2.999   5.031   8.861 -1.5485  0.4045 -2.4267
   80MYC   H12514255   2.906   5.171   8.818  0.4308 -0.6246 -1.1608
   80MYC    C6614256   2.937   5.170   9.023 -0.0847  0.4342  0.0775
   80MYC   H12614257   2.942   5.279   9.026  1.4780  0.3516  1.6711
   80MYC   H12714258   3.008   5.121   9.091  2.5918 -2.3169 -4.2015
   80MYC    C6514259   2.792   5.125   9.058 -0.7535  0.4123  0.4799
   80MYC   H12814260   2.794   5.015   9.058  1.6322  0.4116  0.2599
   80MYC   H12914261   2.734   5.165   8.973 -0.1061  3.0050  1.1584
   80MYC    C6414262   2.752   5.177   9.194  0.2243 -0.2010 -0.0846
   80MYC   H13014263   2.764   5.286   9.196  0.2469 -0.1881  2.5331
   80MYC   H13114264   2.821   5.142   9.272 -1.0200 -2.3442  0.1317
   80MYC    C6314265   2.608   5.128   9.238 -0.2436 -0.0718  0.4676
   80MYC   HH1114266   2.592   5.020   9.237 -2.3951  0.1724  1.7957
   80MYC   H13214267   2.536   5.175   9.170 -0.3213 -0.0800  0.5437
   80MYC    C6214268   2.560   5.171   9.382 -0.1202  0.6366  0.4852
   80MYC   H13314269   2.578   5.278   9.397 -0.6366  0.6478  1.0611
   80MYC   H13414270   2.619   5.111   9.452 -0.7358 -0.8844 -0.2508
   80MYC    C6114271   2.411   5.148   9.413 -0.0872  0.2954 -0.1264
   80MYC   H13514272   2.375   5.053   9.373  2.8581  0.2914 -3.2293
   80MYC   H13614273   2.353   5.222   9.355 -2.9085 -2.1383 -0.6337
   80MYC    C6014274   2.392   5.178   9.563  0.7636  0.1776 -0.7911
   80MYC   H13714275   2.421   5.276   9.599 -0.3726 -0.1404  1.1392
   80MYC    C5814276   2.286   5.100   9.643  0.4300 -1.2928  0.4368
   80MYC   H13814277   2.232   5.021   9.591 -2.9434  1.6868 -1.0112
   80MYC    C5914278   2.433   5.072   9.662 -0.2099 -0.5143  0.1213
   80MYC   H13914279   2.498   5.121   9.734  1.1037  2.6829 -2.9649
   80MYC   H14014280   2.461   4.971   9.632  1.4045  0.3768 -1.5299
   80MYC    C5714281   2.206   5.161   9.751  0.2996  0.5742 -0.3260
   80MYC   HH1014282   2.109   5.196   9.713  0.1722  0.0491 -0.4985
   80MYC   H14114283   2.260   5.250   9.783 -0.9917  1.3154 -0.1390
   80MYC    C5614284   2.190   5.056   9.862 -0.7099  0.9665  0.4325
   80MYC   H14214285   2.287   5.005   9.871 -1.7655 -1.3093 -0.4804
   80MYC   H14314286   2.115   4.985   9.827  3.6218 -3.3345 -1.2967
   80MYC    C5514287   2.153   5.119   9.991 -0.0598  0.1840  0.0195
   80MYC   H14414288   2.104   5.047  10.058  1.6383 -0.1701  0.9345
   80MYC   H14514289   2.094   5.210   9.980 -1.4377 -0.2290  2.9777
   80MYC    C5414290   2.270   5.175  10.067  0.9530 -0.2379  0.1759
   80MYC   H14614291   2.322   5.253  10.010  2.6954 -1.7013 -0.3347
   80MYC   H14714292   2.349   5.101  10.084  1.1774 -0.0529 -0.0506
   80MYC    C5314293   2.229   5.223  10.211  0.2669 -0.1106  0.1713
   80MYC   H14814294   2.176   5.155  10.279 -0.6599  0.1944 -0.2264
   80MYC   H14914295   2.155   5.302  10.194  1.0932  0.2634 -2.0228
   80MYC    C5214296   2.351   5.291  10.278  0.1437  0.1330 -0.4241
   80MYC    H9914297   2.414   5.345  10.207 -1.0035 -1.5240 -2.8376
   80MYC   H15014298   2.403   5.208  10.327  1.3554  0.1975 -1.5685
   80MYC    C5114299   2.320   5.394  10.385  0.1117 -0.1098  0.0980
   80MYC    H9714300   2.261   5.459  10.321  0.0409 -1.4988 -1.3206
   80MYC    H9814301   2.409   5.449  10.417  1.2354 -0.7526 -1.7508
   80MYC    C5014302   2.244   5.348  10.511 -0.0228  0.3506  0.2490
   80MYC    H9514303   2.156   5.284  10.495  1.3330 -1.1782 -1.5780
   80MYC    H9614304   2.220   5.445  10.556  3.9968  1.5480  0.1645
   80MYC    C4914305   2.342   5.263  10.595  0.2519  0.0495 -0.5018
   80MYC    H9314306   2.442   5.307  10.603  0.3479 -0.1489 -0.6114
   80MYC    H9414307   2.354   5.165  10.547 -2.4267  1.1512 -3.8492
   80MYC    C4814308   2.299   5.250  10.740  0.2411 -0.0017 -0.2027
   80MYC    H9114309   2.202   5.200  10.737  0.4487 -0.4451  0.3267
   80MYC    H9214310   2.283   5.356  10.761 -0.4934 -0.4626  1.7770
   80MYC    C4714311   2.398   5.179  10.838  0.5112 -0.6364  0.3990
   80MYC    H8914312   2.497   5.216  10.808  0.1117 -1.2825 -1.9672
   80MYC    H9014313   2.406   5.071  10.818 -1.9989 -0.5733 -1.4350
   80MYC    C4614314   2.368   5.193  10.992  0.1326  0.2015  0.0025
   80MYC    H8714315   2.406   5.108  11.049  0.2495 -0.6131 -1.2441
   80MYC    H8814316   2.261   5.174  11.005 -0.0159  1.7641  1.4030
   80MYC    C4514317   2.408   5.326  11.063 -0.0745  0.7729  0.6189
   80MYC    H8514318   2.353   5.317  11.158 -0.8771  0.2296  0.1138
   80MYC    H8614319   2.378   5.417  11.008 -1.9810 -0.0145  0.2855
   80MYC    C4414320   2.558   5.334  11.097 -0.1878 -0.0740 -0.1503
   80MYC    H8314321   2.617   5.302  11.011 -1.7312 -1.6830 -0.6663
   80MYC    H8414322   2.581   5.262  11.176 -1.8504  2.6208  3.0507
   80MYC    C1814323   2.604   5.468  11.154 -0.3026  0.0491  0.3796
   80MYC    H3114324   2.573   5.546  11.084 -0.7217 -1.6377 -1.3778
   80MYC    C1714325   2.579   5.502  11.306  0.5599  0.6696  0.9364
   80MYC    H3014326   2.529   5.422  11.360 -0.8043  2.5151  2.5779
   80MYC    C1914327   2.718   5.477  11.249  0.0795  0.0882 -0.4629
   80MYC    H3214328   2.763   5.386  11.287  0.4649  0.2256 -0.5887
   80MYC    H3314329   2.782   5.564  11.238 -0.8723  1.0238  0.9709
   80MYC    C1614330   2.530   5.646  11.354 -0.3341  0.0182  0.6677
   80MYC    H2814331   2.560   5.711  11.271 -1.8097 -2.7137 -2.2689
   80MYC    H2914332   2.583   5.692  11.438  1.1822  2.7720 -1.6030
   80MYC    C1514333   2.378   5.641  11.373 -0.3491  0.4156 -0.0721
   80MYC    H2614334   2.356   5.733  11.428 -2.1347 -0.6106  1.0043
   80MYC    H2714335   2.342   5.561  11.438 -0.8250 -0.3943 -1.2988
   80MYC    C1414336   2.289   5.642  11.251 -0.3175  0.0954 -0.1903
   80MYC    H2414337   2.195   5.608  11.296  0.7464 -2.4721  0.2447
   80MYC    H2514338   2.322   5.569  11.177  2.1340 -1.1318  1.9548
   80MYC    C1314339   2.264   5.781  11.187 -0.6708 -0.2257 -0.8048
   80MYC    H2214340   2.346   5.808  11.119 -2.1149 -0.1649 -2.6137
   80MYC    H2314341   2.263   5.857  11.266 -0.8963  1.7694 -2.6371
   80MYC    C1214342   2.153   5.790  11.091 -0.3200 -0.5608 -0.0551
   80MYC    H2014343   2.129   5.896  11.084 -0.2238 -0.4240  1.3778
   80MYC    H2114344   2.062   5.750  11.137 -2.4519  4.0847  0.3343
   80MYC    C1114345   2.177   5.719  10.951 -0.1047 -0.4483 -0.2537
   80MYC    H1814346   2.197   5.612  10.965  0.2713 -0.6654 -2.2363
   80MYC    H1914347   2.271   5.759  10.913 -0.4383  0.7266  0.1303
   80MYC    C1014348   2.060   5.740  10.844 -0.3858  0.1872  0.6487
   80MYC    H1614349   2.017   5.840  10.854 -0.5595 -0.0003  1.8835
   80MYC    H1714350   1.989   5.662  10.870 -0.2275  0.1375  0.9332
   80MYC     C914351   2.109   5.714  10.700 -0.2211 -0.5507  0.5016
   80MYC    H1414352   2.026   5.735  10.632  1.1577 -0.6312 -1.2641
   80MYC    H1514353   2.130   5.607  10.696  0.6979 -0.3700  0.1387
   80MYC     C814354   2.224   5.811  10.657 -0.8319 -0.4772 -0.0005
   80MYC    H1214355   2.312   5.753  10.687  0.8495  2.6478  1.4699
   80MYC    H1314356   2.221   5.899  10.722 -0.6644  0.6264 -1.4497
   80MYC     C714357   2.231   5.861  10.507 -0.0088  0.7082  0.1177
   80MYC    H1014358   2.296   5.949  10.505 -0.6485  1.2324  1.3590
   80MYC    H1114359   2.133   5.896  10.473 -1.0129 -2.0496 -0.1189
   80MYC     C614360   2.272   5.742  10.414 -0.3618  0.5611 -0.2602
   80MYC     H814361   2.183   5.680  10.398 -1.3424  1.1958  2.2262
   80MYC     H914362   2.344   5.679  10.467 -1.1676  0.4506  0.7312
   80MYC     C514363   2.328   5.798  10.285 -0.2155  0.4667 -0.4748
   80MYC     H614364   2.363   5.711  10.227  0.4822  0.2572  0.2529
   80MYC     H714365   2.417   5.857  10.308  0.5351 -1.0150  0.5944
   80MYC     C414366   2.224   5.890  10.206 -0.3698 -0.3171  0.4868
   80MYC     H414367   2.219   5.996  10.234 -1.0613 -0.0472 -0.5908
   80MYC     H514368   2.123   5.865  10.240 -0.7767 -2.7527 -2.1403
   80MYC     C214369   2.221   5.879  10.051  0.5961  0.2412  0.3648
   80MYC     H214370   2.327   5.885  10.022  0.9893 -0.5644  1.5769
   80MYC     O314371   2.171   5.748  10.015 -0.0120 -0.0012  0.2724
   80MYC     H314372   2.114   5.718  10.088 -0.0355 -2.0072 -0.5146
   80MYC     C114373   2.150   5.991   9.972  0.2189 -0.0871  0.1616
   80MYC     H114374   2.196   6.089   9.989 -3.6448  2.1676 -1.2292
   80MYC    C8114375   2.009   6.013  10.033  0.2780  0.5111 -0.0372
   80MYC    O8214376   1.926   5.928  10.030  0.0529 -0.4495  0.8222
   80MYC    O8314377   1.980   6.129  10.085  0.0960 -0.3540 -0.4217
   80MYC   H10514378   1.884   6.140  10.077  0.3486  4.0110  0.0161
   80MYC    C2014379   2.124   5.984   9.821  0.3750 -0.2023  0.4277
   80MYC    H3414380   2.056   5.903   9.795  1.9557 -1.4220 -0.0918
   80MYC    H3514381   2.077   6.080   9.795 -0.6050 -0.2298  1.9694
   80MYC    C2114382   2.251   5.982   9.732 -0.1836 -0.2063  0.0498
   80MYC    H3614383   2.282   6.086   9.714  0.5073 -0.4052  0.0506
   80MYC    H3714384   2.334   5.938   9.788 -0.8859 -2.7323 -0.7648
   80MYC    C2214385   2.238   5.895   9.605 -0.1332 -0.8045  0.0096
   80MYC    H3814386   2.226   5.796   9.651  0.7358 -1.4651 -1.1447
   80MYC    H3914387   2.152   5.919   9.541 -0.1144 -2.8197 -0.8319
   80MYC    C2314388   2.367   5.879   9.526 -0.4347  0.4108  0.3471
   80MYC    H4014389   2.389   5.952   9.447  1.7289  0.3436  0.8168
   80MYC    H4114390   2.448   5.882   9.599 -0.9106  1.1387  0.8593
   80MYC    C2414391   2.366   5.734   9.456 -0.7904  0.2424  0.5533
   80MYC    H4214392   2.338   5.651   9.521 -0.2287  0.3604  0.9529
   80MYC    H4314393   2.278   5.727   9.391 -1.0145 -1.0168  0.9751
   80MYC    C2514394   2.499   5.695   9.379 -0.2132 -0.0980  0.5244
   80MYC    H4414395   2.543   5.784   9.331 -2.0374 -0.2880 -1.6388
   80MYC    H4514396   2.572   5.648   9.446  0.2013 -1.9033 -1.1020
   80MYC    C2614397   2.470   5.577   9.277 -0.4330 -0.6494  0.1156
   80MYC    H4614398   2.451   5.486   9.335  0.6874 -0.7732  0.3137
   80MYC    H4714399   2.388   5.610   9.213  1.1705  2.9130 -0.3678
   80MYC    C2714400   2.580   5.561   9.172 -0.3175 -0.7771 -0.6515
   80MYC    H4814401   2.631   5.657   9.157 -0.2641 -1.1572 -3.6408
   80MYC    H4914402   2.659   5.508   9.226 -0.1399  0.8786  0.8116
   80MYC    C2814403   2.543   5.484   9.037  0.5109  0.0298 -0.0498
   80MYC    H5014404   2.506   5.382   9.058  0.1018  0.1827 -0.0072
   80MYC    H5114405   2.452   5.528   8.995  0.7080 -0.3623 -0.9217
   80MYC    C2914406   2.653   5.495   8.928 -0.5903  0.6494 -0.2287
   80MYC    H5214407   2.673   5.603   8.918  0.0819  0.3654 -2.4163
   80MYC    H5314408   2.749   5.451   8.958  1.1239  3.0366 -1.8873
   80MYC    C3014409   2.616   5.427   8.790 -0.2743  0.1938  0.2173
   80MYC    H5414410   2.614   5.317   8.797 -0.6773  0.2308  0.8155
   80MYC    H5514411   2.517   5.462   8.759 -1.6489 -0.2741  3.5882
   80MYC    C3114412   2.725   5.455   8.684  0.0426 -0.1677 -0.4735
   80MYC    H5614413   2.729   5.562   8.665  0.4476  0.0461  0.7196
   80MYC    H5714414   2.822   5.440   8.731 -1.3911  0.6582  3.0779
   80MYC    C3214415   2.700   5.378   8.557 -0.5904  0.7173  0.0969
   80MYC    H5814416   2.699   5.275   8.596 -0.1907  0.8336  0.4167
   80MYC    H5914417   2.607   5.413   8.511 -1.1356  0.0955  0.6987
   80MYC    C3314418   2.825   5.387   8.469  0.5353  0.7400 -0.8927
   80MYC    H6014419   2.827   5.489   8.429  2.8934  0.4284 -1.7023
   80MYC    H6114420   2.915   5.373   8.530 -0.8595 -3.8063  0.4701
   80MYC    C3414421   2.817   5.296   8.346  0.0917 -0.3105  0.7745
   80MYC    H6214422   2.828   5.193   8.384  0.2398 -0.4353  0.3938
   80MYC    H6314423   2.714   5.305   8.308 -0.9760 -3.3660  2.5492
   80MYC    C3514424   2.923   5.312   8.239 -0.3331 -0.2167  0.4353
   80MYC    H6414425   2.904   5.411   8.195 -2.7562 -0.8046  0.0246
   80MYC    H6514426   3.023   5.321   8.283 -0.6472  1.3994  0.8758
   80MYC    C3614427   2.917   5.208   8.124  0.1961  0.0074  0.3978
   80MYC    H6614428   2.932   5.111   8.172  1.0073 -0.5088 -0.8463
   80MYC    H6714429   2.817   5.207   8.079  0.0116  1.7069  0.6827
   80MYC    C3714430   3.030   5.239   8.015 -0.3629  0.0379 -0.4624
   80MYC    H6814431   2.994   5.323   7.954 -0.3106 -0.6630 -1.4892
   80MYC    H6914432   3.119   5.274   8.067 -1.5773  4.3335 -0.8596
   80MYC    C3814433   3.072   5.121   7.922 -0.0038 -0.6829  1.0058
   80MYC    H7014434   3.096   5.033   7.983 -3.8789  0.3079  4.4411
   80MYC    H7114435   2.986   5.092   7.860 -0.0242  1.4223 -0.0407
   80MYC    C3914436   3.184   5.159   7.821 -0.1465  0.1353 -0.3688
   80MYC    H7214437   3.162   5.261   7.785 -2.4911 -0.6696 -1.3878
   80MYC    H7314438   3.273   5.159   7.885  0.1825 -1.1938 -0.8031
   80MYC    C4014439   3.202   5.070   7.690  0.1305 -0.2217  0.8619
   80MYC    H7414440   3.236   4.969   7.714 -0.2417 -1.5046 -3.2191
   80MYC    H7514441   3.104   5.056   7.642 -0.2710  0.7233  1.3757
   80MYC    C4114442   3.291   5.126   7.573 -0.1107  0.0629 -0.6166
   80MYC    H7614443   3.385   5.140   7.627 -1.0891  0.0837  1.1545
   80MYC    H7714444   3.300   5.051   7.493  0.7978 -0.3255 -0.1763
   80MYC    C4214445   3.240   5.261   7.513  0.3504  0.1026  0.8126
   80MYC    H7814446   3.253   5.338   7.590  2.4891  0.5033  0.1286
   80MYC    H7914447   3.302   5.287   7.427  0.0715  0.4698  0.7202
   80MYC    C4314448   3.096   5.255   7.455 -0.4468  0.4608 -0.1224
   80MYC    H8014449   3.080   5.168   7.390  0.8882  1.0134 -1.2234
   80MYC    H8114450   3.073   5.341   7.392  1.9527 -0.0943 -1.8844
   80MYC    H8214451   3.023   5.249   7.537  0.0151 -2.0878  0.1999
   81MYC   HH1514452   4.230   5.360   7.310  1.3907 -0.2262  1.5498
   81MYC    C8014453   4.142   5.313   7.356  0.3499  0.1876  0.0570
   81MYC   H10014454   4.082   5.380   7.419 -0.7477 -0.8462  0.1275
   81MYC   H10114455   4.079   5.272   7.276  1.5024  1.3221 -1.5170
   81MYC    C7914456   4.209   5.208   7.443 -0.6103  0.1044  0.4439
   81MYC   H10214457   4.303   5.180   7.395 -1.0580  0.2353 -0.5183
   81MYC   H10314458   4.142   5.122   7.449 -2.2270  1.2569 -0.4975
   81MYC    C7814459   4.216   5.237   7.599  0.2914 -0.7537 -0.3450
   81MYC   HH1414460   4.241   5.342   7.620 -0.5162 -0.6143 -0.0489
   81MYC   H10414461   4.300   5.176   7.635 -0.2432 -1.7598 -0.7770
   81MYC    C7714462   4.088   5.203   7.682  0.2491 -0.8711  0.2013
   81MYC   H10614463   4.064   5.097   7.666 -2.7166 -0.5718  1.8964
   81MYC   H10714464   4.008   5.273   7.654  0.4499 -0.9771 -0.6657
   81MYC    C7614465   4.105   5.236   7.828 -1.3022 -0.5973 -0.2153
   81MYC   H10814466   4.108   5.345   7.836  1.7730 -0.6630  0.9058
   81MYC   H10914467   4.198   5.192   7.865 -0.8469  0.5594  0.0341
   81MYC    C7514468   3.985   5.189   7.918 -0.3849  0.3042  0.5741
   81MYC   H11014469   3.952   5.089   7.888 -1.6210  0.1622  2.2487
   81MYC   H11114470   3.907   5.262   7.898 -0.4659  0.5392  1.6700
   81MYC    C7414471   4.009   5.197   8.072 -0.3086 -0.4010  0.7049
   81MYC   H11214472   4.038   5.299   8.097  0.5622 -0.5267  0.2392
   81MYC   H11314473   4.098   5.140   8.101  1.1960  1.5842  0.1761
   81MYC    C7314474   3.886   5.157   8.156 -0.7490  0.7175  0.0176
   81MYC   HH1314475   3.855   5.053   8.141  1.8475 -0.4796  2.1554
   81MYC   H11414476   3.802   5.225   8.139  1.0771  2.5142 -2.8723
   81MYC    C7214477   3.924   5.175   8.303 -0.5500 -0.1391 -0.2300
   81MYC   H11514478   3.958   5.278   8.318  0.2987 -0.3806 -0.4281
   81MYC   H11614479   4.011   5.110   8.317 -0.0554  0.5029 -0.2877
   81MYC    C7114480   3.802   5.129   8.382  0.6304 -0.1654 -0.1047
   81MYC   H11714481   3.769   5.026   8.364 -2.7618  0.3450  2.2432
   81MYC   H11814482   3.721   5.191   8.345  1.4531 -0.0585 -1.8115
   81MYC    C7014483   3.825   5.149   8.536 -0.0760  0.0954  0.2890
   81MYC   H11914484   3.833   5.257   8.549  0.1011  0.3492 -1.6436
   81MYC   H12014485   3.916   5.100   8.574  0.4265  0.8019  0.0146
   81MYC    C6914486   3.711   5.087   8.623 -0.6420  0.1531 -0.3106
   81MYC   H12114487   3.727   4.979   8.634 -0.4029  0.1699 -0.5029
   81MYC   H12214488   3.613   5.105   8.578 -1.0362 -1.4977 -0.2088
   81MYC    C6814489   3.706   5.146   8.767  0.2607 -0.8224  1.1779
   81MYC   HH1214490   3.687   5.253   8.756 -2.4414 -1.3523  0.0058
   81MYC   H12314491   3.811   5.135   8.798  1.0721  2.8623  0.2156
   81MYC    C6714492   3.607   5.090   8.865  1.2529 -0.2394  0.0084
   81MYC   H12414493   3.603   4.981   8.854 -1.0869 -0.0127 -2.5564
   81MYC   H12514494   3.508   5.120   8.829  1.3424  1.7808  1.3236
   81MYC    C6614495   3.616   5.140   9.013  0.4371 -0.0222  0.3003
   81MYC   H12614496   3.600   5.248   9.022 -0.3834 -0.1732  0.8087
   81MYC   H12714497   3.722   5.117   9.031  0.1592 -1.1026  0.6549
   81MYC    C6514498   3.520   5.061   9.106 -0.1101 -0.1845 -0.4314
   81MYC   H12814499   3.535   4.953   9.119 -0.2789 -0.2925 -1.1161
   81MYC   H12914500   3.425   5.076   9.053  0.6864  1.4896 -1.4676
   81MYC    C6414501   3.487   5.126   9.246 -0.2308  0.3100  0.0166
   81MYC   H13014502   3.444   5.227   9.245 -1.2802 -0.1058 -1.5755
   81MYC   H13114503   3.586   5.130   9.292  1.0286 -1.0304 -2.3947
   81MYC    C6314504   3.380   5.041   9.317 -0.4172  0.4302  0.2390
   81MYC   HH1114505   3.425   4.944   9.341  0.4194  0.8342  0.3583
   81MYC   H13214506   3.295   5.033   9.249  1.1863  0.2035 -1.8447
   81MYC    C6214507   3.328   5.099   9.447 -0.2188 -0.2113  0.7465
   81MYC   H13314508   3.333   5.207   9.434 -2.0498 -0.1942 -0.1011
   81MYC   H13414509   3.398   5.070   9.527 -0.6144 -2.4111  0.3544
   81MYC    C6114510   3.191   5.049   9.480  0.7269 -0.5199  0.4431
   81MYC   H13514511   3.187   4.940   9.477 -0.5570 -0.4700 -1.1088
   81MYC   H13614512   3.122   5.079   9.400  1.8018 -1.0025 -0.6994
   81MYC    C6014513   3.135   5.088   9.611  0.0202 -0.2179  0.0829
   81MYC   H13714514   3.125   5.195   9.623 -0.6749 -0.3583  0.8185
   81MYC    C5814515   3.045   4.995   9.689  0.8334  0.5196  0.2142
   81MYC   H13814516   3.024   4.897   9.646 -0.5201  0.2500  1.4216
   81MYC    C5914517   3.184   5.016   9.739 -0.4950 -0.1168  0.3265
   81MYC   H13914518   3.192   5.071   9.832 -1.0817  1.9110 -0.7775
   81MYC   H14014519   3.255   4.935   9.723 -1.9681 -1.1703 -1.3497
   81MYC    C5714520   2.926   5.063   9.753 -0.8157 -0.5458  0.6048
   81MYC   HH1014521   2.842   5.098   9.693 -0.9107  0.6042  1.3768
   81MYC   H14114522   2.976   5.147   9.802  1.8127  0.1000 -2.7792
   81MYC    C5614523   2.869   4.963   9.862  0.1954 -0.8459  0.4167
   81MYC   H14214524   2.951   4.902   9.902  0.0604 -1.0081  0.4456
   81MYC   H14314525   2.805   4.889   9.813  0.4302 -2.1879  2.0562
   81MYC    C5514526   2.783   5.033   9.969  0.6514  0.6983 -0.0750
   81MYC   H14414527   2.728   4.949  10.014  2.3354  0.0045  0.8156
   81MYC   H14514528   2.709   5.093   9.915 -0.8556 -0.1239  1.0009
   81MYC    C5414529   2.863   5.120  10.072 -0.7437  0.5506 -0.2582
   81MYC   H14614530   2.919   5.196  10.016  0.4887  0.0365  0.2345
   81MYC   H14714531   2.919   5.045  10.130 -0.0272 -0.4628 -2.1587
   81MYC    C5314532   2.775   5.200  10.174  0.4906 -0.7026  0.8037
   81MYC   H14814533   2.720   5.129  10.238 -0.7067 -2.2098 -1.7356
   81MYC   H14914534   2.701   5.268  10.131  2.7566  2.0757  1.0530
   81MYC    C5214535   2.861   5.281  10.275  0.0168  0.2164 -0.3702
   81MYC    H9914536   2.905   5.372  10.232 -0.8606  0.0394 -1.7028
   81MYC   H15014537   2.941   5.210  10.299  0.2934  0.6270 -0.0604
   81MYC    C5114538   2.787   5.316  10.403 -0.8507 -0.6874 -0.6190
   81MYC    H9714539   2.746   5.224  10.447  0.7496 -0.9401  0.4229
   81MYC    H9814540   2.709   5.388  10.376  2.0563  2.7641 -0.5333
   81MYC    C5014541   2.868   5.384  10.520 -0.0367 -0.5792 -0.1649
   81MYC    H9514542   2.915   5.476  10.485  0.1890 -0.3239  0.7891
   81MYC    H9614543   2.946   5.314  10.551 -0.8054 -0.1911  2.9055
   81MYC    C4914544   2.786   5.437  10.636 -0.2266 -0.1081  0.5779
   81MYC    H9314545   2.698   5.378  10.661 -1.0560  1.0377  0.4758
   81MYC    H9414546   2.748   5.534  10.602 -2.0479 -1.1107 -0.4003
   81MYC    C4814547   2.860   5.462  10.769  0.0948  0.7718 -0.1026
   81MYC    H9114548   2.795   5.505  10.847  0.5688 -0.7128  1.1617
   81MYC    H9214549   2.939   5.534  10.744  1.1313 -0.3338 -0.1159
   81MYC    C4714550   2.924   5.332  10.829 -0.2353 -0.2829  0.7946
   81MYC    H8914551   3.004   5.303  10.760 -1.3084  1.9816 -1.5310
   81MYC    H9014552   2.856   5.247  10.821 -1.1682  0.4649  0.7062
   81MYC    C4614553   2.979   5.343  10.969 -0.2854  0.2875 -0.5432
   81MYC    H8714554   3.028   5.249  10.998 -2.0586 -0.7777 -0.8479
   81MYC    H8814555   2.894   5.361  11.036 -0.2050  2.9218 -1.0568
   81MYC    C4514556   3.074   5.460  10.994  0.3024 -0.3227  0.5025
   81MYC    H8514557   3.028   5.560  10.998  0.5263 -0.1804 -0.2414
   81MYC    H8614558   3.150   5.469  10.916 -0.0900  5.4675  0.3040
   81MYC    C4414559   3.156   5.445  11.126 -0.1075  0.7625  0.3350
   81MYC    H8314560   3.227   5.364  11.111 -0.6381  0.2887  0.3305
   81MYC    H8414561   3.088   5.410  11.205  0.5362  0.2756  0.6811
   81MYC    C1814562   3.228   5.566  11.174  0.3892  0.0021  0.1461
   81MYC    H3114563   3.233   5.643  11.097  0.9419  0.0789  0.2576
   81MYC    C1714564   3.207   5.625  11.310  0.2531  0.7425 -0.4233
   81MYC    H3014565   3.140   5.583  11.384 -0.5998  0.7746 -1.1608
   81MYC    C1914566   3.340   5.564  11.278 -0.1430 -0.3371 -0.0146
   81MYC    H3214567   3.373   5.476  11.333  1.4941  1.1642  1.5576
   81MYC    H3314568   3.422   5.633  11.259 -0.6865 -0.2995 -2.5925
   81MYC    C1614569   3.189   5.774  11.341  0.5443  0.5481  0.4400
   81MYC    H2814570   3.251   5.829  11.269  0.8336  1.1721  1.1564
   81MYC    H2914571   3.239   5.783  11.437  0.0521  1.5654  0.6175
   81MYC    C1514572   3.042   5.828  11.345  0.0425 -0.5950 -0.2777
   81MYC    H2614573   3.067   5.935  11.355  0.1653 -0.1240 -4.2956
   81MYC    H2714574   2.994   5.785  11.434  0.0806 -1.8134 -0.8374
   81MYC    C1414575   2.948   5.814  11.226 -0.4575 -0.2405  0.5615
   81MYC    H2414576   2.842   5.843  11.234 -0.1481  1.2407 -0.3054
   81MYC    H2514577   2.952   5.708  11.199  0.5993 -0.7884  2.6325
   81MYC    C1314578   3.008   5.909  11.112 -0.1243 -0.4955  0.1803
   81MYC    H2214579   3.117   5.905  11.110 -0.1184 -0.4603  0.4161
   81MYC    H2314580   3.002   6.015  11.139  2.1934  0.0901 -1.3627
   81MYC    C1214581   2.950   5.891  10.978 -0.1786  0.7086 -0.3378
   81MYC    H2014582   2.950   5.785  10.949  0.1005  0.6851 -0.2489
   81MYC    H2114583   3.019   5.936  10.907 -0.5792  0.4314 -0.9148
   81MYC    C1114584   2.806   5.944  10.961 -0.0941 -0.6584  0.2310
   81MYC    H1814585   2.807   6.052  10.979  1.2044 -0.7678  0.8659
   81MYC    H1914586   2.740   5.908  11.041 -0.2044  1.1504  1.0077
   81MYC    C1014587   2.735   5.915  10.829  0.5033 -0.1287  0.1538
   81MYC    H1614588   2.635   5.960  10.824  1.4017  1.8234 -2.5178
   81MYC    H1714589   2.717   5.809  10.807 -1.6844  0.1601  0.3725
   81MYC     C914590   2.798   5.958  10.693 -0.1535 -0.0859  1.4803
   81MYC    H1414591   2.898   5.913  10.694 -0.6474 -1.2305  1.4414
   81MYC    H1514592   2.811   6.066  10.686 -1.6023 -0.0069 -0.9969
   81MYC     C814593   2.717   5.909  10.570  0.5138  0.3598 -0.3706
   81MYC    H1214594   2.610   5.933  10.573  0.2874 -0.6781  1.2049
   81MYC    H1314595   2.733   5.800  10.569 -0.9664  0.1075  0.5161
   81MYC     C714596   2.781   5.972  10.444  0.7000  0.0611 -0.0540
   81MYC    H1014597   2.885   5.937  10.444  0.2242 -1.4412  0.0288
   81MYC    H1114598   2.771   6.081  10.443 -0.8778 -0.0300  1.0056
   81MYC     C614599   2.733   5.915  10.303 -0.0181  0.0441 -0.1072
   81MYC     H814600   2.775   5.977  10.223 -0.6178  0.5549 -0.0322
   81MYC     H914601   2.626   5.935  10.292 -0.3512 -0.3903  1.9688
   81MYC     C514602   2.759   5.765  10.275  0.1721 -0.0922  0.0105
   81MYC     H614603   2.693   5.708  10.341 -0.5958  0.3221 -0.3795
   81MYC     H714604   2.866   5.745  10.283  0.4653  0.1941 -2.3615
   81MYC     C414605   2.720   5.735  10.125  0.2922  0.3590  0.2777
   81MYC     H414606   2.797   5.780  10.060  0.7762  1.7587  1.7668
   81MYC     H514607   2.625   5.781  10.097 -0.4290 -0.1279  1.8444
   81MYC     C214608   2.725   5.599  10.080  0.7113  0.4787  0.2712
   81MYC     H214609   2.826   5.561  10.095  0.6350  0.1131 -0.1320
   81MYC     O314610   2.634   5.530  10.161 -0.5324 -0.2874 -0.3857
   81MYC     H314611   2.555   5.517  10.106 -1.3919  2.9994 -0.1162
   81MYC     C114612   2.691   5.582   9.928  0.2402 -0.2811  0.4101
   81MYC     H114613   2.762   5.649   9.879  1.6712 -0.3538  2.2622
   81MYC    C8114614   2.555   5.640   9.899  0.3218  0.1232 -0.1465
   81MYC    O8214615   2.548   5.739   9.832  0.9515 -0.0942 -0.1034
   81MYC    O8314616   2.447   5.560   9.920  0.1983 -0.0670  0.1842
   81MYC   H10514617   2.378   5.623   9.947  0.4216  0.1817  0.1776
   81MYC    C2014618   2.715   5.428   9.877 -0.3259 -0.0022  0.1870
   81MYC    H3414619   2.813   5.400   9.916 -1.0856 -0.4227  1.8998
   81MYC    H3514620   2.644   5.355   9.920  2.3954 -2.5399  0.6956
   81MYC    C2114621   2.720   5.399   9.730 -0.2470 -0.1211  0.1983
   81MYC    H3614622   2.714   5.292   9.704 -2.2498  0.4337 -1.9930
   81MYC    H3714623   2.639   5.450   9.676 -1.4802 -2.2305 -0.0704
   81MYC    C2214624   2.860   5.444   9.673  0.2658 -0.2587  0.3687
   81MYC    H3814625   2.889   5.544   9.708  1.3052 -0.8384  1.2084
   81MYC    H3914626   2.928   5.369   9.714 -0.3287 -1.7522 -1.2384
   81MYC    C2314627   2.873   5.432   9.517 -1.2903  0.2611  0.0021
   81MYC    H4014628   2.839   5.330   9.498  2.2244 -1.2866  1.0694
   81MYC    H4114629   2.802   5.494   9.462  0.7492  1.5054 -1.3712
   81MYC    C2414630   3.022   5.451   9.470  0.1352  0.6082  0.0535
   81MYC    H4214631   3.060   5.554   9.473  0.5087  0.4606  0.7073
   81MYC    H4314632   3.085   5.398   9.543 -0.7092 -0.0691  0.3167
   81MYC    C2514633   3.049   5.414   9.322 -0.1955  0.0465 -0.0554
   81MYC    H4414634   3.041   5.305   9.329  1.2124 -0.1165 -0.5323
   81MYC    H4514635   2.977   5.459   9.254  1.9038  1.0720 -1.7140
   81MYC    C2614636   3.189   5.444   9.280 -0.2327 -0.3135 -0.0214
   81MYC    H4614637   3.195   5.553   9.289 -2.1286 -0.0167 -1.7640
   81MYC    H4714638   3.273   5.409   9.341 -0.6791  1.7993  1.9410
   81MYC    C2714639   3.226   5.409   9.139  0.0409 -0.1991 -0.3385
   81MYC    H4814640   3.230   5.300   9.128  0.9277 -0.0587 -1.6765
   81MYC    H4914641   3.144   5.444   9.076 -0.4994  0.3945  0.6729
   81MYC    C2814642   3.351   5.492   9.103 -0.2247  0.5290  0.4595
   81MYC    H5014643   3.333   5.599   9.111  2.2240  1.2740 -2.0329
   81MYC    H5114644   3.438   5.473   9.167  1.1493 -0.7295 -1.6561
   81MYC    C2914645   3.384   5.466   8.951  0.1291  0.4763  0.2623
   81MYC    H5214646   3.411   5.361   8.941 -2.2160 -0.1532 -0.1550
   81MYC    H5314647   3.295   5.490   8.891  0.8286  2.6450 -0.0096
   81MYC    C3014648   3.498   5.550   8.895 -0.1017  0.2283  0.2211
   81MYC    H5414649   3.476   5.656   8.911  0.4700  0.2177  1.1594
   81MYC    H5514650   3.593   5.530   8.946  0.3269  1.0702 -0.2292
   81MYC    C3114651   3.520   5.537   8.744  0.1041  0.1291 -0.2408
   81MYC    H5614652   3.532   5.429   8.729 -0.0941  0.1879 -0.8909
   81MYC    H5714653   3.429   5.571   8.693  0.2852  1.2827  0.1746
   81MYC    C3214654   3.638   5.628   8.695  0.0414  0.0013  0.1902
   81MYC    H5814655   3.611   5.733   8.712  0.8039  0.1363  0.6200
   81MYC    H5914656   3.734   5.604   8.741  0.8116 -0.3158 -1.5123
   81MYC    C3314657   3.656   5.610   8.537 -0.6541  0.0234  0.2572
   81MYC    H6014658   3.645   5.504   8.513 -0.0273 -0.3989  1.6522
   81MYC    H6114659   3.569   5.655   8.489 -1.8291 -4.1668 -2.0057
   81MYC    C3414660   3.785   5.668   8.463  1.2006 -0.6829  0.1972
   81MYC    H6214661   3.793   5.775   8.487 -0.9903  0.2712 -2.7538
   81MYC    H6314662   3.874   5.631   8.516  1.4820  0.0700  0.2625
   81MYC    C3514663   3.791   5.634   8.315 -0.6731 -0.3095 -0.5255
   81MYC    H6414664   3.806   5.525   8.310  1.2464 -0.3547  2.9788
   81MYC    H6514665   3.692   5.653   8.273 -0.5592 -0.1082 -0.7029
   81MYC    C3614666   3.895   5.706   8.229  0.0551 -0.6704 -0.5377
   81MYC    H6614667   3.875   5.814   8.232  2.3633 -0.1893 -0.1437
   81MYC    H6714668   3.994   5.697   8.277 -0.3383 -0.7750  0.2613
   81MYC    C3714669   3.903   5.657   8.082  0.4558  0.0535 -0.3047
   81MYC    H6814670   3.920   5.549   8.079 -3.2001 -0.8455  2.9277
   81MYC    H6914671   3.802   5.669   8.042  0.9476  2.3463 -1.0488
   81MYC    C3814672   4.010   5.718   7.993 -0.3206  0.5185  0.1172
   81MYC    H7014673   3.997   5.824   7.972 -0.3360 -0.1225 -3.9360
   81MYC    H7114674   4.103   5.696   8.048 -0.2427 -0.7045 -0.4660
   81MYC    C3914675   4.033   5.638   7.863 -0.1830  0.6565  0.2158
   81MYC    H7214676   4.133   5.594   7.873  0.3102  1.9830  1.5881
   81MYC    H7314677   3.963   5.553   7.860  2.7321 -1.9294 -0.9019
   81MYC    C4014678   4.013   5.724   7.736  0.1447  0.2255  0.5045
   81MYC    H7414679   3.907   5.754   7.742  0.3066  0.7271  0.9724
   81MYC    H7514680   4.067   5.818   7.749 -0.3227  0.3863  1.4026
   81MYC    C4114681   4.054   5.661   7.602 -0.3860 -0.3307 -0.5003
   81MYC    H7614682   4.160   5.638   7.618 -0.5160 -0.7832 -0.2709
   81MYC    H7714683   3.999   5.568   7.583 -0.6321 -0.1930 -0.4681
   81MYC    C4214684   4.027   5.755   7.477  0.0733  0.1427 -0.3094
   81MYC    H7814685   3.917   5.758   7.479  0.0382 -1.0186  1.6700
   81MYC    H7914686   4.069   5.856   7.485 -0.3595  0.2469  0.9888
   81MYC    C4314687   4.062   5.699   7.341 -0.3825  0.1463  0.4788
   81MYC    H8014688   4.032   5.766   7.260 -0.3824  2.6127  2.3983
   81MYC    H8114689   4.020   5.600   7.324  2.3365 -0.8360 -1.1171
   81MYC    H8214690   4.171   5.687   7.340 -0.3837  0.2008 -0.1857
   82MYC   HH1514691   4.842   4.824   6.762  0.6594 -0.5069  0.4013
   82MYC    C8014692   4.816   4.781   6.860  0.1236  0.5835  0.7566
   82MYC   H10014693   4.761   4.687   6.852  0.1023  0.1532  4.3404
   82MYC   H10114694   4.911   4.771   6.913 -0.0546 -0.4082  0.9061
   82MYC    C7914695   4.727   4.883   6.942 -0.8919 -0.0833  0.3641
   82MYC   H10214696   4.635   4.908   6.887 -0.4116  2.2792  0.5384
   82MYC   H10314697   4.774   4.982   6.948  1.9735 -1.3579  1.0450
   82MYC    C7814698   4.683   4.833   7.078 -0.0514  0.4805 -0.1573
   82MYC   HH1414699   4.761   4.770   7.123  0.0237  1.3922  1.0515
   82MYC   H10414700   4.608   4.755   7.062  0.8504 -0.7833  1.4924
   82MYC    C7714701   4.648   4.953   7.182  0.2555  0.0769  0.0833
   82MYC   H10614702   4.583   5.020   7.125  0.7887  0.4521 -0.0869
   82MYC   H10714703   4.742   5.007   7.197  0.5273  0.2470 -1.9797
   82MYC    C7614704   4.571   4.915   7.310  0.1493  0.5516 -0.3889
   82MYC   H10814705   4.597   4.811   7.335  1.2206  1.3413  2.0176
   82MYC   H10914706   4.465   4.923   7.284  0.6539  0.3890 -2.7774
   82MYC    C7514707   4.597   4.991   7.437 -0.3880 -0.5074 -0.8964
   82MYC   H11014708   4.585   5.099   7.418 -0.9336 -0.3789  0.0643
   82MYC   H11114709   4.703   4.984   7.465 -0.4578  2.2039  0.4547
   82MYC    C7414710   4.502   4.950   7.558 -0.2168 -0.1459  0.2572
   82MYC   H11214711   4.501   4.841   7.556  0.9587 -0.1750  0.2681
   82MYC   H11314712   4.405   4.990   7.527  0.6880  1.4205 -0.7228
   82MYC    C7314713   4.541   5.007   7.697  0.1378  0.1108 -0.7576
   82MYC   HH1314714   4.546   5.117   7.688 -2.5246  0.1824 -3.0331
   82MYC   H11414715   4.641   4.973   7.725  0.5364  1.4542 -0.4517
   82MYC    C7214716   4.441   4.964   7.805 -0.1146  0.6241  0.6384
   82MYC   H11514717   4.424   4.856   7.796 -2.4318  1.0195 -0.4579
   82MYC   H11614718   4.347   5.014   7.780 -1.8104 -0.7924  3.6247
   82MYC    C7114719   4.483   5.014   7.944  0.8048  0.3222  0.5169
   82MYC   H11714720   4.501   5.122   7.942 -1.6953  0.8434 -2.4930
   82MYC   H11814721   4.581   4.968   7.963  0.6564  0.6678  2.3275
   82MYC    C7014722   4.375   4.972   8.047 -0.9338  0.0163  0.3256
   82MYC   H11914723   4.363   4.865   8.023  0.9621  0.2076 -1.8865
   82MYC   H12014724   4.278   5.013   8.020 -0.8009 -0.1809 -0.4761
   82MYC    C6914725   4.432   5.010   8.189 -0.1750  0.8306  0.5101
   82MYC   H12114726   4.455   5.117   8.189 -0.1065  0.8536  2.3107
   82MYC   H12214727   4.527   4.960   8.211 -0.9366 -0.7500  0.3500
   82MYC    C6814728   4.332   4.976   8.300  0.6409  0.0704  0.6020
   82MYC   HH1214729   4.330   4.867   8.301  1.6249  0.0105 -0.8001
   82MYC   H12314730   4.228   5.010   8.289  0.3133 -0.2658  2.3655
   82MYC    C6714731   4.378   5.017   8.438 -0.3313 -0.3489 -0.2088
   82MYC   H12414732   4.398   5.124   8.449 -1.6184 -0.2276  1.3761
   82MYC   H12514733   4.469   4.967   8.472 -0.8691 -1.1227  0.1349
   82MYC    C6614734   4.278   4.988   8.551  0.3391  0.9031 -0.4409
   82MYC   H12614735   4.295   4.883   8.575 -0.5133  0.5291 -1.3841
   82MYC   H12714736   4.171   4.999   8.527 -0.2941  3.4627  2.8080
   82MYC    C6514737   4.301   5.061   8.680 -0.9554  0.2403 -0.2668
   82MYC   H12814738   4.267   5.166   8.682 -0.0878  0.5268 -0.1356
   82MYC   H12914739   4.409   5.070   8.698 -0.9591  3.7053 -1.1638
   82MYC    C6414740   4.232   4.998   8.796 -0.2062 -0.3361  0.1154
   82MYC   H13014741   4.250   4.890   8.807 -0.7641 -0.5928 -1.2454
   82MYC   H13114742   4.126   5.009   8.772 -0.4948 -0.7359  1.1775
   82MYC    C6314743   4.257   5.072   8.929 -0.1668  0.2996  0.5803
   82MYC   HH1114744   4.210   5.170   8.912  1.0326  0.8698  0.4035
   82MYC   H13214745   4.360   5.101   8.955 -0.4679  1.7924  0.2252
   82MYC    C6214746   4.186   5.006   9.050  0.2399 -0.1978 -0.4669
   82MYC   H13314747   4.239   4.910   9.061  0.1823 -0.4548 -2.1369
   82MYC   H13414748   4.082   4.985   9.024  0.5861 -1.0124 -1.2379
   82MYC    C6114749   4.206   5.094   9.180 -0.1514  0.2262  0.2869
   82MYC   H13514750   4.193   5.199   9.153 -0.4151 -0.0017 -0.4909
   82MYC   H13614751   4.307   5.074   9.219 -0.7191 -2.3394  0.6510
   82MYC    C6014752   4.122   5.049   9.299 -0.0465 -0.0316  0.4714
   82MYC   H13714753   4.154   4.957   9.349 -0.5110  0.6249  2.0228
   82MYC    C5814754   4.034   5.144   9.378 -0.1330  0.7161  0.7480
   82MYC   H13814755   4.017   5.247   9.346  0.5960  1.2599  2.0350
   82MYC    C5914756   3.973   5.054   9.282  0.0192 -0.2910 -0.1430
   82MYC   H13914757   3.915   4.969   9.316 -2.3599  0.8670 -1.0108
   82MYC   H14014758   3.935   5.095   9.188 -1.3557  3.1766  1.7137
   82MYC    C5714759   3.996   5.122   9.524 -0.4323  0.1047  0.1406
   82MYC   HH1014760   4.067   5.178   9.586 -0.0994 -1.4885  1.2832
   82MYC   H14114761   4.004   5.014   9.542 -0.7180 -0.2328 -1.5563
   82MYC    C5614762   3.857   5.191   9.547 -0.0763  0.2921  0.4655
   82MYC   H14214763   3.781   5.130   9.498 -1.5983  1.3453  1.4365
   82MYC   H14314764   3.842   5.290   9.504 -2.2373 -0.3557 -0.4019
   82MYC    C5514765   3.797   5.192   9.692 -0.3267 -0.7067  0.3168
   82MYC   H14414766   3.700   5.244   9.691  0.1715  0.3276 -2.3001
   82MYC   H14514767   3.865   5.259   9.745  0.1590 -0.5530 -0.4866
   82MYC    C5414768   3.788   5.052   9.762 -0.4484  0.4046 -0.3524
   82MYC   H14614769   3.891   5.016   9.762 -0.3986  0.5450 -0.3269
   82MYC   H14714770   3.728   4.985   9.699 -1.5299  0.9712  0.0378
   82MYC    C5314771   3.732   5.065   9.908  0.4637  0.0281 -0.1775
   82MYC   H14814772   3.757   5.164   9.946  1.1239  0.5726 -1.9160
   82MYC   H14914773   3.773   4.979   9.962 -0.2390  0.6374  1.3694
   82MYC    C5214774   3.583   5.051   9.907  0.4147 -0.4867 -0.2848
   82MYC    H9914775   3.559   4.950   9.870 -0.1108 -0.4768  0.0194
   82MYC   H15014776   3.523   5.127   9.854 -0.7062  0.7955  2.6424
   82MYC    C5114777   3.525   5.052  10.050  0.9342 -0.2476  0.3752
   82MYC    H9714778   3.416   5.057  10.045  0.9385 -0.5593 -0.2477
   82MYC    H9814779   3.570   5.141  10.095  3.9645 -0.6919 -1.4104
   82MYC    C5014780   3.557   4.927  10.135 -0.2671  0.0511  0.0620
   82MYC    H9514781   3.665   4.933  10.149 -0.2239 -0.6771  0.0967
   82MYC    H9614782   3.531   4.831  10.088 -1.0362  1.7023 -3.1958
   82MYC    C4914783   3.495   4.927  10.274 -0.6004  0.4210  0.2602
   82MYC    H9314784   3.516   4.824  10.305  0.2245  0.1521 -1.1135
   82MYC    H9414785   3.387   4.942  10.265 -0.4259  0.6199 -1.8144
   82MYC    C4814786   3.563   5.027  10.366  0.5130  0.1076  0.3865
   82MYC    H9114787   3.499   5.042  10.453  1.1331  1.7475  0.5846
   82MYC    H9214788   3.562   5.123  10.313  1.8790 -0.0750 -0.0134
   82MYC    C4714789   3.703   4.994  10.409  0.3337  0.1339  0.2431
   82MYC    H8914790   3.751   4.931  10.334 -1.9654 -0.7212 -0.6088
   82MYC    H9014791   3.693   4.917  10.487 -0.6649 -2.7931 -2.5454
   82MYC    C4614792   3.780   5.120  10.464 -1.0715  0.0961 -0.6848
   82MYC    H8714793   3.730   5.179  10.542 -0.4829 -0.1904 -0.0758
   82MYC    H8814794   3.809   5.187  10.382 -0.4788  0.5551 -0.1137
   82MYC    C4514795   3.910   5.068  10.532 -1.1742 -0.8369 -0.1949
   82MYC    H8514796   3.979   5.040  10.451 -1.8612  0.2834 -1.2064
   82MYC    H8614797   3.888   4.981  10.595  0.9668  0.1643  2.0845
   82MYC    C4414798   3.984   5.178  10.622  0.2277 -0.0343  0.2801
   82MYC    H8314799   3.990   5.277  10.574  0.5036  2.0125  4.1380
   82MYC    H8414800   4.089   5.154  10.641  0.0907 -0.7231  0.1900
   82MYC    C1814801   3.917   5.212  10.754  0.2293 -0.1750  0.0522
   82MYC    H3114802   3.830   5.274  10.739  0.5905  0.5085  0.6927
   82MYC    C1714803   3.910   5.118  10.871  0.2682 -0.6449 -0.0307
   82MYC    H3014804   3.951   5.019  10.850  1.1225 -0.4160  0.5223
   82MYC    C1914805   4.000   5.241  10.873  0.1607 -0.2016  0.5262
   82MYC    H3214806   4.104   5.213  10.883  0.1356 -0.3100  0.4770
   82MYC    H3314807   3.964   5.318  10.941 -0.6651  0.7826 -0.9778
   82MYC    C1614808   3.799   5.118  10.974 -0.2061 -0.4654 -0.2547
   82MYC    H2814809   3.776   5.224  10.988  1.1987 -0.0684 -0.7467
   82MYC    H2914810   3.836   5.091  11.074 -1.4184 -1.6491 -0.0870
   82MYC    C1514811   3.679   5.029  10.947  0.1775 -0.3044 -0.0408
   82MYC    H2614812   3.597   5.052  11.015 -0.0730  0.8346 -0.7086
   82MYC    H2714813   3.706   4.923  10.945 -2.0389 -0.9193 -1.1279
   82MYC    C1414814   3.619   5.053  10.802  0.2186  0.0489  0.1076
   82MYC    H2414815   3.691   5.035  10.722 -0.0536 -1.5447  0.1864
   82MYC    H2514816   3.582   5.156  10.799  1.5676  0.6655  2.3082
   82MYC    C1314817   3.501   4.956  10.775 -0.3018 -0.4229  0.3534
   82MYC    H2214818   3.520   4.854  10.810  0.0714 -0.0612  1.2541
   82MYC    H2314819   3.482   4.945  10.668  1.2010  0.2558 -0.0017
   82MYC    C1214820   3.370   5.010  10.845  0.3897  0.4907  0.6610
   82MYC    H2014821   3.367   5.118  10.863  2.5946  0.5259  1.0531
   82MYC    H2114822   3.369   4.964  10.944  2.6542 -1.9262 -0.3179
   82MYC    C1114823   3.231   4.961  10.788 -0.7628  0.3530 -0.2623
   82MYC    H1814824   3.142   4.988  10.847 -0.2490  0.3092  0.5532
   82MYC    H1914825   3.221   4.852  10.789 -1.3063  0.3753 -1.5551
   82MYC    C1014826   3.213   4.998  10.634  0.8426  0.3980 -1.0279
   82MYC    H1614827   3.110   4.975  10.606 -0.1758  0.9970  1.9335
   82MYC    H1714828   3.278   4.930  10.577 -0.4208 -1.1854 -0.6437
   82MYC     C914829   3.244   5.140  10.598  0.2926 -0.3304  0.4923
   82MYC    H1414830   3.352   5.153  10.614  0.0786  1.5960  0.6554
   82MYC    H1514831   3.197   5.209  10.669  0.7352 -0.9942  1.4475
   82MYC     C814832   3.203   5.188  10.458 -0.4253 -0.3276  0.2598
   82MYC    H1214833   3.094   5.179  10.449 -0.7770  2.7332  0.3306
   82MYC    H1314834   3.245   5.119  10.385 -0.6967  0.9673 -1.1821
   82MYC     C714835   3.260   5.331  10.426 -0.2745 -0.1076  0.4948
   82MYC    H1014836   3.369   5.316  10.415 -0.2621 -0.1754  0.7004
   82MYC    H1114837   3.234   5.390  10.514  0.5183 -2.8710  2.7247
   82MYC     C614838   3.200   5.417  10.311 -0.1002  0.7409 -0.6790
   82MYC     H814839   3.239   5.519  10.322 -0.3834  0.7026  0.8252
   82MYC     H914840   3.090   5.418  10.315 -0.1676 -1.6039 -0.2851
   82MYC     C514841   3.244   5.357  10.175  0.0336 -1.0270 -1.3246
   82MYC     H614842   3.176   5.274  10.151  1.2336 -1.8724 -1.9430
   82MYC     H714843   3.344   5.314  10.184  0.1609 -0.8227 -1.7532
   82MYC     C414844   3.241   5.470  10.066  0.3678 -0.3544 -0.0361
   82MYC     H414845   3.297   5.558  10.101  0.8198 -0.8149  0.4063
   82MYC     H514846   3.144   5.504  10.029  1.2116  0.7394 -1.3263
   82MYC     C214847   3.301   5.412   9.939 -0.1534 -0.5188  0.1302
   82MYC     H214848   3.383   5.350   9.977 -0.4026 -0.2760  1.0827
   82MYC     O314849   3.209   5.326   9.872 -0.4719  0.0903  0.7228
   82MYC     H314850   3.158   5.379   9.808  0.7321 -0.9089 -1.1521
   82MYC     C114851   3.374   5.509   9.849 -0.2478 -0.8491 -0.3823
   82MYC     H114852   3.463   5.545   9.901  0.7548 -3.0229 -0.4838
   82MYC    C8114853   3.284   5.636   9.832  0.7169 -0.0845  0.3676
   82MYC    O8214854   3.177   5.634   9.772  0.0379 -0.1611 -1.6278
   82MYC    O8314855   3.329   5.747   9.894  0.3870 -0.2979  1.3107
   82MYC   H10514856   3.263   5.815   9.873  0.8556 -0.4476 -0.8695
   82MYC    C2014857   3.422   5.447   9.713 -0.2824  0.0283 -0.3334
   82MYC    H3414858   3.480   5.356   9.733 -2.6469 -1.5216 -0.1343
   82MYC    H3514859   3.340   5.425   9.644 -0.0203 -1.4363 -0.2244
   82MYC    C2114860   3.504   5.543   9.626  0.3926  0.2193  0.0612
   82MYC    H3614861   3.434   5.615   9.583 -0.1744  0.1054  0.7641
   82MYC    H3714862   3.577   5.601   9.683 -1.7513  1.6969  1.4635
   82MYC    C2214863   3.580   5.476   9.503  0.1817 -0.2192  0.0416
   82MYC    H3814864   3.644   5.394   9.535  0.6909 -0.6621 -1.9846
   82MYC    H3914865   3.506   5.432   9.435 -0.7424  0.2123  0.7467
   82MYC    C2314866   3.662   5.588   9.433  0.0890 -0.1940  0.1268
   82MYC    H4014867   3.602   5.667   9.389  1.3026 -1.0298 -3.3339
   82MYC    H4114868   3.721   5.641   9.509  1.3666  0.4369 -1.2475
   82MYC    C2414869   3.767   5.529   9.332  0.6180  0.5031 -0.3605
   82MYC    H4214870   3.867   5.521   9.376  1.2027  2.8243 -1.1657
   82MYC    H4314871   3.745   5.424   9.309 -0.6208  0.7521 -0.3839
   82MYC    C2514872   3.774   5.604   9.198  0.9729 -0.3107 -0.4742
   82MYC    H4414873   3.687   5.560   9.148  1.0798 -1.5300  0.3535
   82MYC    H4514874   3.777   5.712   9.212 -0.7996 -0.4102  1.0584
   82MYC    C2614875   3.889   5.556   9.104 -0.6160 -0.5115  0.3043
   82MYC    H4614876   3.906   5.630   9.025  0.8058 -0.7143  0.3875
   82MYC    H4714877   3.978   5.571   9.167 -0.5080 -0.4537  0.1394
   82MYC    C2714878   3.878   5.408   9.053  0.3409  0.0966  0.1212
   82MYC    H4814879   3.901   5.351   9.144  0.0848 -0.5521 -0.2163
   82MYC    H4914880   3.775   5.390   9.020  0.5112 -0.7709  0.0322
   82MYC    C2814881   3.979   5.362   8.944  0.0369 -0.2797  0.3756
   82MYC    H5014882   4.086   5.366   8.967  0.3883 -0.6357 -1.0934
   82MYC    H5114883   3.961   5.257   8.918  0.1563 -0.3241  0.4706
   82MYC    C2914884   3.956   5.434   8.808 -0.4895 -0.3116  0.5865
   82MYC    H5214885   3.864   5.411   8.752  1.4546 -0.6581 -2.7369
   82MYC    H5314886   3.962   5.541   8.829 -0.1686 -0.3856  0.8889
   82MYC    C3014887   4.077   5.391   8.712  0.3366  0.0814  0.4557
   82MYC    H5414888   4.171   5.422   8.760 -0.0345  1.8215  0.1231
   82MYC    H5514889   4.077   5.282   8.704  2.0630  0.0988 -0.2603
   82MYC    C3114890   4.082   5.460   8.573  0.3934 -0.4980 -1.0986
   82MYC    H5614891   3.984   5.440   8.527 -0.6670  0.7651  0.4793
   82MYC    H5714892   4.082   5.569   8.585  1.5333 -0.3475 -2.2769
   82MYC    C3214893   4.200   5.412   8.487  0.2472 -0.1282 -0.2952
   82MYC    H5814894   4.294   5.435   8.538  0.0619 -1.1107  0.5273
   82MYC    H5914895   4.193   5.303   8.479 -0.9302 -0.0019 -1.1060
   82MYC    C3314896   4.204   5.469   8.348 -0.3857  0.2363 -0.4366
   82MYC    H6014897   4.106   5.451   8.302 -0.6747 -1.7564  0.8240
   82MYC    H6114898   4.212   5.578   8.356 -1.1505  0.1672  2.1636
   82MYC    C3414899   4.314   5.410   8.257 -0.2637 -0.4542 -0.8081
   82MYC    H6214900   4.414   5.407   8.301  0.3801 -1.7485 -2.2262
   82MYC    H6314901   4.281   5.308   8.236 -1.7739 -0.0005 -0.7493
   82MYC    C3514902   4.336   5.482   8.125 -0.2729  0.2608 -0.3542
   82MYC    H6414903   4.241   5.497   8.072 -0.5090 -0.9527 -0.2891
   82MYC    H6514904   4.386   5.578   8.143  4.5972 -1.9569 -0.4493
   82MYC    C3614905   4.426   5.410   8.022 -0.5122 -0.1878 -0.1128
   82MYC    H6614906   4.522   5.391   8.071 -1.0459  0.4996  1.2560
   82MYC    H6714907   4.386   5.311   8.001  0.4258 -0.6329  0.1467
   82MYC    C3714908   4.453   5.501   7.894  0.1656 -0.8432 -0.1381
   82MYC    H6814909   4.363   5.561   7.878  0.3777  0.0158  1.5702
   82MYC    H6914910   4.536   5.569   7.916  0.3875 -1.5327  1.3095
   82MYC    C3814911   4.492   5.424   7.766 -0.1749  0.0944 -0.3025
   82MYC    H7014912   4.600   5.405   7.777 -0.1457  0.4428  0.0413
   82MYC    H7114913   4.449   5.324   7.765  1.5807 -0.7095 -1.8102
   82MYC    C3914914   4.481   5.493   7.633  0.2154 -0.9322  0.3384
   82MYC    H7214915   4.374   5.500   7.610  0.2634 -3.6017 -1.1463
   82MYC    H7314916   4.521   5.595   7.641  1.8588 -1.1119 -3.3250
   82MYC    C4014917   4.546   5.421   7.517 -0.4313 -0.0968  0.1829
   82MYC    H7414918   4.653   5.402   7.532 -0.4513  0.7945  1.5789
   82MYC    H7514919   4.511   5.317   7.516 -1.2132  0.1552 -1.0947
   82MYC    C4114920   4.514   5.478   7.381 -0.6535  0.4861 -0.5392
   82MYC    H7614921   4.405   5.474   7.368 -0.7055  0.8964 -0.2281
   82MYC    H7714922   4.545   5.583   7.375 -0.1022  0.2481 -3.2371
   82MYC    C4214923   4.570   5.394   7.263  0.5414 -0.0090 -0.4120
   82MYC    H7814924   4.679   5.406   7.265  0.4605  1.2021 -1.7637
   82MYC    H7914925   4.544   5.289   7.283  4.2638 -1.2657 -1.4005
   82MYC    C4314926   4.507   5.440   7.129 -0.3700  0.3098 -0.0413
   82MYC    H8014927   4.545   5.539   7.104 -1.0451  0.2152 -1.5432
   82MYC    H8114928   4.399   5.447   7.146 -0.9773 -1.5015 -2.5664
   82MYC    H8214929   4.531   5.377   7.042 -2.2424 -0.3055 -0.1530
   83MYC   HH1514930   4.430   5.869   6.951 -0.1420 -0.9645 -0.0272
   83MYC    C8014931   4.457   5.815   7.043  0.7344 -0.3127  0.1013
   83MYC   H10014932   4.377   5.747   7.074 -1.6914  2.3212  0.0250
   83MYC   H10114933   4.547   5.755   7.023  2.0578  1.7220 -0.3691
   83MYC    C7914934   4.471   5.923   7.157  0.3491 -0.1520  0.5152
   83MYC   H10214935   4.385   5.991   7.161  1.2134  0.9488  0.8555
   83MYC   H10314936   4.554   5.989   7.127 -0.6472  0.1639 -1.8242
   83MYC    C7814937   4.493   5.862   7.297 -0.7521  0.2087  0.7906
   83MYC   HH1414938   4.595   5.822   7.304 -0.5417 -0.1210 -2.7153
   83MYC   H10414939   4.414   5.790   7.320 -0.9907 -0.1946 -1.1585
   83MYC    C7714940   4.482   5.970   7.402  1.0808  0.1074 -0.4781
   83MYC   H10614941   4.385   6.020   7.389  0.7940 -0.4670 -0.6029
   83MYC   H10714942   4.552   6.054   7.398 -1.1155  2.1200  0.8556
   83MYC    C7614943   4.472   5.908   7.552 -0.3303  0.8481 -0.1577
   83MYC   H10814944   4.575   5.879   7.579  0.0514  1.7984 -0.5628
   83MYC   H10914945   4.415   5.814   7.549 -0.6431  1.0036  0.7789
   83MYC    C7514946   4.429   6.004   7.670  0.1007 -0.3569 -0.5767
   83MYC   H11014947   4.331   6.051   7.660 -0.3905 -0.8805  1.3675
   83MYC   H11114948   4.498   6.087   7.692 -0.4144  0.1873 -1.0000
   83MYC    C7414949   4.429   5.916   7.792 -0.2294  0.2375  0.8064
   83MYC   H11214950   4.532   5.894   7.824  0.5657  2.7094  0.1554
   83MYC   H11314951   4.368   5.826   7.775 -0.5591  0.7234 -0.7002
   83MYC    C7314952   4.371   5.995   7.915 -0.9862 -0.4956 -0.7229
   83MYC   HH1314953   4.268   6.017   7.884 -0.7168  0.5950 -0.8638
   83MYC   H11414954   4.425   6.087   7.939  1.1261 -1.7888 -0.2853
   83MYC    C7214955   4.389   5.906   8.044  0.1256 -0.2162  0.2393
   83MYC   H11514956   4.492   5.873   8.061  0.3539  1.4011  2.2915
   83MYC   H11614957   4.333   5.812   8.034  1.7670 -1.1103 -1.0807
   83MYC    C7114958   4.356   5.988   8.166  0.5040 -0.5843 -0.5239
   83MYC   H11714959   4.252   6.024   8.156  0.5349  1.2358  3.4805
   83MYC   H11814960   4.426   6.072   8.175 -0.2374 -0.0954  1.4930
   83MYC    C7014961   4.354   5.909   8.301  0.4748  0.2268  0.4594
   83MYC   H11914962   4.457   5.873   8.310  0.4489  0.0698  0.1379
   83MYC   H12014963   4.290   5.821   8.287 -0.1106  0.9126 -1.5121
   83MYC    C6914964   4.327   5.995   8.420  0.1380  0.3104 -0.1930
   83MYC   H12114965   4.239   6.061   8.417  0.7706  1.1868  0.1793
   83MYC   H12214966   4.409   6.067   8.424  1.2555 -0.8919 -0.7011
   83MYC    C6814967   4.315   5.923   8.559  0.0460  0.3214 -0.5423
   83MYC   HH1214968   4.334   5.996   8.639  0.7209  1.8713 -2.0553
   83MYC   H12314969   4.390   5.845   8.577 -2.7110 -1.7316  3.7986
   83MYC    C6714970   4.178   5.858   8.579  0.1878  0.3793 -0.2869
   83MYC   H12414971   4.198   5.759   8.537  2.7952  0.7308 -0.0882
   83MYC   H12514972   4.094   5.893   8.518 -0.2679 -2.2308 -1.2791
   83MYC    C6614973   4.124   5.836   8.723  0.0858  0.5876  0.4180
   83MYC   H12614974   4.029   5.783   8.714 -0.1883  1.3550 -1.9064
   83MYC   H12714975   4.092   5.938   8.750  0.8911  0.8922  0.2482
   83MYC    C6514976   4.225   5.768   8.821  1.0933 -0.1740  0.7906
   83MYC   H12814977   4.325   5.809   8.802  0.7472  0.1929 -0.3027
   83MYC   H12914978   4.224   5.660   8.802 -0.3594  0.1042 -1.1380
   83MYC    C6414979   4.205   5.801   8.979  0.6798  0.2226  0.4271
   83MYC   H13014980   4.101   5.783   9.006  0.4390  0.0287 -0.5675
   83MYC   H13114981   4.218   5.910   8.983 -0.1959  0.3755 -0.4747
   83MYC    C6314982   4.297   5.718   9.069 -0.1636 -0.1730 -0.2260
   83MYC   HH1114983   4.403   5.745   9.060  0.1600 -1.2048  0.3211
   83MYC   H13214984   4.275   5.612   9.058 -1.1774 -0.0958  0.8789
   83MYC    C6214985   4.269   5.756   9.209  0.2043  0.3065 -0.9271
   83MYC   H13314986   4.160   5.750   9.220  0.2253  0.7392 -0.4176
   83MYC   H13414987   4.309   5.856   9.228 -0.0575  0.6986 -2.3245
   83MYC    C6114988   4.337   5.659   9.302  0.4837  0.0503  0.2744
   83MYC   H13514989   4.444   5.675   9.290  0.1517  0.8334 -2.5578
   83MYC   H13614990   4.329   5.556   9.264  1.0048  0.0083  0.2775
   83MYC    C6014991   4.276   5.660   9.444  0.1773 -0.8837  0.5755
   83MYC   H13714992   4.321   5.730   9.514 -1.4372  1.7122 -0.8450
   83MYC    C5814993   4.134   5.640   9.488 -0.3909 -0.0684  0.0122
   83MYC   H13814994   4.057   5.610   9.417 -1.8480  3.3051 -0.0017
   83MYC    C5914995   4.234   5.533   9.511  0.6591 -0.1037  0.5865
   83MYC   H13914996   4.281   5.514   9.607  2.0416 -1.5866 -0.3377
   83MYC   H14014997   4.202   5.447   9.453 -0.5879 -0.9854  2.4683
   83MYC    C5714998   4.054   5.703   9.602 -0.4223  0.3943 -0.6353
   83MYC   HH1014999   3.968   5.759   9.564 -2.9422 -2.5401  0.4115
   83MYC   H14115000   4.119   5.773   9.657 -0.3105 -0.0267 -0.2218
   83MYC    C5615001   3.985   5.595   9.687  0.8771  0.0220 -0.3474
   83MYC   H14215002   4.052   5.526   9.741 -1.9431 -2.3108  0.4108
   83MYC   H14315003   3.923   5.536   9.619  0.9557  0.9451 -1.2414
   83MYC    C5515004   3.896   5.646   9.805  0.9146  0.1169  0.1325
   83MYC   H14415005   3.822   5.721   9.774  1.1555  0.1930 -0.2655
   83MYC   H14515006   3.956   5.690   9.886 -2.6757  1.8549  2.0967
   83MYC    C5415007   3.828   5.519   9.877 -0.2616  0.4871  0.1273
   83MYC   H14615008   3.913   5.461   9.914  0.2910  0.9372 -0.4030
   83MYC   H14715009   3.783   5.450   9.806  0.7355  2.8506 -3.0419
   83MYC    C5315010   3.746   5.547  10.003  0.0487 -0.5985 -0.3965
   83MYC   H14815011   3.656   5.605   9.983 -1.0402 -1.8537  0.6319
   83MYC   H14915012   3.822   5.599  10.063  1.8880 -3.2114 -0.2641
   83MYC    C5215013   3.692   5.425  10.085  0.0199 -0.3799  0.5433
   83MYC    H9915014   3.771   5.353  10.105  2.2844  2.0079  0.7435
   83MYC   H15015015   3.623   5.373  10.018 -0.7460  0.5011  0.6142
   83MYC    C5115016   3.620   5.461  10.213 -0.1517 -0.8012 -0.2589
   83MYC    H9715017   3.553   5.378  10.238 -0.2814 -1.1519 -1.6447
   83MYC    H9815018   3.545   5.536  10.187 -0.2821 -0.3273  1.3929
   83MYC    C5015019   3.706   5.518  10.325  0.3387  0.5622 -0.2609
   83MYC    H9515020   3.755   5.615  10.310 -0.1972  1.5219  3.2643
   83MYC    H9615021   3.786   5.445  10.338  0.4649  0.5055 -1.2923
   83MYC    C4915022   3.629   5.533  10.462  0.2255 -0.0277 -0.2237
   83MYC    H9315023   3.693   5.575  10.541 -3.0129 -0.0191  2.6444
   83MYC    H9415024   3.599   5.431  10.489  0.7808  0.1280  1.1071
   83MYC    C4815025   3.504   5.624  10.455  0.3204  0.5166  0.1861
   83MYC    H9115026   3.428   5.579  10.389  0.2225  1.7161 -0.5553
   83MYC    H9215027   3.534   5.723  10.418 -0.0446 -0.6072 -3.5651
   83MYC    C4715028   3.435   5.632  10.590 -0.3623  0.2209  0.1742
   83MYC    H8915029   3.421   5.534  10.637 -1.9351  0.7636  0.9167
   83MYC    H9015030   3.331   5.651  10.560 -0.2953  0.4707  0.1023
   83MYC    C4615031   3.490   5.731  10.694  0.5987  0.2520  0.0958
   83MYC    H8715032   3.519   5.823  10.642  0.2033  0.3718  0.0780
   83MYC    H8815033   3.568   5.689  10.758  1.4231  0.3700 -0.8100
   83MYC    C4515034   3.377   5.777  10.787  0.8224 -0.3367  0.2334
   83MYC    H8515035   3.334   5.689  10.837 -2.3652  0.5718 -0.6748
   83MYC    H8615036   3.286   5.816  10.740  1.0137  1.1611  1.0554
   83MYC    C4415037   3.425   5.880  10.895 -0.3536 -0.0874  0.5451
   83MYC    H8315038   3.334   5.927  10.934  0.2961  0.6954  1.1451
   83MYC    H8415039   3.476   5.956  10.835  0.6180 -1.9256 -1.0647
   83MYC    C1815040   3.514   5.824  11.006  0.1482  0.1485 -0.0972
   83MYC    H3115041   3.470   5.733  11.048 -1.5936 -0.7619 -3.5655
   83MYC    C1715042   3.659   5.812  11.001 -0.2954  0.2692  0.5309
   83MYC    H3015043   3.704   5.851  10.910  2.5029  0.1369  1.7588
   83MYC    C1915044   3.595   5.910  11.100 -0.0700  0.4580 -0.3874
   83MYC    H3215045   3.575   6.014  11.077 -0.9107  0.0018 -1.8844
   83MYC    H3315046   3.592   5.874  11.202 -1.2943 -0.4103 -0.7040
   83MYC    C1615047   3.751   5.695  11.060 -0.3299  0.0937 -0.1206
   83MYC    H2815048   3.727   5.593  11.029  0.5232 -0.4827  1.0578
   83MYC    H2915049   3.732   5.697  11.168 -4.0939  4.0034 -0.5475
   83MYC    C1515050   3.910   5.720  11.051 -0.2226 -0.1244 -0.8153
   83MYC    H2615051   3.970   5.651  11.112 -2.6436 -1.0568  0.6571
   83MYC    H2715052   3.928   5.818  11.096  2.6660 -0.3951 -1.2260
   83MYC    C1415053   3.966   5.723  10.914  0.0125 -0.1006 -0.0233
   83MYC    H2415054   4.074   5.722  10.929 -0.0133  0.0484  0.1758
   83MYC    H2515055   3.933   5.817  10.870 -2.2093 -1.2621 -1.0015
   83MYC    C1315056   3.938   5.611  10.811 -0.4077 -0.3032  0.0272
   83MYC    H2215057   3.831   5.589  10.804 -0.4177  0.3594 -2.7294
   83MYC    H2315058   4.001   5.524  10.833 -0.5072 -0.8091 -1.5956
   83MYC    C1215059   3.983   5.643  10.667 -0.0866  0.6686 -0.6360
   83MYC    H2015060   3.946   5.556  10.611 -1.3466  0.4521  0.4889
   83MYC    H2115061   4.092   5.650  10.672 -0.0902 -0.0659  2.1295
   83MYC    C1115062   3.945   5.769  10.596  0.0109 -0.4033  0.2207
   83MYC    H1815063   3.988   5.854  10.650  0.6867 -0.7719  0.2698
   83MYC    H1915064   3.836   5.782  10.593  0.1943  1.2149 -0.4581
   83MYC    C1015065   4.002   5.753  10.448  0.4967 -0.6402 -0.9977
   83MYC    H1615066   3.961   5.827  10.379  1.4099  2.0289  1.1139
   83MYC    H1715067   3.963   5.657  10.413 -1.2759  0.5930 -2.6003
   83MYC     C915068   4.158   5.752  10.441  0.0056  0.0138  0.2032
   83MYC    H1415069   4.215   5.668  10.481  0.8821  1.3209  1.8482
   83MYC    H1515070   4.188   5.842  10.497 -0.0165  0.4827 -0.5277
   83MYC     C815071   4.215   5.777  10.302  0.1566 -0.1690  0.5485
   83MYC    H1215072   4.323   5.787  10.314  0.2486 -2.2598  2.0364
   83MYC    H1315073   4.174   5.874  10.271 -1.9488 -1.6453 -1.7412
   83MYC     C715074   4.179   5.673  10.197  0.5557  0.3709  0.0022
   83MYC    H1015075   4.220   5.706  10.101  1.3208 -2.0503 -0.5590
   83MYC    H1115076   4.072   5.680  10.175  0.7863  1.6783 -0.8190
   83MYC     C615077   4.227   5.521  10.212 -0.2007  0.0524  0.0804
   83MYC     H815078   4.216   5.493  10.317 -3.0041 -0.5363 -0.2992
   83MYC     H915079   4.332   5.512  10.184 -0.3520  0.9121 -0.8292
   83MYC     C515080   4.147   5.429  10.121  0.2619  0.1380  0.4102
   83MYC     H615081   4.152   5.450  10.014 -2.7392 -0.9307 -0.0321
   83MYC     H715082   4.040   5.430  10.147 -0.0784 -0.9240 -0.8317
   83MYC     C415083   4.187   5.276  10.139 -0.5633  0.5453 -0.2183
   83MYC     H415084   4.191   5.260  10.248 -1.1124  2.7484  0.1696
   83MYC     H515085   4.289   5.269  10.098 -0.7798 -2.6642 -0.4999
   83MYC     C215086   4.097   5.172  10.070 -0.5450  0.5379 -0.4465
   83MYC     H215087   4.007   5.169  10.132 -0.5254 -0.0827 -0.4378
   83MYC     O315088   4.063   5.215   9.935 -0.2198  0.2217  0.1837
   83MYC     H315089   4.128   5.284   9.914  0.2656  0.0277  0.9908
   83MYC     C115090   4.154   5.029  10.067  0.3264 -0.1710 -0.2877
   83MYC     H115091   4.080   4.973  10.009 -2.1311  1.2202  1.2815
   83MYC    C8115092   4.160   4.972  10.211 -0.2985 -0.1189 -0.8401
   83MYC    O8215093   4.219   5.021  10.304 -0.7581  0.1887  0.3302
   83MYC    O8315094   4.061   4.878  10.229  0.1357  0.6313  0.0359
   83MYC   H10515095   4.070   4.861  10.324 -0.7986 -0.7666 -0.1017
   83MYC    C2015096   4.297   5.016  10.004 -0.7907  0.0004 -0.0525
   83MYC    H3415097   4.302   5.063   9.905  0.1769  2.3244  1.0253
   83MYC    H3515098   4.366   5.072  10.068  1.0485 -0.7437 -1.2921
   83MYC    C2115099   4.345   4.863   9.987  0.3988  0.2974  0.1724
   83MYC    H3615100   4.347   4.816  10.087 -0.3195  1.5931  0.8263
   83MYC    H3715101   4.274   4.803   9.930  1.4670 -1.3903  0.5329
   83MYC    C2215102   4.491   4.841   9.923  0.4379 -0.2006 -0.2385
   83MYC    H3815103   4.510   4.927   9.858 -0.4294  0.4605  0.3687
   83MYC    H3915104   4.562   4.835  10.007  1.2053  0.7382 -0.8032
   83MYC    C2315105   4.499   4.700   9.857 -0.1729  0.2922  0.0890
   83MYC    H4015106   4.499   4.622   9.934  2.9152 -0.6340 -0.6886
   83MYC    H4115107   4.409   4.685   9.796  0.4724  0.0141 -0.8132
   83MYC    C2415108   4.625   4.685   9.776 -0.9338 -0.1940 -1.0645
   83MYC    H4215109   4.710   4.694   9.845 -3.2572  1.4197  1.8210
   83MYC    H4315110   4.620   4.584   9.735  4.3657 -0.8169 -0.8858
   83MYC    C2515111   4.641   4.794   9.664  0.3229 -0.5966  0.1917
   83MYC    H4415112   4.543   4.829   9.628  0.6466  0.0155 -0.0971
   83MYC    H4515113   4.701   4.877   9.701 -0.2738  1.0342 -2.2473
   83MYC    C2615114   4.726   4.747   9.540  0.8870 -0.6650  0.6295
   83MYC    H4615115   4.834   4.749   9.559  1.0550  0.5026 -0.2719
   83MYC    H4715116   4.695   4.644   9.518 -1.0845  0.0058  0.0446
   83MYC    C2715117   4.695   4.833   9.415  0.1605 -0.3178  0.0991
   83MYC    H4815118   4.586   4.843   9.403  0.0852 -1.0705  0.0938
   83MYC    H4915119   4.740   4.933   9.420 -3.1528  1.3499 -0.6495
   83MYC    C2815120   4.761   4.770   9.284 -0.7538 -0.1966 -0.3504
   83MYC    H5015121   4.871   4.778   9.288 -0.5848 -1.1789 -2.0107
   83MYC    H5115122   4.732   4.665   9.287 -3.2427  0.4090 -1.0643
   83MYC    C2915123   4.708   4.824   9.148 -0.0181 -0.2394  0.2030
   83MYC    H5215124   4.599   4.808   9.142  0.2037 -1.5239 -0.8168
   83MYC    H5315125   4.726   4.932   9.147 -0.1916 -0.1975  0.8923
   83MYC    C3015126   4.760   4.749   9.028  0.5066  0.2936  0.3351
   83MYC    H5415127   4.869   4.737   9.034  0.2595 -2.1153  0.9286
   83MYC    H5515128   4.715   4.650   9.015  1.5743 -0.0752 -0.7556
   83MYC    C3115129   4.724   4.827   8.897 -0.4992  0.0980 -0.5477
   83MYC    H5615130   4.617   4.833   8.874 -0.8062 -1.1685  0.4277
   83MYC    H5715131   4.767   4.928   8.902 -0.9832  0.2615  0.5989
   83MYC    C3215132   4.786   4.759   8.777 -0.3882 -0.7216  0.1404
   83MYC    H5815133   4.891   4.739   8.800  0.1121  2.4045  0.8996
   83MYC    H5915134   4.739   4.661   8.758  1.5372 -1.2302 -2.5329
   83MYC    C3315135   4.768   4.833   8.648 -0.2548 -0.0990 -0.2102
   83MYC    H6015136   4.663   4.860   8.630 -0.0234  1.6032  0.7647
   83MYC    H6115137   4.833   4.921   8.647 -1.9208  1.2003  0.3857
   83MYC    C3415138   4.819   4.748   8.528 -0.6432  0.0520  0.5849
   83MYC    H6215139   4.914   4.696   8.546 -1.5507 -1.1308  2.3224
   83MYC    H6315140   4.748   4.667   8.511 -0.2956 -0.2485  0.5367
   83MYC    C3515141   4.830   4.825   8.395 -0.2511  0.3275 -0.1796
   83MYC    H6415142   4.739   4.883   8.382 -2.0158 -2.2095  0.1003
   83MYC    H6515143   4.916   4.892   8.403 -1.2532  1.4812  1.6183
   83MYC    C3615144   4.848   4.734   8.277  0.5005  0.0449 -0.9391
   83MYC    H6615145   4.933   4.675   8.314 -0.2005  0.6826  1.8847
   83MYC    H6715146   4.774   4.654   8.262  1.0886 -0.8434  0.6149
   83MYC    C3715147   4.867   4.816   8.149  0.7884  0.2447  0.2262
   83MYC    H6815148   4.780   4.875   8.122  0.3501 -1.1109 -1.4883
   83MYC    H6915149   4.938   4.898   8.161  0.3391  0.6566  0.0765
   83MYC    C3815150   4.908   4.726   8.027  0.2114  0.0756 -0.4374
   83MYC    H7015151   5.008   4.688   8.051 -0.0629 -0.5920 -0.3341
   83MYC    H7115152   4.836   4.645   8.016  0.5177 -0.0249 -1.7558
   83MYC    C3915153   4.911   4.803   7.895  0.1856 -0.4385 -0.0119
   83MYC    H7215154   4.812   4.847   7.880 -0.3960 -1.5813  0.3307
   83MYC    H7315155   5.005   4.859   7.902  0.1795 -0.4120 -0.1605
   83MYC    C4015156   4.936   4.716   7.776  0.2161  0.3693  0.4549
   83MYC    H7415157   5.031   4.661   7.787 -0.7302 -1.2721  0.8183
   83MYC    H7515158   4.869   4.629   7.780  2.5068 -1.5930 -0.6743
   83MYC    C4115159   4.927   4.784   7.636  0.1149 -0.4433 -0.1802
   83MYC    H7615160   4.827   4.824   7.614  1.1314  1.2054 -2.1624
   83MYC    H7715161   4.990   4.873   7.624  0.4404 -0.8659 -1.9322
   83MYC    C4215162   4.958   4.684   7.511 -0.4880  0.8113 -0.5355
   83MYC    H7815163   5.052   4.629   7.525 -1.7225 -2.0731 -2.4964
   83MYC    H7915164   4.881   4.606   7.511 -2.0532  2.1842  2.2009
   83MYC    C4315165   4.965   4.746   7.372  0.1030  0.4481  0.0836
   83MYC    H8015166   4.861   4.769   7.345 -0.5463 -0.7395  1.4157
   83MYC    H8115167   4.999   4.673   7.297 -0.4477  0.1757  0.0931
   83MYC    H8215168   5.034   4.830   7.365  3.5687 -2.2416 -0.9136
   84MYC   HH1515169   5.248   5.233   6.343 -0.4193 -1.0434 -0.2412
   84MYC    C8015170   5.218   5.251   6.447 -0.4798 -0.6464 -0.3240
   84MYC   H10015171   5.260   5.164   6.500 -1.1042  0.2916  1.8219
   84MYC   H10115172   5.263   5.340   6.492 -3.5727  0.7607  0.2460
   84MYC    C7915173   5.067   5.279   6.466 -0.0911  0.2065  0.7768
   84MYC   H10215174   5.017   5.187   6.434 -0.6536 -0.2330  2.8091
   84MYC   H10315175   5.030   5.369   6.416 -1.7192  0.3580  2.1922
   84MYC    C7815176   5.037   5.302   6.615  0.6780 -0.0773 -0.0859
   84MYC   HH1415177   4.935   5.342   6.620  0.6182 -0.1587 -0.6086
   84MYC   H10415178   5.104   5.382   6.651 -0.2612  1.0157 -0.7168
   84MYC    C7715179   5.053   5.184   6.712  0.1496 -0.4340 -0.4502
   84MYC   H10615180   5.158   5.157   6.727  0.0604 -0.0358  1.1641
   84MYC   H10715181   4.991   5.102   6.673 -1.3162  0.4185 -0.0042
   84MYC    C7615182   4.989   5.228   6.855  0.1398  0.6101 -0.0234
   84MYC   H10815183   4.881   5.210   6.854  0.4020 -1.1969 -1.5443
   84MYC   H10915184   4.994   5.338   6.857  1.1413  0.5620  0.5731
   84MYC    C7515185   5.056   5.172   6.981  0.4695  0.6969  0.2232
   84MYC   H11015186   5.164   5.188   6.985  0.5728 -0.1952  1.6819
   84MYC   H11115187   5.036   5.064   6.976  0.8724  0.6474 -0.4729
   84MYC    C7415188   4.994   5.242   7.104  0.4957 -0.2871  0.7973
   84MYC   H11215189   4.885   5.242   7.090  0.5911  0.8551 -0.0355
   84MYC   H11315190   5.029   5.346   7.104 -0.7021  0.1369  1.0026
   84MYC    C7315191   5.022   5.172   7.241  0.8324 -0.2373  0.5542
   84MYC   HH1315192   5.128   5.177   7.269  1.1015 -1.7150 -0.1162
   84MYC   H11415193   4.998   5.065   7.234  0.5227 -0.0778 -1.5246
   84MYC    C7215194   4.933   5.241   7.351  0.1673  0.4911 -0.0151
   84MYC   H11515195   4.827   5.230   7.327  0.5035 -0.6653 -1.0793
   84MYC   H11615196   4.949   5.349   7.351 -2.2287  0.9057  0.1733
   84MYC    C7115197   4.969   5.188   7.489  0.0433  0.1291  0.7552
   84MYC   H11715198   5.075   5.204   7.512  0.0713  0.9503  0.0911
   84MYC   H11815199   4.962   5.078   7.495  1.9142  0.0150  1.3078
   84MYC    C7015200   4.876   5.243   7.600 -0.5848 -0.4850 -0.2959
   84MYC   H11915201   4.769   5.230   7.578 -0.8803  0.3330  0.5756
   84MYC   H12015202   4.897   5.351   7.601 -1.3773 -0.2687  2.5883
   84MYC    C6915203   4.919   5.195   7.731 -0.5984 -0.3802  0.5115
   84MYC   H12115204   5.024   5.227   7.741 -0.2286 -0.2181 -2.6972
   84MYC   H12215205   4.922   5.085   7.731  1.1812 -0.3714  1.0289
   84MYC    C6815206   4.835   5.238   7.847 -0.0653 -0.4814  0.4888
   84MYC   HH1215207   4.736   5.197   7.824  2.1225 -3.9753 -4.4868
   84MYC   H12315208   4.822   5.347   7.848 -1.2070 -0.5260 -1.9046
   84MYC    C6715209   4.892   5.182   7.985 -0.1974 -0.1736 -0.2821
   84MYC   H12415210   4.997   5.212   7.986  0.3704 -1.9385 -1.5741
   84MYC   H12515211   4.897   5.072   7.990  0.7342 -0.1658 -0.8612
   84MYC    C6615212   4.812   5.238   8.100  0.6454 -0.6303 -0.1508
   84MYC   H12615213   4.706   5.213   8.087  0.2840  1.0293 -0.5577
   84MYC   H12715214   4.821   5.346   8.083  3.6028 -0.2602  2.6465
   84MYC    C6515215   4.852   5.206   8.247 -0.3729  0.4178  0.0366
   84MYC   H12815216   4.951   5.249   8.265 -0.1613  0.3792 -0.9741
   84MYC   H12915217   4.869   5.099   8.259 -0.8376  0.0125 -2.4169
   84MYC    C6415218   4.757   5.265   8.350 -0.1997  0.2567 -0.0213
   84MYC   H13015219   4.658   5.222   8.331  1.1021 -2.0393 -2.2734
   84MYC   H13115220   4.757   5.374   8.342  2.3607  0.2596 -0.9575
   84MYC    C6315221   4.803   5.234   8.496 -0.0169  0.3435 -0.6841
   84MYC   HH1115222   4.903   5.269   8.524  0.1953 -0.7902  0.0820
   84MYC   H13215223   4.803   5.125   8.507 -2.1909  0.3015 -0.6444
   84MYC    C6215224   4.704   5.287   8.611 -0.1197 -0.5048  1.2313
   84MYC   H13315225   4.601   5.251   8.596 -1.3363  2.5641  1.4607
   84MYC   H13415226   4.698   5.394   8.590  0.1215 -0.8528 -0.7692
   84MYC    C6115227   4.743   5.248   8.749 -0.6287 -0.4046 -0.0087
   84MYC   H13515228   4.837   5.294   8.782 -0.0817 -0.5089 -1.3728
   84MYC   H13615229   4.759   5.140   8.757  0.6404 -0.3144 -1.0964
   84MYC    C6015230   4.641   5.284   8.857  0.7434  0.0106  0.2071
   84MYC   H13715231   4.535   5.266   8.839  0.7325 -0.5937  0.7984
   84MYC    C5815232   4.680   5.287   9.007 -0.4769  0.8049  0.3948
   84MYC   H13815233   4.784   5.269   9.033  0.1599  2.2941 -0.9986
   84MYC    C5915234   4.658   5.415   8.932 -0.3101 -0.1160 -0.4699
   84MYC   H13915235   4.569   5.474   8.952 -0.4518 -0.4406 -0.1377
   84MYC   H14015236   4.741   5.474   8.894 -0.9608  0.4087 -1.1158
   84MYC    C5715237   4.582   5.238   9.114  0.0420  0.2538 -0.0851
   84MYC   HH1015238   4.595   5.130   9.131 -1.4645  0.1112  0.2386
   84MYC   H14115239   4.480   5.243   9.075  0.3196 -0.3774 -0.9293
   84MYC    C5615240   4.595   5.320   9.241  0.0481 -0.2284  0.5180
   84MYC   H14215241   4.561   5.423   9.223 -0.9564 -0.5888  0.2486
   84MYC   H14315242   4.701   5.314   9.266  0.6330 -0.8862 -1.8514
   84MYC    C5515243   4.507   5.258   9.351 -0.3632 -0.7559 -0.3506
   84MYC   H14415244   4.510   5.150   9.332  0.0398 -1.1054  1.5137
   84MYC   H14515245   4.399   5.276   9.339 -0.4560 -1.3524 -0.4302
   84MYC    C5415246   4.552   5.314   9.494 -0.0443 -0.0057  0.6730
   84MYC   H14615247   4.567   5.422   9.484  0.5063 -0.0111  1.3606
   84MYC   H14715248   4.653   5.280   9.519  0.2442 -0.0447 -0.5231
   84MYC    C5315249   4.461   5.262   9.615 -0.5992 -0.0173 -0.0586
   84MYC   H14815250   4.419   5.166   9.581 -0.7846 -0.1547  0.5440
   84MYC   H14915251   4.369   5.318   9.636 -1.3932 -1.4631  0.5110
   84MYC    C5215252   4.546   5.239   9.741  0.5141  0.1076 -1.0806
   84MYC    H9915253   4.624   5.163   9.729  0.2412 -0.3632  0.0248
   84MYC   H15015254   4.485   5.193   9.819 -0.1555  1.4514 -0.7729
   84MYC    C5115255   4.602   5.376   9.792 -0.1365 -0.4533 -0.3067
   84MYC    H9715256   4.521   5.449   9.801 -1.9269 -2.4510  0.9905
   84MYC    H9815257   4.672   5.412   9.716  0.3436 -2.4042 -0.8607
   84MYC    C5015258   4.684   5.369   9.924 -0.1971  1.1411  0.1109
   84MYC    H9515259   4.765   5.297   9.913 -1.5218 -0.2514 -0.9370
   84MYC    H9615260   4.621   5.329  10.005  0.9876  0.3683  0.6803
   84MYC    C4915261   4.746   5.506   9.969  0.2279  0.1541  0.4571
   84MYC    H9315262   4.664   5.577   9.954 -0.3428 -0.1265  1.9916
   84MYC    H9415263   4.832   5.530   9.906 -2.1711  1.0838 -2.6993
   84MYC    C4815264   4.766   5.513  10.125 -0.1545  0.1114  1.0991
   84MYC    H9115265   4.779   5.409  10.157  2.6014 -0.3990 -1.2355
   84MYC    H9215266   4.672   5.551  10.166  0.1809  1.1280  0.9519
   84MYC    C4715267   4.869   5.614  10.181 -0.6220  1.1040 -0.5097
   84MYC    H8915268   4.855   5.712  10.133 -2.5165  1.5545  0.8631
   84MYC    H9015269   4.968   5.580  10.147 -0.5964 -0.2091  0.7770
   84MYC    C4615270   4.874   5.611  10.338  0.2649 -0.1414 -0.2502
   84MYC    H8715271   4.876   5.505  10.366 -0.5575 -0.1772 -0.2997
   84MYC    H8815272   4.778   5.650  10.375  0.9963 -1.7186  3.8338
   84MYC    C4515273   4.986   5.682  10.406 -1.3337  0.1318  0.5538
   84MYC    H8515274   5.006   5.777  10.356  0.7644  0.0099  1.0601
   84MYC    H8615275   5.081   5.629  10.391 -2.0026 -0.9055 -0.1632
   84MYC    C4415276   4.965   5.680  10.555  0.0965 -0.2677 -0.8488
   84MYC    H8315277   4.960   5.573  10.577  3.4857 -0.3884 -0.1571
   84MYC    H8415278   4.871   5.728  10.582 -0.7383 -2.3032 -0.0080
   84MYC    C1815279   5.081   5.749  10.630  0.1234 -0.2198  0.1941
   84MYC    H3115280   5.176   5.700  10.612 -1.2383 -4.5150  3.1718
   84MYC    C1715281   5.074   5.902  10.620  0.1152  0.2802  0.1961
   84MYC    H3015282   4.984   5.933  10.567 -1.3743 -1.5365  1.5175
   84MYC    C1915283   5.060   5.827  10.753 -0.4978  0.0336 -0.2012
   84MYC    H3215284   4.965   5.826  10.806 -0.4800  0.8286 -0.1335
   84MYC    H3315285   5.140   5.827  10.827 -1.5557  0.8056  0.9931
   84MYC    C1615286   5.202   5.989  10.611  0.9281 -0.0366 -0.1276
   84MYC    H2815287   5.267   5.947  10.533  2.4020  1.7169  0.0868
   84MYC    H2915288   5.258   5.974  10.705  0.3015  0.8887  0.3989
   84MYC    C1515289   5.177   6.144  10.606 -0.4467  0.0655 -0.4745
   84MYC    H2615290   5.241   6.192  10.681 -0.0183  0.7321 -1.2485
   84MYC    H2715291   5.074   6.168  10.633 -0.9472 -1.9022 -0.4198
   84MYC    C1415292   5.210   6.208  10.470  0.3487  0.0693 -0.1833
   84MYC    H2415293   5.318   6.200  10.451 -0.0711 -0.1208 -2.8888
   84MYC    H2515294   5.187   6.314  10.483 -1.4710 -0.3946  0.7395
   84MYC    C1315295   5.116   6.153  10.360 -0.0636  0.3798 -0.1803
   84MYC    H2215296   5.014   6.172  10.393  0.4613  1.1797  1.0464
   84MYC    H2315297   5.122   6.044  10.349  0.4497  0.4424 -0.5956
   84MYC    C1215298   5.133   6.214  10.215  0.6936 -0.4091 -0.0172
   84MYC    H2015299   5.225   6.183  10.164  0.8191  1.5707 -1.0877
   84MYC    H2115300   5.128   6.323  10.217 -1.2143 -0.4780  1.9233
   84MYC    C1115301   5.030   6.159  10.116 -1.0025  0.3561  0.0423
   84MYC    H1815302   5.052   6.193  10.015  2.1805 -2.0697 -0.2490
   84MYC    H1915303   4.929   6.183  10.154 -1.1988  0.8728 -0.7904
   84MYC    C1015304   5.023   6.001  10.108 -0.4305  0.4339  0.4464
   84MYC    H1615305   4.935   5.966  10.053 -0.3458  1.6017 -0.4714
   84MYC    H1715306   4.988   5.970  10.207 -1.0390 -0.0464  0.0814
   84MYC     C915307   5.139   5.921  10.052 -0.2535 -1.0953 -0.5294
   84MYC    H1415308   5.226   5.946  10.113  0.1207 -0.8503 -1.1553
   84MYC    H1515309   5.160   5.968   9.955  0.1422  2.3966  1.0975
   84MYC     C815310   5.131   5.772  10.028 -0.4929  0.9535  0.0322
   84MYC    H1215311   5.042   5.740   9.971  0.1015 -0.2582 -0.2641
   84MYC    H1315312   5.130   5.732  10.130  2.2605 -0.7789 -0.5087
   84MYC     C715313   5.259   5.714   9.978 -0.3281  0.0363  0.6473
   84MYC    H1015314   5.260   5.608  10.005  0.0675  0.2027  1.3134
   84MYC    H1115315   5.342   5.762  10.031  2.2940 -2.1246 -1.1963
   84MYC     C615316   5.294   5.718   9.827  0.3582 -0.6657  0.7163
   84MYC     H815317   5.394   5.678   9.805  0.0508 -0.1223 -2.0169
   84MYC     H915318   5.299   5.821   9.790 -3.0233 -1.3512 -2.2132
   84MYC     C515319   5.207   5.647   9.730  1.0774  0.7577 -0.5985
   84MYC     H615320   5.105   5.683   9.746  0.7716 -0.2026 -0.3243
   84MYC     H715321   5.205   5.543   9.764  0.8428  0.8241 -0.4097
   84MYC     C415322   5.248   5.653   9.578  0.1517 -0.7436 -0.6632
   84MYC     H415323   5.343   5.602   9.556 -0.2947 -1.3521 -1.2295
   84MYC     H515324   5.255   5.759   9.553  0.7979 -0.3990  0.8631
   84MYC     C215325   5.150   5.602   9.471 -0.2592 -0.1367 -0.1552
   84MYC     H215326   5.207   5.554   9.391 -1.5225 -1.6841 -0.1939
   84MYC     O315327   5.080   5.491   9.528  0.0421  0.1888 -0.2433
   84MYC     H315328   5.031   5.524   9.606  2.0350  0.3108  1.0158
   84MYC     C115329   5.051   5.711   9.418 -0.2521 -0.0341  0.1765
   84MYC     H115330   5.120   5.789   9.382 -2.0612  2.3854  1.6163
   84MYC    C8115331   4.964   5.776   9.529 -0.2667 -0.1471 -0.0583
   84MYC    O8215332   4.896   5.710   9.602 -0.1537 -0.0741  0.0985
   84MYC    O8315333   4.990   5.907   9.556 -0.0566 -0.1435 -0.3210
   84MYC   H10515334   4.941   5.922   9.639 -2.8295  0.0731 -1.8730
   84MYC    C2015335   4.973   5.662   9.301 -0.6126  0.2427  0.4788
   84MYC    H3415336   5.036   5.630   9.217 -0.4259 -2.0082  1.4144
   84MYC    H3515337   4.926   5.566   9.322 -1.4218  0.6152  0.4056
   84MYC    C2115338   4.877   5.770   9.242 -0.2597 -0.2472  0.0449
   84MYC    H3615339   4.812   5.789   9.329  1.2878  1.8864  0.8193
   84MYC    H3715340   4.932   5.858   9.208  1.5355 -1.4208 -0.1937
   84MYC    C2215341   4.791   5.717   9.122 -0.3940  0.3866 -1.0621
   84MYC    H3815342   4.863   5.655   9.067  0.9411  3.0196 -2.4936
   84MYC    H3915343   4.712   5.656   9.168  0.2274  0.5620  0.2959
   84MYC    C2315344   4.726   5.822   9.032  0.5624 -0.3695 -0.0144
   84MYC    H4015345   4.652   5.879   9.088  1.3484  1.0920 -0.3964
   84MYC    H4115346   4.805   5.890   8.997 -0.1589  0.3168 -0.3565
   84MYC    C2415347   4.666   5.774   8.896  0.3169 -0.1687 -0.2549
   84MYC    H4215348   4.608   5.684   8.921  1.8323 -0.7980  1.2098
   84MYC    H4315349   4.595   5.855   8.874 -1.0180 -0.4107  2.6998
   84MYC    C2515350   4.771   5.755   8.779  0.4994 -0.0497 -0.1392
   84MYC    H4415351   4.831   5.846   8.781  0.5008 -0.0084  2.7940
   84MYC    H4515352   4.840   5.673   8.800 -0.1157 -1.0309 -1.7668
   84MYC    C2615353   4.700   5.721   8.647 -0.0739  0.3215 -0.9189
   84MYC    H4615354   4.665   5.618   8.661 -0.9260  0.7985  0.8178
   84MYC    H4715355   4.621   5.794   8.629  0.5470  1.4018  0.4537
   84MYC    C2715356   4.798   5.728   8.521 -0.1901 -0.6336 -0.1849
   84MYC    H4815357   4.850   5.824   8.523 -1.0691 -0.1542  0.7092
   84MYC    H4915358   4.866   5.643   8.534 -0.7461 -1.1245 -0.3895
   84MYC    C2815359   4.728   5.697   8.383 -0.5566  0.4612  0.0779
   84MYC    H5015360   4.678   5.602   8.403  0.6782 -0.5699 -1.4727
   84MYC    H5115361   4.665   5.782   8.355  2.7831  3.3791  0.6699
   84MYC    C2915362   4.832   5.682   8.262  0.4458 -0.7244  0.2846
   84MYC    H5215363   4.908   5.761   8.263  0.2661 -0.5318 -0.6689
   84MYC    H5315364   4.891   5.590   8.264  1.2354 -0.4339 -3.0711
   84MYC    C3015365   4.755   5.687   8.126  0.8181 -0.0965 -0.9909
   84MYC    H5415366   4.712   5.588   8.103  1.9608 -0.5792 -1.0852
   84MYC    H5515367   4.676   5.763   8.128  0.1014 -0.7846 -1.9115
   84MYC    C3115368   4.853   5.705   8.004 -0.4141  0.3804  0.5487
   84MYC    H5615369   4.898   5.805   8.001 -1.1929  0.7287  0.0978
   84MYC    H5715370   4.933   5.632   8.019  0.0316  1.5378  5.1562
   84MYC    C3215371   4.800   5.695   7.854 -0.2817 -0.5108  0.0546
   84MYC    H5815372   4.744   5.601   7.857  1.6562 -1.7164  0.6113
   84MYC    H5915373   4.763   5.790   7.814  1.7681 -0.3461 -1.5909
   84MYC    C3315374   4.925   5.666   7.760 -0.3660  0.1133  0.0118
   84MYC    H6015375   5.007   5.736   7.779  1.2017 -1.5250 -0.4990
   84MYC    H6115376   4.966   5.567   7.784 -0.6919 -0.0079  0.0788
   84MYC    C3415377   4.883   5.658   7.608  0.5703  0.0932 -0.0478
   84MYC    H6215378   4.808   5.580   7.595  1.9355 -1.1862 -0.4271
   84MYC    H6315379   4.841   5.757   7.582  1.7691  0.7066  0.2693
   84MYC    C3515380   4.989   5.628   7.502 -0.2494  0.3153  0.1212
   84MYC    H6415381   5.077   5.688   7.528  1.1215  0.1474 -3.5018
   84MYC    H6515382   5.027   5.528   7.521 -0.1752  0.7635  2.6309
   84MYC    C3615383   4.947   5.676   7.364 -0.2907 -0.7887  0.6983
   84MYC    H6615384   4.855   5.629   7.328  0.1483 -1.0744 -0.0894
   84MYC    H6715385   4.930   5.784   7.378 -1.7739 -0.9800  0.5415
   84MYC    C3715386   5.057   5.643   7.263  0.2976  0.2736  0.3628
   84MYC    H6815387   5.157   5.659   7.303  0.6178 -0.5224 -0.0804
   84MYC    H6915388   5.050   5.535   7.243 -0.4092  0.4453 -0.3854
   84MYC    C3815389   5.034   5.705   7.121 -0.4478  0.3824 -0.4177
   84MYC    H7015390   4.942   5.662   7.079 -0.5047 -0.5870  0.6487
   84MYC    H7115391   5.019   5.813   7.131  0.9312  0.7516 -1.8987
   84MYC    C3915392   5.143   5.662   7.017 -0.1837 -0.7514 -1.0038
   84MYC    H7215393   5.241   5.682   7.062 -0.6759 -2.4386  0.9664
   84MYC    H7315394   5.125   5.556   6.997 -3.6308 -0.4890  0.0424
   84MYC    C4015395   5.146   5.748   6.891 -0.6163 -0.0975  0.1219
   84MYC    H7415396   5.041   5.762   6.861 -1.1968 -2.9688  0.5654
   84MYC    H7515397   5.182   5.851   6.900 -0.0570 -0.2055 -0.7614
   84MYC    C4115398   5.246   5.689   6.779  0.4211 -1.2768 -0.6815
   84MYC    H7615399   5.338   5.649   6.823  0.0707 -1.1961  0.1439
   84MYC    H7715400   5.203   5.604   6.724  1.3365 -1.5101 -1.0493
   84MYC    C4215401   5.286   5.780   6.661  0.6016  0.0054 -0.5187
   84MYC    H7815402   5.189   5.808   6.618  0.6052 -0.1444 -0.6210
   84MYC    H7915403   5.335   5.872   6.696  1.2681 -0.0871 -1.1840
   84MYC    C4315404   5.373   5.709   6.562  0.5583 -0.3685  0.0032
   84MYC    H8015405   5.444   5.787   6.532  0.8411 -0.8019 -0.4860
   84MYC    H8115406   5.332   5.682   6.463  3.6840 -1.4877 -1.1306
   84MYC    H8215407   5.429   5.623   6.601 -1.1748 -1.8795 -0.6441
   85MYC   HH1515408   5.250   4.943   6.804 -0.7069 -1.0318 -0.8918
   85MYC    C8015409   5.355   4.917   6.787 -0.2310 -0.0517  0.4659
   85MYC   H10015410   5.367   4.846   6.704 -1.2414  0.4649 -0.1361
   85MYC   H10115411   5.399   5.007   6.742  1.0621  0.8173  3.2422
   85MYC    C7915412   5.425   4.864   6.910 -0.3122 -0.1614  0.1173
   85MYC   H10215413   5.522   4.915   6.918 -0.6592  0.6852 -0.8224
   85MYC   H10315414   5.427   4.755   6.902  0.7043 -0.1097 -0.5000
   85MYC    C7815415   5.333   4.907   7.030  0.2761  0.7945 -0.0239
   85MYC   HH1415416   5.228   4.883   7.009  0.5436 -1.0073  0.5524
   85MYC   H10415417   5.333   5.016   7.040  2.3253  1.0087 -1.5783
   85MYC    C7715418   5.363   4.830   7.163 -0.5844 -0.4075 -0.4910
   85MYC   H10615419   5.470   4.808   7.175 -0.3812  0.8018  0.0286
   85MYC   H10715420   5.315   4.733   7.149 -2.3467  0.4933 -0.9135
   85MYC    C7615421   5.306   4.921   7.275 -0.0210 -0.3979 -0.5632
   85MYC   H10815422   5.198   4.931   7.259 -0.0411  2.2995  0.6834
   85MYC   H10915423   5.361   5.016   7.276  1.4539 -1.2250  0.5577
   85MYC    C7515424   5.325   4.855   7.411  0.0403 -0.0002  0.4398
   85MYC   H11015425   5.432   4.843   7.427 -0.4009 -2.3928  2.1802
   85MYC   H11115426   5.271   4.759   7.418 -0.6539  0.5287  3.8023
   85MYC    C7415427   5.281   4.941   7.520 -0.0687  1.0880  0.0858
   85MYC   H11215428   5.174   4.964   7.511 -0.2331  1.9983  3.0279
   85MYC   H11315429   5.347   5.028   7.505 -0.9051  2.1632  2.1489
   85MYC    C7315430   5.308   4.888   7.664  0.0844  0.2041  0.9545
   85MYC   HH1315431   5.413   4.858   7.675  1.2147  2.7244 -1.6913
   85MYC   H11415432   5.248   4.797   7.679 -1.6636  0.9835 -0.8353
   85MYC    C7215433   5.278   4.983   7.772 -0.2894  0.2301  0.1162
   85MYC   H11515434   5.179   5.030   7.767  0.5935  2.0874 -1.0954
   85MYC   H11615435   5.357   5.059   7.776  1.3232 -1.4128  0.9737
   85MYC    C7115436   5.298   4.915   7.908 -0.2018  0.1587 -0.6630
   85MYC   H11715437   5.403   4.903   7.935 -0.1835  0.4136 -0.6149
   85MYC   H11815438   5.253   4.815   7.902  1.2342 -0.6060  0.6066
   85MYC    C7015439   5.241   5.003   8.024  0.1012 -0.5134 -0.0647
   85MYC   H11915440   5.134   5.017   8.010 -0.4075 -4.8665 -2.3324
   85MYC   H12015441   5.293   5.099   8.029  1.5293 -1.2575  0.0957
   85MYC    C6915442   5.238   4.927   8.154  0.5132 -0.3983 -0.9282
   85MYC   H12115443   5.344   4.900   8.165  1.2530  2.4068 -0.3678
   85MYC   H12215444   5.179   4.835   8.152  0.4212 -0.3715 -0.0156
   85MYC    C6815445   5.216   5.016   8.278 -0.2978 -0.4225 -0.0526
   85MYC   HH1215446   5.113   5.055   8.278 -0.3680 -0.5541 -1.3576
   85MYC   H12315447   5.279   5.105   8.266  0.3711 -0.9753 -0.7736
   85MYC    C6715448   5.247   4.952   8.412 -1.0076  0.3475  0.4764
   85MYC   H12415449   5.352   4.924   8.404 -1.0470  0.7741 -3.7251
   85MYC   H12515450   5.188   4.860   8.414 -0.5406 -0.0181 -1.0203
   85MYC    C6615451   5.201   5.037   8.527  0.0829 -0.3797 -0.2515
   85MYC   H12615452   5.095   5.049   8.505 -0.3669 -0.8387  1.5477
   85MYC   H12715453   5.247   5.135   8.511  0.5440 -0.0696  2.4579
   85MYC    C6515454   5.227   4.984   8.671 -0.0092  0.4009  0.6057
   85MYC   H12815455   5.336   4.981   8.683 -0.0520 -0.8455  0.8072
   85MYC   H12915456   5.183   4.884   8.675  2.1642 -0.6131  0.2049
   85MYC    C6415457   5.171   5.077   8.780 -1.1330  0.3735 -0.4438
   85MYC   H13015458   5.065   5.098   8.763 -0.7417  2.0122 -1.0748
   85MYC   H13115459   5.221   5.174   8.771  0.4714 -0.5997 -3.4670
   85MYC    C6315460   5.171   5.019   8.931  0.1001 -0.3564  0.2235
   85MYC   HH1115461   5.274   5.005   8.964  0.6308  0.5598 -0.9783
   85MYC   H13215462   5.146   4.913   8.922  0.9536 -0.5612  0.1888
   85MYC    C6215463   5.079   5.109   9.025 -0.0150 -0.6461  0.1151
   85MYC   H13315464   4.972   5.125   9.004 -0.5673  0.6133  3.2596
   85MYC   H13415465   5.132   5.204   9.033  1.8258 -1.4812 -1.5161
   85MYC    C6115466   5.072   5.046   9.162  0.8219 -0.0241 -0.2936
   85MYC   H13515467   5.176   5.046   9.199  0.8091  1.1664 -0.2338
   85MYC   H13615468   5.045   4.942   9.140 -0.7154  0.3807 -0.4247
   85MYC    C6015469   4.980   5.114   9.270  0.6011  1.0227  0.2688
   85MYC   H13715470   4.876   5.085   9.266  0.6179  0.6317  2.0306
   85MYC    C5815471   5.045   5.141   9.403  0.3222 -0.1494  0.8463
   85MYC   H13815472   5.153   5.144   9.416  0.5533  2.9026 -0.7740
   85MYC    C5915473   5.003   5.256   9.316  0.4140 -0.7287 -0.1562
   85MYC   H13915474   4.905   5.300   9.332  0.3971 -0.6348 -0.5274
   85MYC   H14015475   5.085   5.317   9.278 -0.0588 -0.4196 -0.6991
   85MYC    C5715476   4.975   5.102   9.538 -0.8448  0.3860 -0.2584
   85MYC   HH1015477   5.000   4.998   9.563  2.4626  0.8391 -1.2073
   85MYC   H14115478   4.866   5.117   9.544 -1.2271 -2.3719  1.4956
   85MYC    C5615479   5.021   5.189   9.649 -0.3468  0.7321  0.3007
   85MYC   H14215480   4.966   5.282   9.639 -0.3728  0.8398  1.2930
   85MYC   H14315481   5.129   5.206   9.639  0.1398  0.3393  3.6130
   85MYC    C5515482   4.995   5.132   9.790  0.2427  0.0499  0.3623
   85MYC   H14415483   5.051   5.038   9.791  1.0024  0.4905 -0.1711
   85MYC   H14515484   4.889   5.106   9.801 -0.0007  0.5571 -0.6676
   85MYC    C5415485   5.045   5.212   9.913  0.9011 -0.3488 -0.3464
   85MYC   H14615486   5.007   5.314   9.902  0.3056 -0.4896  0.2895
   85MYC   H14715487   5.154   5.214   9.924  0.6135  0.8372  3.9265
   85MYC    C5315488   4.993   5.149  10.047 -0.2911  0.0784  0.4832
   85MYC   H14815489   5.040   5.050  10.056 -0.3808  0.0295  0.4107
   85MYC   H14915490   4.885   5.134  10.040 -0.2799  0.6336 -1.2621
   85MYC    C5215491   5.031   5.231  10.163  0.2274 -0.7146  0.8867
   85MYC    H9915492   4.978   5.190  10.250  0.7587  0.4091  1.7531
   85MYC   H15015493   4.986   5.331  10.155  0.4018 -0.7001  0.0229
   85MYC    C5115494   5.175   5.237  10.212  0.3921  0.5227 -0.0940
   85MYC    H9715495   5.249   5.226  10.131  0.4756  0.7787 -0.0550
   85MYC    H9815496   5.190   5.151  10.278 -3.3058 -0.2971 -0.1415
   85MYC    C5015497   5.211   5.375  10.273 -0.7195  0.6709 -0.2204
   85MYC    H9515498   5.137   5.413  10.345 -0.9995  4.1005 -2.1102
   85MYC    H9615499   5.221   5.446  10.190  1.3240 -0.5840 -1.1251
   85MYC    C4915500   5.347   5.368  10.348 -0.1727  0.0388 -0.0681
   85MYC    H9315501   5.431   5.345  10.282 -0.5781  0.7028 -0.8361
   85MYC    H9415502   5.339   5.289  10.424 -0.3511  0.1795  0.0625
   85MYC    C4815503   5.380   5.494  10.433 -0.1964  0.2958  0.2723
   85MYC    H9115504   5.445   5.467  10.516 -1.3276  0.2328  1.1659
   85MYC    H9215505   5.288   5.536  10.475 -0.7057 -1.1197  0.6319
   85MYC    C4715506   5.459   5.600  10.358  0.2055 -0.2536  0.0444
   85MYC    H8915507   5.417   5.605  10.256  1.1258 -0.7105 -0.3658
   85MYC    H9015508   5.564   5.569  10.360 -0.0244 -1.0192  1.5786
   85MYC    C4615509   5.459   5.741  10.418 -0.2881 -0.6979  0.4450
   85MYC    H8715510   5.356   5.778  10.410  0.2730  0.5758 -1.2564
   85MYC    H8815511   5.523   5.799  10.350  1.0631 -2.8509 -0.2342
   85MYC    C4515512   5.523   5.755  10.556 -0.7109 -0.7301 -0.4985
   85MYC    H8515513   5.612   5.691  10.557  0.1323  0.4050 -0.3192
   85MYC    H8615514   5.453   5.721  10.633 -1.3317 -2.7707 -1.8663
   85MYC    C4415515   5.570   5.897  10.604 -0.5137 -0.1237 -0.2311
   85MYC    H8315516   5.483   5.964  10.597 -0.7394 -0.3592  0.2687
   85MYC    H8415517   5.646   5.932  10.534  0.2336 -0.1507  0.5526
   85MYC    C1815518   5.631   5.905  10.745  0.8566  0.7103  0.0366
   85MYC    H3115519   5.690   5.818  10.771  0.9376  1.1353  1.3925
   85MYC    C1715520   5.683   6.036  10.797 -0.4671  0.0333  0.4715
   85MYC    H3015521   5.670   6.129  10.743  0.9922  0.1260  0.2582
   85MYC    C1915522   5.566   5.973  10.865  0.0379 -0.1208  0.2374
   85MYC    H3215523   5.472   6.027  10.870  0.2090  0.1755  0.2563
   85MYC    H3315524   5.569   5.912  10.955 -1.1166 -0.5330  0.0196
   85MYC    C1615525   5.809   6.037  10.878 -0.2239 -0.1452  0.5629
   85MYC    H2815526   5.820   5.937  10.921 -0.3278 -1.4593 -2.2430
   85MYC    H2915527   5.796   6.113  10.956 -0.6122  1.1525 -0.7283
   85MYC    C1515528   5.945   6.058  10.801 -0.0169 -0.8014  0.0336
   85MYC    H2615529   6.035   6.031  10.857  0.0215 -0.5036  0.1142
   85MYC    H2715530   5.953   6.165  10.778 -3.7426 -0.1181  1.1642
   85MYC    C1415531   5.940   5.982  10.671 -0.7286 -0.5626  0.3945
   85MYC    H2415532   5.883   6.043  10.600 -2.9228  1.4031  3.5908
   85MYC    H2515533   5.896   5.884  10.695  0.4475 -1.2520 -0.1536
   85MYC    C1315534   6.081   5.946  10.611 -0.5616 -0.4250 -1.0618
   85MYC    H2215535   6.133   5.897  10.694  0.4601  2.6850  0.2888
   85MYC    H2315536   6.147   6.031  10.594  2.7749 -1.9978  2.4852
   85MYC    C1215537   6.077   5.841  10.497  0.0076 -0.0402  0.1075
   85MYC    H2015538   6.029   5.745  10.523 -0.9567 -0.6037 -3.2588
   85MYC    H2115539   6.181   5.822  10.469 -0.0717 -1.3950  0.6212
   85MYC    C1115540   5.990   5.890  10.370 -0.2760  0.2649  0.0837
   85MYC    H1815541   6.030   5.990  10.352  1.2656 -0.6976 -2.4106
   85MYC    H1915542   5.891   5.901  10.415 -0.7543 -0.3785 -0.7789
   85MYC    C1015543   6.000   5.786  10.256  0.2039 -0.8544  0.2739
   85MYC    H1615544   5.919   5.712  10.261  0.8590 -1.6415 -0.4392
   85MYC    H1715545   6.095   5.731  10.251  0.7277  0.1790 -2.3138
   85MYC     C915546   5.972   5.844  10.115  0.3244  0.5346 -0.3713
   85MYC    H1415547   6.048   5.916  10.084  0.8210  0.4196  0.5431
   85MYC    H1515548   5.877   5.899  10.119 -0.3935 -0.7199  2.3408
   85MYC     C815549   5.943   5.732  10.013 -0.1134 -0.7620 -0.6484
   85MYC    H1215550   5.862   5.666  10.048  0.7055 -1.4571  0.0058
   85MYC    H1315551   6.039   5.680  10.010  0.5182  0.4221 -1.6309
   85MYC     C715552   5.908   5.777   9.874 -0.4142  0.4832  0.2440
   85MYC    H1015553   6.004   5.802   9.827 -0.8349  1.0027 -0.3394
   85MYC    H1115554   5.842   5.864   9.883 -1.4924 -0.1966 -0.8080
   85MYC     C615555   5.834   5.679   9.782  0.1189  0.0103 -0.1703
   85MYC     H815556   5.741   5.658   9.837 -0.2111  2.5456  0.3682
   85MYC     H915557   5.892   5.587   9.779  0.1249  0.0183 -0.2867
   85MYC     C515558   5.808   5.737   9.645  0.7215  0.3477 -1.0170
   85MYC     H615559   5.894   5.787   9.599  0.9952  1.4323  0.5911
   85MYC     H715560   5.729   5.808   9.669 -0.8642 -1.7530  0.4021
   85MYC     C415561   5.750   5.633   9.542  0.0279  0.9383 -0.3953
   85MYC     H415562   5.687   5.569   9.604  2.7179 -2.5563 -0.9078
   85MYC     H515563   5.834   5.577   9.498 -0.7193 -1.6553  1.2508
   85MYC     C215564   5.660   5.703   9.442 -0.1202  0.2141  0.1910
   85MYC     H215565   5.575   5.757   9.485 -0.7707 -0.5294 -0.1245
   85MYC     O315566   5.734   5.797   9.356 -0.1791 -0.1705  0.2898
   85MYC     H315567   5.788   5.748   9.292 -2.0147 -0.8059 -0.8575
   85MYC     C115568   5.589   5.601   9.346  0.1910 -0.2804  0.6508
   85MYC     H115569   5.535   5.526   9.404  0.3870 -1.5438 -0.7329
   85MYC    C8115570   5.692   5.512   9.265  0.2633 -0.3415  0.2639
   85MYC    O8215571   5.750   5.562   9.171  0.6809  0.7465 -0.5943
   85MYC    O8315572   5.743   5.404   9.324 -0.0289  0.6581  0.7664
   85MYC   H10515573   5.825   5.387   9.274 -0.4096  3.0264 -0.7988
   85MYC    C2015574   5.477   5.656   9.257  0.1021  0.1477  0.2693
   85MYC    H3415575   5.399   5.699   9.321  2.7940 -0.0042  4.0354
   85MYC    H3515576   5.512   5.731   9.185  1.9105 -2.3771 -1.6687
   85MYC    C2115577   5.408   5.548   9.165 -0.1933 -0.0604 -0.1427
   85MYC    H3615578   5.477   5.483   9.111  0.9796  0.6693  0.4359
   85MYC    H3715579   5.365   5.480   9.239 -0.1301 -2.7673 -2.4359
   85MYC    C2215580   5.300   5.608   9.057  0.1366  0.8022  0.6892
   85MYC    H3815581   5.242   5.688   9.104 -1.8884  1.7177 -2.9550
   85MYC    H3915582   5.361   5.641   8.972 -0.5716  1.0550  0.2724
   85MYC    C2315583   5.198   5.503   9.006  0.2356  0.2638  0.3728
   85MYC    H4015584   5.240   5.415   8.957  2.6592  1.1416  0.7409
   85MYC    H4115585   5.153   5.465   9.098  1.9891 -4.0159 -0.3197
   85MYC    C2415586   5.085   5.555   8.915 -0.3283 -0.1213 -0.5435
   85MYC    H4215587   5.010   5.476   8.908  0.7475 -1.2919  0.5740
   85MYC    H4315588   5.056   5.648   8.966  0.4691 -1.3242  2.2866
   85MYC    C2515589   5.131   5.607   8.779 -0.4816 -0.5075  0.1104
   85MYC    H4415590   5.073   5.697   8.757  0.0660 -0.5336 -1.5575
   85MYC    H4515591   5.236   5.636   8.778 -0.4889 -0.2495  2.2470
   85MYC    C2615592   5.111   5.507   8.672 -0.3562  0.1111 -0.1060
   85MYC    H4615593   5.166   5.415   8.695  0.2796 -0.5023 -3.5796
   85MYC    H4715594   5.003   5.491   8.669 -0.8675  2.8791  0.8291
   85MYC    C2715595   5.162   5.562   8.544  0.0466 -0.5126  0.5509
   85MYC    H4815596   5.114   5.658   8.521 -0.8601 -1.0792 -0.0016
   85MYC    H4915597   5.262   5.600   8.564 -0.6514  0.3205  2.8338
   85MYC    C2815598   5.147   5.465   8.426 -0.4081  0.0784  0.3430
   85MYC    H5015599   5.205   5.373   8.441 -1.1305 -0.5378 -0.5359
   85MYC    H5115600   5.042   5.440   8.404 -0.4860 -1.0819  1.8095
   85MYC    C2915601   5.211   5.512   8.299  0.0855  0.1420  0.4908
   85MYC    H5215602   5.172   5.613   8.284  0.2350 -0.1467 -2.2088
   85MYC    H5315603   5.320   5.520   8.310  0.4913 -2.1870 -1.1055
   85MYC    C3015604   5.182   5.431   8.169 -0.2296 -0.0944 -0.0765
   85MYC    H5415605   5.230   5.332   8.176  2.1346  0.6307 -3.4583
   85MYC    H5515606   5.073   5.416   8.169 -0.3579  0.5770  1.6659
   85MYC    C3115607   5.240   5.490   8.043 -0.0403 -0.8950 -0.2597
   85MYC    H5615608   5.184   5.582   8.024 -0.6750 -1.3334 -0.5770
   85MYC    H5715609   5.343   5.522   8.066 -0.2015 -1.6360  1.6735
   85MYC    C3215610   5.218   5.413   7.906 -0.2893  0.3316 -0.6427
   85MYC    H5815611   5.261   5.314   7.923 -0.2321  0.4068 -0.3410
   85MYC    H5915612   5.112   5.395   7.883  0.1909  0.2460 -3.0674
   85MYC    C3315613   5.294   5.475   7.780  0.0372 -0.2869  0.8642
   85MYC    H6015614   5.271   5.581   7.765 -0.8514 -0.4202  1.2356
   85MYC    H6115615   5.401   5.496   7.789 -0.0531  1.3936 -1.3918
   85MYC    C3415616   5.271   5.395   7.654 -0.3318  0.1989 -0.6297
   85MYC    H6215617   5.322   5.301   7.676 -0.3520  0.2978 -0.1411
   85MYC    H6315618   5.165   5.379   7.631 -0.3521 -0.9112  0.1454
   85MYC    C3515619   5.329   5.465   7.522  0.4720 -0.5547  0.0882
   85MYC    H6415620   5.271   5.557   7.511 -0.5116 -0.9128  1.8752
   85MYC    H6515621   5.427   5.512   7.536 -0.3450  1.2389  0.0442
   85MYC    C3615622   5.324   5.372   7.396 -0.4353  0.0249 -0.3837
   85MYC    H6615623   5.365   5.275   7.423  0.1735  0.6596  1.0603
   85MYC    H6715624   5.220   5.340   7.383 -0.5916  0.5938 -0.5749
   85MYC    C3715625   5.375   5.434   7.261 -0.5651  0.0290  1.2515
   85MYC    H6815626   5.306   5.506   7.216  1.9639 -0.0967 -3.5351
   85MYC    H6915627   5.467   5.490   7.281 -0.6079  0.4141  0.4039
   85MYC    C3815628   5.393   5.331   7.149 -0.5999  0.3042 -0.6664
   85MYC    H7015629   5.469   5.260   7.184  1.2007  2.3883 -0.0989
   85MYC    H7115630   5.295   5.282   7.142 -0.4963 -0.1571  0.7985
   85MYC    C3915631   5.435   5.386   7.013 -0.8788  0.2211 -0.4894
   85MYC    H7215632   5.369   5.468   6.983 -1.7987  0.1685  1.2430
   85MYC    H7315633   5.532   5.437   7.020 -0.8255 -0.1153  2.8299
   85MYC    C4015634   5.419   5.279   6.899  0.5157  0.1035 -0.2254
   85MYC    H7415635   5.456   5.181   6.932 -0.1206 -1.0488 -2.6558
   85MYC    H7515636   5.312   5.271   6.877  0.0670  1.9657  1.0454
   85MYC    C4115637   5.487   5.316   6.762  0.2808 -0.0502 -0.7576
   85MYC    H7615638   5.477   5.240   6.684  0.1736 -0.9981  0.1578
   85MYC    H7715639   5.420   5.393   6.722 -1.0656 -0.6965  0.1772
   85MYC    C4215640   5.628   5.372   6.768 -0.3627 -0.1731  0.7620
   85MYC    H7815641   5.630   5.469   6.819 -1.0687 -0.0559  0.5848
   85MYC    H7915642   5.695   5.301   6.818 -0.1470 -0.7145 -0.2769
   85MYC    C4315643   5.693   5.377   6.629  0.9108  0.1877 -0.9031
   85MYC    H8015644   5.647   5.458   6.571  2.6114 -1.3655 -4.8065
   85MYC    H8115645   5.667   5.283   6.579 -1.5400 -1.1717  2.5580
   85MYC    H8215646   5.800   5.400   6.629  0.9872 -0.0982 -2.1026
   86MYC   HH1515647   6.132   1.047   6.020 -0.2495 -2.7118 -1.5441
   86MYC    C8015648   6.028   1.066   6.047  0.5485  0.2230 -0.1861
   86MYC   H10015649   6.028   1.076   6.156  0.6232 -0.8932 -0.0804
   86MYC   H10115650   6.002   1.155   5.988 -0.4881  1.3313  1.8150
   86MYC    C7915651   5.936   0.951   6.004 -0.3958  0.6014  0.0029
   86MYC   H10215652   5.835   0.992   5.994 -0.5298  0.1500 -0.5315
   86MYC   H10315653   5.936   0.871   6.080 -0.2727 -1.7997 -2.3790
   86MYC    C7815654   5.954   0.890   5.865 -0.1313  0.4656 -0.6329
   86MYC   HH1415655   5.888   0.806   5.845 -0.1142  0.5658 -1.1123
   86MYC   H10415656   6.041   0.823   5.868 -0.9313 -0.5865 -0.0759
   86MYC    C7715657   5.961   0.977   5.742  0.1717  0.0836  0.4682
   86MYC   H10615658   6.026   1.064   5.758  0.3204  0.4315 -1.7044
   86MYC   H10715659   5.858   1.013   5.727 -0.9282 -2.0899  2.2263
   86MYC    C7615660   6.006   0.896   5.615 -0.3590  0.1923  0.1181
   86MYC   H10815661   5.942   0.808   5.617 -0.4257  0.2629  1.3138
   86MYC   H10915662   6.111   0.864   5.623 -0.7014 -1.4986 -1.4871
   86MYC    C7515663   5.985   0.977   5.488 -0.0469 -0.2917  0.2517
   86MYC   H11015664   6.026   1.078   5.478  0.0534 -0.4883 -2.1039
   86MYC   H11115665   5.877   0.988   5.472  0.2050  1.1958 -0.6533
   86MYC    C7415666   6.041   0.916   5.353  0.1429 -0.7093  0.2438
   86MYC   H11215667   6.010   0.812   5.343 -0.1775 -0.4900 -1.4697
   86MYC   H11315668   6.149   0.918   5.371  0.1248  0.2812  0.2917
   86MYC    C7315669   6.007   0.994   5.220  0.2459  0.6835 -0.2591
   86MYC   HH1315670   6.038   1.098   5.236 -0.8343  1.0769 -0.6344
   86MYC   H11415671   5.898   0.982   5.224  0.1979  0.5579 -1.5196
   86MYC    C7215672   6.072   0.930   5.101 -0.1642 -0.0551  0.4983
   86MYC   H11515673   6.028   0.830   5.091 -0.6834  0.3191 -1.1464
   86MYC   H11615674   6.181   0.917   5.109 -0.2594  0.2697  3.1109
   86MYC    C7115675   6.040   0.990   4.966 -0.1356 -0.0880  0.2022
   86MYC   H11715676   6.088   1.088   4.958 -0.0470  0.0856  2.2510
   86MYC   H11815677   5.932   1.001   4.950 -0.2619 -0.5612  0.6702
   86MYC    C7015678   6.089   0.912   4.841  0.5398  0.6132 -0.0662
   86MYC   H11915679   6.019   0.828   4.836 -1.0333  1.8984 -0.3196
   86MYC   H12015680   6.193   0.877   4.841  0.0923 -0.8352 -1.5390
   86MYC    C6915681   6.071   0.991   4.704 -0.2432 -0.2973  0.3146
   86MYC   H12115682   6.137   1.077   4.723  0.2297 -0.5451 -0.1929
   86MYC   H12215683   5.965   1.013   4.686  0.2509  0.9444 -1.2919
   86MYC    C6815684   6.138   0.910   4.586  0.5828  0.3111  0.4989
   86MYC   HH1215685   6.082   0.820   4.561  1.4786 -0.5424  1.4580
   86MYC   H12315686   6.241   0.882   4.609  0.8274 -0.6148 -1.4682
   86MYC    C6715687   6.150   0.995   4.455 -0.3021  0.1305  0.2243
   86MYC   H12415688   6.233   1.066   4.465  1.3650 -1.7276  0.1968
   86MYC   H12515689   6.060   1.057   4.446  0.2953  0.9159 -0.4757
   86MYC    C6615690   6.165   0.902   4.328 -0.7116 -0.1564  0.1275
   86MYC   H12615691   6.086   0.826   4.327 -0.4342 -0.4499 -1.2021
   86MYC   H12715692   6.259   0.845   4.335 -0.3425  0.4111 -0.1840
   86MYC    C6515693   6.150   0.971   4.192 -0.1684 -0.4446  0.0420
   86MYC   H12815694   6.226   1.049   4.185 -1.5394  0.8827 -0.6519
   86MYC   H12915695   6.060   1.030   4.210  0.3374 -0.0662  1.4118
   86MYC    C6415696   6.149   0.880   4.066 -0.7983  0.6044 -0.5683
   86MYC   H13015697   6.094   0.786   4.075 -1.4066  1.0726  0.9083
   86MYC   H13115698   6.252   0.846   4.053 -0.9220 -1.2505  2.3827
   86MYC    C6315699   6.105   0.964   3.948  0.6298 -0.0931 -0.1311
   86MYC   HH1115700   6.127   1.071   3.955 -1.7176  0.5183 -1.1597
   86MYC   H13215701   5.995   0.967   3.948  0.6302  1.2548 -1.2812
   86MYC    C6215702   6.148   0.904   3.808 -0.4675  0.0403  0.4810
   86MYC   H13315703   6.121   0.798   3.800  4.3794 -1.6321  2.7697
   86MYC   H13415704   6.257   0.905   3.812 -0.5037 -0.4507  1.9959
   86MYC    C6115705   6.078   0.992   3.696 -0.4774  0.4993 -0.0885
   86MYC   H13515706   6.124   1.092   3.702  0.1637  0.3688 -1.9088
   86MYC   H13615707   5.971   1.011   3.704 -0.9645 -1.4535 -1.2974
   86MYC    C6015708   6.109   0.947   3.551 -0.0324 -0.4293  0.1221
   86MYC   H13715709   6.069   0.848   3.528 -1.6753  0.6858 -2.2157
   86MYC    C5815710   6.128   1.053   3.446  0.4493  0.1515  0.2679
   86MYC   H13815711   6.117   1.158   3.470 -0.9132  0.5055 -1.6596
   86MYC    C5915712   6.248   0.982   3.492 -0.0352 -0.2068 -0.3387
   86MYC   H13915713   6.301   0.912   3.428 -0.9229 -2.4772  1.2740
   86MYC   H14015714   6.315   1.040   3.555  0.1186 -0.0129 -0.6790
   86MYC    C5715715   6.049   1.025   3.320 -0.0687  0.9779  0.4873
   86MYC   HH1015716   5.951   1.073   3.317 -0.5306  0.1532  1.7173
   86MYC   H14115717   6.028   0.918   3.308 -0.1094  1.2167 -2.4836
   86MYC    C5615718   6.121   1.070   3.190  0.1414  0.8722 -0.5193
   86MYC   H14215719   6.226   1.038   3.193 -0.4119 -1.2086 -1.5108
   86MYC   H14315720   6.146   1.177   3.191  1.2666  0.6272  0.5591
   86MYC    C5515721   6.052   1.005   3.061 -0.2045  0.3669  0.3923
   86MYC   H14415722   5.943   1.020   3.069 -0.2406 -0.2176  1.0444
   86MYC   H14515723   6.077   0.899   3.059 -1.7732 -0.0409  1.0692
   86MYC    C5415724   6.106   1.071   2.929 -0.6571 -0.6866 -0.1247
   86MYC   H14615725   6.104   1.005   2.842  0.1486  0.9294 -1.4327
   86MYC   H14715726   6.214   1.081   2.945 -0.6315 -0.6710 -0.3043
   86MYC    C5315727   6.051   1.207   2.887  0.0851  0.0918  0.1619
   86MYC   H14815728   6.116   1.247   2.809 -2.0530  4.5095  0.3784
   86MYC   H14915729   6.060   1.279   2.969  2.0359  2.5465 -2.0616
   86MYC    C5215730   5.906   1.207   2.840 -0.1934 -0.4173  0.5295
   86MYC    H9915731   5.882   1.313   2.821  0.0287 -0.7362 -1.7934
   86MYC   H15015732   5.838   1.170   2.918  0.1754  2.0273  2.1370
   86MYC    C5115733   5.877   1.143   2.704  0.6938  0.4233 -0.7169
   86MYC    H9715734   5.771   1.153   2.676  1.0539 -1.4914 -3.1725
   86MYC    H9815735   5.892   1.034   2.707  2.8305  0.6894 -0.0664
   86MYC    C5015736   5.962   1.187   2.585 -0.3609  0.1941 -0.0050
   86MYC    H9515737   6.067   1.191   2.617 -0.3586  2.0266 -0.1452
   86MYC    H9615738   5.931   1.291   2.566 -3.5337 -0.7500 -0.5149
   86MYC    C4915739   5.947   1.099   2.460 -0.1585  0.1816  0.8546
   86MYC    H9315740   5.855   1.114   2.401 -0.3734 -1.2698  0.7649
   86MYC    H9415741   5.953   0.995   2.496 -0.9544 -1.0939 -2.3001
   86MYC    C4815742   6.067   1.116   2.362  0.6197 -0.6113 -0.1258
   86MYC    H9115743   6.159   1.096   2.417  0.6636 -1.8956 -0.6351
   86MYC    H9215744   6.064   1.222   2.334 -1.8689 -0.1150  1.5890
   86MYC    C4715745   6.072   1.032   2.232 -0.0032 -0.0048  0.0164
   86MYC    H8915746   6.122   1.098   2.161  1.1773 -0.5480  0.3317
   86MYC    H9015747   5.964   1.028   2.212 -0.3749 -2.0726  2.0386
   86MYC    C4615748   6.136   0.894   2.250  0.1439 -0.9413  0.2394
   86MYC    H8715749   6.073   0.835   2.318 -3.3077  0.8611 -1.1022
   86MYC    H8815750   6.238   0.909   2.286  0.9306  0.3139 -2.3098
   86MYC    C4515751   6.162   0.823   2.114 -0.2800  0.3404 -0.0961
   86MYC    H8515752   6.236   0.878   2.056  1.8725 -1.3252  0.9035
   86MYC    H8615753   6.069   0.817   2.057 -0.8924 -1.6361  1.0211
   86MYC    C4415754   6.213   0.676   2.139 -0.0853  0.0626  0.1727
   86MYC    H8315755   6.155   0.618   2.212 -1.1212 -0.4971 -1.0650
   86MYC    H8415756   6.314   0.681   2.181  0.2881 -2.0086 -0.3748
   86MYC    C1815757   6.207   0.593   2.010 -0.6608 -0.2786  0.2649
   86MYC    H3115758   6.272   0.632   1.932  3.5885 -0.8729  3.2364
   86MYC    C1715759   6.185   0.445   2.011 -0.0558  0.4915 -0.5183
   86MYC    H3015760   6.168   0.400   2.109 -0.5291  0.8822 -0.4184
   86MYC    C1915761   6.078   0.531   1.959 -0.3388  0.0889 -0.3034
   86MYC    H3215762   5.987   0.534   2.020 -0.1193 -1.2652  0.1217
   86MYC    H3315763   6.058   0.542   1.853  1.0925 -0.3467 -0.6284
   86MYC    C1615764   6.272   0.345   1.940 -0.5872  0.1261  0.1865
   86MYC    H2815765   6.326   0.390   1.856 -1.0291 -0.7144 -0.5631
   86MYC    H2915766   6.193   0.276   1.907 -0.4938  0.2361 -0.2635
   86MYC    C1515767   6.362   0.262   2.021  0.4418 -0.0815 -0.2116
   86MYC    H2615768   6.400   0.178   1.961  0.3453 -0.3890  0.1475
   86MYC    H2715769   6.303   0.217   2.103 -0.1059 -0.6772 -0.9103
   86MYC    C1415770   6.479   0.325   2.090  0.6948 -0.3209  0.0263
   86MYC    H2415771   6.440   0.397   2.163 -2.2493 -2.0216  0.3251
   86MYC    H2515772   6.540   0.387   2.024  0.5645 -2.5315 -2.3388
   86MYC    C1315773   6.574   0.218   2.148 -0.4605  0.2541 -0.6415
   86MYC    H2215774   6.604   0.170   2.054 -2.1234 -0.3155 -0.9069
   86MYC    H2315775   6.528   0.135   2.204 -0.4375  0.7690  0.1661
   86MYC    C1215776   6.701   0.270   2.219 -0.5268  0.7858  0.1467
   86MYC    H2015777   6.719   0.371   2.179 -0.8995  0.4058 -1.0049
   86MYC    H2115778   6.785   0.215   2.177 -0.1540  1.3842  0.0934
   86MYC    C1115779   6.712   0.293   2.371 -0.6102  0.0323 -0.2807
   86MYC    H1815780   6.803   0.351   2.391  0.6781 -1.7516 -0.7210
   86MYC    H1915781   6.744   0.196   2.410  1.5142  0.2040 -1.4750
   86MYC    C1015782   6.586   0.342   2.443 -0.0912  0.4860  0.1608
   86MYC    H1615783   6.607   0.324   2.549 -0.0205  0.7911  0.1980
   86MYC    H1715784   6.499   0.281   2.416  1.1777 -1.1767 -0.4274
   86MYC     C915785   6.546   0.483   2.429  0.4441 -0.5228 -0.2718
   86MYC    H1415786   6.529   0.502   2.323 -0.8444  0.1541  0.0446
   86MYC    H1515787   6.622   0.559   2.451 -0.3705  0.5881 -1.1844
   86MYC     C815788   6.413   0.514   2.520  0.0504  0.3192 -0.4699
   86MYC    H1215789   6.433   0.494   2.626 -1.6855 -1.2042 -0.3936
   86MYC    H1315790   6.339   0.439   2.493 -1.5918  1.5748  0.3223
   86MYC     C715791   6.349   0.657   2.505  0.0075  0.1675  0.5031
   86MYC    H1015792   6.312   0.676   2.404  0.7340  1.8762  0.5185
   86MYC    H1115793   6.428   0.732   2.522 -0.8445  1.1968  0.0580
   86MYC     C615794   6.227   0.684   2.583 -0.4762 -0.1355 -1.0447
   86MYC     H815795   6.194   0.588   2.623 -0.5898 -0.1551 -1.1833
   86MYC     H915796   6.148   0.728   2.520 -2.6629 -1.3632  0.7136
   86MYC     C515797   6.247   0.776   2.715  0.2010 -0.1812 -0.5888
   86MYC     H615798   6.151   0.774   2.768 -0.4275  1.8787 -1.5481
   86MYC     H715799   6.261   0.881   2.688  1.4856 -0.3353 -0.5844
   86MYC     C415800   6.360   0.726   2.813 -0.0809 -0.3586 -0.1899
   86MYC     H415801   6.450   0.744   2.753 -0.4450 -0.7563 -0.8649
   86MYC     H515802   6.362   0.617   2.824 -0.3504 -0.2646  0.9623
   86MYC     C215803   6.379   0.780   2.962 -0.4526  0.0184  0.8644
   86MYC     H215804   6.349   0.885   2.957  0.7883  0.3388 -0.9333
   86MYC     O315805   6.302   0.695   3.042 -0.0750  0.5897  0.0391
   86MYC     H315806   6.357   0.640   3.100 -0.3083  0.5627  0.2379
   86MYC     C115807   6.527   0.768   3.007  0.5661 -0.5817 -0.6041
   86MYC     H115808   6.580   0.818   2.925  1.4835  0.5407  0.6370
   86MYC    C8115809   6.585   0.620   2.996 -0.3940 -0.6705  0.6172
   86MYC    O8215810   6.552   0.530   3.069  0.8300  0.8499 -0.0321
   86MYC    O8315811   6.663   0.605   2.895  0.2180  0.2548  0.3176
   86MYC   H10515812   6.670   0.508   2.897  0.4921  0.2881  0.9217
   86MYC    C2015813   6.559   0.839   3.146  0.3204  0.2167  0.1990
   86MYC    H3415814   6.517   0.940   3.152  1.1774  0.5525  0.7977
   86MYC    H3515815   6.518   0.771   3.221 -0.1819  0.8465  0.4994
   86MYC    C2115816   6.705   0.838   3.180 -0.3691 -1.0512  0.1611
   86MYC    H3615817   6.757   0.742   3.193  0.2982 -0.3310  3.9896
   86MYC    H3715818   6.770   0.871   3.098 -1.0420 -0.3903 -0.1176
   86MYC    C2215819   6.735   0.911   3.314 -0.6338  0.1151 -0.2816
   86MYC    H3815820   6.843   0.922   3.327 -1.0481  2.1676  2.0840
   86MYC    H3915821   6.695   1.012   3.302  1.7699  0.9799 -1.5778
   86MYC    C2315822   6.669   0.855   3.447 -0.2759  0.4412  0.1904
   86MYC    H4015823   6.560   0.866   3.450 -0.5302 -1.2558 -1.2741
   86MYC    H4115824   6.686   0.747   3.457 -1.2289  0.1455 -1.2006
   86MYC    C2415825   6.725   0.908   3.580 -0.1812  0.1099  0.4164
   86MYC    H4215826   6.823   0.859   3.582 -0.8402 -1.2641  0.2362
   86MYC    H4315827   6.734   1.017   3.570 -0.0934  0.0885  0.2588
   86MYC    C2515828   6.634   0.865   3.699 -0.6327  0.0782 -0.5613
   86MYC    H4415829   6.539   0.919   3.688 -1.2073 -0.4654  1.3530
   86MYC    H4515830   6.616   0.757   3.701  1.4041 -0.2960 -0.5193
   86MYC    C2615831   6.694   0.900   3.837  1.1462 -0.3471 -0.6213
   86MYC    H4615832   6.796   0.861   3.846  0.2088 -2.7124  0.8537
   86MYC    H4715833   6.699   1.009   3.847  0.6121 -0.4178  0.6320
   86MYC    C2715834   6.602   0.855   3.967  0.1273 -0.7734 -0.0832
   86MYC    H4815835   6.500   0.895   3.962 -0.3722 -2.1361 -1.3849
   86MYC    H4915836   6.585   0.747   3.962 -0.4125 -0.6590 -1.1836
   86MYC    C2815837   6.668   0.887   4.103  0.2249  0.5322  0.3314
   86MYC    H5015838   6.760   0.827   4.101 -0.1900 -0.1050 -1.2577
   86MYC    H5115839   6.707   0.990   4.106 -0.5317  0.9028 -1.2422
   86MYC    C2915840   6.577   0.866   4.223 -0.0254  0.0672 -0.6360
   86MYC    H5215841   6.483   0.921   4.216 -2.1636 -2.7046  2.5725
   86MYC    H5315842   6.556   0.759   4.234  2.1823 -0.2592  1.5388
   86MYC    C3015843   6.647   0.896   4.361  0.3204 -0.7413 -0.7533
   86MYC    H5415844   6.718   0.814   4.371  1.1969  0.1306  0.4368
   86MYC    H5515845   6.696   0.993   4.348 -1.4412  0.0685 -1.7627
   86MYC    C3115846   6.552   0.903   4.483  0.5277 -0.1368 -0.3592
   86MYC    H5615847   6.485   0.990   4.473 -1.5015 -1.5186  0.6260
   86MYC    H5715848   6.475   0.826   4.488 -0.2207  0.5107 -1.5885
   86MYC    C3215849   6.628   0.919   4.622  0.7622  0.5888 -1.5724
   86MYC    H5815850   6.700   0.837   4.632  0.7824  0.7831  0.0689
   86MYC    H5915851   6.677   1.017   4.626  1.0547  0.4559 -1.7567
   86MYC    C3315852   6.530   0.914   4.736 -0.2676 -0.3678 -0.2675
   86MYC    H6015853   6.471   1.006   4.737 -0.0008 -0.1948  0.9833
   86MYC    H6115854   6.470   0.822   4.727  2.1903 -1.9839 -1.4158
   86MYC    C3415855   6.593   0.896   4.874 -0.0740 -0.6390  0.0887
   86MYC    H6215856   6.657   0.807   4.874 -0.5104 -0.9571 -0.5545
   86MYC    H6315857   6.656   0.984   4.894 -0.2592 -0.1207 -1.4703
   86MYC    C3515858   6.487   0.877   4.990  0.2366 -0.5838 -0.1852
   86MYC    H6415859   6.412   0.955   4.974 -1.4258 -2.1815 -0.5259
   86MYC    H6515860   6.426   0.787   4.983 -0.1378 -0.2616 -1.2568
   86MYC    C3615861   6.540   0.886   5.133  0.2546 -0.2381  0.2453
   86MYC    H6615862   6.618   0.810   5.144  0.8062 -0.0760 -2.2102
   86MYC    H6715863   6.596   0.979   5.146 -1.0396  0.9419 -2.0364
   86MYC    C3715864   6.435   0.866   5.248 -0.0101 -0.2517  0.6532
   86MYC    H6815865   6.366   0.952   5.252  0.5514  0.3462 -1.3278
   86MYC    H6915866   6.380   0.774   5.224  2.0339 -1.8682  1.8311
   86MYC    C3815867   6.506   0.867   5.381 -0.8628  0.4546  0.3629
   86MYC    H7015868   6.584   0.791   5.385 -1.2299  0.1051  1.0638
   86MYC    H7115869   6.557   0.964   5.382  0.5846 -0.2779 -0.3985
   86MYC    C3915870   6.411   0.854   5.510 -0.1164 -0.7484  0.5213
   86MYC    H7215871   6.359   0.951   5.512  1.8508  0.6044 -3.5548
   86MYC    H7315872   6.345   0.769   5.491  1.7649 -1.8064 -1.8216
   86MYC    C4015873   6.485   0.844   5.640 -0.4581 -0.5030  0.1104
   86MYC    H7415874   6.552   0.757   5.639  0.2469 -0.0751  2.6850
   86MYC    H7515875   6.547   0.933   5.651  1.1563 -1.5715 -0.1111
   86MYC    C4115876   6.393   0.830   5.767  0.8973 -0.0347  0.6802
   86MYC    H7615877   6.318   0.910   5.760  0.1629 -0.7784 -0.5491
   86MYC    H7715878   6.337   0.736   5.758  0.9409  0.0338 -0.4562
   86MYC    C4215879   6.464   0.821   5.905 -0.5970 -0.7394 -0.2051
   86MYC    H7815880   6.535   0.738   5.909  0.7484  0.4263  1.7144
   86MYC    H7915881   6.524   0.910   5.930  2.5490 -3.1411  1.5345
   86MYC    C4315882   6.364   0.823   6.018  0.3273 -0.3682 -0.0590
   86MYC    H8015883   6.409   0.796   6.114  0.1875 -0.9293 -0.1519
   86MYC    H8115884   6.289   0.747   5.998 -0.8675  0.8722 -0.4310
   86MYC    H8215885   6.314   0.920   6.030 -0.7544 -0.7609 -1.2719
   87MYC   HH1515886   6.349   1.407   5.994  2.2058  0.4941  0.1923
   87MYC    C8015887   6.409   1.318   5.972  0.5278 -0.5317 -0.4028
   87MYC   H10015888   6.514   1.349   5.967  0.3347  0.3799  0.6954
   87MYC   H10115889   6.405   1.263   6.067 -1.5154 -0.3642 -0.3463
   87MYC    C7915890   6.362   1.232   5.851  0.7380  0.6767  0.5609
   87MYC   H10215891   6.266   1.187   5.877  0.1376  1.4853 -0.1992
   87MYC   H10315892   6.437   1.152   5.846 -0.7851 -0.8262  0.7740
   87MYC    C7815893   6.337   1.306   5.716 -0.0983  0.2278  0.6086
   87MYC   HH1415894   6.417   1.375   5.687 -1.1411  1.0309 -0.4781
   87MYC   H10415895   6.268   1.390   5.734  0.9063  0.3521  4.9896
   87MYC    C7715896   6.308   1.219   5.592  0.6700 -0.5892  0.0125
   87MYC   H10615897   6.223   1.155   5.617 -0.4779  1.3315  1.3188
   87MYC   H10715898   6.394   1.152   5.581  2.6619  1.7978  0.1916
   87MYC    C7615899   6.294   1.301   5.459  0.1641 -0.1865 -0.0649
   87MYC   H10815900   6.362   1.386   5.474  0.6488 -0.3575 -1.1952
   87MYC   H10915901   6.192   1.341   5.452 -0.4347 -1.7416 -0.5290
   87MYC    C7515902   6.327   1.227   5.332  0.3295 -0.0288  0.5968
   87MYC   H11015903   6.256   1.144   5.318 -1.7989  1.7805  0.0378
   87MYC   H11115904   6.427   1.181   5.331  1.2903  1.9475  0.0703
   87MYC    C7415905   6.316   1.330   5.217  0.0786 -0.6490 -0.2738
   87MYC   H11215906   6.387   1.414   5.222  0.3988 -0.8467 -1.4123
   87MYC   H11315907   6.217   1.378   5.222  0.6303  0.4215  1.3109
   87MYC    C7315908   6.334   1.261   5.074 -0.1387 -0.5585 -0.1630
   87MYC   HH1315909   6.245   1.201   5.053 -1.5827  0.8716  1.5023
   87MYC   H11415910   6.418   1.191   5.081  0.2033 -0.0606  0.9032
   87MYC    C7215911   6.353   1.349   4.949 -0.1950 -0.8232  0.0125
   87MYC   H11515912   6.429   1.427   4.963  0.8686 -1.7303 -0.5516
   87MYC   H11615913   6.263   1.404   4.917  1.0395  0.9352 -0.5973
   87MYC    C7115914   6.394   1.262   4.827 -0.2799  0.6157 -0.0167
   87MYC   H11715915   6.319   1.186   4.801 -2.1329  2.5685 -0.6766
   87MYC   H11815916   6.487   1.213   4.857  0.1648  1.8728  0.7799
   87MYC    C7015917   6.417   1.349   4.708  0.0453  0.1133  0.1181
   87MYC   H11915918   6.504   1.414   4.722  0.5432  0.1685 -2.6937
   87MYC   H12015919   6.328   1.412   4.694 -0.7370 -1.1285 -0.6900
   87MYC    C6915920   6.451   1.273   4.580 -0.0384 -0.8191  0.1350
   87MYC   H12115921   6.379   1.191   4.572  0.7765 -1.4968 -0.4293
   87MYC   H12215922   6.544   1.216   4.589  0.5057  0.2389  1.7459
   87MYC    C6815923   6.453   1.358   4.448 -0.0309 -0.7173 -0.0607
   87MYC   HH1215924   6.538   1.428   4.454 -0.4437 -0.2583  0.5634
   87MYC   H12315925   6.362   1.418   4.454 -0.3355 -1.2567  0.9212
   87MYC    C6715926   6.470   1.272   4.329  0.3579  0.0650  0.8193
   87MYC   H12415927   6.401   1.188   4.333 -0.8362  0.9796  0.0796
   87MYC   H12515928   6.561   1.212   4.337 -1.0233 -2.0867  1.2537
   87MYC    C6615929   6.478   1.342   4.197  0.6187 -0.4478  0.0239
   87MYC   H12615930   6.567   1.406   4.189  0.4190 -0.3811 -1.8837
   87MYC   H12715931   6.388   1.403   4.187  0.8366 -0.0564  0.4037
   87MYC    C6515932   6.486   1.248   4.069  0.1697 -0.3341 -0.0464
   87MYC   H12815933   6.409   1.171   4.076  0.1363 -0.1703  2.2398
   87MYC   H12915934   6.582   1.196   4.079  1.0507  1.4958  2.0269
   87MYC    C6415935   6.486   1.336   3.942  0.4418 -0.2114 -0.4375
   87MYC   H13015936   6.558   1.418   3.952  1.1956 -1.0210  1.1778
   87MYC   H13115937   6.386   1.380   3.939 -0.6872 -2.6487 -0.9167
   87MYC    C6315938   6.508   1.261   3.809  0.5607 -0.1450  0.6975
   87MYC   HH1115939   6.429   1.187   3.791  0.7047 -0.2398  0.4540
   87MYC   H13215940   6.607   1.212   3.808  1.0032  0.7019  1.7340
   87MYC    C6215941   6.512   1.361   3.688 -0.9830  0.5970  0.1485
   87MYC   H13315942   6.578   1.444   3.714 -2.3586  0.8207  3.5154
   87MYC   H13415943   6.410   1.401   3.679 -1.4448 -0.6046 -0.2516
   87MYC    C6115944   6.562   1.287   3.562  0.0617  0.7606 -0.1644
   87MYC   H13515945   6.552   1.178   3.572  3.1931  0.3783 -0.1215
   87MYC   H13615946   6.670   1.303   3.553  0.5777 -0.5418  2.7354
   87MYC    C6015947   6.501   1.347   3.441  0.9862  0.1012  0.1737
   87MYC   H13715948   6.534   1.450   3.424  4.4344 -0.4576  2.4102
   87MYC    C5815949   6.437   1.272   3.321  0.0598  0.4646 -0.7804
   87MYC   H13815950   6.418   1.165   3.322 -2.9778  0.9117  0.7022
   87MYC    C5915951   6.353   1.350   3.427 -0.2021 -0.5841 -0.3751
   87MYC   H13915952   6.302   1.440   3.395 -1.3167 -0.5460  1.3655
   87MYC   H14015953   6.297   1.296   3.503 -0.1813  1.0946  0.8851
   87MYC    C5715954   6.432   1.346   3.187  0.2988  0.6906  0.5672
   87MYC   HH1015955   6.494   1.436   3.204  0.1725  0.5918  1.6499
   87MYC   H14115956   6.326   1.368   3.173  0.0805 -0.3929  0.4959
   87MYC    C5615957   6.480   1.273   3.066 -0.8988  1.2458  0.1894
   87MYC   H14215958   6.443   1.170   3.067  0.6760  0.6539  1.4111
   87MYC   H14315959   6.588   1.258   3.066 -0.9875 -0.3125 -3.1359
   87MYC    C5515960   6.453   1.344   2.931  0.1323  0.6989  0.0256
   87MYC   H14415961   6.535   1.411   2.902 -0.6907  1.0244 -1.6473
   87MYC   H14515962   6.359   1.400   2.922  1.1534  2.3296 -1.0884
   87MYC    C5415963   6.452   1.248   2.818  0.1203 -0.2275  0.3834
   87MYC   H14615964   6.387   1.162   2.833 -0.1846 -0.4673 -2.0004
   87MYC   H14715965   6.553   1.205   2.818 -0.4472 -1.6302 -0.6158
   87MYC    C5315966   6.414   1.306   2.688  0.1183  0.5249 -0.5383
   87MYC   H14815967   6.481   1.391   2.673 -0.7637  1.2814 -0.3045
   87MYC   H14915968   6.312   1.347   2.688  0.4879  1.5384 -2.4200
   87MYC    C5215969   6.431   1.206   2.564  0.0719 -0.6208 -0.6361
   87MYC    H9915970   6.408   1.265   2.474  0.7255 -1.7974 -1.6058
   87MYC   H15015971   6.355   1.128   2.574  0.2227 -0.4764  2.5466
   87MYC    C5115972   6.573   1.144   2.547 -0.3630  0.4082 -0.2006
   87MYC    H9715973   6.581   1.063   2.620  0.0307 -0.9771 -1.7119
   87MYC    H9815974   6.646   1.222   2.572  2.9941 -2.4215 -0.4686
   87MYC    C5015975   6.584   1.086   2.410 -0.4422 -0.2401 -0.4951
   87MYC    H9515976   6.654   1.149   2.354 -0.6692  0.5478  0.0930
   87MYC    H9615977   6.490   1.086   2.353 -1.8012 -1.1328  1.6051
   87MYC    C4915978   6.632   0.946   2.403  0.4661  0.2126  0.0242
   87MYC    H9315979   6.616   0.913   2.300 -0.7071 -0.0906  0.2936
   87MYC    H9415980   6.579   0.886   2.478  2.4918  0.1610  1.5090
   87MYC    C4815981   6.782   0.940   2.438  0.4002  0.0882 -0.0277
   87MYC    H9115982   6.805   0.997   2.528  0.2515 -0.4001  0.3264
   87MYC    H9215983   6.838   0.985   2.354 -1.8481 -0.6678 -2.0534
   87MYC    C4715984   6.845   0.800   2.461  0.5918  0.9276 -0.2294
   87MYC    H8915985   6.813   0.745   2.550  0.8180  1.1556 -0.0054
   87MYC    H9015986   6.950   0.822   2.482  0.4826  0.5548  0.7650
   87MYC    C4615987   6.831   0.718   2.326  0.2085  0.0183 -0.1686
   87MYC    H8715988   6.726   0.705   2.297 -0.0911  0.3735  0.7220
   87MYC    H8815989   6.869   0.618   2.353 -0.2639 -0.4945 -1.3432
   87MYC    C4515990   6.916   0.762   2.210 -0.3299  0.4002 -0.0729
   87MYC    H8515991   7.017   0.778   2.247 -0.0934  1.1063 -0.9724
   87MYC    H8615992   6.871   0.853   2.168 -1.5548 -0.3503 -0.4442
   87MYC    C4415993   6.927   0.663   2.097 -0.0256  0.0622  0.2209
   87MYC    H8315994   6.973   0.570   2.132 -1.2292 -0.2198  1.0880
   87MYC    H8415995   6.995   0.718   2.031 -0.4020  0.3537  0.0710
   87MYC    C1815996   6.797   0.635   2.030 -0.8820  0.1110 -0.2003
   87MYC    H3115997   6.738   0.569   2.094  1.0967 -2.2755 -0.6815
   87MYC    C1715998   6.720   0.730   1.942  0.3929 -0.8620  0.1357
   87MYC    H3015999   6.767   0.822   1.906 -0.9431  0.1437  0.8803
   87MYC    C1916000   6.784   0.605   1.885 -0.2394 -0.0401 -0.8338
   87MYC    H3216001   6.878   0.623   1.833  0.3677  1.3942  0.6584
   87MYC    H3316002   6.724   0.517   1.867 -0.4417 -0.5950  2.1436
   87MYC    C1616003   6.573   0.749   1.966 -0.2315 -0.2401  0.1983
   87MYC    H2816004   6.556   0.768   2.073  1.8995  0.1341  0.5290
   87MYC    H2916005   6.526   0.657   1.930 -0.1793 -0.4035  0.5419
   87MYC    C1516006   6.505   0.858   1.878  0.1894  0.3859 -0.5891
   87MYC    H2616007   6.399   0.834   1.869  0.2953 -0.3659  0.0015
   87MYC    H2716008   6.547   0.843   1.778 -0.7041  0.5215 -0.9929
   87MYC    C1416009   6.521   1.010   1.929  0.0296 -0.8244  0.4017
   87MYC    H2416010   6.625   1.041   1.915 -0.1238  0.1218  1.2185
   87MYC    H2516011   6.491   1.017   2.035  0.8657  3.4058  0.5358
   87MYC    C1316012   6.439   1.115   1.859 -0.2554 -0.0892  0.6274
   87MYC    H2216013   6.335   1.086   1.876 -0.1771 -1.5189 -1.0184
   87MYC    H2316014   6.469   1.125   1.753 -0.2583  0.3015  0.6631
   87MYC    C1216015   6.467   1.259   1.901 -0.1885  0.2170  0.0810
   87MYC    H2016016   6.416   1.319   1.825  0.4006  0.0420 -0.4570
   87MYC    H2116017   6.573   1.285   1.896 -0.0296 -0.3918  0.1590
   87MYC    C1116018   6.415   1.280   2.043  0.2724  0.4598 -0.1108
   87MYC    H1816019   6.459   1.213   2.118 -0.1499  1.8785  1.4592
   87MYC    H1916020   6.310   1.251   2.040  0.4229 -0.4362  1.6104
   87MYC    C1016021   6.421   1.424   2.099  0.1302  1.3789  0.3008
   87MYC    H1616022   6.339   1.412   2.171  0.1568 -0.1215  0.0986
   87MYC    H1716023   6.381   1.494   2.023 -1.2594  1.3496  0.9670
   87MYC     C916024   6.554   1.458   2.173  0.0045 -0.3946 -0.2623
   87MYC    H1416025   6.631   1.461   2.095  1.6763  4.6010  1.1820
   87MYC    H1516026   6.583   1.375   2.239  0.0158  0.0438  0.2896
   87MYC     C816027   6.555   1.597   2.245 -0.3219  0.0504  0.7614
   87MYC    H1216028   6.500   1.663   2.178  0.7345  0.1288 -0.0535
   87MYC    H1316029   6.659   1.632   2.256 -0.4748  0.5017  0.7803
   87MYC     C716030   6.490   1.589   2.384  0.7970 -0.1460 -0.0812
   87MYC    H1016031   6.555   1.552   2.464  1.6258 -0.1967 -0.7645
   87MYC    H1116032   6.403   1.523   2.394  0.3655  0.7421  2.7050
   87MYC     C616033   6.426   1.720   2.425 -0.0326  0.3582 -0.6941
   87MYC     H816034   6.339   1.735   2.359  0.6248  0.8861 -1.4603
   87MYC     H916035   6.496   1.802   2.403 -0.6760  2.0513  2.8689
   87MYC     C516036   6.383   1.725   2.577 -0.5761 -0.4662  0.3752
   87MYC     H616037   6.478   1.748   2.626 -0.2995 -0.8290  0.0183
   87MYC     H716038   6.359   1.623   2.608 -1.0092 -1.0175 -1.6137
   87MYC     C416039   6.276   1.824   2.626 -0.2013 -0.0287  0.3330
   87MYC     H416040   6.179   1.803   2.580 -0.5099  1.3145  0.3090
   87MYC     H516041   6.302   1.928   2.599 -0.7162  0.1460  0.4899
   87MYC     C216042   6.235   1.810   2.780 -0.9971 -0.1836 -0.4828
   87MYC     H216043   6.328   1.828   2.835 -0.9334 -1.6616 -0.0588
   87MYC     O316044   6.140   1.902   2.814  0.0868 -0.2648  0.2458
   87MYC     H316045   6.175   1.977   2.866 -2.1033 -0.0133  1.4848
   87MYC     C116046   6.200   1.669   2.829 -0.2043 -0.3336 -0.0467
   87MYC     H116047   6.289   1.605   2.833  0.4976  0.6395  0.2640
   87MYC    C8116048   6.097   1.603   2.733  0.4039  0.1451  0.3323
   87MYC    O8216049   6.111   1.500   2.674  0.1987 -0.0517  0.1872
   87MYC    O8316050   5.978   1.667   2.733 -0.2060 -0.2302  0.3845
   87MYC   H10516051   5.919   1.609   2.682  1.0747 -1.1452 -0.1016
   87MYC    C2016052   6.149   1.666   2.971  0.7814  0.3039  0.8604
   87MYC    H3416053   6.061   1.728   2.993 -1.1404 -2.0397  0.1366
   87MYC    H3516054   6.115   1.564   2.993  2.7111 -0.1835  1.8197
   87MYC    C2116055   6.267   1.696   3.063 -0.0663  0.0435 -0.8290
   87MYC    H3616056   6.339   1.615   3.044  0.6855  0.7206 -0.9138
   87MYC    H3716057   6.318   1.791   3.043 -1.2327  0.8904  0.1285
   87MYC    C2216058   6.226   1.694   3.213 -0.3070 -0.3002 -0.3495
   87MYC    H3816059   6.136   1.754   3.232 -0.0111 -0.2557  1.0074
   87MYC    H3916060   6.195   1.590   3.227  2.3013 -1.1787 -0.6638
   87MYC    C2316061   6.336   1.736   3.313 -0.0348  0.4641  0.1035
   87MYC    H4016062   6.421   1.667   3.307 -0.4366  0.0190 -0.5340
   87MYC    H4116063   6.371   1.833   3.276  2.9532 -0.7938 -0.6263
   87MYC    C2416064   6.292   1.749   3.459  0.3314  0.9751 -0.4850
   87MYC    H4216065   6.192   1.795   3.461 -0.4055 -0.6093  0.0346
   87MYC    H4316066   6.286   1.648   3.499 -0.9159  0.7552 -1.1629
   87MYC    C2516067   6.395   1.832   3.539 -0.9578  0.0830 -0.0936
   87MYC    H4416068   6.487   1.775   3.556 -0.7751  0.7310  1.2154
   87MYC    H4516069   6.418   1.925   3.486  0.2394 -1.5538 -2.6635
   87MYC    C2616070   6.343   1.876   3.676  0.2367 -0.2467 -0.8579
   87MYC    H4616071   6.422   1.936   3.723 -1.0322  0.0538  0.9726
   87MYC    H4716072   6.249   1.933   3.677  1.1122  1.2590 -0.6728
   87MYC    C2716073   6.334   1.761   3.786  0.2126  0.2686  0.0730
   87MYC    H4816074   6.245   1.702   3.762  0.7999 -0.9922  0.8843
   87MYC    H4916075   6.422   1.697   3.774 -1.3838 -2.6639  2.5224
   87MYC    C2816076   6.319   1.818   3.927  0.0403  0.0861 -0.3227
   87MYC    H5016077   6.389   1.901   3.944  0.5997  0.0866 -2.3887
   87MYC    H5116078   6.217   1.858   3.926  0.1771  0.4639 -1.9538
   87MYC    C2916079   6.332   1.718   4.049  0.3956 -0.0874  0.5190
   87MYC    H5216080   6.262   1.635   4.036  1.3558 -1.1228  1.6498
   87MYC    H5316081   6.436   1.683   4.045  0.2306 -0.4845 -1.2083
   87MYC    C3016082   6.316   1.790   4.185  0.1280 -0.0364  0.0812
   87MYC    H5416083   6.397   1.862   4.200  0.7128 -1.2031  3.5280
   87MYC    H5516084   6.222   1.847   4.194 -0.9992 -1.5439 -1.5386
   87MYC    C3116085   6.321   1.704   4.316  0.6097  0.6196 -0.6121
   87MYC    H5616086   6.267   1.610   4.299  1.7362 -0.1804  0.1774
   87MYC    H5716087   6.418   1.663   4.346  0.2113 -0.7221 -1.0859
   87MYC    C3216088   6.264   1.787   4.435  0.0183 -0.1282 -0.4838
   87MYC    H5816089   6.305   1.889   4.435  1.5852 -0.4755 -5.2740
   87MYC    H5916090   6.157   1.803   4.417 -0.1026  0.1009  0.3939
   87MYC    C3316091   6.279   1.715   4.574 -0.0350  0.9595  0.1909
   87MYC    H6016092   6.256   1.608   4.565  0.6985  0.8023  0.0887
   87MYC    H6116093   6.387   1.705   4.591  0.0266  2.2510  0.6678
   87MYC    C3416094   6.202   1.776   4.689  0.4506 -0.3117 -0.9315
   87MYC    H6216095   6.204   1.885   4.701  1.3938 -0.3837 -0.3568
   87MYC    H6316096   6.098   1.747   4.668 -0.3934  0.3099  1.8796
   87MYC    C3516097   6.237   1.721   4.824  0.5655 -0.0904  0.2749
   87MYC    H6416098   6.210   1.615   4.815 -1.2958  0.5502 -4.8459
   87MYC    H6516099   6.346   1.725   4.820  0.6190 -1.5796 -0.3635
   87MYC    C3616100   6.167   1.788   4.944 -0.5210  0.4234  0.1828
   87MYC    H6616101   6.176   1.897   4.937  1.4489  0.4487  2.0285
   87MYC    H6716102   6.062   1.758   4.944 -0.3493 -0.1938  0.1485
   87MYC    C3716103   6.226   1.727   5.074  0.4150 -0.4196  0.2529
   87MYC    H6816104   6.208   1.619   5.068  2.7120 -0.9785  1.9729
   87MYC    H6916105   6.335   1.740   5.076  0.7480 -1.7655 -2.9646
   87MYC    C3816106   6.151   1.787   5.193 -0.6583  0.1633  0.3201
   87MYC    H7016107   6.158   1.897   5.197 -0.8453  0.3983 -3.1745
   87MYC    H7116108   6.044   1.762   5.185 -0.4061 -0.9515  0.2631
   87MYC    C3916109   6.184   1.726   5.334 -0.0528  0.7585  0.4608
   87MYC    H7216110   6.172   1.618   5.323  1.3749  0.6215  0.1319
   87MYC    H7316111   6.288   1.746   5.361  0.4984 -0.7764 -0.4444
   87MYC    C4016112   6.114   1.797   5.447 -0.1655  0.7076  0.2256
   87MYC    H7416113   6.175   1.883   5.477  2.4685 -1.1624  0.5058
   87MYC    H7516114   6.020   1.852   5.431  0.6215  1.8647 -0.5684
   87MYC    C4116115   6.102   1.707   5.573  0.5308 -0.2003  0.0863
   87MYC    H7616116   6.003   1.661   5.565  0.1159  0.8050 -0.6895
   87MYC    H7716117   6.180   1.630   5.574 -0.6786 -1.5201 -1.4483
   87MYC    C4216118   6.091   1.786   5.699 -0.2051 -0.2241  0.1102
   87MYC    H7816119   6.183   1.845   5.702  0.3538 -1.0233 -0.9729
   87MYC    H7916120   5.999   1.846   5.703 -0.7395 -1.0696  1.3519
   87MYC    C4316121   6.077   1.701   5.834 -0.6826  0.1958  0.3596
   87MYC    H8016122   5.987   1.639   5.824 -0.4809 -0.4353  2.1760
   87MYC    H8116123   6.058   1.770   5.917  1.4107  1.6624 -0.2905
   87MYC    H8216124   6.167   1.640   5.846 -0.1301  0.8859 -0.1202
   88MYC   HH1516125   0.093   2.642   5.350 -0.4943 -4.2082 -2.2208
   88MYC    C8016126   0.040   2.590   5.430 -0.1696 -0.9009  0.3870
   88MYC   H10016127   0.108   2.513   5.471  0.3656 -1.5248 -1.5738
   88MYC   H10116128   0.019   2.659   5.512 -0.4700  0.3859 -0.7423
   88MYC    C7916129  -0.086   2.513   5.385 -0.1027 -0.2080 -0.7084
   88MYC   H10216130  -0.173   2.570   5.421 -0.2030 -0.7911  0.0135
   88MYC   H10316131  -0.091   2.415   5.434  0.9810  0.7037  1.3460
   88MYC    C7816132  -0.100   2.482   5.233  0.3178 -0.2538 -0.5293
   88MYC   HH1416133  -0.025   2.405   5.213  0.5867 -0.3589  0.7927
   88MYC   H10416134  -0.099   2.575   5.175 -3.6103  0.7430  0.7030
   88MYC    C7716135  -0.233   2.423   5.208 -0.5230  0.4525 -1.4602
   88MYC   H10616136  -0.308   2.494   5.245 -0.2392  0.2152 -0.3941
   88MYC   H10716137  -0.244   2.322   5.248  3.7472 -0.5077 -2.2477
   88MYC    C7616138  -0.255   2.401   5.057  0.3595 -0.1007  0.3490
   88MYC   H10816139  -0.178   2.330   5.025  1.1550  0.4495  0.9935
   88MYC   H10916140  -0.242   2.497   5.006  0.2392 -1.2626 -1.9896
   88MYC    C7516141  -0.397   2.352   5.023  0.7769 -0.1838 -0.4228
   88MYC   H11016142  -0.474   2.422   5.058  0.6820 -0.4484 -0.0942
   88MYC   H11116143  -0.429   2.263   5.079 -0.5555  0.8676  0.5415
   88MYC    C7416144  -0.414   2.332   4.871  0.8348  0.2791  0.5705
   88MYC   H11216145  -0.346   2.394   4.812  0.6859  0.8685  1.0054
   88MYC   H11316146  -0.516   2.360   4.841 -0.2076 -1.9659  1.7404
   88MYC    C7316147  -0.400   2.186   4.820 -0.3040 -0.2855 -0.6943
   88MYC   HH1316148  -0.473   2.132   4.882 -0.2735  0.2458 -0.1825
   88MYC   H11416149  -0.296   2.154   4.836 -0.3396  0.9424  2.9507
   88MYC    C7216150  -0.437   2.167   4.672  0.6159 -0.0841 -0.2496
   88MYC   H11516151  -0.535   2.208   4.647  0.4449 -0.3599 -0.0268
   88MYC   H11616152  -0.441   2.059   4.651  0.6755 -0.1161 -0.0976
   88MYC    C7116153  -0.348   2.237   4.572  0.2888  0.4575 -0.6342
   88MYC   H11716154  -0.247   2.204   4.599 -0.3545 -0.8535  0.2667
   88MYC   H11816155  -0.345   2.345   4.592  2.6562  0.8588 -2.6148
   88MYC    C7016156  -0.389   2.211   4.426  0.3818 -0.4555 -0.7371
   88MYC   H11916157  -0.485   2.257   4.403 -0.0464 -0.9639 -0.0034
   88MYC   H12016158  -0.411   2.106   4.406 -0.2278 -0.3379 -0.6887
   88MYC    C6916159  -0.276   2.246   4.319 -0.0141 -0.4042 -0.4554
   88MYC   H12116160  -0.184   2.193   4.348 -0.3920 -1.2476 -0.7769
   88MYC   H12216161  -0.250   2.352   4.308  0.6500 -0.4652  0.3683
   88MYC    C6816162  -0.324   2.210   4.184 -0.0393 -0.8037  0.7921
   88MYC   HH1216163  -0.419   2.258   4.156  1.8622  0.9223 -3.4742
   88MYC   H12316164  -0.338   2.101   4.187 -3.2603 -0.4637  2.8809
   88MYC    C6716165  -0.226   2.239   4.065 -0.3858  0.1020 -0.3517
   88MYC   H12416166  -0.132   2.192   4.095 -0.2295  0.9329  0.5184
   88MYC   H12516167  -0.209   2.347   4.056  0.5551 -0.0180 -0.1407
   88MYC    C6616168  -0.267   2.161   3.934  0.2846 -0.4657 -0.4122
   88MYC   H12616169  -0.287   2.059   3.968 -0.5515 -0.0544  0.3762
   88MYC   H12716170  -0.178   2.154   3.870  1.0037 -0.0463  0.5293
   88MYC    C6516171  -0.397   2.207   3.866 -0.5080  0.2415 -0.0763
   88MYC   H12816172  -0.387   2.316   3.858  1.1028 -0.0017 -2.0004
   88MYC   H12916173  -0.481   2.192   3.935  0.2178 -0.2041  0.7343
   88MYC    C6416174  -0.428   2.145   3.723  0.0075 -0.9215  0.1912
   88MYC   H13016175  -0.529   2.174   3.691 -0.1311  0.9003  2.1100
   88MYC   H13116176  -0.421   2.035   3.722 -2.5984 -1.1813  1.5434
   88MYC    C6316177  -0.340   2.195   3.616  0.0084  0.0820  0.1373
   88MYC   HH1116178  -0.234   2.173   3.632  0.2474  1.2657  0.2549
   88MYC   H13216179  -0.354   2.304   3.622 -1.1081 -0.0425  0.0902
   88MYC    C6216180  -0.374   2.148   3.469  0.0275 -0.3731 -0.8072
   88MYC   H13316181  -0.482   2.156   3.456 -0.1842 -1.5789  0.1171
   88MYC   H13416182  -0.348   2.042   3.461 -0.1198 -0.3024 -2.6397
   88MYC    C6116183  -0.293   2.229   3.367  0.3283 -0.6352 -0.4640
   88MYC   H13516184  -0.291   2.334   3.398  3.0063 -0.2691 -1.6454
   88MYC   H13616185  -0.342   2.224   3.269 -1.0183 -2.6018  0.2432
   88MYC    C6016186  -0.154   2.166   3.333 -0.4309 -0.4194 -0.1969
   88MYC   H13716187  -0.157   2.058   3.316  1.8375 -0.8732  1.7752
   88MYC    C5816188  -0.066   2.240   3.247  0.6602  0.1352  0.0844
   88MYC   H13816189  -0.102   2.339   3.222 -2.0288 -0.9886 -0.8579
   88MYC    C5916190  -0.026   2.218   3.392 -0.5911 -0.6764  0.5642
   88MYC   H13916191   0.052   2.148   3.419 -0.6740 -0.1548  2.2831
   88MYC   H14016192  -0.025   2.301   3.462 -0.0966 -0.7482  0.6441
   88MYC    C5716193   0.000   2.170   3.130  0.3108 -0.0417 -0.2304
   88MYC   HH1016194   0.029   2.069   3.160  0.7146  0.0444 -0.3176
   88MYC   H14116195   0.096   2.216   3.102  1.1156  0.1800  2.5832
   88MYC    C5616196  -0.100   2.155   3.007 -0.6191 -0.3668  0.2570
   88MYC   H14216197  -0.203   2.146   3.044 -0.2567 -0.7103  1.1894
   88MYC   H14316198  -0.069   2.066   2.952  0.7639 -0.9085  1.8454
   88MYC    C5516199  -0.109   2.274   2.909  0.4900 -0.0844 -0.4407
   88MYC   H14416200  -0.100   2.368   2.964  0.4689  0.8098 -1.9023
   88MYC   H14516201  -0.208   2.286   2.863  1.1171  1.7734 -1.3849
   88MYC    C5416202  -0.004   2.295   2.797  0.1663  0.4423 -0.4407
   88MYC   H14616203   0.098   2.294   2.836 -0.2889 -1.5416  0.8604
   88MYC   H14716204  -0.028   2.396   2.761  1.7220  0.5835 -1.1536
   88MYC    C5316205  -0.019   2.199   2.673 -0.1344 -0.0038  0.1204
   88MYC   H14816206  -0.123   2.194   2.638 -0.1184 -1.1959  0.2068
   88MYC   H14916207  -0.000   2.094   2.700 -0.9886  0.0604  1.0349
   88MYC    C5216208   0.073   2.240   2.563 -0.3194  0.0874  0.3067
   88MYC    H9916209   0.176   2.240   2.600 -0.2143 -2.1594  0.1519
   88MYC   H15016210   0.056   2.345   2.536  0.0795 -0.3497 -1.7616
   88MYC    C5116211   0.062   2.151   2.428 -0.6078 -0.2604 -0.2353
   88MYC    H9716212  -0.042   2.166   2.398 -0.9933 -2.8258 -0.3727
   88MYC    H9816213   0.091   2.050   2.457 -1.9213  0.1101  2.6502
   88MYC    C5016214   0.163   2.204   2.315  0.7843  0.6542 -0.0944
   88MYC    H9516215   0.254   2.144   2.321  0.2174 -0.1012  1.4310
   88MYC    H9616216   0.179   2.310   2.337  0.8643  0.7467 -0.5812
   88MYC    C4916217   0.099   2.194   2.171  0.6401 -0.2937  0.0190
   88MYC    H9316218   0.151   2.259   2.099  1.6434 -2.5018 -1.3400
   88MYC    H9416219  -0.006   2.229   2.173  0.6775 -0.2157  0.9599
   88MYC    C4816220   0.098   2.049   2.117  0.6636 -0.3436  0.2165
   88MYC    H9116221   0.072   1.977   2.196  1.0344 -0.4976  0.1984
   88MYC    H9216222   0.204   2.025   2.099  1.5248  1.6955  2.0956
   88MYC    C4716223   0.024   2.032   1.982 -0.0906  0.7767  0.2461
   88MYC    H8916224   0.098   2.063   1.907 -0.1586  0.2077 -0.0607
   88MYC    H9016225  -0.052   2.111   1.974 -0.5502  0.1799 -1.9175
   88MYC    C4616226  -0.031   1.898   1.941  0.2564  0.8063 -0.5004
   88MYC    H8716227  -0.079   1.843   2.023  0.0887 -1.9237 -2.3041
   88MYC    H8816228   0.046   1.834   1.896 -0.2625  0.2633 -0.6292
   88MYC    C4516229  -0.144   1.918   1.835 -0.1816  0.2090 -0.6792
   88MYC    H8516230  -0.109   1.965   1.742 -1.8450  0.2751 -1.2939
   88MYC    H8616231  -0.229   1.978   1.868  0.2564  0.1074  0.7298
   88MYC    C4416232  -0.213   1.785   1.787  0.2792 -0.4512  0.7022
   88MYC    H8316233  -0.308   1.808   1.739  0.6430  1.9282  0.9900
   88MYC    H8416234  -0.230   1.729   1.880 -0.4750 -1.1320  0.1693
   88MYC    C1816235  -0.136   1.707   1.688 -0.1082 -0.2878  0.3163
   88MYC    H3116236  -0.113   1.774   1.605 -1.0475  0.2421  0.4659
   88MYC    C1716237  -0.032   1.604   1.721 -0.0082 -0.2628 -0.0485
   88MYC    H3016238  -0.011   1.575   1.823  1.6021  1.9744  0.3099
   88MYC    C1916239  -0.162   1.554   1.671  0.0339  0.5094  0.3418
   88MYC    H3216240  -0.214   1.492   1.744 -2.0572 -0.6476 -1.9587
   88MYC    H3316241  -0.168   1.505   1.574 -2.4645 -1.5326  1.3986
   88MYC    C1616242   0.095   1.581   1.645 -0.6244  0.6465 -0.1099
   88MYC    H2816243   0.092   1.587   1.535 -0.2458 -0.4702 -0.1995
   88MYC    H2916244   0.118   1.475   1.663 -0.6351  0.6139 -0.2857
   88MYC    C1516245   0.216   1.672   1.701  0.9389  0.3076 -0.1997
   88MYC    H2616246   0.312   1.623   1.685  1.1590  0.7872 -0.3587
   88MYC    H2716247   0.210   1.671   1.811  0.1041 -0.0696 -0.2348
   88MYC    C1416248   0.214   1.812   1.652 -0.9483 -0.3945 -0.8912
   88MYC    H2416249   0.126   1.866   1.689  0.9292  0.8451  2.0884
   88MYC    H2516250   0.208   1.831   1.544  0.4687  5.8091 -0.2471
   88MYC    C1316251   0.326   1.895   1.721 -0.0620 -0.1739 -0.3078
   88MYC    H2216252   0.419   1.847   1.689  0.2313 -2.9084  3.8677
   88MYC    H2316253   0.322   1.884   1.830 -2.5719 -0.1185 -0.3164
   88MYC    C1216254   0.328   2.050   1.677  0.2037  0.5449  0.0096
   88MYC    H2016255   0.230   2.099   1.672  0.2331  0.5433 -0.6966
   88MYC    H2116256   0.365   2.033   1.575 -0.8682  0.3409 -0.3568
   88MYC    C1116257   0.420   2.135   1.762 -0.5997 -0.5256 -1.3407
   88MYC    H1816258   0.412   2.236   1.720 -0.3792  0.1230  0.1128
   88MYC    H1916259   0.524   2.103   1.750 -0.1815 -0.0967  0.7050
   88MYC    C1016260   0.398   2.153   1.912  0.3173  0.2607 -0.0861
   88MYC    H1616261   0.387   2.055   1.961  1.1359  0.5072  0.6100
   88MYC    H1716262   0.296   2.191   1.924  1.4146  4.1275 -1.7317
   88MYC     C916263   0.514   2.220   1.985 -0.4269 -1.3829 -0.1161
   88MYC    H1416264   0.518   2.323   1.945  0.3307 -1.8825 -1.4050
   88MYC    H1516265   0.612   2.175   1.968 -0.2451 -1.7109  1.6490
   88MYC     C816266   0.486   2.229   2.145  0.9698 -0.3400 -0.1981
   88MYC    H1216267   0.464   2.125   2.173 -0.7572 -0.5120 -1.9666
   88MYC    H1316268   0.392   2.281   2.167  0.3583 -1.5940  0.2902
   88MYC     C716269   0.602   2.304   2.220  0.5734 -0.0513 -0.0614
   88MYC    H1016270   0.614   2.400   2.169  0.6820 -0.6417 -1.1840
   88MYC    H1116271   0.692   2.243   2.204 -0.0005 -1.0259  0.3288
   88MYC     C616272   0.604   2.318   2.372  0.3627 -0.5477  0.0713
   88MYC     H816273   0.703   2.353   2.402  0.1865 -1.9147  2.5437
   88MYC     H916274   0.597   2.216   2.412  1.6386 -1.3035 -1.5159
   88MYC     C516275   0.493   2.408   2.419  0.3455 -0.3224 -0.5303
   88MYC     H616276   0.395   2.360   2.411  0.2976 -0.0405 -1.8649
   88MYC     H716277   0.505   2.497   2.355  5.1359 -0.5011 -0.2302
   88MYC     C416278   0.499   2.469   2.562  0.2043  0.1575 -0.2290
   88MYC     H416279   0.439   2.561   2.566 -0.7895 -0.4746 -0.2510
   88MYC     H516280   0.599   2.513   2.573  0.7429 -1.0367 -0.2645
   88MYC     C216281   0.475   2.374   2.672  0.5104 -0.0525  0.2364
   88MYC     H216282   0.385   2.315   2.651  0.6150  0.4777 -1.9914
   88MYC     O316283   0.585   2.284   2.686 -0.3688 -0.0447 -0.1814
   88MYC     H316284   0.664   2.339   2.702 -1.2765  1.4717 -0.7353
   88MYC     C116285   0.440   2.444   2.808  0.2979 -0.5739  0.2202
   88MYC     H116286   0.339   2.482   2.787  0.2279 -1.2284 -0.7015
   88MYC    C8116287   0.524   2.568   2.830  0.1528  0.1472  0.4372
   88MYC    O8216288   0.486   2.685   2.835  0.2441 -0.1922  0.4119
   88MYC    O8316289   0.651   2.529   2.866  0.1200 -0.1410  0.0307
   88MYC   H10516290   0.682   2.602   2.922 -2.3195 -1.7197  3.9179
   88MYC    C2016291   0.429   2.349   2.935 -0.6676 -0.4280 -0.0808
   88MYC    H3416292   0.386   2.256   2.898  0.2828 -1.1363  0.5640
   88MYC    H3516293   0.525   2.311   2.971 -0.6030 -0.0841  0.1210
   88MYC    C2116294   0.355   2.411   3.060 -0.1469  0.4514  0.0245
   88MYC    H3616295   0.384   2.513   3.086  0.9759  0.0319  0.5043
   88MYC    H3716296   0.251   2.409   3.026 -0.4286  0.4010  0.8567
   88MYC    C2216297   0.377   2.335   3.189 -0.6186  0.3167 -0.2370
   88MYC    H3816298   0.349   2.230   3.175 -0.3460  0.2149 -0.0055
   88MYC    H3916299   0.484   2.350   3.208 -0.2238 -1.6587 -0.7505
   88MYC    C2316300   0.303   2.391   3.317  0.2289  0.4906  0.5901
   88MYC    H4016301   0.330   2.495   3.337 -1.5084  0.9565  0.6100
   88MYC    H4116302   0.198   2.387   3.287  0.5444  0.5174 -0.6076
   88MYC    C2416303   0.343   2.302   3.441  0.3802  0.0974 -0.4823
   88MYC    H4216304   0.298   2.203   3.427 -0.7063  0.5035 -0.0116
   88MYC    H4316305   0.451   2.287   3.451  0.3369  0.9204  1.6496
   88MYC    C2516306   0.300   2.362   3.574  0.3698  0.0965 -0.2428
   88MYC    H4416307   0.367   2.445   3.601  1.9173 -2.1624  3.6495
   88MYC    H4516308   0.197   2.398   3.562 -0.7528 -3.0415 -1.0397
   88MYC    C2616309   0.308   2.269   3.694  0.6348 -0.2776 -0.0553
   88MYC    H4616310   0.256   2.178   3.663  0.3921  0.5214 -2.1260
   88MYC    H4716311   0.409   2.243   3.726 -0.7445 -2.7589  2.8359
   88MYC    C2716312   0.246   2.317   3.832 -0.1254 -0.5625 -0.1539
   88MYC    H4816313   0.301   2.408   3.859 -0.8308 -0.7217  2.0419
   88MYC    H4916314   0.142   2.344   3.808 -0.9365 -2.3647  1.0767
   88MYC    C2816315   0.245   2.214   3.948 -0.0937  0.5850  0.0560
   88MYC    H5016316   0.192   2.123   3.916  0.4028  0.7774 -1.4133
   88MYC    H5116317   0.348   2.179   3.955 -0.0130  0.1056 -2.4697
   88MYC    C2916318   0.188   2.275   4.087 -0.4771 -0.9038  0.6236
   88MYC    H5216319   0.237   2.372   4.098 -0.4181 -0.8616  0.0270
   88MYC    H5316320   0.082   2.303   4.078 -0.3186 -0.0171  1.3672
   88MYC    C3016321   0.196   2.180   4.199  0.1894 -0.0481 -0.5733
   88MYC    H5416322   0.147   2.086   4.171  1.5889 -1.3887  1.2249
   88MYC    H5516323   0.302   2.157   4.210  0.0938 -0.1129  0.2263
   88MYC    C3116324   0.155   2.239   4.336 -0.0432  0.0840 -0.7434
   88MYC    H5616325   0.204   2.331   4.369 -0.3406  0.0252 -0.0997
   88MYC    H5716326   0.057   2.288   4.340  1.5429  3.5332 -0.4154
   88MYC    C3216327   0.170   2.135   4.441  0.0749  0.0516  0.3167
   88MYC    H5816328   0.130   2.041   4.403 -1.2621  0.8810 -0.4008
   88MYC    H5916329   0.275   2.113   4.462  0.3330 -1.9001 -2.4371
   88MYC    C3316330   0.107   2.167   4.579  0.0813  0.4929  0.0321
   88MYC    H6016331   0.123   2.268   4.618 -1.3571  0.9371 -0.4373
   88MYC    H6116332  -0.001   2.171   4.558 -0.1375  0.7098  1.1318
   88MYC    C3416333   0.120   2.068   4.699 -0.5609 -0.4800  0.6542
   88MYC    H6216334   0.094   1.964   4.675  1.5768 -1.1200  0.8495
   88MYC    H6316335   0.226   2.048   4.722 -0.8864 -1.1244  1.6204
   88MYC    C3516336   0.037   2.104   4.824 -0.6253 -0.5612  0.1305
   88MYC    H6416337   0.027   2.213   4.823 -1.0506 -0.6046 -0.9004
   88MYC    H6516338  -0.063   2.067   4.802 -0.3797 -0.8115 -0.5909
   88MYC    C3616339   0.099   2.057   4.956  0.6705 -0.9355  0.0657
   88MYC    H6616340   0.089   1.948   4.963  3.2657 -1.2338  0.0333
   88MYC    H6716341   0.207   2.077   4.964  0.9061 -1.6766 -1.0825
   88MYC    C3716342   0.017   2.116   5.077  0.2914  1.3444  0.0196
   88MYC    H6816343   0.027   2.225   5.085  1.1180  1.2149  0.8109
   88MYC    H6916344  -0.090   2.091   5.070  0.9768 -1.6618 -1.8455
   88MYC    C3816345   0.068   2.044   5.215  0.5629 -0.8321 -0.0481
   88MYC    H7016346   0.057   1.935   5.208 -2.0039 -0.6753  0.5176
   88MYC    H7116347   0.174   2.073   5.221  0.3586  0.2593 -1.2809
   88MYC    C3916348  -0.011   2.099   5.334  0.0825  0.1723  0.0255
   88MYC    H7216349   0.005   2.207   5.349  0.0354  0.2732 -0.6323
   88MYC    H7316350  -0.118   2.088   5.314  0.4994  1.0500 -3.1642
   88MYC    C4016351   0.036   2.029   5.462 -0.6797 -0.3114  0.6674
   88MYC    H7416352  -0.010   1.930   5.460 -0.5096 -0.3809  0.0704
   88MYC    H7516353   0.145   2.020   5.452 -0.9798 -2.1433 -1.7325
   88MYC    C4116354   0.000   2.095   5.597 -0.1510 -0.1134  0.0180
   88MYC    H7616355   0.065   2.183   5.604  0.2691 -0.4491  0.3768
   88MYC    H7716356  -0.107   2.117   5.594  0.3380  2.5651 -1.8882
   88MYC    C4216357   0.023   2.009   5.719 -0.2909 -0.5263 -0.0641
   88MYC    H7816358  -0.048   1.925   5.717 -0.9320  0.0068 -0.1204
   88MYC    H7916359   0.126   1.976   5.734 -0.4832 -1.3910 -0.5950
   88MYC    C4316360  -0.024   2.080   5.845  0.5753 -0.0733  0.1967
   88MYC    H8016361   0.012   2.022   5.930  0.2573 -2.9002 -1.4556
   88MYC    H8116362  -0.133   2.090   5.837  0.6642  0.9040  0.0536
   88MYC    H8216363   0.028   2.176   5.856  0.5192 -0.1890  1.6298
   89MYC   HH1516364   5.481   1.943   5.723  0.4385  1.8625 -1.0376
   89MYC    C8016365   5.419   1.973   5.807  0.4871 -0.4480 -0.1125
   89MYC   H10016366   5.318   1.938   5.783 -0.0634  1.1993 -0.3350
   89MYC   H10116367   5.444   1.924   5.902  1.6845  0.9780  0.3336
   89MYC    C7916368   5.427   2.133   5.819  0.0551  0.3594 -0.4884
   89MYC   H10216369   5.531   2.164   5.834  0.3733 -1.3821  1.3385
   89MYC   H10316370   5.381   2.146   5.918  2.0707 -2.3716  0.9495
   89MYC    C7816371   5.357   2.222   5.705  0.4132 -0.1314  0.0823
   89MYC   HH1416372   5.342   2.327   5.735  1.5987  1.8200 -5.0206
   89MYC   H10416373   5.258   2.189   5.671 -0.4981  2.8385 -0.4712
   89MYC    C7716374   5.440   2.218   5.580  0.1421 -0.3857  0.0751
   89MYC   H10616375   5.429   2.118   5.536  2.1155 -1.4959  1.9030
   89MYC   H10716376   5.547   2.226   5.605  0.3316 -0.0280 -0.8088
   89MYC    C7616377   5.397   2.320   5.479 -0.3737 -0.7792 -0.4284
   89MYC   H10816378   5.400   2.424   5.514  0.0599 -1.0755  0.4770
   89MYC   H10916379   5.292   2.300   5.456 -0.1998 -1.8529 -0.3687
   89MYC    C7516380   5.473   2.315   5.346  0.3482 -0.1170 -0.0024
   89MYC   H11016381   5.443   2.220   5.300  0.5667 -0.3770  0.3823
   89MYC   H11116382   5.579   2.303   5.374  0.0281 -0.7530  1.0168
   89MYC    C7416383   5.445   2.426   5.249  0.1680 -0.8737  0.3882
   89MYC   H11216384   5.466   2.525   5.292  0.6806 -1.1630  0.8133
   89MYC   H11316385   5.342   2.433   5.214  0.9091  3.3220 -1.6005
   89MYC    C7316386   5.525   2.408   5.122  0.2394  0.0619  0.2804
   89MYC   HH1316387   5.482   2.317   5.079 -0.4979  0.2331  0.6362
   89MYC   H11416388   5.623   2.376   5.159  0.1265 -0.2727  0.2891
   89MYC    C7216389   5.534   2.515   5.009  0.2484 -0.4677 -0.3183
   89MYC   H11516390   5.553   2.611   5.059 -0.5755  0.1701 -1.1859
   89MYC   H11616391   5.441   2.519   4.951  0.6922  0.3598 -0.9936
   89MYC    C7116392   5.661   2.497   4.907  0.4025  0.1925 -0.3573
   89MYC   H11716393   5.692   2.392   4.897  1.9855  0.6732 -0.7607
   89MYC   H11816394   5.751   2.534   4.956 -0.2368  2.2287 -0.6065
   89MYC    C7016395   5.650   2.579   4.778  0.4658  0.0938 -0.3436
   89MYC   H11916396   5.673   2.681   4.812  1.1949  0.0804 -0.7723
   89MYC   H12016397   5.549   2.572   4.738 -0.0250  1.6191  0.5190
   89MYC    C6916398   5.752   2.542   4.678 -0.6193 -0.2408  0.1467
   89MYC   H12116399   5.730   2.442   4.640 -0.9417 -0.5037  1.0083
   89MYC   H12216400   5.848   2.537   4.730  1.3778  0.1045 -3.2156
   89MYC    C6816401   5.761   2.635   4.554  0.7687  0.2869 -0.7027
   89MYC   HH1216402   5.772   2.735   4.600  2.2253  0.1279 -0.6668
   89MYC   H12316403   5.666   2.641   4.500  0.3473  1.7633  0.1085
   89MYC    C6716404   5.873   2.599   4.456 -0.1723 -0.1289 -0.0055
   89MYC   H12416405   5.875   2.491   4.437  1.4209 -0.3764  1.3286
   89MYC   H12516406   5.963   2.627   4.513  0.2351  3.4447 -2.0947
   89MYC    C6616407   5.878   2.692   4.327  0.8780 -0.3650  0.2436
   89MYC   H12616408   5.901   2.795   4.357 -0.5330 -0.5820  2.2886
   89MYC   H12716409   5.777   2.693   4.284  1.7268  0.5390 -1.8565
   89MYC    C6516410   5.983   2.643   4.214  0.5458  0.5042 -0.1923
   89MYC   H12816411   5.950   2.686   4.119  0.0790  1.3550  0.3406
   89MYC   H12916412   5.992   2.535   4.203  2.5104  0.6520 -0.4199
   89MYC    C6416413   6.125   2.687   4.230  0.7114 -0.1425  0.4371
   89MYC   H13016414   6.151   2.680   4.336 -0.5420  1.5791  0.9135
   89MYC   H13116415   6.131   2.794   4.206  0.4884 -0.4251 -0.9453
   89MYC    C6316416   6.219   2.621   4.130 -0.4526 -0.1028  0.2105
   89MYC   HH1116417   6.223   2.522   4.177  0.2704 -0.8055 -1.2706
   89MYC   H13216418   6.321   2.659   4.138  0.4860 -2.0247 -1.8394
   89MYC    C6216419   6.188   2.631   3.978 -0.3723 -0.2201  0.9869
   89MYC   H13316420   6.111   2.708   3.971 -1.1154 -0.9681  0.7228
   89MYC   H13416421   6.148   2.538   3.936  3.2763 -1.2625 -0.5710
   89MYC    C6116422   6.309   2.660   3.889 -0.2614 -0.2426  0.1382
   89MYC   H13516423   6.386   2.586   3.913  1.6204  1.5850  0.0397
   89MYC   H13616424   6.340   2.764   3.908  3.3225 -1.3151  0.9484
   89MYC    C6016425   6.273   2.646   3.743 -0.2100 -0.5520 -0.1611
   89MYC   H13716426   6.209   2.727   3.707 -0.5592  1.4759  4.3679
   89MYC    C5816427   6.374   2.613   3.639  0.4707  0.3585 -0.0132
   89MYC   H13816428   6.470   2.583   3.681 -0.2032 -0.8964  0.6512
   89MYC    C5916429   6.257   2.515   3.673 -1.0482 -1.0522  0.4036
   89MYC   H13916430   6.173   2.516   3.604 -0.3176 -1.5166 -0.5121
   89MYC   H14016431   6.294   2.423   3.716  1.3261 -0.3329  0.0778
   89MYC    C5716432   6.364   2.701   3.510  0.3098 -0.0302  0.3979
   89MYC   HH1016433   6.427   2.790   3.518 -1.0194  0.9278  0.6244
   89MYC   H14116434   6.260   2.733   3.492  0.0984 -0.0928  1.4397
   89MYC    C5616435   6.413   2.628   3.386  0.0102 -0.7065 -0.1733
   89MYC   H14216436   6.350   2.539   3.375 -0.5756 -0.1650 -1.4154
   89MYC   H14316437   6.512   2.586   3.406  0.0470  0.4059  2.4219
   89MYC    C5516438   6.413   2.714   3.260  0.7516 -0.4571 -0.3740
   89MYC   H14416439   6.430   2.820   3.279 -1.1787 -0.0353 -0.7034
   89MYC   H14516440   6.312   2.704   3.216  0.2600 -1.7158  0.9712
   89MYC    C5416441   6.505   2.679   3.151 -0.0819  0.1840 -0.3088
   89MYC   H14616442   6.527   2.573   3.136  0.7794  0.4663 -1.0618
   89MYC   H14716443   6.601   2.721   3.184 -0.3817  2.1434 -1.7514
   89MYC    C5316444   6.459   2.740   3.018 -0.1360 -0.6428  0.9787
   89MYC   H14816445   6.446   2.849   3.024  1.0718 -0.4345  0.1774
   89MYC   H14916446   6.362   2.695   2.990 -0.6795 -0.3785  2.3792
   89MYC    C5216447   6.556   2.703   2.906 -0.1247 -0.1832 -0.3240
   89MYC    H9916448   6.590   2.599   2.906  1.2493  0.2365  0.8933
   89MYC   H15016449   6.648   2.757   2.932 -0.3007 -0.8577  1.9227
   89MYC    C5116450   6.509   2.753   2.770  0.3364 -0.5017 -0.2505
   89MYC    H9716451   6.499   2.862   2.769 -3.4508 -0.7080 -2.0852
   89MYC    H9816452   6.405   2.727   2.747 -0.6520  2.0182  1.0070
   89MYC    C5016453   6.594   2.689   2.662  0.5203  0.0505 -0.5621
   89MYC    H9516454   6.593   2.579   2.663  1.0231  0.0348  0.6155
   89MYC    H9616455   6.698   2.722   2.674  1.2478 -2.0731 -0.6096
   89MYC    C4916456   6.551   2.728   2.516  0.4948 -0.5682 -0.1361
   89MYC    H9316457   6.568   2.834   2.491  0.2856 -0.2449  1.0167
   89MYC    H9416458   6.447   2.699   2.497  0.1600  1.4242 -1.6892
   89MYC    C4816459   6.637   2.649   2.419  0.0737  0.7974  0.0760
   89MYC    H9116460   6.636   2.541   2.433  0.8279  0.8643  0.7103
   89MYC    H9216461   6.740   2.687   2.416  0.1499  0.7240  1.2697
   89MYC    C4716462   6.570   2.672   2.284 -0.0069  0.0530  0.8274
   89MYC    H8916463   6.568   2.779   2.261 -3.1482  0.0848  0.8541
   89MYC    H9016464   6.468   2.632   2.291  0.8354 -2.5986 -0.5227
   89MYC    C4616465   6.638   2.597   2.171 -0.5271 -1.2629  0.0172
   89MYC    H8716466   6.632   2.489   2.192 -0.3618 -0.7767  3.0621
   89MYC    H8816467   6.743   2.627   2.162 -0.8385 -0.4490 -1.0909
   89MYC    C4516468   6.582   2.646   2.037  0.3677 -0.0440 -0.0569
   89MYC    H8516469   6.589   2.755   2.043  1.1488 -0.1429  1.3968
   89MYC    H8616470   6.478   2.615   2.023  0.6529 -0.3856 -1.6301
   89MYC    C4416471   6.660   2.594   1.919  0.7725  0.3746 -0.2992
   89MYC    H8316472   6.591   2.588   1.835 -0.8837 -0.8159  1.0687
   89MYC    H8416473   6.679   2.487   1.933 -0.3976  0.2824  0.8131
   89MYC    C1816474   6.786   2.670   1.889 -1.3838 -0.1795  0.4436
   89MYC    H3116475   6.774   2.778   1.884  2.4055  0.3164 -1.0827
   89MYC    C1716476   6.923   2.625   1.948  0.3563  0.3832  0.4853
   89MYC    H3016477   6.912   2.534   2.006  0.9473 -2.0998 -2.9732
   89MYC    C1916478   6.897   2.617   1.796 -0.0226  0.5855  0.1724
   89MYC    H3216479   6.869   2.515   1.768 -2.4159  0.3528  2.8778
   89MYC    H3316480   6.950   2.688   1.734 -2.2890  0.9902 -1.4318
   89MYC    C1616481   7.025   2.729   2.002  0.2714 -1.1934  0.5422
   89MYC    H2816482   7.029   2.806   1.925 -3.2954 -1.4037 -0.0257
   89MYC    H2916483   7.120   2.674   2.006  1.4548  0.7857  0.6419
   89MYC    C1516484   6.990   2.783   2.146  0.0669 -0.5780  0.7426
   89MYC    H2616485   7.024   2.702   2.211  1.9355 -0.8846 -0.5478
   89MYC    H2716486   6.886   2.814   2.162  0.3007 -0.0640  1.2984
   89MYC    C1416487   7.075   2.908   2.181 -0.0141  0.1989  0.0057
   89MYC    H2416488   7.022   3.000   2.154 -0.9219  0.0063  1.0526
   89MYC    H2516489   7.173   2.899   2.133  0.2076  2.3702 -0.0323
   89MYC    C1316490   7.102   2.926   2.332 -0.3145 -0.1127 -0.1897
   89MYC    H2216491   7.183   2.998   2.349 -0.5354 -0.2195  1.5680
   89MYC    H2316492   7.143   2.838   2.383  0.6282  0.3555 -0.1158
   89MYC    C1216493   6.983   2.981   2.407  0.2563 -0.1295  0.6638
   89MYC    H2016494   6.909   2.900   2.407  0.7083 -0.5811 -1.3296
   89MYC    H2116495   6.931   3.069   2.367  0.9204 -0.5891 -1.3044
   89MYC    C1116496   7.024   2.992   2.560  0.3331 -0.1540 -0.1141
   89MYC    H1816497   7.091   3.078   2.567 -1.0965  1.3034 -2.8220
   89MYC    H1916498   7.070   2.898   2.593 -0.2479 -0.8419 -1.1958
   89MYC    C1016499   6.903   3.026   2.652 -0.4763  0.2281  0.4901
   89MYC    H1616500   6.830   2.946   2.637  0.8311 -0.7530 -0.8806
   89MYC    H1716501   6.859   3.123   2.626 -0.1196  0.1972 -0.2421
   89MYC     C916502   6.937   3.038   2.806 -0.3097  0.4053 -0.1380
   89MYC    H1416503   7.029   3.094   2.827  1.6238 -1.8543 -1.9061
   89MYC    H1516504   6.957   2.943   2.857 -1.7281  1.2327  2.1072
   89MYC     C816505   6.826   3.120   2.878  0.4051 -0.5587 -0.0677
   89MYC    H1216506   6.732   3.072   2.847  1.1914 -1.7341 -0.7604
   89MYC    H1316507   6.814   3.221   2.837  1.9739 -0.9833 -1.6944
   89MYC     C716508   6.837   3.120   3.038 -0.4083 -0.5541 -0.3987
   89MYC    H1016509   6.938   3.140   3.076 -0.6206  0.8439 -0.5289
   89MYC    H1116510   6.812   3.019   3.072  1.6595 -0.9391  0.1306
   89MYC     C616511   6.746   3.223   3.100 -0.7495 -0.2459 -0.8610
   89MYC     H816512   6.645   3.226   3.059 -1.0985  0.3454  0.0129
   89MYC     H916513   6.793   3.316   3.066 -0.8211 -0.6010 -1.9925
   89MYC     C516514   6.740   3.210   3.256  0.5711 -0.2216  0.3169
   89MYC     H616515   6.718   3.308   3.300 -1.5685 -0.9869  1.0941
   89MYC     H716516   6.837   3.191   3.302  1.4513 -2.2239 -2.1322
   89MYC     C416517   6.637   3.101   3.299  0.3757  0.4550  0.3568
   89MYC     H416518   6.683   3.002   3.306  0.7710  0.4919 -1.4176
   89MYC     H516519   6.563   3.085   3.220  1.2617 -1.8027 -0.1002
   89MYC     C216520   6.565   3.137   3.433  0.1377  0.2694 -0.7384
   89MYC     H216521   6.500   3.225   3.430 -2.0453 -1.1582  1.3505
   89MYC     O316522   6.476   3.028   3.446 -0.1187  0.7436  0.2700
   89MYC     H316523   6.529   2.956   3.486  1.0682  0.9111 -0.9583
   89MYC     C116524   6.649   3.161   3.559  0.3061 -0.1254 -0.0102
   89MYC     H116525   6.705   3.254   3.549 -1.8248  1.4195  1.6225
   89MYC    C8116526   6.748   3.043   3.578 -0.8200 -0.1993 -0.5162
   89MYC    O8216527   6.718   2.923   3.593 -0.0926 -0.7278  0.3039
   89MYC    O8316528   6.870   3.094   3.614 -0.5624 -0.3253  0.1717
   89MYC   H10516529   6.922   3.017   3.644  1.6973  1.2377  0.5569
   89MYC    C2016530   6.553   3.184   3.682 -0.6965  0.2401 -0.2900
   89MYC    H3416531   6.595   3.270   3.735  1.8520  0.9591 -3.1293
   89MYC    H3516532   6.449   3.213   3.662 -0.2338  1.3872 -1.1710
   89MYC    C2116533   6.560   3.076   3.786 -0.0311  1.1396 -0.3017
   89MYC    H3616534   6.538   2.980   3.739 -0.7530  0.2892  1.6902
   89MYC    H3716535   6.657   3.064   3.836 -0.0903 -4.5696 -0.9150
   89MYC    C2216536   6.451   3.093   3.900  0.2425  0.0510  0.8912
   89MYC    H3816537   6.453   3.002   3.962 -2.0357 -1.6330 -1.2824
   89MYC    H3916538   6.471   3.173   3.971 -1.8594 -0.2309  1.8953
   89MYC    C2316539   6.305   3.095   3.842 -0.3860  0.3520  0.4155
   89MYC    H4016540   6.278   3.193   3.801 -1.0228  0.7090  1.6390
   89MYC    H4116541   6.303   3.030   3.754 -1.2805  0.8997  0.0180
   89MYC    C2416542   6.195   3.045   3.938  0.2379 -0.3963 -0.3053
   89MYC    H4216543   6.209   2.944   3.978  0.0620  0.2987  1.6118
   89MYC    H4316544   6.202   3.106   4.029  1.7993 -0.0758 -0.6175
   89MYC    C2516545   6.053   3.059   3.879  0.0296  0.3297  0.6048
   89MYC    H4416546   6.036   3.166   3.861 -1.2461  0.6299  3.1762
   89MYC    H4516547   6.036   2.988   3.798  0.4548  0.7590  0.1284
   89MYC    C2616548   5.940   3.038   3.989 -0.0689 -0.3607 -0.8061
   89MYC    H4616549   5.931   2.930   4.008  1.4866 -0.8563 -2.5465
   89MYC    H4716550   5.970   3.099   4.075  1.5364  2.4898 -3.1914
   89MYC    C2716551   5.791   3.073   3.946  0.4178  0.2815 -0.0104
   89MYC    H4816552   5.793   3.180   3.922 -0.9748  0.7820  1.8909
   89MYC    H4916553   5.753   3.022   3.857 -0.7533 -2.7666  2.0517
   89MYC    C2816554   5.687   3.075   4.056 -0.3489  0.6582  0.2813
   89MYC    H5016555   5.708   3.158   4.123 -0.6741  1.1730 -0.2469
   89MYC    H5116556   5.588   3.105   4.020 -1.5373 -2.0352  1.0262
   89MYC    C2916557   5.668   2.948   4.145  0.4144 -0.3773  0.2820
   89MYC    H5216558   5.649   2.858   4.086  0.7326  0.3599 -1.0015
   89MYC    H5316559   5.753   2.930   4.212 -0.7062  0.6764  2.0843
   89MYC    C3016560   5.548   2.970   4.242 -0.7836  0.2161 -0.1846
   89MYC    H5416561   5.550   3.074   4.278 -0.7055  0.2323 -0.2362
   89MYC    H5516562   5.450   2.962   4.194 -0.4940  0.0979 -0.7622
   89MYC    C3116563   5.545   2.879   4.369 -0.2983 -0.6928  0.0514
   89MYC    H5616564   5.544   2.771   4.351  0.5606 -0.7366  0.2311
   89MYC    H5716565   5.634   2.900   4.428  0.4507 -4.3327  0.4242
   89MYC    C3216566   5.429   2.920   4.456  0.4176 -0.2844  0.3120
   89MYC    H5816567   5.448   3.021   4.496 -1.2322  0.3135 -0.3337
   89MYC    H5916568   5.335   2.930   4.401 -0.1391  1.6880  1.5061
   89MYC    C3316569   5.404   2.826   4.577 -0.0458 -0.0488 -0.0478
   89MYC    H6016570   5.347   2.745   4.530 -1.2374  1.2400 -0.9108
   89MYC    H6116571   5.496   2.798   4.631 -0.0709  0.1265  0.0888
   89MYC    C3416572   5.308   2.879   4.693 -0.5595  0.3272  0.0037
   89MYC    H6216573   5.347   2.973   4.733 -1.9101  0.4869  1.0004
   89MYC    H6316574   5.210   2.893   4.646 -0.5165 -1.6163 -0.7466
   89MYC    C3516575   5.318   2.770   4.802  0.0964  0.3168  0.2090
   89MYC    H6416576   5.306   2.672   4.755 -0.3992  1.4066 -2.0975
   89MYC    H6516577   5.419   2.759   4.843 -0.4118 -0.5987  1.2515
   89MYC    C3616578   5.220   2.817   4.909  0.1193  0.6315 -0.3165
   89MYC    H6616579   5.271   2.896   4.964  1.1816 -1.0363  1.1969
   89MYC    H6716580   5.128   2.859   4.866  0.8025  2.1089 -0.4039
   89MYC    C3716581   5.181   2.703   5.004 -0.0163  0.3971  0.5156
   89MYC    H6816582   5.116   2.627   4.960  2.8438 -1.8354 -0.0845
   89MYC    H6916583   5.270   2.651   5.039  1.1648  2.5070  0.8170
   89MYC    C3816584   5.115   2.745   5.141 -0.1953 -0.6759 -0.5550
   89MYC    H7016585   5.162   2.837   5.176 -0.9508 -0.7983  0.8385
   89MYC    H7116586   5.014   2.773   5.108 -0.3557  0.4802  0.8329
   89MYC    C3916587   5.099   2.633   5.244 -0.9190 -0.1196  0.4301
   89MYC    H7216588   5.057   2.544   5.198 -2.5906 -1.0330  3.4309
   89MYC    H7316589   5.195   2.603   5.288 -0.0020  1.2617 -0.5288
   89MYC    C4016590   5.019   2.679   5.372 -0.2033  0.5962 -0.1126
   89MYC    H7416591   5.056   2.777   5.404  1.1045  0.4964 -1.1979
   89MYC    H7516592   4.916   2.686   5.335 -0.3377 -0.3127  0.0694
   89MYC    C4116593   5.001   2.568   5.479 -0.0221  0.5350  0.1316
   89MYC    H7616594   4.973   2.472   5.435  1.6832  1.1631 -2.6005
   89MYC    H7716595   5.103   2.552   5.516 -0.7497  2.1628  3.1628
   89MYC    C4216596   4.905   2.612   5.595 -0.9383 -0.5821 -0.0239
   89MYC    H7816597   4.941   2.703   5.643 -0.0376  0.5559 -2.6464
   89MYC    H7916598   4.808   2.635   5.548 -0.6435  0.0676 -0.3304
   89MYC    C4316599   4.877   2.516   5.705  0.7006 -0.0452  0.1942
   89MYC    H8016600   4.841   2.418   5.671 -4.0551  1.9783 -1.4225
   89MYC    H8116601   4.799   2.561   5.766 -0.1426  0.5773 -1.2850
   89MYC    H8216602   4.970   2.503   5.761  0.7506 -2.8502 -0.3840
   90MYC   HH1516603   5.346   3.290   5.975  1.2407  0.8974  1.1634
   90MYC    C8016604   5.420   3.215   5.947 -0.1801 -0.0737 -0.1154
   90MYC   H10016605   5.515   3.255   5.985 -0.8569 -0.5937  2.2992
   90MYC   H10116606   5.392   3.128   6.007 -0.3568  0.0499 -0.0172
   90MYC    C7916607   5.416   3.188   5.796 -0.7407 -0.9496 -0.0932
   90MYC   H10216608   5.318   3.150   5.766  0.6467 -3.5247 -1.7371
   90MYC   H10316609   5.478   3.101   5.771 -1.4850 -1.0790 -1.5878
   90MYC    C7816610   5.464   3.318   5.719 -0.0215  0.1360 -0.6556
   90MYC   HH1416611   5.560   3.357   5.756  0.3599 -1.6281  0.3008
   90MYC   H10416612   5.396   3.403   5.731 -1.5202 -1.1003 -0.2481
   90MYC    C7716613   5.476   3.292   5.565  0.2850 -0.4741 -0.1070
   90MYC   H10616614   5.375   3.285   5.523  0.9901 -0.0234 -1.9454
   90MYC   H10716615   5.501   3.189   5.536  0.8233  0.3418 -2.8130
   90MYC    C7616616   5.547   3.411   5.495 -0.4926  0.2085 -0.0606
   90MYC   H10816617   5.650   3.402   5.533 -0.6854 -3.4023 -0.0760
   90MYC   H10916618   5.490   3.499   5.529 -0.7946 -0.3751  0.9995
   90MYC    C7516619   5.554   3.387   5.341 -0.1485  0.0281 -0.4392
   90MYC   H11016620   5.459   3.363   5.293  0.3849 -1.0396 -1.0027
   90MYC   H11116621   5.621   3.302   5.322 -0.8761 -1.1413  1.8148
   90MYC    C7416622   5.627   3.508   5.276 -0.0130  0.7746 -0.0582
   90MYC   H11216623   5.732   3.528   5.301  0.0098  0.3458  0.2105
   90MYC   H11316624   5.572   3.602   5.291 -2.2597 -0.1812 -1.6922
   90MYC    C7316625   5.613   3.477   5.122 -0.1256 -0.5140 -0.0845
   90MYC   HH1316626   5.508   3.459   5.095 -0.7849  0.1075  1.8994
   90MYC   H11416627   5.673   3.387   5.106  2.9833  1.7256 -2.4188
   90MYC    C7216628   5.672   3.594   5.042  0.0280  0.9074 -0.3245
   90MYC   H11516629   5.769   3.624   5.084  1.1916 -0.8126 -1.6194
   90MYC   H11616630   5.607   3.681   5.056  0.3898  1.2087 -0.4934
   90MYC    C7116631   5.690   3.557   4.895 -0.3716  0.2388  0.0203
   90MYC   H11716632   5.589   3.539   4.856 -0.8919 -0.8628  1.7446
   90MYC   H11816633   5.740   3.460   4.886  0.6933  0.5595  1.9352
   90MYC    C7016634   5.765   3.670   4.807  0.7231  0.1664 -0.3991
   90MYC   H11916635   5.862   3.686   4.856  0.6869  1.5316 -0.7487
   90MYC   H12016636   5.706   3.761   4.821  1.7429  0.8610 -0.5319
   90MYC    C6916637   5.794   3.635   4.660 -0.4196 -0.2271  0.0694
   90MYC   H12116638   5.715   3.580   4.608  0.4392  0.2202 -1.7888
   90MYC   H12216639   5.877   3.564   4.673 -0.9164 -0.5818  1.4551
   90MYC    C6816640   5.821   3.769   4.573  0.0630 -0.1849  0.2693
   90MYC   HH1216641   5.876   3.839   4.637  1.5146 -2.0604  1.2057
   90MYC   H12316642   5.721   3.804   4.546 -0.1634 -0.3603  0.8514
   90MYC    C6716643   5.903   3.735   4.450  0.7045 -1.2697  0.1029
   90MYC   H12416644   5.849   3.666   4.384  0.7417 -1.2127  0.0146
   90MYC   H12516645   6.002   3.699   4.478  0.8714  0.0795  1.3803
   90MYC    C6616646   5.911   3.864   4.363  0.0448  0.7925 -0.2060
   90MYC   H12616647   6.001   3.919   4.390 -0.1959  2.2393 -2.1490
   90MYC   H12716648   5.821   3.925   4.378 -0.9359 -0.6910  0.2092
   90MYC    C6516649   5.941   3.831   4.213  0.7282 -0.4762 -0.0783
   90MYC   H12816650   5.849   3.790   4.171  0.8112 -1.0404  0.2755
   90MYC   H12916651   6.016   3.751   4.205 -0.1156 -1.2301 -0.5665
   90MYC    C6416652   5.991   3.948   4.133 -0.5682  0.0614  0.5476
   90MYC   H13016653   6.077   3.993   4.183 -1.8923  1.2676  1.8252
   90MYC   H13116654   5.910   4.018   4.109 -0.3698 -0.3070 -1.3706
   90MYC    C6316655   6.042   3.914   3.989  0.1666  0.2578  0.8936
   90MYC   HH1116656   5.967   3.859   3.931 -0.0687  0.2515  1.1969
   90MYC   H13216657   6.137   3.859   3.985 -0.1458 -0.2610 -3.2540
   90MYC    C6216658   6.065   4.041   3.906  0.7791 -0.4708 -0.0588
   90MYC   H13316659   6.098   4.115   3.980 -2.1899  0.7040  0.2535
   90MYC   H13416660   5.968   4.081   3.874  2.0796  1.3294 -2.0109
   90MYC    C6116661   6.153   4.021   3.780  0.6512  1.2414 -0.7790
   90MYC   H13516662   6.107   3.944   3.717 -0.7265 -0.9472  2.5881
   90MYC   H13616663   6.245   3.980   3.822 -0.3102  0.0245  0.2366
   90MYC    C6016664   6.176   4.156   3.705  1.3177  0.3579  0.3336
   90MYC   H13716665   6.204   4.241   3.766  2.0484  0.2611  0.1356
   90MYC    C5816666   6.233   4.156   3.564 -0.0900 -0.6370 -0.1822
   90MYC   H13816667   6.261   4.055   3.535 -1.4556 -0.3662 -2.7573
   90MYC    C5916668   6.087   4.186   3.585  0.3816 -0.8840  0.0310
   90MYC   H13916669   6.056   4.285   3.553 -0.2742 -0.7137  1.1342
   90MYC   H14016670   6.016   4.106   3.564 -0.8814  0.1344  0.2810
   90MYC    C5716671   6.321   4.267   3.521 -0.4273 -0.1285 -0.4144
   90MYC   HH1016672   6.425   4.247   3.549  1.0145  0.8454 -4.4126
   90MYC   H14116673   6.298   4.362   3.570  0.9376 -0.4036  0.8195
   90MYC    C5616674   6.309   4.291   3.359 -0.3205 -0.6515  0.1103
   90MYC   H14216675   6.206   4.324   3.342 -0.2478 -1.5244 -2.6486
   90MYC   H14316676   6.315   4.191   3.313 -0.5781 -1.1767  1.1996
   90MYC    C5516677   6.420   4.386   3.301  0.4847  0.0093  0.5394
   90MYC   H14416678   6.521   4.356   3.332  0.8027 -0.2733 -0.6884
   90MYC   H14516679   6.390   4.484   3.339  0.5446 -0.4643  1.8363
   90MYC    C5416680   6.422   4.386   3.145  0.0057 -0.5564  0.0806
   90MYC   H14616681   6.491   4.470   3.128 -2.0315  1.1987  0.0729
   90MYC   H14716682   6.331   4.409   3.090  0.9361  1.0736 -0.8589
   90MYC    C5316683   6.490   4.262   3.089 -0.6342  0.2604 -0.3170
   90MYC   H14816684   6.457   4.176   3.149 -0.0608  1.8719  2.4622
   90MYC   H14916685   6.596   4.280   3.109 -1.4252  3.5708  1.4521
   90MYC    C5216686   6.453   4.241   2.942  0.0119 -0.3191  0.3232
   90MYC    H9916687   6.464   4.340   2.895 -0.4787 -0.3954  0.0308
   90MYC   H15016688   6.350   4.210   2.921 -1.3229  2.3600  2.2298
   90MYC    C5116689   6.538   4.130   2.873 -0.0479 -0.7343  0.3040
   90MYC    H9716690   6.508   4.127   2.767  0.7215 -0.9596  0.0899
   90MYC    H9816691   6.504   4.034   2.914 -1.9601 -1.0934 -1.9026
   90MYC    C5016692   6.695   4.154   2.879  0.0141  0.3281 -0.0887
   90MYC    H9516693   6.739   4.147   2.980 -1.6408 -2.6557  0.5570
   90MYC    H9616694   6.728   4.254   2.850  1.0343 -0.0237 -0.2091
   90MYC    C4916695   6.789   4.054   2.801  1.0716 -0.8562 -0.0626
   90MYC    H9316696   6.763   3.948   2.815 -1.0868 -0.4062 -0.3736
   90MYC    H9416697   6.892   4.072   2.834  0.2060  0.3426  2.2290
   90MYC    C4816698   6.788   4.055   2.643  0.2528  0.7236 -0.9185
   90MYC    H9116699   6.810   4.152   2.597  0.3638  0.3222 -1.7302
   90MYC    H9216700   6.685   4.029   2.618 -0.4430  1.7469  0.6808
   90MYC    C4716701   6.879   3.946   2.580  0.5344 -0.1311 -0.1772
   90MYC    H8916702   6.828   3.850   2.564 -0.7477  0.6449 -0.8684
   90MYC    H9016703   6.964   3.920   2.644 -0.3036 -0.0476  0.9820
   90MYC    C4616704   6.926   3.988   2.437 -0.2405  0.3224 -0.7020
   90MYC    H8716705   7.007   4.059   2.460  3.2100 -3.7320  1.1355
   90MYC    H8816706   6.847   4.033   2.377  0.0354 -0.8077 -1.9496
   90MYC    C4516707   6.999   3.875   2.351  0.0175 -0.2147  0.1800
   90MYC    H8516708   6.960   3.773   2.343  0.6657 -0.3083 -2.5444
   90MYC    H8616709   7.092   3.860   2.408 -0.5300 -0.1637  1.1227
   90MYC    C4416710   7.031   3.914   2.202 -0.4662  0.0075 -0.3183
   90MYC    H8316711   7.088   4.008   2.203  0.1831 -0.2928  2.7112
   90MYC    H8416712   6.935   3.928   2.152 -1.5811 -0.9972  1.4422
   90MYC    C1816713   7.124   3.819   2.133 -0.2200 -0.4252 -0.1842
   90MYC    H3116714   7.218   3.817   2.188 -0.3054 -1.8659 -0.0692
   90MYC    C1716715   7.082   3.694   2.059 -0.6583 -0.2840  0.3443
   90MYC    H3016716   6.975   3.678   2.044 -0.4392  0.2314 -2.2238
   90MYC    C1916717   7.135   3.820   1.982 -0.3027  0.0598 -0.2011
   90MYC    H3216718   7.065   3.887   1.933 -1.2927 -1.0761 -0.4085
   90MYC    H3316719   7.234   3.804   1.940  1.2101  0.7946  2.7990
   90MYC    C1616720   7.157   3.565   2.076  0.6081  0.1456 -1.0219
   90MYC    H2816721   7.261   3.591   2.054  0.7983  0.6784  0.4620
   90MYC    H2916722   7.126   3.497   1.995 -0.4517 -0.3318 -0.2350
   90MYC    C1516723   7.124   3.493   2.211  0.9188  0.1038  0.6256
   90MYC    H2616724   7.157   3.389   2.197 -0.3018 -0.5515  2.3754
   90MYC    H2716725   7.018   3.498   2.236  0.9455  3.0450  0.3997
   90MYC    C1416726   7.227   3.535   2.320  0.3882  0.6331  0.2252
   90MYC    H2416727   7.187   3.626   2.368 -0.4088  1.4396 -1.8262
   90MYC    H2516728   7.320   3.577   2.281  0.8072 -0.0340  0.4889
   90MYC    C1316729   7.257   3.418   2.427  0.1276  0.1293 -0.6586
   90MYC    H2216730   7.337   3.457   2.491  0.5090 -0.8725 -0.5037
   90MYC    H2316731   7.304   3.335   2.372 -0.2427  1.0717 -2.4948
   90MYC    C1216732   7.123   3.385   2.501  0.2979 -0.0958  0.5341
   90MYC    H2016733   7.159   3.303   2.565 -1.1330 -0.9433  0.2887
   90MYC    H2116734   7.041   3.352   2.436 -0.2916  2.7787 -0.2985
   90MYC    C1116735   7.068   3.505   2.587 -0.4922  0.0774 -0.5723
   90MYC    H1816736   7.058   3.597   2.527 -3.4390 -0.3822 -0.9155
   90MYC    H1916737   7.146   3.516   2.664 -0.2275 -0.1163 -0.8113
   90MYC    C1016738   6.934   3.476   2.649  0.0827  0.9449  0.0954
   90MYC    H1616739   6.919   3.370   2.671  0.2664  0.9476  0.2359
   90MYC    H1716740   6.858   3.495   2.573  0.2914 -2.5320 -1.1612
   90MYC     C916741   6.918   3.559   2.783 -0.5765  0.5451  0.5121
   90MYC    H1416742   6.944   3.664   2.762 -0.1266  0.0420 -1.8138
   90MYC    H1516743   6.985   3.517   2.859 -0.8089  2.6984  1.9754
   90MYC     C816744   6.772   3.548   2.836  1.1166 -0.4718  0.5189
   90MYC    H1216745   6.738   3.445   2.847  2.5528 -0.9697  0.4886
   90MYC    H1316746   6.698   3.599   2.772  0.3147 -0.1578  1.6642
   90MYC     C716747   6.746   3.612   2.976  0.2649  0.1264  0.2715
   90MYC    H1016748   6.761   3.721   2.969 -0.4524  0.1511 -1.5321
   90MYC    H1116749   6.819   3.563   3.040 -0.5145 -1.1967  0.1897
   90MYC     C616750   6.601   3.582   3.016  0.5530  0.2418 -0.5525
   90MYC     H816751   6.575   3.477   3.002  1.1996 -0.0813  0.5719
   90MYC     H916752   6.536   3.632   2.942  0.2499 -0.8911 -1.0735
   90MYC     C516753   6.559   3.632   3.153 -0.2392  0.4054 -0.6747
   90MYC     H616754   6.535   3.739   3.153  1.5366  0.8419 -1.7105
   90MYC     H716755   6.643   3.610   3.219 -0.6926  1.1403  0.1656
   90MYC     C416756   6.440   3.548   3.207  0.4674 -0.3197 -0.0541
   90MYC     H416757   6.448   3.442   3.180  0.3598  0.0352 -1.6096
   90MYC     H516758   6.350   3.579   3.154 -0.3233 -0.6663  1.0632
   90MYC     C216759   6.413   3.552   3.363  0.8624 -1.2023 -0.0747
   90MYC     H216760   6.321   3.497   3.383 -0.8556  1.9097  1.4034
   90MYC     O316761   6.534   3.493   3.420 -0.0870  0.1854  0.5021
   90MYC     H316762   6.603   3.560   3.418  0.0052  0.1702  2.1480
   90MYC     C116763   6.387   3.699   3.428  0.3148  0.3094 -0.3308
   90MYC     H116764   6.288   3.723   3.387 -0.0899 -3.4694 -2.0295
   90MYC    C8116765   6.479   3.819   3.379  0.4364  0.3010 -0.2898
   90MYC    O8216766   6.599   3.809   3.390 -0.0578  0.0869  0.4961
   90MYC    O8316767   6.420   3.935   3.399  0.1009 -0.1008  0.2906
   90MYC   H10516768   6.492   3.996   3.376  0.1279 -0.2481 -0.0157
   90MYC    C2016769   6.367   3.701   3.585 -0.4221  0.3389  0.1349
   90MYC    H3416770   6.463   3.699   3.638  1.4352  0.6847 -2.9453
   90MYC    H3516771   6.309   3.791   3.608  0.0402  0.1298  2.2983
   90MYC    C2116772   6.291   3.587   3.654  0.4811  0.2301  0.0502
   90MYC    H3616773   6.200   3.553   3.603 -1.0435  2.7786  0.9090
   90MYC    H3716774   6.362   3.504   3.654 -2.2392 -2.3408  2.8015
   90MYC    C2216775   6.245   3.616   3.797  0.4625 -0.4635 -0.8680
   90MYC    H3816776   6.330   3.660   3.851  0.6837 -1.5486 -0.3041
   90MYC    H3916777   6.171   3.693   3.772  0.3502 -1.0522 -2.4306
   90MYC    C2316778   6.194   3.496   3.875  0.1497 -0.6641 -0.7101
   90MYC    H4016779   6.116   3.454   3.811  1.2716 -2.3537 -1.0228
   90MYC    H4116780   6.267   3.415   3.882 -1.8040 -2.3781  1.4563
   90MYC    C2416781   6.148   3.532   4.017 -1.3037  0.9581  0.4372
   90MYC    H4216782   6.232   3.569   4.076  1.2673 -2.5367 -0.6930
   90MYC    H4316783   6.080   3.618   4.014 -1.8701  0.5000 -0.2832
   90MYC    C2516784   6.086   3.408   4.089 -0.1554 -0.0746  0.0633
   90MYC    H4416785   6.003   3.354   4.041  0.1449 -1.1475  0.7223
   90MYC    H4516786   6.160   3.328   4.098  1.2755  1.1368 -0.4967
   90MYC    C2616787   6.052   3.449   4.237 -0.2498 -0.6530 -0.4652
   90MYC    H4616788   6.140   3.490   4.288 -0.1871  1.1591 -1.9689
   90MYC    H4716789   5.984   3.534   4.229 -0.7391 -1.1645 -2.0718
   90MYC    C2716790   5.981   3.335   4.312  1.4019 -0.3899 -0.9963
   90MYC    H4816791   5.885   3.320   4.261  0.3194  1.1306  0.4689
   90MYC    H4916792   6.031   3.238   4.302 -1.8495 -2.3154 -0.1709
   90MYC    C2816793   5.945   3.346   4.461 -0.3925 -0.2984 -0.7542
   90MYC    H5016794   6.042   3.344   4.512  0.2277  1.3527 -1.7928
   90MYC    H5116795   5.898   3.442   4.484 -0.9187 -0.7414  0.0315
   90MYC    C2916796   5.854   3.231   4.512  0.1560  0.5502 -0.0407
   90MYC    H5216797   5.767   3.222   4.446  0.7957 -0.6399 -0.7512
   90MYC    H5316798   5.910   3.137   4.507 -0.5176  0.1197  0.3444
   90MYC    C3016799   5.814   3.246   4.666 -0.0334  0.5294  0.8800
   90MYC    H5416800   5.908   3.254   4.721  0.8460 -2.1581 -0.0617
   90MYC    H5516801   5.766   3.342   4.687 -0.3340  1.1287 -2.0502
   90MYC    C3116802   5.739   3.125   4.724  0.5243 -0.2625  0.1247
   90MYC    H5616803   5.652   3.120   4.658  0.9018  0.3558 -0.4348
   90MYC    H5716804   5.794   3.033   4.698 -1.0379 -0.3372 -3.6186
   90MYC    C3216805   5.709   3.126   4.874 -0.0570 -0.3165  0.2257
   90MYC    H5816806   5.809   3.119   4.919 -0.5897 -0.3101  1.4268
   90MYC    H5916807   5.657   3.219   4.896  1.1133  0.6385 -0.8955
   90MYC    C3316808   5.617   3.013   4.937 -0.0611 -0.2464 -0.0561
   90MYC    H6016809   5.517   3.022   4.894 -0.1336 -1.0419 -0.0549
   90MYC    H6116810   5.658   2.914   4.915 -1.5258 -0.5512 -1.5977
   90MYC    C3416811   5.607   3.027   5.088  0.7847 -0.0344  0.5665
   90MYC    H6216812   5.711   3.017   5.122  0.8450 -2.9812 -0.2170
   90MYC    H6316813   5.581   3.128   5.122 -1.0840 -0.7610  1.4868
   90MYC    C3516814   5.518   2.939   5.169 -0.0152 -0.4346  0.2784
   90MYC    H6416815   5.417   2.965   5.137  0.1414  0.1974  0.2844
   90MYC    H6516816   5.534   2.836   5.135 -0.8471 -0.0705 -1.2883
   90MYC    C3616817   5.530   2.947   5.328  0.4635  0.0309 -0.2963
   90MYC    H6616818   5.629   2.931   5.372  0.4201 -1.2002 -0.6284
   90MYC    H6716819   5.510   3.053   5.350  0.4765 -0.1104  0.4165
   90MYC    C3716820   5.426   2.854   5.404  0.0451 -0.1733  0.1890
   90MYC    H6816821   5.324   2.891   5.388  0.8304  2.3787  0.5571
   90MYC    H6916822   5.431   2.749   5.373 -0.2905 -0.5320  1.3270
   90MYC    C3816823   5.439   2.850   5.555 -0.0046 -0.4909 -0.2597
   90MYC    H7016824   5.534   2.805   5.586 -0.9369 -1.9920  0.5278
   90MYC    H7116825   5.431   2.952   5.595  1.0869 -1.0614  1.5204
   90MYC    C3916826   5.332   2.765   5.616  0.1982  0.0288 -0.8579
   90MYC    H7216827   5.238   2.813   5.588 -0.0978 -0.9258 -1.5132
   90MYC    H7316828   5.321   2.665   5.573  0.4733 -1.0261  1.3773
   90MYC    C4016829   5.338   2.768   5.768 -0.3348  0.7500 -0.3440
   90MYC    H7416830   5.432   2.716   5.792  0.6401  0.9533 -3.4076
   90MYC    H7516831   5.351   2.872   5.798 -2.4226  0.5476  1.5776
   90MYC    C4116832   5.227   2.690   5.843  0.1612 -0.5987  0.4776
   90MYC    H7616833   5.131   2.738   5.818 -0.6065 -1.8124  0.9980
   90MYC    H7716834   5.219   2.592   5.795  0.0503  1.0394 -3.1888
   90MYC    C4216835   5.238   2.690   5.994 -0.6668 -0.1900  0.3449
   90MYC    H7816836   5.344   2.691   6.021 -0.2431 -0.1975 -1.2119
   90MYC    H7916837   5.206   2.790   6.025  1.5311  0.8612 -0.5869
   90MYC    C4316838   5.161   2.577   6.060  0.1452  0.3602  0.2831
   90MYC    H8016839   5.054   2.576   6.036  0.0511  0.1242  0.7076
   90MYC    H8116840   5.173   2.585   6.169  0.4918  1.9424  0.1539
   90MYC    H8216841   5.208   2.488   6.017 -1.5016 -1.0617  1.2807
   91MYC   HH1516842   5.865   5.352   5.955  1.6478 -1.2904  0.9511
   91MYC    C8016843   5.826   5.316   5.859  0.2079  0.0026  1.0010
   91MYC   H10016844   5.839   5.207   5.861  0.3973  0.0057  0.2742
   91MYC   H10116845   5.722   5.348   5.847  0.2226 -0.2737  0.0784
   91MYC    C7916846   5.886   5.391   5.737 -0.0711  0.0167  0.5456
   91MYC   H10216847   5.995   5.391   5.748 -0.0613  0.1520  0.4531
   91MYC   H10316848   5.864   5.498   5.744  0.0885  0.0074  1.2080
   91MYC    C7816849   5.840   5.343   5.597 -0.0191  0.2607  0.8109
   91MYC   HH1416850   5.734   5.365   5.581  0.0362 -0.2599 -0.4208
   91MYC   H10416851   5.839   5.233   5.597  0.5810  0.2523  0.9057
   91MYC    C7716852   5.926   5.394   5.480  0.1184  0.2891 -0.5556
   91MYC   H10616853   6.030   5.362   5.495 -0.0863  0.1330  0.6738
   91MYC   H10716854   5.942   5.502   5.476  1.2360  0.2545  1.4508
   91MYC    C7616855   5.882   5.333   5.345 -0.4166 -0.4432  0.3755
   91MYC   H10816856   5.777   5.358   5.326 -0.0984  1.0109  0.4180
   91MYC   H10916857   5.873   5.224   5.347 -0.1175 -0.4757  0.1046
   91MYC    C7516858   5.980   5.376   5.228 -0.0598 -0.1403  0.1121
   91MYC   H11016859   6.079   5.337   5.256  1.3825  1.6409 -2.1181
   91MYC   H11116860   5.993   5.485   5.231  1.3604 -0.2446 -1.1544
   91MYC    C7416861   5.960   5.324   5.083 -0.5920  0.4128  0.2637
   91MYC   H11216862   5.980   5.216   5.093 -0.9676  0.5002  2.5296
   91MYC   H11316863   6.044   5.360   5.023 -1.1276  1.0812 -0.0983
   91MYC    C7316864   5.825   5.341   5.018 -0.0349  0.1663 -0.2838
   91MYC   HH1316865   5.784   5.443   5.016 -1.5481 -0.4316 -0.4060
   91MYC   H11416866   5.747   5.296   5.080 -0.1184  1.5347  0.6616
   91MYC    C7216867   5.806   5.277   4.876  0.1143 -0.3167  0.3060
   91MYC   H11516868   5.711   5.307   4.831  1.3104 -0.0497 -2.2081
   91MYC   H11616869   5.794   5.171   4.898  1.0907 -0.6514 -0.6606
   91MYC    C7116870   5.920   5.314   4.779  0.2022  0.3132  0.3607
   91MYC   H11716871   6.019   5.309   4.825 -0.3811  1.2412  1.7860
   91MYC   H11816872   5.915   5.420   4.752  0.4669 -0.0533 -1.2173
   91MYC    C7016873   5.919   5.232   4.651  0.6718  0.3384  0.8169
   91MYC   H11916874   5.825   5.257   4.599  0.0659  0.8495  2.1240
   91MYC   H12016875   5.929   5.125   4.669 -0.6251 -0.1012 -0.8127
   91MYC    C6916876   6.033   5.276   4.554 -0.1161 -0.0115 -0.2397
   91MYC   H12116877   6.127   5.287   4.609 -1.1654  1.0885  1.4420
   91MYC   H12216878   6.016   5.381   4.525 -1.4827  0.3553  1.6684
   91MYC    C6816879   6.045   5.188   4.431  0.1152  1.0195  0.2382
   91MYC   HH1216880   6.060   5.084   4.462 -1.4522  1.3220  2.2443
   91MYC   H12316881   6.138   5.223   4.385 -0.8351  1.3028 -1.5582
   91MYC    C6716882   5.922   5.195   4.332 -0.4940  0.5629  0.1959
   91MYC   H12416883   5.888   5.298   4.317 -1.4516  0.4330  1.2940
   91MYC   H12516884   5.837   5.136   4.370  0.0792  0.1150  0.8105
   91MYC    C6616885   5.956   5.142   4.188  0.2748 -0.3535  0.0898
   91MYC   H12616886   6.031   5.063   4.198  1.2447  0.6588  1.0513
   91MYC   H12716887   6.008   5.227   4.144  0.0653  0.8431  2.0434
   91MYC    C6516888   5.822   5.121   4.103 -0.6616 -0.1455  0.4603
   91MYC   H12816889   5.763   5.213   4.103  1.8605  1.5764  2.1211
   91MYC   H12916890   5.768   5.035   4.145 -1.1806 -0.8074 -1.4311
   91MYC    C6416891   5.858   5.081   3.964  0.5107  0.0862  0.0968
   91MYC   H13016892   5.921   4.991   3.959 -1.7063 -1.4590 -1.8759
   91MYC   H13116893   5.931   5.153   3.926  1.9189 -1.5281 -0.4364
   91MYC    C6316894   5.731   5.069   3.878 -0.7870 -0.1195 -0.0494
   91MYC   HH1116895   5.682   5.165   3.896 -0.5587 -0.0281  0.0829
   91MYC   H13216896   5.658   4.991   3.903 -0.7134 -0.1507  0.0666
   91MYC    C6216897   5.755   5.079   3.722 -0.1944  0.4497 -0.3354
   91MYC   H13316898   5.843   5.144   3.714  1.3035 -1.4476  0.1212
   91MYC   H13416899   5.666   5.116   3.669 -1.6295  0.4232  1.9018
   91MYC    C6116900   5.807   4.941   3.665 -0.5238  0.4762 -0.7216
   91MYC   H13516901   5.748   4.855   3.699  1.6299 -0.6979  0.2354
   91MYC   H13616902   5.902   4.926   3.717 -0.1040 -2.3368 -2.0973
   91MYC    C6016903   5.841   4.956   3.518  0.5350 -0.1276 -0.1413
   91MYC   H13716904   5.854   5.063   3.503 -1.8214  0.5426  1.8075
   91MYC    C5816905   5.935   4.864   3.446 -0.5094 -0.4581 -0.1352
   91MYC   H13816906   5.965   4.769   3.491 -2.5764 -1.4312 -0.6857
   91MYC    C5916907   5.786   4.866   3.414  0.3186 -0.9043  0.2681
   91MYC   H13916908   5.757   4.915   3.321 -2.5957  0.7981  1.9146
   91MYC   H14016909   5.741   4.772   3.443  0.1099 -0.3567  1.8512
   91MYC    C5716910   6.040   4.920   3.350 -1.0254  0.2571  0.8542
   91MYC   HH1016911   6.071   5.019   3.386  1.2095 -0.3776  0.8068
   91MYC   H14116912   5.994   4.932   3.251  2.2367  2.6693 -0.5430
   91MYC    C5616913   6.174   4.844   3.324  0.9392  0.3511 -0.6571
   91MYC   H14216914   6.151   4.737   3.328  1.0166  0.3294 -0.7920
   91MYC   H14316915   6.244   4.867   3.406 -0.1009  0.6816  0.1660
   91MYC    C5516916   6.261   4.875   3.202  0.6335  0.0852 -0.2061
   91MYC   H14416917   6.284   4.981   3.218 -1.7073  0.4343  1.4011
   91MYC   H14516918   6.203   4.894   3.110  0.0737  2.0361  0.4961
   91MYC    C5416919   6.389   4.787   3.183  0.1546  0.5068 -0.3318
   91MYC   H14616920   6.363   4.682   3.198  1.2042  0.5321  2.1860
   91MYC   H14716921   6.464   4.816   3.258  0.0541  0.1295 -0.0838
   91MYC    C5316922   6.458   4.805   3.044  0.3682  0.0531 -0.6269
   91MYC   H14816923   6.448   4.907   3.005  0.6328  0.1033 -0.5672
   91MYC   H14916924   6.403   4.748   2.968 -2.2032  0.1692  1.0205
   91MYC    C5216925   6.605   4.760   3.046 -0.4892 -0.1932 -0.7164
   91MYC    H9916926   6.637   4.673   3.104  0.7281  2.1213  2.4171
   91MYC   H15016927   6.667   4.839   3.090  1.8176 -2.3562  0.1618
   91MYC    C5116928   6.664   4.739   2.904 -0.6301  0.4537 -0.0776
   91MYC    H9716929   6.773   4.735   2.914 -0.6431 -2.1074 -0.3306
   91MYC    H9816930   6.654   4.834   2.850  1.4950  2.0252  2.0520
   91MYC    C5016931   6.606   4.618   2.830 -0.4145  0.5502 -0.3979
   91MYC    H9516932   6.501   4.638   2.804 -0.4987  2.9825  1.5128
   91MYC    H9616933   6.598   4.529   2.894 -4.6113 -0.0823 -1.4844
   91MYC    C4916934   6.684   4.583   2.704 -0.4133 -0.9882 -0.5761
   91MYC    H9316935   6.782   4.550   2.740 -0.9427 -1.2675  0.6548
   91MYC    H9416936   6.716   4.667   2.641  1.9838  0.3370  2.1666
   91MYC    C4816937   6.610   4.465   2.628  0.2060  0.0007 -0.2725
   91MYC    H9116938   6.510   4.501   2.599  0.1793  0.4059  0.3007
   91MYC    H9216939   6.579   4.388   2.699  1.7994 -1.2858 -0.9196
   91MYC    C4716940   6.685   4.392   2.511 -0.2709  0.3868  0.1231
   91MYC    H8916941   6.634   4.303   2.471 -0.5449 -0.1191  1.5569
   91MYC    H9016942   6.783   4.351   2.536 -0.7022 -1.2768 -0.7756
   91MYC    C4616943   6.711   4.486   2.393  0.1080 -0.1987  0.1914
   91MYC    H8716944   6.782   4.569   2.402 -0.1962  0.3594 -1.8615
   91MYC    H8816945   6.617   4.539   2.372  0.1449 -0.6799 -1.2881
   91MYC    C4516946   6.746   4.417   2.257  0.0683 -0.0665 -0.4744
   91MYC    H8516947   6.804   4.327   2.280  0.5889  0.0506 -1.2735
   91MYC    H8616948   6.825   4.476   2.208 -0.8488  1.2782 -0.3816
   91MYC    C4416949   6.632   4.402   2.162  0.9131 -0.0994  0.1915
   91MYC    H8316950   6.561   4.485   2.160 -0.4595 -1.2403  0.4762
   91MYC    H8416951   6.578   4.311   2.188  1.0877 -0.2436  0.0490
   91MYC    C1816952   6.684   4.385   2.017 -0.0795 -0.4634 -0.3407
   91MYC    H3116953   6.738   4.474   1.985  0.1435 -0.1453  0.8659
   91MYC    C1716954   6.742   4.251   1.971 -0.1415  0.6964  0.4028
   91MYC    H3016955   6.743   4.166   2.039 -1.4822  2.3126  2.6020
   91MYC    C1916956   6.609   4.292   1.929  0.2551  0.2253 -0.0756
   91MYC    H3216957   6.534   4.223   1.967 -1.8365  2.0140 -0.7453
   91MYC    H3316958   6.594   4.330   1.829 -1.6512  1.1011  0.4906
   91MYC    C1616959   6.851   4.243   1.870  0.3120  0.0364  0.1617
   91MYC    H2816960   6.858   4.343   1.826  2.0681  0.8865  2.2260
   91MYC    H2916961   6.822   4.178   1.786  0.1343  0.4283 -0.0823
   91MYC    C1516962   6.997   4.211   1.918  0.1248 -0.2433  0.3358
   91MYC    H2616963   7.054   4.193   1.826 -0.3553 -0.6588  0.1124
   91MYC    H2716964   7.003   4.121   1.980  1.3733  0.3828  1.1632
   91MYC    C1416965   7.058   4.325   2.001 -0.3605  1.4934  0.0782
   91MYC    H2416966   6.976   4.362   2.063 -0.5322 -1.0365  1.4997
   91MYC    H2516967   7.085   4.401   1.927 -1.1038  1.7804  0.0933
   91MYC    C1316968   7.190   4.284   2.068 -0.6683  0.5583 -0.7063
   91MYC    H2216969   7.262   4.232   2.003 -0.8475 -1.5446  0.6557
   91MYC    H2316970   7.166   4.210   2.145 -2.5934  1.4715 -0.3766
   91MYC    C1216971   7.266   4.395   2.139  0.0171  0.2255  0.2763
   91MYC    H2016972   7.277   4.478   2.068 -1.4723 -0.7989 -1.2441
   91MYC    H2116973   7.367   4.360   2.165 -0.1814 -0.1557  0.5570
   91MYC    C1116974   7.194   4.459   2.259 -0.0917  0.2947  0.1527
   91MYC    H1816975   7.093   4.491   2.231  0.6002  2.8616  0.2885
   91MYC    H1916976   7.249   4.551   2.284  1.6480 -0.0405 -2.0866
   91MYC    C1016977   7.191   4.363   2.380  0.1323  0.3514 -0.1084
   91MYC    H1616978   7.286   4.310   2.383 -0.5973 -1.1394 -1.7739
   91MYC    H1716979   7.121   4.281   2.362  0.4011  0.1562 -0.2585
   91MYC     C916980   7.157   4.423   2.520 -0.1068 -0.0084 -0.0183
   91MYC    H1416981   7.061   4.475   2.515  0.8285  1.9909  1.1335
   91MYC    H1516982   7.237   4.495   2.542 -0.5627  1.0427 -1.6690
   91MYC     C816983   7.155   4.328   2.639 -0.3009 -0.4142  0.3363
   91MYC    H1216984   7.254   4.295   2.676 -0.2604  1.3851  1.9934
   91MYC    H1316985   7.100   4.236   2.614 -1.0926  0.2349 -0.3525
   91MYC     C716986   7.097   4.387   2.766  0.1375  0.0368  0.6154
   91MYC    H1016987   6.990   4.409   2.750  0.8107  2.6328 -0.8485
   91MYC    H1116988   7.152   4.478   2.791  2.8363 -0.9200 -1.3614
   91MYC     C616989   7.102   4.289   2.887 -0.7499 -0.3381  0.3630
   91MYC     H816990   7.207   4.271   2.912 -0.8850  0.2004  1.3689
   91MYC     H916991   7.065   4.192   2.852 -0.0612 -0.2642 -0.6031
   91MYC     C516992   7.024   4.341   3.009  0.1059 -0.4586 -0.4341
   91MYC     H616993   6.926   4.377   2.975  0.3754  1.1963  0.4395
   91MYC     H716994   7.079   4.430   3.042  0.4836 -0.7274 -0.3412
   91MYC     C416995   7.007   4.245   3.128  0.1998  0.0415  0.0985
   91MYC     H416996   7.102   4.196   3.153  0.3702  0.8103  0.9803
   91MYC     H516997   6.942   4.165   3.091  0.7784 -0.0716 -0.7062
   91MYC     C216998   6.940   4.297   3.261 -0.6482  0.1425  1.1453
   91MYC     H216999   7.015   4.362   3.308  0.3028 -0.4685  0.4957
   91MYC     O317000   6.824   4.376   3.221 -0.2092 -0.1647 -0.3348
   91MYC     H317001   6.777   4.320   3.157  2.1754 -1.6015 -0.9806
   91MYC     C117002   6.898   4.195   3.360  0.0596  0.0749 -0.2215
   91MYC     H117003   6.991   4.161   3.407  0.9173  1.8640 -0.4991
   91MYC    C8117004   6.826   4.073   3.302  0.0599  0.4873 -0.1338
   91MYC    O8217005   6.721   4.075   3.240 -0.6993  0.4063 -0.0123
   91MYC    O8317006   6.876   3.957   3.341  0.1372  0.8831  0.5997
   91MYC   H10517007   6.809   3.892   3.315 -0.6109  2.2935 -1.3144
   91MYC    C2017008   6.823   4.243   3.485 -0.0495  0.5850  0.9768
   91MYC    H3417009   6.890   4.316   3.530 -0.4736  2.1706 -0.8264
   91MYC    H3517010   6.729   4.282   3.442 -0.0869  0.2779  0.7711
   91MYC    C2117011   6.785   4.142   3.598  0.2049  0.0411  0.5320
   91MYC    H3617012   6.733   4.050   3.568 -1.1891  0.8001  0.5163
   91MYC    H3717013   6.877   4.093   3.631  1.0984 -1.1353 -3.1836
   91MYC    C2217014   6.708   4.220   3.715 -1.1119 -0.0767  0.1116
   91MYC    H3817015   6.776   4.297   3.752 -0.2075 -0.7936 -0.0336
   91MYC    H3917016   6.627   4.276   3.667  0.1925  3.4539  1.7143
   91MYC    C2317017   6.666   4.133   3.838 -0.7000  0.0457  0.0847
   91MYC    H4017018   6.750   4.080   3.885  1.0506  2.4011 -0.2182
   91MYC    H4117019   6.621   4.210   3.900 -0.8939  0.3321 -0.4024
   91MYC    C2417020   6.560   4.021   3.802  0.3231  0.8289 -0.6563
   91MYC    H4217021   6.470   4.076   3.772 -0.4858 -0.8956 -1.5049
   91MYC    H4317022   6.587   3.974   3.707  1.6054  0.6059 -0.2013
   91MYC    C2517023   6.536   3.928   3.932  0.1524 -0.3714  0.7396
   91MYC    H4417024   6.446   3.877   3.896 -1.5021  3.4824 -1.2279
   91MYC    H4517025   6.612   3.851   3.946  0.0857 -0.6475 -0.3264
   91MYC    C2617026   6.519   3.991   4.071 -0.1277  0.0889  0.1070
   91MYC    H4617027   6.614   4.034   4.106 -0.5094  1.5080 -0.5448
   91MYC    H4717028   6.454   4.078   4.063 -0.1201 -0.0725 -2.9932
   91MYC    C2717029   6.455   3.915   4.186  0.3679 -0.1111  0.6967
   91MYC    H4817030   6.367   3.865   4.144  1.7350 -1.7791 -0.3271
   91MYC    H4917031   6.518   3.834   4.224 -0.9657 -1.2006  0.6552
   91MYC    C2817032   6.394   4.015   4.293  0.0636  0.4130  1.3449
   91MYC    H5017033   6.470   4.080   4.336 -1.2487  1.2441  2.4741
   91MYC    H5117034   6.311   4.080   4.263  0.1544  0.9149  2.1554
   91MYC    C2917035   6.334   3.932   4.409  0.3056  0.2930  0.0444
   91MYC    H5217036   6.257   3.863   4.374  0.3173  0.3778 -0.1515
   91MYC    H5317037   6.410   3.867   4.454 -1.0310 -1.3906 -0.0198
   91MYC    C3017038   6.291   4.039   4.524  0.2683  0.8333  0.7915
   91MYC    H5417039   6.374   4.099   4.562 -1.1863  3.5440 -0.0353
   91MYC    H5517040   6.225   4.111   4.475 -0.0655 -0.1665 -0.2734
   91MYC    C3117041   6.213   3.968   4.642 -0.4779 -0.4466  0.1606
   91MYC    H5617042   6.130   3.913   4.596 -0.5822 -0.2304  0.0854
   91MYC    H5717043   6.279   3.899   4.696 -0.0340 -1.0926 -1.1592
   91MYC    C3217044   6.140   4.069   4.731  0.2778  0.0694 -0.0222
   91MYC    H5817045   6.208   4.143   4.774 -1.4664  0.3849  2.4609
   91MYC    H5917046   6.069   4.122   4.667 -2.5732 -1.5348  1.5584
   91MYC    C3317047   6.069   3.993   4.850 -0.2530 -0.0883 -0.2627
   91MYC    H6017048   6.005   3.909   4.818 -2.4317  0.5819  2.0063
   91MYC    H6117049   6.152   3.944   4.902 -1.4607 -1.0076  0.8716
   91MYC    C3417050   5.991   4.082   4.957  0.3060 -0.0670 -0.7739
   91MYC    H6217051   6.047   4.169   4.992 -2.1287  0.6309  1.7748
   91MYC    H6317052   5.912   4.134   4.901  0.7615 -2.3430 -3.8066
   91MYC    C3517053   5.923   4.004   5.076 -0.5480  0.3160  0.3911
   91MYC    H6417054   5.842   3.939   5.043  1.0025 -2.4334  1.6150
   91MYC    H6517055   5.996   3.936   5.122 -1.3127 -0.0081  1.1618
   91MYC    C3617056   5.864   4.089   5.186 -0.5129 -0.2872 -0.0255
   91MYC    H6617057   5.948   4.151   5.218 -0.8805  0.3735 -0.3221
   91MYC    H6717058   5.784   4.155   5.151 -2.2546 -1.4878  1.5009
   91MYC    C3717059   5.808   4.017   5.309 -0.0440 -0.6133  0.1739
   91MYC    H6817060   5.873   3.933   5.340 -0.2921 -1.2711 -1.0313
   91MYC    H6917061   5.788   4.093   5.385  2.1387  0.9521 -0.7106
   91MYC    C3817062   5.661   3.962   5.283 -0.5251 -0.4561 -0.0569
   91MYC    H7017063   5.602   4.021   5.212  0.6055 -2.1523 -2.5260
   91MYC    H7117064   5.675   3.864   5.235  3.9922 -0.3125  0.5580
   91MYC    C3917065   5.580   3.941   5.419  0.3800 -0.1288  0.3472
   91MYC    H7217066   5.565   4.038   5.468 -0.1628 -1.4244  2.8941
   91MYC    H7317067   5.482   3.896   5.402 -0.1070  0.6432  1.0222
   91MYC    C4017068   5.648   3.845   5.517  0.2935 -0.1031  0.2252
   91MYC    H7417069   5.683   3.747   5.481 -0.1958 -0.3107  0.3091
   91MYC    H7517070   5.744   3.888   5.546 -0.3210  1.9226 -0.5612
   91MYC    C4117071   5.562   3.818   5.640 -0.2164 -0.3007  0.6119
   91MYC    H7617072   5.531   3.915   5.682 -1.7954  0.5537 -2.3077
   91MYC    H7717073   5.469   3.770   5.607  0.0157 -0.4121  0.1246
   91MYC    C4217074   5.625   3.745   5.753  0.4354  0.7726 -0.5086
   91MYC    H7817075   5.641   3.641   5.723 -1.0991  0.9594 -2.1397
   91MYC    H7917076   5.727   3.784   5.760  0.5763  0.6112 -1.4580
   91MYC    C4317077   5.542   3.740   5.883 -0.6118  0.3993  0.3697
   91MYC    H8017078   5.502   3.835   5.920 -0.8450 -0.1584  1.5797
   91MYC    H8117079   5.602   3.686   5.957 -0.4628 -1.1208 -0.8037
   91MYC    H8217080   5.457   3.671   5.874  0.4700 -1.1071  1.2443
   92MYC   HH1517081   5.368   6.324   6.197  0.4197  0.3298 -1.0237
   92MYC    C8017082   5.468   6.296   6.232  0.2510  0.1558 -0.6782
   92MYC   H10017083   5.495   6.365   6.313  0.7017  0.2738 -0.9280
   92MYC   H10117084   5.457   6.199   6.283  0.5741  1.4902  2.1119
   92MYC    C7917085   5.562   6.278   6.118  0.2223 -0.2663 -0.2415
   92MYC   H10217086   5.613   6.182   6.129  0.9983  0.3377  2.0770
   92MYC   H10317087   5.649   6.344   6.131 -1.2950  1.7400  0.3164
   92MYC    C7817088   5.507   6.290   5.976 -0.2082  0.1396  0.5377
   92MYC   HH1417089   5.484   6.395   5.958  0.3779 -0.0289 -1.3843
   92MYC   H10417090   5.421   6.225   5.954  0.4887 -0.4745 -0.4510
   92MYC    C7717091   5.620   6.261   5.879  0.2830  0.1078 -0.0236
   92MYC   H10617092   5.647   6.156   5.888 -0.9111 -0.0825  2.1749
   92MYC   H10717093   5.705   6.329   5.895  1.9124 -1.8798  0.1142
   92MYC    C7617094   5.575   6.277   5.732 -0.1219  0.1376 -0.0137
   92MYC   H10817095   5.535   6.378   5.716 -1.5756 -0.6906 -1.9525
   92MYC   H10917096   5.501   6.199   5.713 -1.0170  0.4875  1.8411
   92MYC    C7517097   5.691   6.258   5.633 -0.2439 -0.0741  0.3744
   92MYC   H11017098   5.736   6.160   5.653  0.5566  0.5744  1.9404
   92MYC   H11117099   5.766   6.335   5.656  0.6498 -1.2636  1.5968
   92MYC    C7417100   5.648   6.278   5.491 -0.0647 -0.4796  0.0005
   92MYC   H11217101   5.599   6.375   5.481  0.1413 -0.2604  1.0673
   92MYC   H11317102   5.575   6.200   5.466 -1.3704  0.9787 -0.8713
   92MYC    C7317103   5.763   6.263   5.392 -0.8670 -1.0609  0.7567
   92MYC   HH1317104   5.824   6.176   5.418  1.2214 -0.1488 -0.7872
   92MYC   H11417105   5.827   6.348   5.419 -1.8694  0.1850 -0.5723
   92MYC    C7217106   5.715   6.258   5.243  0.4295 -0.8469 -0.4299
   92MYC   H11517107   5.671   6.356   5.221  1.9945  0.1670  0.7503
   92MYC   H11617108   5.642   6.177   5.229  0.5609 -0.3879 -6.0411
   92MYC    C7117109   5.828   6.238   5.156  0.4575 -0.4660 -0.4275
   92MYC   H11717110   5.883   6.149   5.187  0.3649 -0.8064 -1.2052
   92MYC   H11817111   5.906   6.314   5.163 -0.3971  0.2702  2.0300
   92MYC    C7017112   5.785   6.229   5.007  0.0856 -0.2016 -0.3302
   92MYC   H11917113   5.736   6.319   4.971 -0.0840  0.1770  0.7980
   92MYC   H12017114   5.716   6.144   4.996 -0.5796  0.1128  1.1975
   92MYC    C6917115   5.901   6.202   4.905 -0.1631 -0.3285 -0.5396
   92MYC   H12117116   5.942   6.102   4.926  1.2142  0.1321 -0.9093
   92MYC   H12217117   5.989   6.265   4.920  1.3924 -2.5341  0.1546
   92MYC    C6817118   5.867   6.217   4.756 -0.1225  0.3598 -0.0632
   92MYC   HH1217119   5.814   6.311   4.738  1.2351  0.7478 -2.4267
   92MYC   H12317120   5.794   6.140   4.730  0.2895  0.8469 -3.0732
   92MYC    C6717121   5.989   6.201   4.663  0.0988  0.3189 -0.1330
   92MYC   H12417122   6.045   6.117   4.706  0.3269  0.1162 -0.8104
   92MYC   H12517123   6.060   6.283   4.672  2.6702 -1.5669 -1.8320
   92MYC    C6617124   5.955   6.187   4.514  0.5835  0.1371 -0.0828
   92MYC   H12617125   5.900   6.274   4.477  0.5289  0.8416  1.5405
   92MYC   H12717126   5.881   6.111   4.489 -2.5607  3.5419 -2.2425
   92MYC    C6517127   6.077   6.177   4.423  1.0866  0.4461 -0.5581
   92MYC   H12817128   6.139   6.099   4.468 -0.5844 -1.6939 -1.7802
   92MYC   H12917129   6.134   6.271   4.422 -0.6021  1.6367  2.2393
   92MYC    C6417130   6.039   6.146   4.276  0.3265 -0.0710 -0.1379
   92MYC   H13017131   5.970   6.229   4.256  0.5748 -0.1905 -1.6381
   92MYC   H13117132   5.980   6.054   4.280 -1.0795  0.8673  2.1560
   92MYC    C6317133   6.161   6.136   4.181 -0.3965  0.0525  0.0366
   92MYC   HH1117134   6.234   6.065   4.222  0.3371  0.3887 -0.6465
   92MYC   H13217135   6.196   6.239   4.188 -0.7702  0.1227  0.9840
   92MYC    C6217136   6.122   6.100   4.038  0.3426  0.3301 -0.1399
   92MYC   H13317137   6.039   6.167   4.014  1.3795  1.8150  0.2457
   92MYC   H13417138   6.080   5.999   4.038  0.6043  0.1760 -2.2438
   92MYC    C6117139   6.235   6.105   3.923  0.5456 -0.1346  0.2755
   92MYC   H13517140   6.333   6.064   3.952  0.0977 -1.0882  0.4375
   92MYC   H13617141   6.262   6.211   3.907  1.6899 -0.5473 -0.7613
   92MYC    C6017142   6.181   6.054   3.793 -0.1352 -0.0010 -0.2208
   92MYC   H13717143   6.095   6.109   3.756  0.5968  1.5126  0.2435
   92MYC    C5817144   6.268   5.981   3.685  0.3817 -0.6104 -0.6334
   92MYC   H13817145   6.372   5.972   3.715  0.5267  1.4878 -0.3476
   92MYC    C5917146   6.164   5.906   3.771  0.1796 -0.0693  0.0517
   92MYC   H13917147   6.072   5.870   3.724  1.5732 -1.7269 -1.5544
   92MYC   H14017148   6.205   5.833   3.839  2.4814  0.2609 -0.9008
   92MYC    C5717149   6.256   6.001   3.531  0.5298 -0.3125  0.0361
   92MYC   HH1017150   6.273   6.105   3.502  2.3262 -0.8338 -0.9641
   92MYC   H14117151   6.153   5.971   3.509  0.2537 -0.1610  1.0634
   92MYC    C5617152   6.349   5.918   3.452  0.0181  0.9672 -0.2155
   92MYC   H14217153   6.341   5.813   3.483 -0.7418  1.0409 -0.1558
   92MYC   H14317154   6.454   5.939   3.474  0.2223 -0.6794  0.5990
   92MYC    C5517155   6.329   5.931   3.300 -0.0475 -0.3734 -0.8410
   92MYC   H14417156   6.373   6.027   3.269  2.2218 -1.2663 -0.5755
   92MYC   H14517157   6.221   5.933   3.281 -0.1406 -0.1100 -0.2844
   92MYC    C5417158   6.398   5.823   3.222 -0.7757  0.7299  0.0775
   92MYC   H14617159   6.340   5.730   3.219 -1.0852  0.9545 -2.1282
   92MYC   H14717160   6.503   5.815   3.254 -0.8301  1.3456  0.4287
   92MYC    C5317161   6.406   5.858   3.072  0.0636  0.1533 -0.2893
   92MYC   H14817162   6.430   5.964   3.071 -0.0717  0.1964  0.6456
   92MYC   H14917163   6.303   5.852   3.033 -0.3933  1.8446  0.5752
   92MYC    C5217164   6.493   5.762   2.996 -0.0217  0.0429  0.5833
   92MYC    H9917165   6.447   5.662   2.988  1.1365 -0.5583  1.1513
   92MYC   H15017166   6.590   5.753   3.046  1.1764  3.1890 -0.9036
   92MYC    C5117167   6.513   5.802   2.846  0.5893 -0.1732  0.0861
   92MYC    H9717168   6.543   5.908   2.844 -0.1219  0.0282 -0.7016
   92MYC    H9817169   6.418   5.794   2.791  0.7241 -0.2704 -0.1346
   92MYC    C5017170   6.623   5.711   2.774 -0.1915 -0.4917 -0.3760
   92MYC    H9517171   6.586   5.608   2.763 -0.8103 -0.1483 -1.7447
   92MYC    H9617172   6.719   5.722   2.826  0.0103  4.4089 -1.3127
   92MYC    C4917173   6.646   5.764   2.625  0.5451 -0.4442 -0.4810
   92MYC    H9317174   6.650   5.873   2.616  0.8081 -0.3900  0.2160
   92MYC    H9417175   6.556   5.729   2.572  0.8979 -0.4739 -1.0601
   92MYC    C4817176   6.766   5.697   2.564 -0.5375  0.7756 -0.0802
   92MYC    H9117177   6.746   5.590   2.571  0.2221  0.7300  2.2131
   92MYC    H9217178   6.845   5.710   2.639  0.1886  2.9608 -1.1457
   92MYC    C4717179   6.801   5.741   2.426  0.5205  0.1326 -0.0964
   92MYC    H8917180   6.787   5.850   2.422 -0.1242  0.0293 -0.8857
   92MYC    H9017181   6.721   5.700   2.363 -0.8388 -0.1123  1.6896
   92MYC    C4617182   6.937   5.694   2.387 -0.1655  0.2490  0.0857
   92MYC    H8717183   6.951   5.589   2.415  1.3090  0.4241  0.0949
   92MYC    H8817184   7.013   5.743   2.448  1.1519 -2.5577  0.8078
   92MYC    C4517185   6.969   5.712   2.233  0.2207 -0.1554  0.5850
   92MYC    H8517186   7.079   5.715   2.234  0.2347 -0.5618  1.7246
   92MYC    H8617187   6.949   5.815   2.200  1.2884 -0.8348 -2.6086
   92MYC    C4417188   6.905   5.618   2.123  0.0644 -0.3790 -0.7758
   92MYC    H8317189   6.906   5.669   2.026  0.6448  2.2783  0.5394
   92MYC    H8417190   6.801   5.598   2.154 -0.0961  1.8879  0.3753
   92MYC    C1817191   6.979   5.490   2.120 -0.1766 -0.6785 -0.6046
   92MYC    H3117192   7.029   5.455   2.210 -0.5784 -0.8044 -0.4258
   92MYC    C1717193   6.901   5.372   2.051  0.2603 -0.4934  0.3110
   92MYC    H3017194   6.812   5.395   1.994  2.1122 -0.2635 -2.7220
   92MYC    C1917195   7.035   5.427   1.996 -0.5527 -0.6972  0.8088
   92MYC    H3217196   7.044   5.496   1.913  2.0529  0.4302  1.8869
   92MYC    H3317197   7.125   5.366   2.007 -0.5150 -1.0083 -0.9908
   92MYC    C1617198   6.906   5.235   2.116 -0.0876  0.5511  0.7747
   92MYC    H2817199   7.010   5.202   2.106 -0.0529  1.1731 -1.3977
   92MYC    H2917200   6.833   5.167   2.072  1.0580 -1.4358  1.7794
   92MYC    C1517201   6.867   5.239   2.264 -0.0318  0.7889  1.5699
   92MYC    H2617202   6.938   5.298   2.324 -0.8639  0.8009  2.5547
   92MYC    H2717203   6.866   5.136   2.300  0.4909  0.1103 -0.2272
   92MYC    C1417204   6.725   5.280   2.291 -0.4429 -0.1511 -0.5277
   92MYC    H2417205   6.659   5.231   2.218 -0.5410 -0.9047  0.0629
   92MYC    H2517206   6.713   5.389   2.279  1.5082  0.5360  2.5635
   92MYC    C1317207   6.673   5.254   2.439 -0.2630 -0.3793  0.1314
   92MYC    H2217208   6.743   5.303   2.508 -1.6416  0.5092  0.9341
   92MYC    H2317209   6.683   5.145   2.442  0.7273 -0.3314 -0.7409
   92MYC    C1217210   6.523   5.301   2.451  0.2145 -0.7356 -0.0040
   92MYC    H2017211   6.498   5.283   2.556  1.4655  0.3319  0.5189
   92MYC    H2117212   6.458   5.237   2.391 -0.4346  0.6988 -0.8874
   92MYC    C1117213   6.492   5.447   2.421  0.0643 -0.2951  0.1794
   92MYC    H1817214   6.502   5.461   2.312  1.1758 -0.9468  0.1830
   92MYC    H1917215   6.559   5.511   2.480  0.4573 -0.8669  0.3586
   92MYC    C1017216   6.351   5.484   2.474  0.0323  0.0016 -0.1287
   92MYC    H1617217   6.274   5.413   2.441 -1.8154  1.2445  1.3181
   92MYC    H1717218   6.306   5.570   2.422 -2.1581 -1.5110 -0.9235
   92MYC     C917219   6.327   5.489   2.630 -0.3574 -0.2754 -0.5218
   92MYC    H1417220   6.400   5.558   2.674 -0.3760 -0.4889 -0.1532
   92MYC    H1517221   6.348   5.393   2.679  1.4489  0.2326 -0.2258
   92MYC     C817222   6.191   5.541   2.665  1.2596  0.1663 -0.1954
   92MYC    H1217223   6.112   5.465   2.661  2.4645 -1.1625  0.3166
   92MYC    H1317224   6.163   5.631   2.610 -0.6464  0.2756  0.8713
   92MYC     C717225   6.184   5.579   2.824  0.4792  0.9584  0.3418
   92MYC    H1017226   6.254   5.660   2.846  0.0023  1.0563  1.5569
   92MYC    H1117227   6.227   5.489   2.871  1.3144  0.9140 -0.4934
   92MYC     C617228   6.043   5.607   2.864 -0.1155 -0.0044  0.7240
   92MYC     H817229   5.988   5.513   2.860 -0.0540 -0.0108 -0.1829
   92MYC     H917230   5.998   5.674   2.790  0.3947  1.6358  1.8405
   92MYC     C517231   6.027   5.660   3.012  0.0100  0.0126  0.8465
   92MYC     H617232   5.924   5.689   3.036  0.1565 -0.2310  1.8235
   92MYC     H717233   6.097   5.741   3.037  0.9359 -0.9133  1.3438
   92MYC     C417234   6.069   5.560   3.116 -0.1688 -0.2881 -0.6161
   92MYC     H417235   6.173   5.530   3.098 -0.2979 -0.7646 -0.5912
   92MYC     H517236   6.004   5.473   3.102 -1.5889  0.6881 -0.2712
   92MYC     C217237   6.049   5.605   3.264 -0.1456 -0.0618 -0.0756
   92MYC     H217238   6.112   5.695   3.274  0.3510  0.0353 -3.1065
   92MYC     O317239   5.909   5.642   3.287 -0.3245 -0.0804  0.4698
   92MYC     H317240   5.857   5.560   3.292 -1.7107  0.2445 -4.2105
   92MYC     C117241   6.106   5.515   3.376  0.1858 -1.4341 -0.2943
   92MYC     H117242   6.214   5.528   3.379 -0.0804  1.2605  0.6610
   92MYC    C8117243   6.064   5.372   3.355 -0.6509 -0.2315  0.2915
   92MYC    O8217244   5.950   5.330   3.366  0.2897  0.0062 -0.5170
   92MYC    O8317245   6.157   5.284   3.309  0.5592 -0.3911  0.5656
   92MYC   H10517246   6.099   5.211   3.279 -2.3552  1.4038  1.5235
   92MYC    C2017247   6.069   5.565   3.520  0.5787  0.7652  0.7067
   92MYC    H3417248   6.113   5.665   3.533  0.7682  0.8643 -0.6397
   92MYC    H3517249   5.959   5.564   3.527  0.3045 -5.1226  0.2403
   92MYC    C2117250   6.144   5.483   3.636 -0.1305 -0.7866  0.2087
   92MYC    H3617251   6.229   5.427   3.596 -0.9513 -2.7850  1.1068
   92MYC    H3717252   6.194   5.554   3.702 -1.1544  0.0786  0.0969
   92MYC    C2217253   6.049   5.386   3.718 -0.3209  0.3957 -0.1940
   92MYC    H3817254   6.008   5.307   3.654  0.5831 -0.7717  0.6187
   92MYC    H3917255   6.117   5.324   3.778  0.0460  2.5381  1.7943
   92MYC    C2317256   5.959   5.459   3.815  1.4629  0.4340 -0.2171
   92MYC    H4017257   5.902   5.534   3.759 -0.2106 -1.4509 -1.2025
   92MYC    H4117258   5.890   5.381   3.851  0.2317  0.7823 -1.6907
   92MYC    C2417259   6.030   5.528   3.933  0.8888  0.1361  0.3775
   92MYC    H4217260   6.091   5.459   3.991 -0.1178 -0.3998  0.8285
   92MYC    H4317261   6.084   5.617   3.899 -0.7893  1.5658  1.2514
   92MYC    C2517262   5.931   5.588   4.035 -0.3028 -0.7905  0.3596
   92MYC    H4417263   5.867   5.670   4.000 -2.6616 -0.7593  4.1993
   92MYC    H4517264   5.864   5.508   4.069  1.3875 -2.3229  0.2552
   92MYC    C2617265   6.007   5.627   4.160  0.1330  0.1439  0.4627
   92MYC    H4617266   6.050   5.538   4.209  0.4847  0.1275  0.1261
   92MYC    H4717267   6.090   5.693   4.133 -0.9497  1.3967  0.0982
   92MYC    C2717268   5.920   5.710   4.260  0.3785  0.4837 -0.4968
   92MYC    H4817269   5.867   5.796   4.219  0.9694  0.5800 -1.0743
   92MYC    H4917270   5.847   5.632   4.285 -0.8616  2.1841  1.5733
   92MYC    C2817271   5.999   5.757   4.385 -0.2852  0.3607 -1.5287
   92MYC    H5017272   6.069   5.675   4.406 -1.2554 -0.1345 -0.1181
   92MYC    H5117273   6.063   5.843   4.365  0.9188  0.0729  0.7904
   92MYC    C2917274   5.904   5.782   4.510 -0.2555 -0.6050  0.1594
   92MYC    H5217275   5.840   5.868   4.488 -1.5053 -2.1076 -2.4701
   92MYC    H5317276   5.837   5.698   4.530 -0.0119 -0.5341  1.3728
   92MYC    C3017277   5.975   5.817   4.642 -0.0150  0.2532  0.0521
   92MYC    H5417278   6.044   5.734   4.662 -0.7228  0.1682  2.4324
   92MYC    H5517279   6.041   5.901   4.618  0.2753 -0.2827 -1.0993
   92MYC    C3117280   5.883   5.840   4.761  0.0107  0.1814 -0.2257
   92MYC    H5617281   5.861   5.948   4.763 -1.0255 -0.0239  0.8405
   92MYC    H5717282   5.784   5.794   4.763  0.0218  0.1369 -0.6169
   92MYC    C3217283   5.950   5.815   4.898 -0.5468  0.3725  0.4374
   92MYC    H5817284   5.969   5.709   4.915  2.8637  0.6335 -0.9578
   92MYC    H5917285   6.049   5.860   4.911 -0.8107  0.3359  3.0076
   92MYC    C3317286   5.856   5.847   5.012  0.4193 -0.2205 -0.6422
   92MYC    H6017287   5.811   5.943   4.986 -1.6564 -1.3051 -1.2037
   92MYC    H6117288   5.778   5.770   5.003  0.7734 -0.6698  0.0170
   92MYC    C3417289   5.895   5.835   5.164  0.3893 -0.9674  0.9118
   92MYC    H6217290   5.929   5.732   5.182  0.9267 -0.8221  0.7600
   92MYC    H6317291   5.981   5.901   5.180  0.7202 -0.5197 -2.0148
   92MYC    C3517292   5.784   5.852   5.270 -0.0574 -0.0816 -0.1155
   92MYC    H6417293   5.730   5.947   5.257  1.9966  1.2785  0.8584
   92MYC    H6517294   5.715   5.775   5.236  0.5533 -0.3577 -0.7556
   92MYC    C3617295   5.844   5.828   5.417 -0.0004 -0.8757  0.7807
   92MYC    H6617296   5.877   5.724   5.420 -4.0768 -2.3466  0.4981
   92MYC    H6717297   5.926   5.899   5.434 -2.5492  2.3869  0.5985
   92MYC    C3717298   5.738   5.848   5.523  0.5702 -0.3923 -0.2623
   92MYC    H6817299   5.728   5.955   5.545  3.2167 -0.1041 -0.1306
   92MYC    H6917300   5.645   5.807   5.481 -0.2353  2.7148 -1.8429
   92MYC    C3817301   5.778   5.775   5.653  0.1589 -0.1346  0.2010
   92MYC    H7017302   5.803   5.670   5.633  0.0355 -0.0143 -0.6274
   92MYC    H7117303   5.872   5.817   5.691  1.0102 -0.8524 -1.0340
   92MYC    C3917304   5.666   5.778   5.763 -0.3094  0.1458  0.2846
   92MYC    H7217305   5.616   5.873   5.784  0.0288  0.4458 -0.2484
   92MYC    H7317306   5.591   5.705   5.730  1.4417 -1.3484 -0.5731
   92MYC    C4017307   5.714   5.713   5.896  0.1534 -0.0667 -0.0944
   92MYC    H7417308   5.749   5.610   5.882  0.1852 -0.1630  0.6230
   92MYC    H7517309   5.800   5.776   5.924  0.0615  2.1709 -4.1530
   92MYC    C4117310   5.615   5.719   6.011  0.6986 -0.8690  0.1000
   92MYC    H7617311   5.596   5.820   6.048 -0.2545 -1.0874  0.2187
   92MYC    H7717312   5.521   5.675   5.976  0.3480  0.5641 -0.8554
   92MYC    C4217313   5.653   5.637   6.132  0.0552 -0.4179 -0.3868
   92MYC    H7817314   5.655   5.530   6.110  3.8023 -1.1536  2.5165
   92MYC    H7917315   5.748   5.680   6.168 -1.5504  1.4202  1.9480
   92MYC    C4317316   5.553   5.648   6.248  0.0062 -0.1660 -0.2412
   92MYC    H8017317   5.555   5.741   6.306 -1.0908 -0.3019  0.0214
   92MYC    H8117318   5.577   5.574   6.325 -0.8352 -0.9628 -0.7319
   92MYC    H8217319   5.455   5.621   6.209 -0.1311  0.1782 -0.1377
   93MYC   HH1517320   5.687   0.440   6.345  0.1071 -0.7251  1.9614
   93MYC    C8017321   5.584   0.477   6.337  0.5833  0.2188 -0.2219
   93MYC   H10017322   5.512   0.403   6.373  0.9614  0.7409  1.7418
   93MYC   H10117323   5.577   0.569   6.396 -0.1446 -0.5278  0.8829
   93MYC    C7917324   5.564   0.516   6.188  0.2428  0.1785 -0.2238
   93MYC   H10217325   5.641   0.591   6.166  0.3698 -0.1330 -0.8524
   93MYC   H10317326   5.462   0.545   6.162 -0.8626 -2.3814  0.9497
   93MYC    C7817327   5.582   0.389   6.102 -0.3062  0.2815 -0.0044
   93MYC   HH1417328   5.487   0.336   6.118 -1.3603  2.3128  1.0286
   93MYC   H10417329   5.671   0.336   6.137  0.9382  2.4863  0.3908
   93MYC    C7717330   5.596   0.422   5.951  0.2837  0.0123 -0.4504
   93MYC   H10617331   5.679   0.489   5.928  0.8054  0.1703  1.6614
   93MYC   H10717332   5.502   0.472   5.924 -1.2035 -2.4965 -0.2265
   93MYC    C7617333   5.609   0.298   5.859  0.2550 -0.0460 -1.0602
   93MYC   H10817334   5.536   0.222   5.889 -1.6799  2.1107  0.0130
   93MYC   H10917335   5.705   0.253   5.886  0.4427  1.2271  0.5584
   93MYC    C7517336   5.585   0.319   5.702  0.5839 -0.2029 -0.2100
   93MYC   H11017337   5.611   0.423   5.678  2.3572 -0.6019 -0.1383
   93MYC   H11117338   5.481   0.301   5.672  0.2915 -0.0062  0.6566
   93MYC    C7417339   5.657   0.232   5.602  0.2171 -0.9439 -0.9198
   93MYC   H11217340   5.618   0.130   5.614  2.1240 -1.5180  1.0965
   93MYC   H11317341   5.764   0.225   5.625  0.1001 -1.0383 -0.3707
   93MYC    C7317342   5.652   0.290   5.462  0.0825 -0.8417 -0.0512
   93MYC   HH1317343   5.708   0.385   5.460 -0.4442 -0.5430 -1.1336
   93MYC   H11417344   5.552   0.315   5.427 -0.0893  1.9271  1.9808
   93MYC    C7217345   5.712   0.195   5.363  0.2377  0.3224 -0.3658
   93MYC   H11517346   5.664   0.097   5.366  1.9427 -0.5548 -0.4045
   93MYC   H11617347   5.814   0.170   5.396  0.2515  1.1954  0.3015
   93MYC    C7117348   5.716   0.257   5.225 -0.3145 -0.1624  0.2892
   93MYC   H11717349   5.776   0.349   5.233  0.5633 -0.7630  0.8534
   93MYC   H11817350   5.621   0.290   5.181 -0.2470 -0.7169 -0.2969
   93MYC    C7017351   5.787   0.182   5.116  0.4891  0.0421  0.4412
   93MYC   H11917352   5.729   0.092   5.094 -1.3434  1.3265 -0.1584
   93MYC   H12017353   5.885   0.137   5.139  2.0535  0.5360 -4.2872
   93MYC    C6917354   5.807   0.252   4.977  0.2770  0.0483 -0.2296
   93MYC   H12117355   5.881   0.330   5.001  0.1186 -0.2108  1.1988
   93MYC   H12217356   5.707   0.293   4.956  0.8257  1.5977  0.0459
   93MYC    C6817357   5.854   0.151   4.864 -0.2103 -0.6810  0.3703
   93MYC   HH1217358   5.780   0.071   4.852 -2.5370  1.4103 -0.0378
   93MYC   H12317359   5.957   0.119   4.885  1.0109  1.5419 -1.8027
   93MYC    C6717360   5.879   0.216   4.723  0.4966  0.1825  0.5171
   93MYC   H12417361   5.943   0.302   4.747  0.0773  0.1892  1.6882
   93MYC   H12517362   5.780   0.259   4.701 -0.8325 -1.9034  2.0042
   93MYC    C6617363   5.936   0.121   4.614  0.2218 -0.0867 -0.4767
   93MYC   H12617364   5.861   0.041   4.607 -1.7660  1.5309  1.0560
   93MYC   H12717365   6.035   0.085   4.647 -0.8377 -1.8893  0.9362
   93MYC    C6517366   5.957   0.189   4.472  0.1624 -0.2640 -0.5383
   93MYC   H12817367   6.031   0.270   4.481 -1.1125  0.8265  0.7564
   93MYC   H12917368   5.859   0.231   4.448  0.9529  1.9984 -0.0621
   93MYC    C6417369   5.984   0.078   4.357 -0.0016  0.4617 -0.0897
   93MYC   H13017370   5.911  -0.003   4.355  0.2095  0.2745 -2.4959
   93MYC   H13117371   6.087   0.046   4.376  0.0510  0.8607  0.3487
   93MYC    C6317372   5.993   0.138   4.219  0.0322  0.1313  0.4272
   93MYC   HH1117373   6.065   0.221   4.214 -0.1981  0.2922 -0.1980
   93MYC   H13217374   5.896   0.176   4.186  0.2951 -0.0549 -0.5891
   93MYC    C6217375   6.028   0.040   4.101 -0.0913 -1.2460  0.3951
   93MYC   H13317376   5.955  -0.042   4.095 -1.8102  0.2990 -1.2852
   93MYC   H13417377   6.127  -0.007   4.107  0.1821 -0.7190  0.1098
   93MYC    C6117378   6.011   0.116   3.959 -0.5612 -0.0295  1.4918
   93MYC   H13517379   6.073   0.206   3.951 -0.2426 -0.3278  0.4622
   93MYC   H13617380   5.912   0.162   3.944 -0.0801  0.2762 -1.4162
   93MYC    C6017381   6.016   0.022   3.836  0.7626 -0.3483  0.1195
   93MYC   H13717382   5.930  -0.043   3.826  0.6916 -0.4356  1.1907
   93MYC    C5817383   6.088   0.073   3.711 -0.4092 -0.9463  0.0493
   93MYC   H13817384   6.137   0.170   3.715 -0.6247 -0.8594  0.7132
   93MYC    C5917385   6.145  -0.036   3.799 -0.3185  0.2249  0.2197
   93MYC   H13917386   6.133  -0.137   3.759 -0.0090  0.6021 -0.8475
   93MYC   H14017387   6.235  -0.026   3.859  0.1896  0.5703 -0.5831
   93MYC    C5717388   6.038   0.044   3.573 -0.1582 -0.1752  0.1345
   93MYC   HH1017389   5.991   0.139   3.545 -3.6373 -2.1057 -1.1011
   93MYC   H14117390   5.963  -0.034   3.591  0.8269 -1.0517  0.6104
   93MYC    C5617391   6.144  -0.004   3.469  0.4095  0.4112 -0.5173
   93MYC   H14217392   6.172  -0.103   3.508  0.1910  0.5684  0.0499
   93MYC   H14317393   6.223   0.071   3.477 -0.8544  1.7938 -0.5304
   93MYC    C5517394   6.098  -0.019   3.322  0.1283  0.1048  0.9180
   93MYC   H14417395   6.062   0.077   3.285 -1.1614 -1.0526 -0.9610
   93MYC   H14517396   6.006  -0.077   3.338 -0.1215  0.4246  0.6487
   93MYC    C5417397   6.198  -0.101   3.230 -0.1038  0.3877 -0.4658
   93MYC   H14617398   6.232  -0.181   3.297 -2.3590  0.0149  0.3014
   93MYC   H14717399   6.288  -0.041   3.211  1.1985 -0.9726  1.0738
   93MYC    C5317400   6.131  -0.141   3.092 -0.3929 -0.6708 -0.4847
   93MYC   H14817401   6.105  -0.046   3.044  0.5590  1.1356  2.2969
   93MYC   H14917402   6.038  -0.198   3.103 -1.2970  0.8992  0.3510
   93MYC    C5217403   6.228  -0.227   3.004  0.4246  0.0097 -0.0614
   93MYC    H9917404   6.242  -0.329   3.042 -0.8359  0.1762  0.9224
   93MYC   H15017405   6.332  -0.198   2.989  0.7103 -1.2596 -0.6602
   93MYC    C5117406   6.192  -0.248   2.855  0.4437 -0.2963  0.2887
   93MYC    H9717407   6.180  -0.146   2.815 -0.2164 -0.9062 -1.1391
   93MYC    H9817408   6.093  -0.294   2.845  0.1408  0.5551 -0.8068
   93MYC    C5017409   6.288  -0.321   2.770 -1.1287 -1.0432  0.4848
   93MYC    H9517410   6.340  -0.402   2.823  0.5802 -0.0943  0.3437
   93MYC    H9617411   6.374  -0.257   2.746 -0.2281 -2.5696 -0.5459
   93MYC    C4917412   6.232  -0.366   2.635  0.1173 -0.5210  0.4133
   93MYC    H9317413   6.182  -0.281   2.587  0.9917 -0.6939 -0.8323
   93MYC    H9417414   6.158  -0.447   2.645  1.3665 -1.8796 -0.9238
   93MYC    C4817415   6.340  -0.433   2.544  0.0379  0.0972  0.0201
   93MYC    H9117416   6.403  -0.496   2.608 -0.8695  0.6346  1.4756
   93MYC    H9217417   6.403  -0.358   2.494  1.8150 -1.5346 -0.3196
   93MYC    C4717418   6.282  -0.518   2.430  0.1373  0.1037  0.0995
   93MYC    H8917419   6.210  -0.457   2.373  0.5983  0.4596 -0.1041
   93MYC    H9017420   6.240  -0.610   2.471  2.1103 -0.5327  0.7912
   93MYC    C4617421   6.393  -0.570   2.335  0.1805  0.4238 -0.2566
   93MYC    H8717422   6.465  -0.626   2.395  2.9321  2.4099 -1.4757
   93MYC    H8817423   6.452  -0.488   2.291 -2.2636  1.9184 -0.9124
   93MYC    C4517424   6.333  -0.654   2.212 -0.2984  0.2642 -0.1035
   93MYC    H8517425   6.231  -0.685   2.239 -0.0005  0.7576  1.6773
   93MYC    H8617426   6.391  -0.745   2.193 -1.2818 -0.7159  1.3934
   93MYC    C4417427   6.328  -0.586   2.071  0.3652 -0.8071 -0.2250
   93MYC    H8317428   6.332  -0.658   1.988  3.6583  2.1081 -2.9599
   93MYC    H8417429   6.426  -0.539   2.055  0.0021  0.1622  0.3128
   93MYC    C1817430   6.223  -0.479   2.042 -0.4378 -0.2493  0.2862
   93MYC    H3117431   6.126  -0.526   2.024 -0.7190 -0.1687  1.4994
   93MYC    C1717432   6.227  -0.343   2.107  0.1545 -0.2548  0.1966
   93MYC    H3017433   6.303  -0.336   2.184 -0.4053 -0.9241  0.8275
   93MYC    C1917434   6.262  -0.364   1.958 -0.3805  0.3341  0.8206
   93MYC    H3217435   6.370  -0.364   1.942 -0.3027 -5.1042 -0.4023
   93MYC    H3317436   6.184  -0.325   1.894  0.2864  0.8099  0.2771
   93MYC    C1617437   6.096  -0.284   2.145 -0.7028 -0.4366  0.1477
   93MYC    H2817438   6.082  -0.313   2.250  0.1732 -1.4275  0.0056
   93MYC    H2917439   6.005  -0.328   2.102 -0.6636  0.3141 -0.7450
   93MYC    C1517440   6.076  -0.128   2.126  0.7679 -0.4024 -0.4958
   93MYC    H2617441   5.985  -0.112   2.184 -0.1360  0.0921 -2.0031
   93MYC    H2717442   6.057  -0.102   2.021  0.4905 -0.3250 -0.4274
   93MYC    C1417443   6.180  -0.039   2.185 -0.6556 -0.3649  0.6681
   93MYC    H2417444   6.157   0.068   2.175 -0.0273 -0.1536  1.4211
   93MYC    H2517445   6.280  -0.059   2.145 -0.7044 -1.2546  0.9661
   93MYC    C1317446   6.179  -0.044   2.329 -0.7097 -0.7589  0.0021
   93MYC    H2217447   6.175  -0.146   2.369  0.1707 -0.7594  0.1054
   93MYC    H2317448   6.083   0.005   2.348 -0.2156  0.7601 -1.1613
   93MYC    C1217449   6.292   0.039   2.404 -0.3393 -0.7057  0.0473
   93MYC    H2017450   6.280   0.145   2.377  0.8242 -0.8582 -1.1826
   93MYC    H2117451   6.385   0.003   2.359 -0.8797 -0.5800 -1.2141
   93MYC    C1117452   6.289   0.023   2.554  0.3733 -0.1106 -0.0956
   93MYC    H1817453   6.320  -0.078   2.583  3.5033  0.6837 -0.2599
   93MYC    H1917454   6.186   0.025   2.590  0.7372 -1.1010  1.0567
   93MYC    C1017455   6.386   0.116   2.618  0.3812  0.1844  0.4192
   93MYC    H1617456   6.361   0.221   2.602  0.4397  0.8547  3.9664
   93MYC    H1717457   6.484   0.096   2.572  0.2142 -0.6049  0.3946
   93MYC     C917458   6.400   0.098   2.775 -0.2470 -0.0049  0.0778
   93MYC    H1417459   6.428  -0.006   2.797  0.8540  0.1048 -0.6763
   93MYC    H1517460   6.301   0.116   2.817 -0.9246 -0.8554 -1.1031
   93MYC     C817461   6.497   0.192   2.854  0.2640 -0.5351 -0.4500
   93MYC    H1217462   6.471   0.292   2.819 -0.1483 -0.0306  1.2283
   93MYC    H1317463   6.598   0.170   2.818  0.2277 -1.5996  0.0277
   93MYC     C717464   6.501   0.186   3.008  0.1645  0.1484 -0.0519
   93MYC    H1017465   6.586   0.246   3.043  0.5373 -0.0606 -0.5853
   93MYC    H1117466   6.525   0.084   3.040 -1.1636 -0.1221  0.1378
   93MYC     C617467   6.372   0.241   3.062 -0.0099  0.5785  0.0370
   93MYC     H817468   6.295   0.165   3.049  0.8041 -0.4334  0.9211
   93MYC     H917469   6.345   0.331   3.005  1.1260 -0.4731 -2.2919
   93MYC     C517470   6.379   0.288   3.210  0.3591  0.5963 -0.2387
   93MYC     H617471   6.468   0.351   3.226  0.4071  0.4215  0.1884
   93MYC     H717472   6.394   0.199   3.273 -0.5408  0.4037 -0.2908
   93MYC     C417473   6.264   0.366   3.282 -0.3772  0.0200  0.9177
   93MYC     H417474   6.168   0.316   3.266  0.5304 -1.0214 -2.2112
   93MYC     H517475   6.248   0.454   3.218 -0.8010 -1.3985 -1.0147
   93MYC     C217476   6.294   0.410   3.427 -0.4040  0.5314 -0.1244
   93MYC     H217477   6.314   0.319   3.486  5.0343  2.2219  1.1480
   93MYC     O317478   6.421   0.479   3.451  0.4835  0.5579 -0.2197
   93MYC     H317479   6.492   0.435   3.400 -0.4738 -0.9165 -0.3341
   93MYC     C117480   6.179   0.491   3.493 -0.7019  0.8304 -0.2322
   93MYC     H117481   6.095   0.421   3.498  0.0247 -0.0047  0.6388
   93MYC    C8117482   6.131   0.609   3.405 -0.1777  0.2692 -0.5461
   93MYC    O8217483   6.200   0.697   3.365  0.3940 -0.0740  0.1485
   93MYC    O8317484   6.003   0.607   3.372 -0.4430  0.0465 -0.0412
   93MYC   H10517485   5.980   0.695   3.336 -4.3931 -0.7039  0.2410
   93MYC    C2017486   6.207   0.553   3.632  0.0954  0.0029  1.0040
   93MYC    H3417487   6.285   0.628   3.616  0.5932 -0.9001 -1.1039
   93MYC    H3517488   6.119   0.606   3.670  1.4474  1.3116  2.4450
   93MYC    C2117489   6.260   0.457   3.742 -0.5423 -0.0025 -0.4254
   93MYC    H3617490   6.192   0.380   3.780 -0.3685  0.3054  0.5501
   93MYC    H3717491   6.344   0.399   3.703 -0.7163 -2.7619  2.8688
   93MYC    C2217492   6.316   0.516   3.875  0.3278  0.5722 -0.1875
   93MYC    H3817493   6.408   0.572   3.854  0.5086  0.5714  0.5712
   93MYC    H3917494   6.244   0.587   3.919 -0.8648 -0.6048 -0.1753
   93MYC    C2317495   6.348   0.408   3.987  0.3595  0.1873  0.7726
   93MYC    H4017496   6.265   0.345   4.022 -1.2819  0.9879 -1.4772
   93MYC    H4117497   6.417   0.340   3.937 -3.5923 -1.6882 -2.7260
   93MYC    C2417498   6.402   0.477   4.120  0.2204  0.2772  0.4084
   93MYC    H4217499   6.491   0.424   4.155  0.6847  1.6341  1.3665
   93MYC    H4317500   6.437   0.578   4.096  1.8026 -0.2206  0.5160
   93MYC    C2517501   6.292   0.494   4.224 -0.1665 -0.7242 -0.3079
   93MYC    H4417502   6.230   0.578   4.190  1.2913  0.8815  0.8089
   93MYC    H4517503   6.219   0.413   4.233 -3.6981  2.3590  2.8886
   93MYC    C2617504   6.351   0.527   4.361 -0.4416  0.0790 -0.7091
   93MYC    H4617505   6.427   0.456   4.396  0.6006  0.9828 -1.0753
   93MYC    H4717506   6.409   0.619   4.351  2.3811 -1.4390  0.5278
   93MYC    C2717507   6.237   0.530   4.460  0.2422  0.6319 -0.7918
   93MYC    H4817508   6.169   0.611   4.429  0.0502  0.7637 -0.0516
   93MYC    H4917509   6.184   0.434   4.463  0.4830  0.4874  2.5801
   93MYC    C2817510   6.282   0.558   4.603  0.5382  0.4045 -0.3511
   93MYC    H5017511   6.349   0.473   4.620 -1.0957 -0.6146  1.4013
   93MYC    H5117512   6.342   0.650   4.606  0.4127  0.7896 -4.5115
   93MYC    C2917513   6.178   0.551   4.713 -0.0418  0.1079  0.7610
   93MYC    H5217514   6.092   0.619   4.704 -0.8523 -0.8170  1.3847
   93MYC    H5317515   6.134   0.451   4.716  0.5396 -0.1295  2.0165
   93MYC    C3017516   6.244   0.560   4.849 -0.3872  0.2694 -0.6780
   93MYC    H5417517   6.330   0.493   4.856  0.3187  1.0990 -1.1915
   93MYC    H5517518   6.289   0.660   4.844  1.6237 -0.6477 -3.4090
   93MYC    C3117519   6.142   0.543   4.955 -0.5661  0.2610 -0.0612
   93MYC    H5617520   6.067   0.623   4.946 -0.3053  0.8443  2.3218
   93MYC    H5717521   6.093   0.446   4.943 -1.5488  1.0311 -3.0695
   93MYC    C3217522   6.198   0.546   5.099 -0.5294  0.4267 -0.1445
   93MYC    H5817523   6.281   0.474   5.103 -0.1077  0.9573  2.2253
   93MYC    H5917524   6.226   0.652   5.099  0.5154  0.1948  1.6794
   93MYC    C3317525   6.091   0.530   5.206 -0.3946 -0.4890  0.6431
   93MYC    H6017526   6.025   0.617   5.206  0.9660  0.5817  1.8548
   93MYC    H6117527   6.026   0.446   5.174  0.4510 -0.1978 -2.1156
   93MYC    C3417528   6.148   0.507   5.340 -0.4199  0.1722 -0.3269
   93MYC    H6217529   6.200   0.410   5.343 -2.0136 -0.7578 -1.4990
   93MYC    H6317530   6.216   0.589   5.367 -0.4653 -0.7635  3.1146
   93MYC    C3517531   6.043   0.492   5.470  0.2528 -0.5169  0.7802
   93MYC    H6417532   5.967   0.569   5.456  1.2617  0.3932  0.1604
   93MYC    H6517533   6.002   0.390   5.467  2.7794 -1.6482  1.2189
   93MYC    C3617534   6.120   0.511   5.604  0.5977 -0.4455  0.5058
   93MYC    H6617535   6.191   0.428   5.614  1.5445 -0.0895 -2.3033
   93MYC    H6717536   6.178   0.603   5.594 -1.4927  0.7669 -1.1196
   93MYC    C3717537   6.031   0.518   5.725 -0.1852 -0.2124  0.3551
   93MYC    H6817538   5.959   0.601   5.717  0.0409 -0.1011 -0.6857
   93MYC    H6917539   5.981   0.421   5.715 -0.5961  0.1795 -2.2915
   93MYC    C3817540   6.100   0.509   5.857 -0.4779 -0.0065  0.3041
   93MYC    H7017541   6.157   0.417   5.869  0.3657  0.3321 -0.9941
   93MYC    H7117542   6.174   0.589   5.863  0.8441 -1.2402  1.1273
   93MYC    C3917543   5.993   0.508   5.972 -0.5633 -0.5184  0.0895
   93MYC    H7217544   5.930   0.597   5.965 -1.1286 -0.9854 -0.9031
   93MYC    H7317545   5.925   0.424   5.957  2.1409 -2.7118 -0.7415
   93MYC    C4017546   6.067   0.506   6.114  0.0449  0.4233  0.3323
   93MYC    H7417547   6.117   0.409   6.111 -0.6671  0.0676 -0.3670
   93MYC    H7517548   6.137   0.590   6.121  1.2727 -0.6962  2.3197
   93MYC    C4117549   5.963   0.514   6.222  0.1833 -0.1018  0.4733
   93MYC    H7617550   5.896   0.600   6.225  0.2343  0.0200 -0.9072
   93MYC    H7717551   5.887   0.435   6.216  1.4991 -1.4129  0.2913
   93MYC    C4217552   6.036   0.513   6.359  0.8644  0.4094 -0.2646
   93MYC    H7817553   6.071   0.409   6.361 -2.4510 -0.8261  0.3512
   93MYC    H7917554   6.115   0.587   6.377  1.3062 -0.1149 -0.0362
   93MYC    C4317555   5.943   0.529   6.484  0.3914  0.2895 -0.0104
   93MYC    H8017556   5.856   0.462   6.477 -0.8168  1.6939  0.9794
   93MYC    H8117557   5.893   0.627   6.478 -0.6790 -0.2408  0.1102
   93MYC    H8217558   5.996   0.519   6.579  3.8812 -2.9424 -2.0089
   94MYC   HH1517559   6.398   0.478   6.291  1.3676 -2.3004  1.7077
   94MYC    C8017560   6.480   0.482   6.219 -0.5212 -0.5668 -0.4983
   94MYC   H10017561   6.495   0.588   6.196 -0.4024 -0.3800  0.4261
   94MYC   H10117562   6.563   0.441   6.277  0.8084  2.4991 -0.0383
   94MYC    C7917563   6.443   0.421   6.078  0.7060  0.0021  0.2694
   94MYC   H10217564   6.356   0.480   6.044  0.2828  0.9946  2.8627
   94MYC   H10317565   6.422   0.315   6.091  2.6916 -0.6228 -1.0610
   94MYC    C7817566   6.550   0.438   5.960 -0.2482  0.6934 -0.1687
   94MYC   HH1417567   6.625   0.358   5.956  0.7552  1.5991  0.1083
   94MYC   H10417568   6.602   0.534   5.976 -2.6463  1.9008  0.8653
   94MYC    C7717569   6.484   0.440   5.820  0.0887  0.2199  0.3523
   94MYC   H10617570   6.421   0.530   5.814 -0.5697 -0.2949 -0.7787
   94MYC   H10717571   6.420   0.351   5.814  0.4052 -0.0590  1.0187
   94MYC    C7617572   6.582   0.447   5.703  0.3059 -0.1117 -0.5005
   94MYC   H10817573   6.647   0.359   5.712 -0.2694 -0.4319  0.7655
   94MYC   H10917574   6.646   0.536   5.705  1.6011 -1.0212 -0.0680
   94MYC    C7517575   6.516   0.454   5.567  0.2434  0.3498 -0.0749
   94MYC   H11017576   6.449   0.540   5.561  1.0330  1.0529  0.9473
   94MYC   H11117577   6.449   0.369   5.548  0.1747  0.1354  1.0655
   94MYC    C7417578   6.616   0.479   5.445  0.2719  0.2893 -0.0497
   94MYC   H11217579   6.694   0.403   5.460 -1.1549 -0.9705  1.3038
   94MYC   H11317580   6.658   0.580   5.457  0.4080  0.5053 -2.0299
   94MYC    C7317581   6.544   0.478   5.309 -0.1689 -0.2123  0.0678
   94MYC   HH1317582   6.478   0.565   5.306  0.4764  0.3594  1.1949
   94MYC   H11417583   6.486   0.387   5.295 -0.0201 -0.0837 -1.5256
   94MYC    C7217584   6.643   0.491   5.191 -0.3726  0.0131 -0.2695
   94MYC   H11517585   6.719   0.413   5.201 -0.7775 -0.2412  1.1207
   94MYC   H11617586   6.691   0.589   5.189 -1.1892  0.4152 -2.0362
   94MYC    C7117587   6.561   0.473   5.050 -0.3983  0.6625 -0.6368
   94MYC   H11717588   6.478   0.545   5.049 -1.7339 -0.7228  1.6779
   94MYC   H11817589   6.524   0.370   5.056  3.1457 -0.6587  2.0302
   94MYC    C7017590   6.661   0.489   4.922  0.1304 -0.2666 -0.3428
   94MYC   H11917591   6.747   0.422   4.931  0.7219  0.6423  1.1934
   94MYC   H12017592   6.712   0.586   4.936 -0.8021 -0.0486  1.8960
   94MYC    C6917593   6.614   0.487   4.777 -0.2152 -0.6909  0.4590
   94MYC   H12117594   6.546   0.572   4.764 -3.0098 -2.6166  1.5810
   94MYC   H12217595   6.551   0.398   4.766  1.0300 -2.1215  3.6583
   94MYC    C6817596   6.733   0.509   4.682  0.1585 -0.1477  0.2557
   94MYC   HH1217597   6.808   0.430   4.695 -0.5574 -0.6384  1.5236
   94MYC   H12317598   6.771   0.612   4.694  1.3958 -0.0682 -3.2835
   94MYC    C6717599   6.674   0.498   4.532  0.3800  0.5970 -0.2152
   94MYC   H12417600   6.601   0.577   4.514 -0.0486  0.7685  1.9661
   94MYC   H12517601   6.622   0.403   4.513  3.4261 -0.8597 -2.0797
   94MYC    C6617602   6.782   0.508   4.424 -0.0129 -0.3876 -0.7889
   94MYC   H12617603   6.866   0.447   4.458 -0.0222  1.4853  3.2533
   94MYC   H12717604   6.815   0.613   4.428 -0.6402 -0.1515 -1.6380
   94MYC    C6517605   6.732   0.484   4.278  0.0030 -0.2138 -0.2761
   94MYC   H12817606   6.662   0.561   4.244 -0.3049 -0.3749 -0.0127
   94MYC   H12917607   6.670   0.394   4.278 -1.7703  0.9352  1.2977
   94MYC    C6417608   6.842   0.479   4.178  0.7058  0.0069  0.1769
   94MYC   H13017609   6.920   0.416   4.222 -0.2959 -0.4483  1.3486
   94MYC   H13117610   6.880   0.579   4.157 -0.3290  0.0200 -1.9287
   94MYC    C6317611   6.782   0.423   4.043 -0.4290 -0.0548 -1.3619
   94MYC   HH1117612   6.686   0.473   4.021 -0.1388  0.4853 -1.4333
   94MYC   H13217613   6.760   0.318   4.063 -0.3335  0.1072 -0.3292
   94MYC    C6217614   6.868   0.441   3.920 -0.6219 -0.3532 -0.8692
   94MYC   H13317615   6.970   0.399   3.922 -0.6597 -0.4524  1.7778
   94MYC   H13417616   6.863   0.548   3.896  0.0579  0.3269  1.7471
   94MYC    C6117617   6.799   0.386   3.799  0.3786 -0.1621 -0.5990
   94MYC   H13517618   6.711   0.449   3.781 -0.6026 -0.9090  1.2633
   94MYC   H13617619   6.765   0.283   3.815  4.4492 -1.6475 -0.3618
   94MYC    C6017620   6.878   0.380   3.666 -0.6284 -0.4312  0.9828
   94MYC   H13717621   6.978   0.339   3.675 -0.2197  0.4387  0.5428
   94MYC    C5817622   6.814   0.363   3.531  0.0982  0.8250 -0.2982
   94MYC   H13817623   6.707   0.344   3.526  0.2116  0.4188 -1.5931
   94MYC    C5917624   6.863   0.501   3.565 -0.3303 -0.2202 -0.6113
   94MYC   H13917625   6.962   0.538   3.536 -1.2929  1.8949 -1.3994
   94MYC   H14017626   6.782   0.572   3.574 -1.0757 -0.6853 -3.0955
   94MYC    C5717627   6.882   0.285   3.416  0.4932 -0.1537  0.2575
   94MYC   HH1017628   6.882   0.177   3.434  0.2956 -0.1772  0.1209
   94MYC   H14117629   6.987   0.317   3.405 -0.3511  2.3800 -1.3337
   94MYC    C5617630   6.816   0.312   3.281 -0.5733  0.1081 -0.0129
   94MYC   H14217631   6.806   0.418   3.258 -1.2341  0.1230  0.3112
   94MYC   H14317632   6.712   0.277   3.282 -0.6766  0.3476 -1.1463
   94MYC    C5517633   6.879   0.250   3.157  0.0238 -0.6620  0.1574
   94MYC   H14417634   6.979   0.292   3.138 -1.8181  4.8050  0.7606
   94MYC   H14517635   6.825   0.293   3.071 -0.6473 -0.5993  0.5995
   94MYC    C5417636   6.873   0.099   3.150  0.2146 -0.2864 -0.1275
   94MYC   H14617637   6.767   0.077   3.129  0.2634 -0.8693  0.2255
   94MYC   H14717638   6.891   0.052   3.247  0.0425 -0.9463 -0.4140
   94MYC    C5317639   6.971   0.030   3.049 -0.2612 -0.0980 -0.2619
   94MYC   H14817640   6.926  -0.070   3.055 -4.0138  1.3116 -1.7511
   94MYC   H14917641   7.073   0.032   3.087  0.2643 -0.1613 -1.5952
   94MYC    C5217642   6.955   0.080   2.898  0.2852  0.4530 -0.3762
   94MYC    H9917643   6.967   0.189   2.894  1.7624  0.4184  1.5309
   94MYC   H15017644   6.854   0.048   2.869  0.7586 -1.1942 -0.3187
   94MYC    C5117645   7.062   0.019   2.803 -0.9822 -0.6661  0.0100
   94MYC    H9717646   7.057  -0.090   2.813  0.1183 -0.5437  3.2078
   94MYC    H9817647   7.160   0.062   2.825 -1.5115  0.7871 -0.3510
   94MYC    C5017648   7.035   0.059   2.658 -0.5214  0.4177  0.3582
   94MYC    H9517649   7.040   0.167   2.637  0.3122  0.8331  2.4505
   94MYC    H9617650   6.935   0.030   2.623  0.2260  0.5693 -2.0514
   94MYC    C4917651   7.135  -0.017   2.556  0.4123  0.4188 -0.2956
   94MYC    H9317652   7.149  -0.122   2.581  2.8911  0.4545 -1.2646
   94MYC    H9417653   7.240   0.007   2.572  0.2445  1.4381 -0.6236
   94MYC    C4817654   7.086  -0.030   2.405  0.9960 -0.4583  0.8068
   94MYC    H9117655   7.021  -0.117   2.414  0.5377  0.0425  2.8515
   94MYC    H9217656   7.179  -0.057   2.354  0.3229 -0.2556 -0.5834
   94MYC    C4717657   7.025   0.095   2.336 -0.0919 -0.5891 -0.6162
   94MYC    H8917658   6.968   0.151   2.412  0.2937 -0.0405 -0.7217
   94MYC    H9017659   6.960   0.055   2.258 -0.3149 -1.1598 -0.1497
   94MYC    C4617660   7.136   0.184   2.290 -0.8755  0.2201  0.6960
   94MYC    H8717661   7.192   0.140   2.206 -2.7227 -0.1060 -0.4128
   94MYC    H8817662   7.214   0.197   2.366  0.5740 -2.5688 -0.1618
   94MYC    C4517663   7.091   0.324   2.252  0.0083 -0.3755 -0.0498
   94MYC    H8517664   7.050   0.379   2.337  1.0630 -1.4578  1.2080
   94MYC    H8617665   7.010   0.310   2.180  0.9011 -0.4422 -1.0719
   94MYC    C4417666   7.206   0.406   2.181 -0.5283 -0.6003  0.3400
   94MYC    H8317667   7.304   0.377   2.220 -0.8823  0.2316  1.9589
   94MYC    H8417668   7.185   0.508   2.217 -2.7993 -0.3910 -1.3636
   94MYC    C1817669   7.206   0.402   2.035  0.2803  0.0614  0.7455
   94MYC    H3117670   7.105   0.399   1.993  0.0957  2.0902  0.9705
   94MYC    C1717671   7.323   0.467   1.963 -0.2071 -0.4475  0.7180
   94MYC    H3017672   7.396   0.518   2.024  0.4765  0.7000 -0.9685
   94MYC    C1917673   7.317   0.317   1.973 -0.3617  0.8951  0.6261
   94MYC    H3217674   7.384   0.261   2.038  0.2867 -1.2330 -1.7017
   94MYC    H3317675   7.304   0.272   1.875 -1.1084 -0.4712  1.3134
   94MYC    C1617676   7.324   0.516   1.816 -0.1545  0.1380 -0.9272
   94MYC    H2817677   7.226   0.503   1.770 -2.2425  5.0378  1.3858
   94MYC    H2917678   7.401   0.472   1.752 -0.6509  0.7110 -1.9436
   94MYC    C1517679   7.344   0.670   1.810 -0.1551 -0.0315  0.1514
   94MYC    H2617680   7.337   0.695   1.703 -3.3417  0.6153  0.4203
   94MYC    H2717681   7.444   0.701   1.843 -0.3313  0.1639  0.5100
   94MYC    C1417682   7.237   0.753   1.880  0.7131  0.6773 -0.1576
   94MYC    H2417683   7.236   0.728   1.987  1.2739 -2.5067 -0.8010
   94MYC    H2517684   7.133   0.732   1.854  0.4049 -0.8833  2.0480
   94MYC    C1317685   7.260   0.904   1.859  0.2213 -0.0415 -0.3929
   94MYC    H2217686   7.184   0.932   1.785  0.3123 -0.7887 -0.7818
   94MYC    H2317687   7.363   0.928   1.830  0.6015  0.8411  1.5469
   94MYC    C1217688   7.230   0.981   1.991  0.2942 -0.2751  0.0168
   94MYC    H2017689   7.291   0.941   2.073 -0.0288 -2.1996 -0.6151
   94MYC    H2117690   7.124   0.972   2.018  0.2221 -0.4893 -0.3318
   94MYC    C1117691   7.244   1.129   1.982 -0.7403 -0.4241  0.2611
   94MYC    H1817692   7.166   1.156   1.910 -0.1392 -3.5785 -1.8072
   94MYC    H1917693   7.349   1.147   1.956  0.1915 -1.8799  2.7130
   94MYC    C1017694   7.233   1.196   2.122  0.4511 -0.0762 -0.2220
   94MYC    H1617695   7.262   1.301   2.115  2.4664 -0.4070  1.7353
   94MYC    H1717696   7.311   1.154   2.188 -1.9156 -1.5056  1.8373
   94MYC     C917697   7.096   1.179   2.189 -0.2681  0.0561 -0.4593
   94MYC    H1417698   7.090   1.075   2.222 -0.1036  0.1329 -0.1799
   94MYC    H1517699   7.017   1.221   2.126  0.5176  0.3031 -1.2940
   94MYC     C817700   7.076   1.277   2.305  0.2603  0.6127 -0.2566
   94MYC    H1217701   7.102   1.376   2.267  0.3032  1.3477  1.6069
   94MYC    H1317702   7.161   1.250   2.368  0.4053 -0.9544 -1.0610
   94MYC     C717703   6.940   1.274   2.374 -0.3691  0.3944  0.5211
   94MYC    H1017704   6.949   1.176   2.422  0.5245  0.5308  0.6547
   94MYC    H1117705   6.862   1.265   2.297  0.7972 -1.1186 -0.5493
   94MYC     C617706   6.920   1.381   2.478  0.0976  0.6483  0.6854
   94MYC     H817707   6.811   1.387   2.486 -0.3026 -2.5844 -0.9948
   94MYC     H917708   6.941   1.478   2.432 -1.2340  0.7275  0.1998
   94MYC     C517709   7.007   1.370   2.614  0.0397  0.8027  0.9289
   94MYC     H617710   6.997   1.463   2.672  0.2016  0.7645  1.0192
   94MYC     H717711   7.113   1.354   2.593 -0.5351 -1.1301 -0.7866
   94MYC     C417712   6.955   1.265   2.705  0.5659  0.5853  0.3166
   94MYC     H417713   7.021   1.180   2.685  2.7941  1.7939  2.1185
   94MYC     H517714   6.850   1.243   2.681  1.0265 -0.1669 -1.1161
   94MYC     C217715   6.961   1.290   2.854  0.4180  1.0125  0.5344
   94MYC     H217716   7.061   1.334   2.863  0.7913  0.1964  0.5130
   94MYC     O317717   6.858   1.386   2.891  0.2417 -0.7055  0.7576
   94MYC     H317718   6.813   1.418   2.811  1.7653 -0.8687 -0.2069
   94MYC     C117719   6.957   1.161   2.937 -0.0250 -0.5570  0.3919
   94MYC     H117720   7.046   1.099   2.919 -0.6691 -1.9718  1.7718
   94MYC    C8117721   6.838   1.070   2.905  0.4876 -0.2420  0.0216
   94MYC    O8217722   6.718   1.099   2.927 -0.5020  0.1754  0.0875
   94MYC    O8317723   6.873   0.960   2.833 -0.3645 -0.4747  0.1739
   94MYC   H10517724   6.803   0.893   2.845 -0.3426 -0.7660 -1.1915
   94MYC    C2017725   6.961   1.196   3.095  0.4909  0.1630  0.7450
   94MYC    H3417726   6.874   1.260   3.114 -0.5045 -0.1704 -2.1561
   94MYC    H3517727   6.940   1.101   3.146 -0.6079 -0.1134 -0.1793
   94MYC    C2117728   7.097   1.264   3.146  0.0410 -0.6350  0.4066
   94MYC    H3617729   7.182   1.195   3.153  0.7013  0.2619  1.5440
   94MYC    H3717730   7.120   1.344   3.075  2.3284 -1.7508 -0.2084
   94MYC    C2217731   7.086   1.332   3.287 -0.8802  0.1015 -0.4445
   94MYC    H3817732   7.182   1.372   3.322 -0.6479 -0.3812 -0.5291
   94MYC    H3917733   7.006   1.406   3.291  2.7654  4.4659  0.7712
   94MYC    C2317734   7.042   1.221   3.385  0.0999  0.2307 -0.2298
   94MYC    H4017735   6.943   1.189   3.351 -0.6516 -2.3281  3.7411
   94MYC    H4117736   7.120   1.145   3.394  0.0142  0.0737 -0.7535
   94MYC    C2417737   7.018   1.279   3.525  0.7028  0.0859 -0.5298
   94MYC    H4217738   7.090   1.359   3.548  1.7529 -0.9818  0.0273
   94MYC    H4317739   6.925   1.336   3.533 -0.1944 -1.4999  0.9110
   94MYC    C2517740   7.038   1.175   3.636 -0.0202 -0.1890 -0.3208
   94MYC    H4417741   6.993   1.079   3.607 -2.4183  0.4900  0.9330
   94MYC    H4517742   7.145   1.180   3.657 -0.0641  1.7950 -0.4014
   94MYC    C2617743   6.958   1.214   3.763  0.2314  1.1504 -0.3295
   94MYC    H4617744   6.851   1.223   3.741  0.4735  0.6179 -1.8025
   94MYC    H4717745   6.964   1.122   3.821  0.1787  0.5570 -1.2526
   94MYC    C2717746   7.015   1.336   3.838 -0.2612  0.0982  0.6886
   94MYC    H4817747   7.114   1.308   3.877 -0.0199 -0.4645 -0.2786
   94MYC    H4917748   7.039   1.423   3.776  0.5512  0.0080  0.8655
   94MYC    C2817749   6.932   1.381   3.962  0.3716  0.0744 -0.3707
   94MYC    H5017750   6.969   1.482   3.985  1.0342  0.2513 -2.0391
   94MYC    H5117751   6.828   1.396   3.931  0.6198  1.9397 -0.4094
   94MYC    C2917752   6.952   1.304   4.094 -0.4831 -0.1140  0.2743
   94MYC    H5217753   6.899   1.209   4.081 -0.0069 -0.5862  1.5489
   94MYC    H5317754   7.059   1.281   4.101  0.0335  2.2827  1.3738
   94MYC    C3017755   6.919   1.389   4.222  0.1581 -0.5841 -0.8014
   94MYC    H5417756   6.985   1.477   4.221  1.7248 -1.6786 -2.8334
   94MYC    H5517757   6.817   1.428   4.217  0.3547 -0.0108 -0.5329
   94MYC    C3117758   6.941   1.300   4.351 -0.5358 -0.6833  0.0412
   94MYC    H5617759   6.909   1.196   4.340  0.6313 -0.8076 -2.7687
   94MYC    H5717760   7.049   1.293   4.368 -0.2259 -0.4418 -1.6814
   94MYC    C3217761   6.896   1.377   4.475  0.7478  0.0384 -0.5504
   94MYC    H5817762   6.951   1.471   4.493 -0.4653  0.5183  0.8218
   94MYC    H5917763   6.789   1.393   4.463  0.4385 -0.1248  1.6559
   94MYC    C3317764   6.898   1.291   4.611 -0.8226  0.1320  0.7992
   94MYC    H6017765   6.833   1.205   4.590  1.4492 -2.1855  2.6066
   94MYC    H6117766   6.999   1.249   4.620 -0.4829  0.6939 -0.3064
   94MYC    C3417767   6.838   1.359   4.735 -0.4344  0.4383 -0.6026
   94MYC    H6217768   6.897   1.450   4.750  2.4433 -1.0619 -1.9903
   94MYC    H6317769   6.737   1.387   4.704 -0.1617  1.1953 -0.8423
   94MYC    C3517770   6.836   1.265   4.852  0.0373 -0.4464 -0.0820
   94MYC    H6417771   6.778   1.172   4.838 -0.2206 -0.4733  1.0778
   94MYC    H6517772   6.937   1.229   4.874 -0.4108 -1.1646  0.9388
   94MYC    C3617773   6.801   1.343   4.981  0.0205 -0.3079  0.2886
   94MYC    H6617774   6.885   1.410   5.003 -0.3459 -0.1426  1.2605
   94MYC    H6717775   6.714   1.406   4.959 -0.2507 -1.3162 -1.7758
   94MYC    C3717776   6.762   1.247   5.104  0.3043  0.2605  0.4844
   94MYC    H6817777   6.664   1.199   5.096  0.1983  0.3804  1.0225
   94MYC    H6917778   6.850   1.182   5.102  1.0524  1.2561 -0.1586
   94MYC    C3817779   6.745   1.311   5.241  0.1293  0.0029 -0.4286
   94MYC    H7017780   6.822   1.389   5.239  1.2635 -1.0768 -0.0477
   94MYC    H7117781   6.648   1.362   5.231 -0.5598 -1.5784 -2.4425
   94MYC    C3917782   6.764   1.223   5.361  0.0010  0.5687  0.3848
   94MYC    H7217783   6.699   1.135   5.347 -1.2760  0.9609  3.2686
   94MYC    H7317784   6.869   1.193   5.347 -0.3721 -0.6738  0.0714
   94MYC    C4017785   6.744   1.292   5.499 -0.5416 -0.5815  0.4947
   94MYC    H7417786   6.824   1.367   5.505 -1.2495  0.1745  0.6885
   94MYC    H7517787   6.648   1.345   5.490  0.9438  2.5362  1.7103
   94MYC    C4117788   6.763   1.185   5.615 -0.6902 -0.6505  0.3084
   94MYC    H7617789   6.689   1.107   5.592 -0.7217 -0.0088 -2.1379
   94MYC    H7717790   6.859   1.132   5.612 -0.9062 -1.0187 -0.6936
   94MYC    C4217791   6.749   1.244   5.755 -0.4203 -0.2832  0.1390
   94MYC    H7817792   6.825   1.318   5.784 -0.3557  0.0867 -0.9353
   94MYC    H7917793   6.656   1.302   5.751 -2.0015 -2.6987 -0.2252
   94MYC    C4317794   6.732   1.138   5.863 -0.3535 -0.2676  0.3010
   94MYC    H8017795   6.740   1.177   5.965  0.2810 -2.0167  0.9509
   94MYC    H8117796   6.822   1.076   5.854  1.3366  2.0202  0.4920
   94MYC    H8217797   6.646   1.078   5.833 -0.3228 -0.1382 -0.0573
   95MYC   HH1517798   0.609   1.416   5.496  1.1519  0.1510 -0.0913
   95MYC    C8017799   0.640   1.520   5.512  0.0709  0.4211  0.3548
   95MYC   H10017800   0.581   1.555   5.597  0.9000 -1.4797  1.7623
   95MYC   H10117801   0.744   1.514   5.546  0.2418  0.6542 -0.1179
   95MYC    C7917802   0.624   1.605   5.387  0.5631 -0.3018  0.3272
   95MYC   H10217803   0.673   1.702   5.401 -2.9086  2.1598 -2.5670
   95MYC   H10317804   0.517   1.628   5.377  0.7241  0.1106 -0.4744
   95MYC    C7817805   0.672   1.540   5.254  0.2266  1.3674  0.1599
   95MYC   HH1417806   0.610   1.452   5.232  1.7882  0.1104  0.5815
   95MYC   H10417807   0.773   1.502   5.275 -1.2562 -1.3030  3.2626
   95MYC    C7717808   0.658   1.627   5.136  0.7758 -0.3504  0.0463
   95MYC   H10617809   0.707   1.722   5.162 -0.4171  0.2695  0.1170
   95MYC   H10717810   0.559   1.668   5.115  0.5558 -1.0578 -0.3238
   95MYC    C7617811   0.713   1.553   5.009  0.0786  0.3522  0.5500
   95MYC   H10817812   0.669   1.453   4.999 -2.1939  1.4482 -1.0970
   95MYC   H10917813   0.822   1.543   5.009 -0.1020 -2.5944 -1.0961
   95MYC    C7517814   0.692   1.623   4.876  0.1248 -0.4131  0.1113
   95MYC   H11017815   0.727   1.725   4.897 -0.5393  0.0560 -0.9724
   95MYC   H11117816   0.588   1.651   4.855  0.6454  1.4806 -0.1519
   95MYC    C7417817   0.752   1.552   4.754  0.5290  0.3290 -0.4222
   95MYC   H11217818   0.702   1.454   4.751  1.8011 -0.3430 -0.6775
   95MYC   H11317819   0.861   1.543   4.760  0.5156 -1.3930 -1.9496
   95MYC    C7317820   0.730   1.633   4.625 -0.3427  0.1856  0.1805
   95MYC   HH1317821   0.759   1.737   4.640  1.6400 -0.1144 -1.2025
   95MYC   H11417822   0.621   1.633   4.615 -0.3309 -0.6189 -0.0042
   95MYC    C7217823   0.796   1.573   4.498  0.3439 -0.0536 -0.3647
   95MYC   H11517824   0.762   1.469   4.496 -0.6050  0.2384 -0.1700
   95MYC   H11617825   0.903   1.581   4.517  0.0044  2.0351  1.0202
   95MYC    C7117826   0.760   1.643   4.372  0.1328  0.2465 -0.1956
   95MYC   H11717827   0.804   1.743   4.369 -1.4814  0.9625 -1.9144
   95MYC   H11817828   0.651   1.641   4.359 -0.0637 -2.3161  1.1992
   95MYC    C7017829   0.816   1.578   4.246  0.7031  0.6614  0.4670
   95MYC   H11917830   0.780   1.475   4.246  1.9972  0.1780 -0.6543
   95MYC   H12017831   0.925   1.561   4.247  0.2654 -3.2030  2.9241
   95MYC    C6917832   0.777   1.649   4.111 -0.1202  0.1654 -0.8245
   95MYC   H12117833   0.825   1.748   4.111  0.9391 -0.3266 -0.7250
   95MYC   H12217834   0.668   1.658   4.104 -0.2376 -1.3028 -1.1740
   95MYC    C6817835   0.835   1.580   3.983  1.0617  0.0742  0.7633
   95MYC   HH1217836   0.788   1.483   3.962  0.2539  1.0751 -2.8967
   95MYC   H12317837   0.943   1.566   3.988  0.8238 -2.2552  0.4304
   95MYC    C6717838   0.804   1.668   3.859 -0.2967  0.7992 -0.4581
   95MYC   H12417839   0.853   1.764   3.883 -1.1744  0.9344  0.8941
   95MYC   H12517840   0.699   1.690   3.842 -0.3704  1.1653  0.4106
   95MYC    C6617841   0.871   1.595   3.734  0.1795  0.5317 -0.4543
   95MYC   H12617842   0.819   1.498   3.729  1.0144 -0.0028  0.7011
   95MYC   H12717843   0.977   1.583   3.757  1.0108  1.9121 -3.0766
   95MYC    C6517844   0.856   1.658   3.602 -0.0203  0.3889 -0.0560
   95MYC   H12817845   0.900   1.759   3.606 -0.0030  0.5411 -2.4382
   95MYC   H12917846   0.749   1.670   3.583 -0.0777 -1.7639 -1.5369
   95MYC    C6417847   0.919   1.582   3.489 -0.4307  0.4134  0.7230
   95MYC   H13017848   0.883   1.479   3.490 -1.1847  0.6751  0.6252
   95MYC   H13117849   1.026   1.582   3.515 -0.4665 -0.9860  0.9695
   95MYC    C6317850   0.887   1.638   3.348 -0.1061 -0.2002  0.7995
   95MYC   HH1117851   0.927   1.740   3.339  1.0228 -0.7486 -0.7571
   95MYC   H13217852   0.781   1.664   3.346 -0.0249  0.4967  2.9600
   95MYC    C6217853   0.938   1.557   3.231 -0.3409 -0.5130 -0.0707
   95MYC   H13317854   0.903   1.453   3.235 -1.8512  0.0308  1.5103
   95MYC   H13417855   1.048   1.562   3.223 -0.4128  0.2018 -0.7729
   95MYC    C6117856   0.890   1.618   3.095 -0.6255 -0.4411 -0.0530
   95MYC   H13517857   0.930   1.719   3.082  0.5744 -1.1317 -2.3322
   95MYC   H13617858   0.781   1.634   3.093 -0.6028 -0.2747 -0.0140
   95MYC    C6017859   0.936   1.521   2.980 -0.4353  0.1649 -0.9053
   95MYC   H13717860   0.871   1.434   2.983  1.5585 -1.3623  1.9652
   95MYC    C5817861   0.971   1.570   2.839  0.4213  0.0257 -0.6158
   95MYC   H13817862   0.950   1.675   2.821 -0.1524  0.1207  0.5141
   95MYC    C5917863   1.080   1.523   2.929 -0.4818  0.2734 -0.3661
   95MYC   H13917864   1.130   1.428   2.912  2.2103  1.5313 -0.0987
   95MYC   H14017865   1.148   1.600   2.963  2.0404 -2.4817  1.3589
   95MYC    C5717866   0.936   1.495   2.713 -0.8782  0.0042 -0.0458
   95MYC   HH1017867   0.831   1.470   2.697 -0.6519 -1.8832  1.1320
   95MYC   H14117868   0.972   1.392   2.725 -1.6344 -0.0437  2.4031
   95MYC    C5617869   1.019   1.558   2.595  0.3531 -0.3445  0.4695
   95MYC   H14217870   1.124   1.535   2.618 -0.5070 -2.6032  2.5795
   95MYC   H14317871   1.002   1.665   2.612 -0.6668 -0.5136  0.5414
   95MYC    C5517872   0.978   1.514   2.449  0.0669  0.2378  0.2638
   95MYC   H14417873   0.879   1.556   2.428 -0.1071 -0.9174 -1.5323
   95MYC   H14517874   0.966   1.405   2.441 -0.1505  0.2822 -0.0682
   95MYC    C5417875   1.071   1.562   2.337  0.0423  0.6097  0.3887
   95MYC   H14617876   1.172   1.528   2.361 -1.1626 -4.0353 -0.0668
   95MYC   H14717877   1.079   1.669   2.319 -0.7972  0.7517  0.7950
   95MYC    C5317878   1.034   1.496   2.200 -0.5415 -0.0483 -0.2955
   95MYC   H14817879   0.930   1.517   2.175 -0.1997  1.3581 -0.6175
   95MYC   H14917880   1.036   1.388   2.218 -1.2603 -0.4108 -2.1850
   95MYC    C5217881   1.122   1.543   2.081  0.0182  0.6894 -0.2051
   95MYC    H9917882   1.226   1.515   2.104 -0.5039 -0.6044  0.7567
   95MYC   H15017883   1.110   1.652   2.074  2.4323  1.1321  1.2647
   95MYC    C5117884   1.060   1.478   1.954 -0.5866  0.3414  0.9118
   95MYC    H9717885   0.955   1.504   1.940 -0.2598  1.3727  0.2223
   95MYC    H9817886   1.053   1.372   1.979 -1.0236 -0.0812 -0.8887
   95MYC    C5017887   1.139   1.498   1.812 -0.3603 -0.1227 -0.0271
   95MYC    H9517888   1.246   1.478   1.827 -0.6806 -0.6667  1.8316
   95MYC    H9617889   1.116   1.599   1.778  0.3118 -0.4649 -1.5564
   95MYC    C4917890   1.084   1.395   1.706  0.1536  0.1241 -0.0168
   95MYC    H9317891   1.127   1.296   1.727 -1.2515 -0.5298 -0.1293
   95MYC    H9417892   1.119   1.422   1.606  2.5609 -2.4908 -0.0137
   95MYC    C4817893   0.935   1.369   1.704  0.0487  0.1862  0.4271
   95MYC    H9117894   0.877   1.461   1.711 -1.9427 -1.0652  1.4409
   95MYC    H9217895   0.918   1.308   1.793  1.0625  0.0120  0.5090
   95MYC    C4717896   0.879   1.288   1.595  0.1527  0.0726  0.0016
   95MYC    H8917897   0.935   1.193   1.592  1.4186  0.7763  0.6187
   95MYC    H9017898   0.912   1.338   1.503  1.8973 -1.0738 -0.0519
   95MYC    C4617899   0.721   1.275   1.588 -0.5938  0.2301 -0.3841
   95MYC    H8717900   0.667   1.368   1.567  0.0960  0.3603 -1.6333
   95MYC    H8817901   0.693   1.236   1.687  1.6592  0.5634  0.4319
   95MYC    C4517902   0.668   1.161   1.489  0.2821 -0.1460  0.0740
   95MYC    H8517903   0.686   1.069   1.546  0.7326  0.1986  0.4932
   95MYC    H8617904   0.725   1.165   1.395  0.1025  3.2682 -0.0107
   95MYC    C4417905   0.516   1.187   1.460  0.5868  0.0175 -0.5717
   95MYC    H8317906   0.482   1.114   1.386  0.5682 -0.8053  0.2428
   95MYC    H8417907   0.502   1.284   1.410  2.2359  0.1359 -0.8690
   95MYC    C1817908   0.425   1.169   1.586  0.2458 -0.3508 -0.4852
   95MYC    H3117909   0.432   1.072   1.633  0.0857 -1.1513 -2.0482
   95MYC    C1717910   0.397   1.284   1.677  0.3780  0.3209 -0.3355
   95MYC    H3017911   0.426   1.385   1.649 -0.3547  0.0421 -2.2594
   95MYC    C1917912   0.279   1.230   1.601  0.2837 -0.0288 -0.5960
   95MYC    H3217913   0.247   1.299   1.523 -3.5373  1.7842  2.2249
   95MYC    H3317914   0.203   1.174   1.655 -1.0330  2.3760  0.2040
   95MYC    C1617915   0.411   1.267   1.828  0.0683  0.2312  0.2618
   95MYC    H2817916   0.510   1.230   1.857  0.3035 -0.5790 -1.4285
   95MYC    H2917917   0.344   1.185   1.858 -0.6854  1.2688  1.4884
   95MYC    C1517918   0.389   1.388   1.917  0.0952 -0.5805  0.5111
   95MYC    H2617919   0.376   1.359   2.022 -0.5905 -0.9695  0.3272
   95MYC    H2717920   0.298   1.434   1.876  0.2113 -2.1380 -1.7111
   95MYC    C1417921   0.502   1.495   1.907  0.9362 -0.2275  0.5088
   95MYC    H2417922   0.510   1.531   1.804  1.5424  1.8967  1.2337
   95MYC    H2517923   0.603   1.455   1.922  0.9840 -0.3658 -0.1607
   95MYC    C1317924   0.483   1.611   2.000  0.3374  0.0450 -0.7062
   95MYC    H2217925   0.476   1.559   2.097  0.0183  0.1833 -0.6529
   95MYC    H2317926   0.387   1.661   1.981  0.1171  0.7452  1.8311
   95MYC    C1217927   0.609   1.710   1.992 -0.2054  0.2189 -0.5415
   95MYC    H2017928   0.608   1.759   1.894 -0.0549  2.7836  0.6656
   95MYC    H2117929   0.705   1.658   2.000  0.2067  0.2774 -3.7194
   95MYC    C1117930   0.609   1.814   2.097  0.2945 -0.2547  0.7691
   95MYC    H1817931   0.507   1.854   2.093  0.2746 -0.2474  1.2420
   95MYC    H1917932   0.682   1.890   2.066  0.7565 -1.0719 -0.1771
   95MYC    C1017933   0.651   1.779   2.243  0.0996  0.1347  0.4772
   95MYC    H1617934   0.757   1.750   2.247 -0.4074 -1.8521  0.5757
   95MYC    H1717935   0.592   1.692   2.274  0.6461 -0.2396  0.4889
   95MYC     C917936   0.625   1.901   2.342  0.0314 -0.3459 -0.0292
   95MYC    H1417937   0.522   1.936   2.331  0.0684 -0.3937 -0.5583
   95MYC    H1517938   0.691   1.987   2.326  2.2176 -1.5236  1.9841
   95MYC     C817939   0.657   1.840   2.483 -0.2697  0.5845 -0.1203
   95MYC    H1217940   0.764   1.815   2.484 -0.3347  0.3126  0.5506
   95MYC    H1317941   0.608   1.743   2.497  0.3666  0.5166  1.9427
   95MYC     C717942   0.623   1.935   2.601  0.0767 -0.1875 -0.1146
   95MYC    H1017943   0.515   1.937   2.616  0.2460 -0.0473  1.1944
   95MYC    H1117944   0.660   2.036   2.580 -0.1486  0.8623  3.7896
   95MYC     C617945   0.683   1.891   2.735 -0.1063  0.6579 -0.1360
   95MYC     H817946   0.679   1.954   2.824  3.1398 -0.8384  1.2472
   95MYC     H917947   0.792   1.890   2.721 -0.1171 -0.8197 -0.3008
   95MYC     C517948   0.637   1.748   2.778 -0.6069  0.1577  0.4284
   95MYC     H617949   0.704   1.715   2.859 -2.5999 -0.0677  2.0827
   95MYC     H717950   0.656   1.682   2.693  0.3456 -0.4949  1.1306
   95MYC     C417951   0.486   1.740   2.829  0.9484  0.1737  0.0645
   95MYC     H417952   0.462   1.635   2.847  1.7132 -0.1886 -0.9458
   95MYC     H517953   0.415   1.760   2.748  2.4543  0.0393 -1.3197
   95MYC     C217954   0.450   1.825   2.950 -0.7020  0.0703 -0.1671
   95MYC     H217955   0.527   1.807   3.026 -0.3689 -0.3715 -0.6076
   95MYC     O317956   0.458   1.960   2.920 -0.6820  0.5314  0.2399
   95MYC     H317957   0.366   1.988   2.906 -1.0780 -1.5469 -2.1996
   95MYC     C117958   0.306   1.796   3.001  0.0000  0.0971 -0.0707
   95MYC     H117959   0.312   1.696   3.047 -0.2070  0.7536  1.4328
   95MYC    C8117960   0.205   1.777   2.880 -0.1282 -0.7193  0.0001
   95MYC    O8217961   0.141   1.679   2.871  0.2010  0.1144 -0.5159
   95MYC    O8317962   0.179   1.882   2.806 -0.1106 -0.3057 -0.1521
   95MYC   H10517963   0.144   1.843   2.724  0.5277 -1.5122  0.1253
   95MYC    C2017964   0.248   1.891   3.117 -0.2656  0.1678 -0.0284
   95MYC    H3417965   0.248   1.990   3.071  0.2260  0.3022  0.2604
   95MYC    H3517966   0.143   1.867   3.139 -0.4931  1.0676 -0.0919
   95MYC    C2117967   0.332   1.891   3.239  0.3305  0.2463  0.1272
   95MYC    H3617968   0.435   1.907   3.203  0.9115 -2.5039  0.3491
   95MYC    H3717969   0.289   1.963   3.309  1.2948 -0.8311  1.9116
   95MYC    C2217970   0.328   1.768   3.333  0.0116 -0.3219 -0.0091
   95MYC    H3817971   0.229   1.725   3.352 -0.8437  2.5039  2.8163
   95MYC    H3917972   0.389   1.689   3.289 -0.0838 -1.4396  1.7726
   95MYC    C2317973   0.381   1.804   3.474 -0.1273  0.1946  0.3636
   95MYC    H4017974   0.476   1.858   3.470 -1.8168  3.4484  0.9450
   95MYC    H4117975   0.308   1.875   3.513 -1.4127 -1.4753  1.1219
   95MYC    C2417976   0.397   1.676   3.552 -0.0689 -0.4401  0.3508
   95MYC    H4217977   0.295   1.637   3.552 -0.6157  0.8090 -1.8955
   95MYC    H4317978   0.470   1.614   3.498  0.2620 -1.1270  1.5601
   95MYC    C2517979   0.434   1.696   3.700 -0.0786  0.5903 -0.7981
   95MYC    H4417980   0.461   1.599   3.743  0.1719 -0.7684 -3.7612
   95MYC    H4517981   0.519   1.765   3.696 -1.9047  3.1301  1.1789
   95MYC    C2617982   0.326   1.779   3.789  0.5195  0.2560  0.2466
   95MYC    H4617983   0.304   1.873   3.737  0.7062 -0.7949 -1.8346
   95MYC    H4717984   0.232   1.722   3.794 -0.7574  2.2763  0.6273
   95MYC    C2717985   0.375   1.807   3.929 -0.0186  0.2151 -0.1839
   95MYC    H4817986   0.484   1.792   3.929  0.4196  2.1871  3.6541
   95MYC    H4917987   0.365   1.916   3.935 -0.0498  0.2028 -0.0200
   95MYC    C2817988   0.298   1.748   4.045  0.6258 -0.5182 -0.8349
   95MYC    H5017989   0.196   1.790   4.045  0.8099 -0.0457 -0.2122
   95MYC    H5117990   0.302   1.639   4.039  1.3698 -0.5081 -0.5534
   95MYC    C2917991   0.357   1.781   4.175  0.3186  0.3198 -0.5655
   95MYC    H5217992   0.457   1.738   4.179  0.3281  0.2832 -1.0856
   95MYC    H5317993   0.365   1.891   4.175  1.3426  0.2647  0.5999
   95MYC    C3017994   0.274   1.742   4.303 -0.7825  0.1812  0.0650
   95MYC    H5417995   0.174   1.786   4.305 -1.2546 -0.8669 -0.3720
   95MYC    H5517996   0.265   1.635   4.285  1.3061 -0.5272  2.5643
   95MYC    C3117997   0.344   1.764   4.439 -0.5962 -0.0541  0.2152
   95MYC    H5617998   0.441   1.715   4.429 -0.7193 -0.1056 -0.9069
   95MYC    H5717999   0.361   1.872   4.432  2.7687 -0.3660  1.7295
   95MYC    C3218000   0.256   1.721   4.555 -0.8048  0.6712 -0.4487
   95MYC    H5818001   0.159   1.771   4.563 -0.1516  1.9237 -0.2174
   95MYC    H5918002   0.236   1.614   4.541  0.8191  0.3271 -0.3296
   95MYC    C3318003   0.320   1.743   4.704  0.3788 -0.0043 -0.1250
   95MYC    H6018004   0.411   1.683   4.706 -0.1615 -0.8301  0.9581
   95MYC    H6118005   0.339   1.850   4.721  2.2605 -0.3605  0.2211
   95MYC    C3418006   0.217   1.702   4.810  0.6705  0.3285  0.4584
   95MYC    H6218007   0.126   1.761   4.799  1.2432  1.1823  0.2389
   95MYC    H6318008   0.187   1.598   4.792 -2.2727  0.9209  1.4118
   95MYC    C3518009   0.274   1.719   4.952  1.0940 -0.3895  0.3306
   95MYC    H6418010   0.365   1.658   4.958 -0.1829 -2.4302 -0.1593
   95MYC    H6518011   0.308   1.823   4.961  1.0339 -0.3899  0.5740
   95MYC    C3618012   0.179   1.684   5.069 -0.4279 -0.0202 -0.0537
   95MYC    H6618013   0.093   1.747   5.045  0.6635  1.2134 -0.8898
   95MYC    H6718014   0.138   1.585   5.047 -0.6252  0.5132 -2.3119
   95MYC    C3718015   0.238   1.706   5.206 -0.4778  0.3616  0.0258
   95MYC    H6818016   0.324   1.639   5.214 -0.3886  0.4883  0.1298
   95MYC    H6918017   0.279   1.807   5.217 -0.3117  0.3426 -0.3857
   95MYC    C3818018   0.141   1.665   5.324 -0.2225 -0.2792 -0.4880
   95MYC    H7018019   0.055   1.730   5.309  0.0122  0.0816 -0.2959
   95MYC    H7118020   0.104   1.562   5.317 -0.2130 -0.5439  2.2976
   95MYC    C3918021   0.201   1.686   5.465 -0.6197 -0.0587  0.4355
   95MYC    H7218022   0.283   1.614   5.473 -1.6896 -1.5882 -1.5290
   95MYC    H7318023   0.240   1.788   5.472 -0.1659 -0.2486  0.7783
   95MYC    C4018024   0.098   1.651   5.580 -0.6493  0.1648  1.0050
   95MYC    H7418025   0.016   1.723   5.582 -1.0412 -0.2823  1.2554
   95MYC    H7518026   0.059   1.550   5.565 -0.0343 -0.0366  0.7143
   95MYC    C4118027   0.175   1.632   5.709 -0.5577  0.7600 -0.6634
   95MYC    H7618028   0.231   1.538   5.700 -1.1528  0.1484  1.2941
   95MYC    H7718029   0.245   1.716   5.722  0.3097 -0.3711  3.3933
   95MYC    C4218030   0.095   1.638   5.841  0.7725  0.1210 -0.7608
   95MYC    H7818031   0.035   1.730   5.846  0.7339  0.1013 -0.8676
   95MYC    H7918032   0.035   1.546   5.833  0.7697  0.2565 -2.8745
   95MYC    C4318033   0.175   1.620   5.971  0.1109 -0.3025 -0.0741
   95MYC    H8018034   0.260   1.687   5.982 -0.2393 -0.0987  1.6525
   95MYC    H8118035   0.227   1.524   5.961  2.1512  0.8512 -1.2596
   95MYC    H8218036   0.127   1.629   6.069 -0.9654  0.7913 -0.6823
   96MYC   HH1518037   0.662   2.072   6.076 -1.1752 -0.1057  0.2963
   96MYC    C8018038   0.653   1.975   6.024 -0.1531  0.0895 -0.2779
   96MYC   H10018039   0.750   1.940   5.988  1.0379 -1.1399  3.5650
   96MYC   H10118040   0.628   1.894   6.094  1.4867 -1.1018 -1.0306
   96MYC    C7918041   0.569   1.981   5.893 -0.3725 -0.4608 -0.0411
   96MYC   H10218042   0.613   2.065   5.838 -0.5824  1.0069  1.9165
   96MYC   H10318043   0.465   2.009   5.914  0.2032  1.0361  1.0281
   96MYC    C7818044   0.590   1.861   5.795 -0.1517 -0.4118 -0.4280
   96MYC   HH1418045   0.575   1.764   5.846 -1.7518 -1.4349 -2.6603
   96MYC   H10418046   0.695   1.865   5.764 -0.3656  1.1304 -0.9957
   96MYC    C7718047   0.503   1.873   5.668 -0.2544 -0.0268 -0.1329
   96MYC   H10618048   0.397   1.897   5.684  0.4363  2.5098  1.2749
   96MYC   H10718049   0.490   1.770   5.632 -1.9164  0.5532 -1.3240
   96MYC    C7618050   0.562   1.963   5.563  1.0417 -0.1156 -0.3578
   96MYC   H10818051   0.666   1.932   5.543  1.1626 -0.1073  0.2339
   96MYC   H10918052   0.548   2.062   5.606 -0.2257 -1.6598  3.1863
   96MYC    C7518053   0.483   1.963   5.428 -0.3219  0.0659 -0.4801
   96MYC   H11018054   0.397   2.031   5.421 -1.8443 -1.7928 -0.7203
   96MYC   H11118055   0.449   1.861   5.407 -3.3126  0.9730 -0.5474
   96MYC    C7418056   0.584   1.998   5.306 -0.7780  0.7207 -0.1354
   96MYC   H11218057   0.667   1.927   5.300  0.5774  2.3088 -1.2363
   96MYC   H11318058   0.632   2.095   5.320  0.6380  0.1635 -0.9640
   96MYC    C7318059   0.520   1.993   5.169 -0.0742 -0.4988 -0.5321
   96MYC   HH1318060   0.443   2.067   5.147  0.0117 -0.8714 -2.2871
   96MYC   H11418061   0.482   1.891   5.153  0.2450 -0.6178 -0.5390
   96MYC    C7218062   0.630   2.012   5.053  0.5982  0.1463 -0.0117
   96MYC   H11518063   0.707   1.935   5.064  0.2298 -0.1655  0.4261
   96MYC   H11618064   0.671   2.113   5.042  2.0580 -0.4129  0.1257
   96MYC    C7118065   0.572   1.985   4.912 -0.2957 -0.1999 -0.0639
   96MYC   H11718066   0.478   2.038   4.894  0.3367  1.3189  0.9750
   96MYC   H11818067   0.541   1.879   4.908  0.1460 -0.3185 -0.3794
   96MYC    C7018068   0.673   2.016   4.791 -0.1117  0.2234 -0.5802
   96MYC   H11918069   0.770   1.964   4.793  0.2938  0.9797  0.1145
   96MYC   H12018070   0.696   2.123   4.787 -2.8311  0.8290 -1.9702
   96MYC    C6918071   0.605   1.989   4.660  0.5440 -0.1515  0.2468
   96MYC   H12118072   0.506   2.035   4.647  0.6796  0.3975  1.0507
   96MYC   H12218073   0.577   1.885   4.644  2.0102 -0.3725 -1.1465
   96MYC    C6818074   0.697   2.018   4.541 -0.7854 -0.2737  0.1186
   96MYC   HH1218075   0.780   1.947   4.529  0.1429  0.8734 -0.5406
   96MYC   H12318076   0.756   2.108   4.564 -1.9044  0.6434 -0.5336
   96MYC    C6718077   0.628   2.024   4.398 -0.0948  0.9400 -0.2969
   96MYC   H12418078   0.561   2.109   4.382  1.1268  1.5417 -2.6218
   96MYC   H12518079   0.573   1.930   4.380  0.4535  0.5383  0.0855
   96MYC    C6618080   0.724   2.036   4.276 -0.4843  0.2552 -0.4665
   96MYC   H12618081   0.783   1.945   4.261  1.8852  1.4918  0.8230
   96MYC   H12718082   0.792   2.121   4.289 -1.4696  1.1110 -0.7616
   96MYC    C6518083   0.642   2.066   4.150  0.0965  0.0949  0.2458
   96MYC   H12818084   0.576   2.153   4.158  0.8304  0.5816  1.1659
   96MYC   H12918085   0.568   1.985   4.142  1.9200 -1.5022 -1.8889
   96MYC    C6418086   0.729   2.077   4.020  0.1364  0.3626  0.1867
   96MYC   H13018087   0.798   1.993   4.006  0.4918  0.2515  2.2890
   96MYC   H13118088   0.798   2.161   4.029  1.5265 -0.8687  1.8636
   96MYC    C6318089   0.659   2.089   3.886 -0.1666  0.0663 -0.7285
   96MYC   HH1118090   0.590   2.172   3.903  0.6346  0.6914 -0.4754
   96MYC   H13218091   0.592   2.003   3.877  0.0159 -0.2099  0.4234
   96MYC    C6218092   0.756   2.099   3.774  0.1010 -0.6286  0.1569
   96MYC   H13318093   0.831   2.019   3.780  0.9639  0.1373 -0.1902
   96MYC   H13418094   0.811   2.192   3.788 -1.4597  0.2191  0.9781
   96MYC    C6118095   0.695   2.088   3.635  0.2456  0.3868 -0.5405
   96MYC   H13518096   0.599   2.138   3.622  1.3199  2.5932 -0.6033
   96MYC   H13618097   0.672   1.982   3.623 -2.1420  0.6256  1.1890
   96MYC    C6018098   0.774   2.111   3.511  0.1313 -0.0990 -0.3420
   96MYC   H13718099   0.872   2.073   3.537 -0.8056 -0.5208  3.1268
   96MYC    C5818100   0.721   2.087   3.367  0.2293  0.1891 -1.0578
   96MYC   H13818101   0.616   2.059   3.370  0.0130  1.0129 -0.8526
   96MYC    C5918102   0.758   2.221   3.418  0.0643 -0.3293 -0.0213
   96MYC   H13918103   0.853   2.271   3.403  0.6686 -1.5301 -0.2830
   96MYC   H14018104   0.670   2.285   3.425 -0.0590 -0.4341 -0.5639
   96MYC    C5718105   0.799   2.014   3.260 -0.6495 -0.5761 -0.2779
   96MYC   HH1018106   0.775   1.908   3.270  1.6165 -1.2103 -0.8512
   96MYC   H14118107   0.906   2.032   3.277 -0.5434  2.0212 -2.8570
   96MYC    C5618108   0.768   2.046   3.115 -0.5062 -0.2994  0.1571
   96MYC   H14218109   0.662   2.042   3.086  0.1566 -0.9894 -2.3989
   96MYC   H14318110   0.824   1.980   3.048 -0.0193  0.7575 -0.5032
   96MYC    C5518111   0.831   2.177   3.076 -0.1751  0.0820 -0.9325
   96MYC   H14418112   0.931   2.190   3.117  0.5561  0.0377 -2.6084
   96MYC   H14518113   0.783   2.260   3.128  0.7990 -2.2918  4.4100
   96MYC    C5418114   0.838   2.188   2.926  0.1423  0.2199 -1.1095
   96MYC   H14618115   0.738   2.193   2.883 -0.1773  0.6369 -0.3534
   96MYC   H14718116   0.885   2.102   2.879 -0.9546 -0.4705 -0.9819
   96MYC    C5318117   0.925   2.310   2.896 -0.2521  0.4634 -0.4487
   96MYC   H14818118   1.020   2.294   2.948 -0.6589 -2.0848 -0.3568
   96MYC   H14918119   0.876   2.396   2.943 -0.4980 -0.8335  1.8246
   96MYC    C5218120   0.942   2.341   2.747 -0.3721 -0.1380  0.2869
   96MYC    H9918121   0.998   2.433   2.728 -0.9592  0.3369  0.8049
   96MYC   H15018122   0.846   2.368   2.701  0.5950  0.3002 -1.5546
   96MYC    C5118123   1.012   2.234   2.657 -0.0879 -0.0574 -0.1068
   96MYC    H9718124   0.947   2.147   2.644 -2.9874  1.7284  1.2960
   96MYC    H9818125   1.093   2.194   2.719 -0.2616  0.0800  0.2092
   96MYC    C5018126   1.054   2.300   2.522  1.3831  0.0396 -0.1972
   96MYC    H9518127   1.138   2.369   2.534  0.8619  0.4188  1.4520
   96MYC    H9618128   0.961   2.355   2.506  0.3356 -1.4353  0.6191
   96MYC    C4918129   1.086   2.192   2.402  0.1331  0.0391 -0.3690
   96MYC    H9318130   1.184   2.159   2.436  0.6655  0.9362 -0.9846
   96MYC    H9418131   1.098   2.245   2.306  0.8892 -2.0306 -1.4689
   96MYC    C4818132   0.992   2.075   2.374  0.0434  0.1389 -0.3161
   96MYC    H9118133   0.892   2.119   2.368 -0.6125 -0.8914  1.8330
   96MYC    H9218134   0.997   2.020   2.469  0.5327 -0.1842 -0.5254
   96MYC    C4718135   1.019   1.983   2.259  1.5580 -0.0633 -0.3823
   96MYC    H8918136   0.944   1.903   2.267  1.8589 -0.2731  0.4331
   96MYC    H9018137   1.120   1.941   2.258  1.7936  0.4945 -1.0978
   96MYC    C4618138   0.998   2.056   2.117  0.0797 -0.1017 -0.6385
   96MYC    H8718139   1.081   2.126   2.105 -0.0720  0.8004  2.7027
   96MYC    H8818140   0.903   2.109   2.119  0.6289  0.9614 -1.5154
   96MYC    C4518141   0.995   1.956   1.994  0.5479 -0.1728 -0.0309
   96MYC    H8518142   0.905   1.894   1.986 -1.1996  2.4189 -2.1721
   96MYC    H8618143   1.085   1.893   1.990  0.3449 -0.5903  1.2603
   96MYC    C4418144   1.005   2.037   1.858 -1.0885 -0.1976 -0.3549
   96MYC    H8318145   1.020   1.954   1.788 -0.5851  1.3085 -2.0979
   96MYC    H8418146   1.103   2.087   1.853 -0.4675 -1.3850 -0.4706
   96MYC    C1818147   0.885   2.118   1.819 -0.1871  0.5119 -0.6389
   96MYC    H3118148   0.800   2.117   1.886 -1.1985 -0.3585 -1.9039
   96MYC    C1718149   0.903   2.244   1.742 -0.8797 -0.4797 -0.1692
   96MYC    H3018150   1.003   2.273   1.709 -1.6597  0.4481 -1.8345
   96MYC    C1918151   0.844   2.126   1.678 -0.2784 -0.2289 -0.0504
   96MYC    H3218152   0.892   2.074   1.596 -2.3935 -1.3089 -0.6963
   96MYC    H3318153   0.740   2.138   1.650  0.7800  0.3699 -4.4584
   96MYC    C1618154   0.831   2.374   1.756 -0.5455  0.0595 -0.1694
   96MYC    H2818155   0.727   2.360   1.788 -0.0930  0.4832  1.6515
   96MYC    H2918156   0.829   2.421   1.658  0.0037  0.1167 -0.1588
   96MYC    C1518157   0.892   2.486   1.850 -0.1084  0.3292 -0.8404
   96MYC    H2618158   0.851   2.586   1.835  0.8595  1.0070  0.7900
   96MYC    H2718159   0.994   2.512   1.819  0.1791 -1.1397 -1.2035
   96MYC    C1418160   0.882   2.469   1.995 -0.0090 -0.6363  0.1940
   96MYC    H2418161   0.899   2.364   2.021  0.7077 -0.8601 -1.0961
   96MYC    H2518162   0.775   2.488   2.008  0.0100 -0.1193 -0.3524
   96MYC    C1318163   0.975   2.573   2.069  0.0184  0.5613  0.0310
   96MYC    H2218164   0.946   2.672   2.034  0.6020  0.4601 -0.7629
   96MYC    H2318165   1.083   2.571   2.050 -0.0174 -0.8662 -0.1262
   96MYC    C1218166   0.954   2.554   2.215 -0.4025 -0.3752 -0.0936
   96MYC    H2018167   1.017   2.472   2.252 -1.5297 -0.6298  1.3622
   96MYC    H2118168   0.850   2.532   2.244 -0.2995 -0.1006  0.4903
   96MYC    C1118169   0.997   2.686   2.303  0.5308  0.1644  0.6954
   96MYC    H1818170   0.952   2.771   2.250  5.1332  2.2887 -0.3788
   96MYC    H1918171   1.102   2.707   2.276 -0.0733 -2.1040 -4.7237
   96MYC    C1018172   0.968   2.680   2.456 -0.0523 -0.7832  0.2398
   96MYC    H1618173   1.027   2.598   2.498 -0.0564 -0.0850  1.6870
   96MYC    H1718174   0.863   2.655   2.474 -0.0587 -1.2436 -0.4108
   96MYC     C918175   1.011   2.817   2.529 -0.7752  0.2408  0.0800
   96MYC    H1418176   0.943   2.900   2.506 -2.3205 -0.6809  1.0326
   96MYC    H1518177   1.107   2.838   2.481  0.6791 -0.0638  2.6786
   96MYC     C818178   1.009   2.807   2.689 -0.3417  0.3420 -0.4481
   96MYC    H1218179   1.066   2.894   2.723 -0.0332 -0.3434  0.8226
   96MYC    H1318180   1.070   2.722   2.721  1.8861  0.1653 -4.5014
   96MYC     C718181   0.870   2.793   2.745 -0.7256  0.0564 -1.2659
   96MYC    H1018182   0.848   2.686   2.733 -1.0204  0.1285 -1.3825
   96MYC    H1118183   0.793   2.840   2.682 -0.1088  0.4020 -1.7684
   96MYC     C618184   0.848   2.843   2.891  0.0052 -0.3518 -0.2209
   96MYC     H818185   0.739   2.848   2.904  0.0912  0.5775  0.2517
   96MYC     H918186   0.873   2.950   2.893 -1.4418  0.0108  1.1527
   96MYC     C518187   0.907   2.756   3.008  0.4374 -0.1149  1.0363
   96MYC     H618188   1.009   2.790   3.025 -0.7769  3.4385  1.9603
   96MYC     H718189   0.901   2.653   2.969 -1.2484 -0.6495  2.5759
   96MYC     C418190   0.837   2.765   3.154 -0.5936  0.2352 -0.3913
   96MYC     H418191   0.817   2.872   3.167  1.2446  0.5419  0.1093
   96MYC     H518192   0.916   2.739   3.225 -0.0461 -0.1522 -1.1233
   96MYC     C218193   0.703   2.685   3.172 -0.6671 -0.6574 -0.3983
   96MYC     H218194   0.639   2.724   3.092  0.1186  0.8760 -0.3220
   96MYC     O318195   0.740   2.550   3.154 -0.3546  0.1536  0.2388
   96MYC     H318196   0.832   2.532   3.180  0.5136 -0.0477 -2.6105
   96MYC     C118197   0.624   2.693   3.311  0.0707 -0.2020 -0.0907
   96MYC     H118198   0.545   2.617   3.298  0.1671 -0.3530  0.2140
   96MYC    C8118199   0.561   2.826   3.338 -0.5544 -0.0069  0.5717
   96MYC    O8218200   0.610   2.939   3.351 -0.0595 -0.0548  0.3209
   96MYC    O8318201   0.434   2.811   3.361 -0.1516  0.3336  0.0837
   96MYC   H10518202   0.401   2.902   3.358 -0.2540  0.2914 -0.1407
   96MYC    C2018203   0.713   2.653   3.433 -0.1171  0.1945 -0.1771
   96MYC    H3418204   0.792   2.587   3.394  0.1644  0.8070 -0.6809
   96MYC    H3518205   0.767   2.734   3.484 -1.3353 -0.2264  1.8671
   96MYC    C2118206   0.634   2.573   3.540 -1.1781 -0.1332 -0.2120
   96MYC    H3618207   0.539   2.628   3.551 -1.0523  0.5620 -2.1800
   96MYC    H3718208   0.609   2.472   3.506  0.8347 -0.7303 -0.0467
   96MYC    C2218209   0.699   2.570   3.677 -0.5503 -0.2847  0.1189
   96MYC    H3818210   0.791   2.510   3.670  1.6877  2.9617 -1.3847
   96MYC    H3918211   0.748   2.667   3.695  0.7509 -0.9470  0.2729
   96MYC    C2318212   0.599   2.512   3.789  0.7629  0.5162 -0.0453
   96MYC    H4018213   0.508   2.573   3.790 -0.1480 -0.7821  1.7393
   96MYC    H4118214   0.556   2.418   3.754  0.8644 -0.0579  1.3376
   96MYC    C2418215   0.647   2.514   3.942  0.1686 -0.7422  0.2686
   96MYC    H4218216   0.737   2.454   3.955 -1.0912 -2.5688  0.8790
   96MYC    H4318217   0.661   2.620   3.967 -2.5044 -0.9830  3.5067
   96MYC    C2518218   0.542   2.466   4.041  0.3910  0.1527  0.1547
   96MYC    H4418219   0.448   2.515   4.016 -0.1358 -1.0893 -0.3789
   96MYC    H4518220   0.534   2.359   4.018  0.5600 -0.2113  1.6649
   96MYC    C2618221   0.598   2.491   4.180  0.4581  0.7686  0.1031
   96MYC    H4618222   0.696   2.444   4.189  1.0624  1.6177 -1.6027
   96MYC    H4718223   0.634   2.595   4.179  1.3553  0.4581 -0.2804
   96MYC    C2718224   0.505   2.450   4.300 -0.5851  0.9153 -0.1073
   96MYC    H4818225   0.415   2.511   4.305 -0.3576  1.1500  2.2441
   96MYC    H4918226   0.485   2.343   4.285 -2.5996  1.2074  0.2617
   96MYC    C2818227   0.572   2.466   4.439 -0.8075 -0.0613 -0.2356
   96MYC    H5018228   0.638   2.380   4.454 -1.5447 -0.3690  1.4690
   96MYC    H5118229   0.616   2.565   4.455  3.3654 -1.4591 -1.8806
   96MYC    C2918230   0.479   2.434   4.557 -0.7423 -0.0258 -0.4828
   96MYC    H5218231   0.399   2.509   4.564 -0.8903  0.1222 -3.0919
   96MYC    H5318232   0.422   2.344   4.535 -0.4133 -0.2902 -0.2714
   96MYC    C3018233   0.547   2.426   4.692 -0.2922 -0.2565 -0.6186
   96MYC    H5418234   0.628   2.352   4.698 -0.0071  0.1892  1.6484
   96MYC    H5518235   0.597   2.518   4.722  0.9243 -1.7838  2.3866
   96MYC    C3118236   0.448   2.384   4.793  0.7740 -0.0667  0.8029
   96MYC    H5618237   0.358   2.447   4.788 -1.2890 -2.8570  0.1767
   96MYC    H5718238   0.416   2.281   4.775 -1.3923  0.7410 -0.4039
   96MYC    C3218239   0.497   2.396   4.938  0.5473  0.1078 -0.6720
   96MYC    H5818240   0.587   2.337   4.961 -0.7523 -0.6607  2.9504
   96MYC    H5918241   0.524   2.500   4.957 -0.0148 -0.3132  2.9730
   96MYC    C3318242   0.388   2.358   5.050  0.1487  0.1936  0.0526
   96MYC    H6018243   0.299   2.421   5.043  0.2564  0.3571  0.1417
   96MYC    H6118244   0.357   2.254   5.035 -0.1078  0.2112  0.4586
   96MYC    C3418245   0.441   2.378   5.194  0.2470 -0.1655  0.6621
   96MYC    H6218246   0.530   2.315   5.201  0.0646 -0.2512  3.3295
   96MYC    H6318247   0.459   2.486   5.206 -1.8731  0.3022  0.1874
   96MYC    C3518248   0.339   2.332   5.305 -0.6944 -0.0756  0.4731
   96MYC    H6418249   0.251   2.395   5.286  1.6467  2.7379 -2.1996
   96MYC    H6518250   0.306   2.229   5.287  0.6598 -1.2760  4.0392
   96MYC    C3618251   0.409   2.352   5.439  0.2322 -0.3258 -0.0509
   96MYC    H6618252   0.494   2.282   5.442  1.5415  1.1630  4.1036
   96MYC    H6718253   0.454   2.451   5.453  1.9344 -1.2149  1.2120
   96MYC    C3718254   0.324   2.320   5.559 -0.2173 -0.6073  0.2292
   96MYC    H6818255   0.235   2.383   5.561  0.5379  0.4621  1.2041
   96MYC    H6918256   0.297   2.214   5.561 -2.5617 -0.0978 -0.8502
   96MYC    C3818257   0.399   2.345   5.687  0.0548  0.9275 -0.5668
   96MYC    H7018258   0.496   2.295   5.695 -0.1232  0.5514 -0.6924
   96MYC    H7118259   0.422   2.451   5.697 -0.3549  0.9697 -0.0032
   96MYC    C3918260   0.321   2.282   5.807 -0.2483  0.1156 -0.6110
   96MYC    H7218261   0.217   2.319   5.802 -0.6791 -0.0720  3.5457
   96MYC    H7318262   0.317   2.175   5.785 -0.1248  0.0747 -0.4341
   96MYC    C4018263   0.380   2.318   5.941 -0.3908  0.0268 -0.0476
   96MYC    H7418264   0.480   2.274   5.948 -0.3910  0.0899  0.4160
   96MYC    H7518265   0.370   2.426   5.954 -1.6412  0.0247 -0.8376
   96MYC    C4118266   0.298   2.254   6.049  0.0473 -0.9113  0.3469
   96MYC    H7618267   0.196   2.292   6.039  0.7081  0.6352 -1.0404
   96MYC    H7718268   0.289   2.147   6.030 -0.8514 -0.6646 -0.6831
   96MYC    C4218269   0.338   2.292   6.192 -0.2789 -0.1379 -0.8567
   96MYC    H7818270   0.340   2.400   6.207  3.6676  0.0011 -1.2700
   96MYC    H7918271   0.265   2.248   6.261  0.0150 -0.4854 -0.7645
   96MYC    C4318272   0.479   2.247   6.232  0.6466 -0.6042 -1.4321
   96MYC    H8018273   0.556   2.262   6.155  0.7378  0.7499 -1.1019
   96MYC    H8118274   0.488   2.141   6.259 -2.2264 -0.7152 -0.6331
   96MYC    H8218275   0.527   2.311   6.306  2.6235 -1.3704 -1.9784
   97MYC   HH1518276   5.803   2.546   5.155  0.8732  1.0891 -0.5507
   97MYC    C8018277   5.836   2.613   5.235  0.3356  0.5202  0.1668
   97MYC   H10018278   5.750   2.629   5.301 -0.1835  1.0941 -0.6409
   97MYC   H10118279   5.921   2.568   5.289  0.6135  0.9099  0.0585
   97MYC    C7918280   5.865   2.744   5.167 -0.4282 -0.1713  0.0128
   97MYC   H10218281   5.888   2.827   5.234  1.4820  1.2398 -2.2581
   97MYC   H10318282   5.776   2.761   5.106 -0.8926 -1.4421  0.3056
   97MYC    C7818283   5.979   2.734   5.054 -0.1544 -0.2321  0.2523
   97MYC   HH1418284   5.944   2.663   4.979 -0.7526 -2.1734  2.2775
   97MYC   H10418285   6.073   2.699   5.099  0.3773  2.3512  1.3656
   97MYC    C7718286   6.013   2.869   4.981 -0.2792  0.1399 -0.0348
   97MYC   H10618287   6.064   2.937   5.050  2.7521 -1.2292 -0.7486
   97MYC   H10718288   5.912   2.905   4.962 -0.5103 -0.1660  0.5727
   97MYC    C7618289   6.085   2.848   4.848  0.0300 -0.2736 -1.0668
   97MYC   H10818290   6.029   2.780   4.782 -0.5743 -1.5422  0.6475
   97MYC   H10918291   6.184   2.805   4.869 -0.5655 -1.8820 -1.3608
   97MYC    C7518292   6.104   2.969   4.763 -0.1443  0.1286  0.5582
   97MYC   H11018293   6.152   3.045   4.825 -1.5071  1.6504 -0.1973
   97MYC   H11118294   6.007   3.013   4.739 -0.0124 -0.2705 -0.8083
   97MYC    C7418295   6.187   2.940   4.635  0.1210 -0.8408  0.1318
   97MYC   H11218296   6.153   2.853   4.576  0.6987 -0.6426 -0.5144
   97MYC   H11318297   6.285   2.897   4.663  0.9391  0.0064 -1.3053
   97MYC    C7318298   6.207   3.071   4.547 -0.0680  0.0045 -0.0970
   97MYC   HH1318299   6.275   3.144   4.592  0.9122 -0.9452  0.0073
   97MYC   H11418300   6.111   3.122   4.537 -0.2950  0.3711  3.0429
   97MYC    C7218301   6.275   3.039   4.416  0.1547 -0.6034  0.3014
   97MYC   H11518302   6.263   3.121   4.344 -1.1927  0.5918  1.8123
   97MYC   H11618303   6.230   2.952   4.367  0.1641  0.7686 -2.3584
   97MYC    C7118304   6.423   2.999   4.426 -0.2123 -0.1502 -0.1981
   97MYC   H11718305   6.445   2.906   4.480 -0.2481  0.2738  0.5507
   97MYC   H11818306   6.472   3.078   4.483  0.0826 -0.0943 -0.5211
   97MYC    C7018307   6.497   2.992   4.292 -0.7911  0.7550  0.0959
   97MYC   H11918308   6.495   3.090   4.242 -0.8047  0.2989 -0.8319
   97MYC   H12018309   6.452   2.922   4.220 -0.7164  1.0755 -0.2686
   97MYC    C6918310   6.642   2.941   4.307  0.4486 -0.8131 -0.2292
   97MYC   H12118311   6.639   2.846   4.360 -0.2000 -0.0481  1.1709
   97MYC   H12218312   6.688   3.004   4.385 -2.2204  1.4205 -0.3004
   97MYC    C6818313   6.714   2.935   4.173 -0.0372  0.1775 -0.1236
   97MYC   HH1218314   6.698   3.034   4.130  0.0331  1.8202  3.2903
   97MYC   H12318315   6.661   2.865   4.106 -0.2533  1.6027 -1.4929
   97MYC    C6718316   6.862   2.894   4.184  0.1263 -0.1786 -0.3987
   97MYC   H12418317   6.879   2.806   4.247 -0.7512 -0.6670 -0.8178
   97MYC   H12518318   6.900   2.979   4.242  0.3069 -0.1948 -0.4953
   97MYC    C6618319   6.943   2.869   4.050  0.3295  0.3205 -0.1651
   97MYC   H12618320   6.887   2.814   3.974  4.3211 -0.6869 -2.6489
   97MYC   H12718321   7.029   2.802   4.059 -0.6880 -1.0520 -0.3290
   97MYC    C6518322   6.992   2.997   3.969  0.4811  0.5085 -0.2128
   97MYC   H12818323   7.048   3.070   4.028 -0.1701 -0.8764  2.2783
   97MYC   H12918324   6.905   3.044   3.922  0.7357  0.0306 -1.1959
   97MYC    C6418325   7.089   2.947   3.854 -0.7238  0.0954  0.5112
   97MYC   H13018326   7.029   2.890   3.781 -2.9545  1.8938  0.8487
   97MYC   H13118327   7.152   2.868   3.897 -1.5146 -0.4161  0.7531
   97MYC    C6318328   7.164   3.063   3.792 -0.0271 -0.7688 -0.6115
   97MYC   HH1118329   7.215   3.111   3.876  0.8593  1.0789 -2.1545
   97MYC   H13218330   7.091   3.136   3.756  0.8807 -0.4251 -1.7813
   97MYC    C6218331   7.265   3.026   3.684  0.3873 -0.2947  0.2004
   97MYC   H13318332   7.221   2.980   3.595  0.8750 -2.0987  0.8314
   97MYC   H13418333   7.332   2.947   3.721  3.0428  0.5315 -2.4632
   97MYC    C6118334   7.354   3.138   3.627 -1.1073 -0.1572  0.3079
   97MYC   H13518335   7.451   3.096   3.600 -1.1488  0.9221 -1.7252
   97MYC   H13618336   7.379   3.216   3.700 -3.0805 -0.0141  0.8910
   97MYC    C6018337   7.287   3.190   3.498  0.6409  0.2254  0.7300
   97MYC   H13718338   7.186   3.231   3.502  1.3147  2.0609  0.3692
   97MYC    C5818339   7.378   3.269   3.398  0.2678  0.6194  0.1005
   97MYC   H13818340   7.484   3.266   3.421 -0.0265 -0.4867  1.5029
   97MYC    C5918341   7.318   3.138   3.359  0.1776 -0.3851  0.5697
   97MYC   H13918342   7.239   3.136   3.285  1.8923 -0.7952 -1.3309
   97MYC   H14018343   7.392   3.058   3.349  2.1275  1.5091 -1.3892
   97MYC    C5718344   7.321   3.409   3.354 -0.3461 -0.2798 -0.5132
   97MYC   HH1018345   7.311   3.478   3.438 -1.3963 -0.7569 -0.2216
   97MYC   H14118346   7.219   3.404   3.314  0.4903  2.4002 -3.4394
   97MYC    C5618347   7.394   3.467   3.229  0.0277 -0.4599 -0.5735
   97MYC   H14218348   7.499   3.482   3.256 -0.1575 -0.9554  0.4415
   97MYC   H14318349   7.368   3.574   3.219  1.0884 -0.0898  0.4903
   97MYC    C5518350   7.378   3.394   3.092 -0.6099 -0.1232  0.1524
   97MYC   H14418351   7.270   3.397   3.073 -0.2989 -0.4336 -1.8773
   97MYC   H14518352   7.407   3.288   3.094  2.1939  0.5712 -0.4355
   97MYC    C5418353   7.453   3.469   2.975 -0.4144 -0.9651 -0.4692
   97MYC   H14618354   7.550   3.505   3.012 -1.3363  0.5292  0.6241
   97MYC   H14718355   7.399   3.565   2.963  0.2385 -0.5649 -0.2507
   97MYC    C5318356   7.461   3.392   2.836  0.5167 -0.8460 -0.5146
   97MYC   H14818357   7.367   3.347   2.802  0.8382 -1.1691 -0.9990
   97MYC   H14918358   7.535   3.312   2.852 -0.2918 -1.3870  0.6130
   97MYC    C5218359   7.518   3.482   2.729  0.5420  0.1460  0.3823
   97MYC    H9918360   7.454   3.564   2.695  1.0525  0.3403 -0.1220
   97MYC   H15018361   7.536   3.421   2.640 -1.2457 -2.6288  1.7766
   97MYC    C5118362   7.656   3.554   2.758  0.2870 -0.1684 -0.0772
   97MYC    H9718363   7.727   3.475   2.785  1.6947  0.7256 -1.0039
   97MYC    H9818364   7.652   3.627   2.840  0.9036  0.4273 -0.5600
   97MYC    C5018365   7.724   3.635   2.645  0.0594  0.1506 -0.2661
   97MYC    H9518366   7.806   3.677   2.704 -1.3689  1.2062  1.0277
   97MYC    H9618367   7.659   3.717   2.612  1.1881  2.1843  2.2059
   97MYC    C4918368   7.767   3.545   2.527 -0.2301 -0.1293 -0.0853
   97MYC    H9318369   7.687   3.480   2.491  0.8285 -1.7418  0.3832
   97MYC    H9418370   7.843   3.477   2.567 -1.7756 -1.4330  0.7259
   97MYC    C4818371   7.826   3.622   2.404 -0.5708 -0.3573  0.0522
   97MYC    H9118372   7.871   3.549   2.336  0.6013  0.2087  0.2040
   97MYC    H9218373   7.912   3.684   2.431  0.9795 -2.5216  0.3657
   97MYC    C4718374   7.710   3.701   2.332 -0.1958 -0.6496 -0.6449
   97MYC    H8918375   7.755   3.741   2.240  0.8384 -0.0731  0.0915
   97MYC    H9018376   7.680   3.786   2.394 -1.4824 -0.9338 -0.8577
   97MYC    C4618377   7.583   3.625   2.299  0.6700  0.3350  0.2273
   97MYC    H8718378   7.508   3.696   2.263 -0.6354 -0.1400  1.8709
   97MYC    H8818379   7.537   3.583   2.389  1.2418  1.2752  0.9884
   97MYC    C4518380   7.595   3.506   2.200 -0.4260 -0.3288  0.7853
   97MYC    H8518381   7.500   3.452   2.189 -0.6285  0.4171 -1.9426
   97MYC    H8618382   7.669   3.437   2.243  1.4986 -0.1582 -1.9534
   97MYC    C4418383   7.643   3.545   2.062 -0.3333 -0.0690 -0.7363
   97MYC    H8318384   7.742   3.589   2.063 -0.7217  0.9443  2.1511
   97MYC    H8418385   7.566   3.611   2.021  0.2626  0.3120 -1.2457
   97MYC    C1818386   7.652   3.427   1.971 -0.0957 -0.1658  1.0902
   97MYC    H3118387   7.740   3.366   1.992 -0.7848 -1.3832  0.5290
   97MYC    C1718388   7.534   3.355   1.903  0.0963  0.4479 -0.4111
   97MYC    H3018389   7.434   3.386   1.929 -0.2398 -1.3910  0.6826
   97MYC    C1918390   7.626   3.446   1.818  0.0564 -0.4314 -0.0819
   97MYC    H3218391   7.584   3.537   1.776 -0.7758 -1.1612 -0.8567
   97MYC    H3318392   7.698   3.399   1.751 -1.0779 -0.9471 -0.9607
   97MYC    C1618393   7.534   3.203   1.879  0.4392  0.2471  0.4086
   97MYC    H2818394   7.637   3.165   1.884  0.4483  0.0809 -0.7458
   97MYC    H2918395   7.510   3.185   1.774  0.3632  1.4344  0.2088
   97MYC    C1518396   7.437   3.113   1.960 -0.0975  0.2114 -0.6286
   97MYC    H2618397   7.449   3.016   1.912 -0.1619 -0.1041 -0.0215
   97MYC    H2718398   7.337   3.151   1.936 -0.1428  0.5478  0.0636
   97MYC    C1418399   7.459   3.124   2.108  0.9229  0.1365  0.3630
   97MYC    H2418400   7.382   3.061   2.155  0.7490  0.7355  0.9109
   97MYC    H2518401   7.435   3.230   2.126  1.1899  0.5382 -1.4989
   97MYC    C1318402   7.609   3.080   2.159  0.7117  0.2678  0.2342
   97MYC    H2218403   7.691   3.125   2.102 -2.1933  2.8606 -2.2615
   97MYC    H2318404   7.615   2.972   2.143  1.5884  0.1621  1.1452
   97MYC    C1218405   7.635   3.097   2.309  0.4880 -0.6233 -0.6288
   97MYC    H2018406   7.578   3.017   2.358 -1.5051  1.6597  1.0126
   97MYC    H2118407   7.580   3.186   2.342  0.6900 -1.7072  3.1125
   97MYC    C1118408   7.790   3.096   2.335 -0.3527 -0.1666 -0.2747
   97MYC    H1818409   7.835   3.189   2.298  0.8235 -0.7742 -0.4032
   97MYC    H1918410   7.830   3.006   2.287 -0.2315  0.8488 -2.2166
   97MYC    C1018411   7.826   3.096   2.482  0.3597 -0.1252  0.1768
   97MYC    H1618412   7.788   2.999   2.516 -1.2583 -0.2820 -1.8643
   97MYC    H1718413   7.780   3.177   2.539  2.7668  0.3273  1.6089
   97MYC     C918414   7.980   3.108   2.495 -0.1335 -0.3063 -0.5846
   97MYC    H1418415   8.008   3.200   2.443 -2.1656  1.1586  0.7274
   97MYC    H1518416   8.030   3.025   2.445 -0.3765 -0.1804 -1.0403
   97MYC     C818417   8.027   3.095   2.645 -0.6685 -0.6823 -0.0397
   97MYC    H1218418   8.123   3.041   2.644  0.0800  0.5817  0.5590
   97MYC    H1318419   7.959   3.025   2.695  1.1149 -0.6909  2.6025
   97MYC     C718420   8.034   3.241   2.711 -0.8162  1.1508 -0.1026
   97MYC    H1018421   7.937   3.291   2.720 -1.0063  0.4489  2.8967
   97MYC    H1118422   8.094   3.306   2.647  0.5950 -0.7377 -0.8073
   97MYC     C618423   8.112   3.235   2.850  0.1742  0.4207  0.3511
   97MYC     H818424   8.119   3.338   2.888  0.3514  1.9810 -3.4287
   97MYC     H918425   8.216   3.203   2.838 -0.0929 -1.1742  1.8832
   97MYC     C518426   8.043   3.145   2.955  0.6330 -0.1294  0.0720
   97MYC     H618427   8.108   3.148   3.043  0.2221 -1.6659  0.4569
   97MYC     H718428   8.047   3.041   2.920  2.2448 -0.8771  2.2323
   97MYC     C418429   7.903   3.196   2.981 -0.6959 -0.0069  0.5133
   97MYC     H418430   7.837   3.198   2.893 -2.2603  1.4888  1.6473
   97MYC     H518431   7.917   3.304   2.999  1.0103 -0.5227  2.6329
   97MYC     C218432   7.829   3.132   3.101  0.5454 -0.2585 -0.3050
   97MYC     H218433   7.889   3.116   3.191 -0.8114  1.3713  0.9588
   97MYC     O318434   7.719   3.223   3.128 -0.5019 -0.0999 -0.4017
   97MYC     H318435   7.724   3.295   3.063 -0.3332 -1.9855 -2.6035
   97MYC     C118436   7.769   2.989   3.062 -1.1236  0.6614 -1.0601
   97MYC     H118437   7.841   2.912   3.036 -1.3220 -0.3304  1.0986
   97MYC    C8118438   7.680   2.994   2.923 -0.0613 -0.4053 -0.8461
   97MYC    O8218439   7.565   3.038   2.928 -0.0010  0.1655 -0.2680
   97MYC    O8318440   7.731   2.928   2.822 -0.3599 -0.0763 -0.5890
   97MYC   H10518441   7.665   2.941   2.752  0.2866 -0.8990 -1.3898
   97MYC    C2018442   7.682   2.929   3.173 -0.0616 -0.0029 -0.3443
   97MYC    H3418443   7.583   2.975   3.185 -1.0529 -2.0618 -0.1118
   97MYC    H3518444   7.643   2.833   3.136 -1.1840  0.6799 -1.0123
   97MYC    C2118445   7.744   2.903   3.313  0.2468 -0.6213 -0.3825
   97MYC    H3618446   7.823   2.827   3.300  2.3615  1.5224 -0.9312
   97MYC    H3718447   7.797   2.993   3.348  0.2194 -0.5491 -0.5243
   97MYC    C2218448   7.639   2.850   3.410 -0.1465 -0.8757 -0.0616
   97MYC    H3818449   7.542   2.900   3.412  0.7144  0.8994 -0.6837
   97MYC    H3918450   7.615   2.752   3.365 -1.0540 -0.7737  0.1944
   97MYC    C2318451   7.695   2.841   3.553  0.2861  0.2219 -0.3762
   97MYC    H4018452   7.787   2.782   3.562 -0.2261 -0.3690  1.2728
   97MYC    H4118453   7.720   2.942   3.587  3.1399 -0.1541 -1.1349
   97MYC    C2418454   7.597   2.772   3.648  0.0212  0.1424 -0.2218
   97MYC    H4218455   7.498   2.817   3.646 -0.1043 -0.1444 -0.7912
   97MYC    H4318456   7.589   2.664   3.629  1.7154 -0.2885  1.1796
   97MYC    C2518457   7.655   2.768   3.790 -0.1918  1.1912  0.3197
   97MYC    H4418458   7.736   2.695   3.784 -2.0457 -1.1430  1.7007
   97MYC    H4518459   7.698   2.864   3.821  1.8299  0.0445  1.2903
   97MYC    C2618460   7.551   2.710   3.897  0.3066  0.0718  0.0581
   97MYC    H4618461   7.463   2.775   3.898 -0.4708 -0.9704 -0.0214
   97MYC    H4718462   7.503   2.620   3.859  1.0959 -0.5640  0.5376
   97MYC    C2718463   7.600   2.697   4.047  0.2314  0.3686  0.5713
   97MYC    H4818464   7.682   2.625   4.038 -1.5609 -1.6694 -0.2177
   97MYC    H4918465   7.650   2.791   4.073  0.5591  0.3828 -0.0963
   97MYC    C2818466   7.492   2.641   4.136  0.0277  0.4770  0.4666
   97MYC    H5018467   7.397   2.686   4.104 -1.3097 -1.5059  1.4712
   97MYC    H5118468   7.482   2.532   4.135  0.5319  0.3973  2.1071
   97MYC    C2918469   7.528   2.688   4.275  0.6716  0.2260 -0.0003
   97MYC    H5218470   7.618   2.641   4.316  0.1428  0.2358  1.2224
   97MYC    H5318471   7.548   2.796   4.279  1.9218 -0.0118  0.9867
   97MYC    C3018472   7.408   2.658   4.368  0.2762  0.3349  0.4033
   97MYC    H5418473   7.318   2.691   4.314  1.2809 -1.0314 -2.3112
   97MYC    H5518474   7.404   2.548   4.373 -1.1956  0.3472 -0.0424
   97MYC    C3118475   7.425   2.716   4.509 -0.1542  0.3041  0.2252
   97MYC    H5618476   7.525   2.696   4.549  0.1991  0.1642 -0.6952
   97MYC    H5718477   7.420   2.826   4.507  0.4605  0.3399  0.4987
   97MYC    C3218478   7.332   2.652   4.613  0.5404  0.1372 -0.3734
   97MYC    H5818479   7.227   2.670   4.588  0.3636 -1.2191 -0.6905
   97MYC    H5918480   7.345   2.543   4.611 -1.1585 -0.1588  1.5015
   97MYC    C3318481   7.348   2.702   4.755  0.0627  0.4826  0.5199
   97MYC    H6018482   7.455   2.707   4.778  0.5025 -1.9070 -0.6774
   97MYC    H6118483   7.320   2.808   4.755 -0.4543  0.4372 -2.5070
   97MYC    C3418484   7.277   2.624   4.869  0.3901  0.3149 -0.9710
   97MYC    H6218485   7.169   2.629   4.848  0.4435  1.8037 -0.9972
   97MYC    H6318486   7.296   2.517   4.861  0.3232  0.2655 -0.4446
   97MYC    C3518487   7.301   2.679   5.021  0.2817 -0.2023 -0.4163
   97MYC    H6418488   7.408   2.682   5.044 -0.3607 -1.1963  3.2630
   97MYC    H6518489   7.260   2.780   5.018 -1.1197 -0.7397  0.1850
   97MYC    C3618490   7.223   2.600   5.132  1.1671  0.5821 -0.0836
   97MYC    H6618491   7.116   2.593   5.106  1.7457 -1.0375 -2.3135
   97MYC    H6718492   7.247   2.493   5.130  0.5326  0.4414 -0.5530
   97MYC    C3718493   7.248   2.658   5.271 -0.6896  0.1748  0.7297
   97MYC    H6818494   7.355   2.652   5.295 -0.0632  3.3392 -0.7543
   97MYC    H6918495   7.217   2.762   5.253 -1.0155  0.2454  1.6557
   97MYC    C3818496   7.158   2.603   5.378  0.7505 -0.5269  0.1506
   97MYC    H7018497   7.050   2.612   5.364  0.7011 -1.5034 -0.1678
   97MYC    H7118498   7.175   2.495   5.382 -0.2231 -0.8163 -1.9256
   97MYC    C3918499   7.192   2.659   5.516  0.0658 -0.2952  0.2441
   97MYC    H7218500   7.299   2.644   5.532  0.3000  0.6410 -0.3486
   97MYC    H7318501   7.180   2.768   5.517 -0.3120 -0.3283 -0.1592
   97MYC    C4018502   7.108   2.595   5.626  0.2536  0.4101 -0.3609
   97MYC    H7418503   7.002   2.600   5.600  0.0647 -0.4224  0.2032
   97MYC    H7518504   7.135   2.489   5.628 -0.8921  0.0762  2.4342
   97MYC    C4118505   7.141   2.670   5.759 -0.1444 -0.5783 -0.1096
   97MYC    H7618506   7.249   2.655   5.773  0.0454 -1.2556 -2.0189
   97MYC    H7718507   7.130   2.779   5.752  1.9719 -0.1583  1.7900
   97MYC    C4218508   7.056   2.613   5.875  0.4689  0.8802  0.4532
   97MYC    H7818509   6.950   2.615   5.849 -0.3143 -2.4435  2.8310
   97MYC    H7918510   7.085   2.508   5.865  0.0526  0.7055  1.0233
   97MYC    C4318511   7.061   2.670   6.017  0.0440 -0.2922 -0.3671
   97MYC    H8018512   7.017   2.591   6.079 -0.8688 -2.6275 -3.6917
   97MYC    H8118513   7.012   2.767   6.009  0.8171  0.1257 -0.1772
   97MYC    H8218514   7.165   2.694   6.045  0.2492 -0.2176 -1.1487
   98MYC   HH1518515   6.015   3.080   5.702  1.7385  0.4229 -1.2231
   98MYC    C8018516   5.974   3.180   5.719  0.0313 -0.5360  0.7201
   98MYC   H10018517   5.954   3.193   5.826  1.5428 -0.4317  1.0160
   98MYC   H10118518   6.050   3.247   5.677  0.7478 -2.7675 -1.7873
   98MYC    C7918519   5.834   3.201   5.651 -0.0468  0.7929 -0.1223
   98MYC   H10218520   5.807   3.306   5.665  0.1636  1.1843 -2.3528
   98MYC   H10318521   5.765   3.145   5.716  1.7424  0.2999  1.4577
   98MYC    C7818522   5.829   3.164   5.499  0.0503 -0.4254  0.0530
   98MYC   HH1418523   5.726   3.150   5.465  0.7173  0.5176 -2.5642
   98MYC   H10418524   5.890   3.076   5.478  2.2793  1.4897 -2.0350
   98MYC    C7718525   5.902   3.272   5.418 -0.3919  0.2728 -0.0048
   98MYC   H10618526   6.000   3.290   5.464 -0.6290 -0.6184  0.9032
   98MYC   H10718527   5.853   3.368   5.436 -0.6807  0.0462  0.4396
   98MYC    C7618528   5.924   3.249   5.266 -0.3217  0.5198  0.4266
   98MYC   H10818529   5.825   3.241   5.220  0.0721  0.6344 -0.4614
   98MYC   H10918530   5.963   3.147   5.256 -3.4187 -0.9227  1.5090
   98MYC    C7518531   6.004   3.368   5.192  0.0113 -0.2875  1.1057
   98MYC   H11018532   6.095   3.392   5.249  0.3199  2.0401 -0.2710
   98MYC   H11118533   5.940   3.455   5.206 -0.3575 -0.7006  2.1302
   98MYC    C7418534   6.033   3.339   5.039  0.2103 -0.2246  0.6453
   98MYC   H11218535   5.942   3.315   4.984  0.1039  1.0006  0.2657
   98MYC   H11318536   6.098   3.251   5.040  1.4080  0.5920 -0.4782
   98MYC    C7318537   6.094   3.465   4.970  0.9682  0.0109  0.5296
   98MYC   HH1318538   6.182   3.502   5.024  1.5085  0.5188 -0.6630
   98MYC   H11418539   6.032   3.555   4.969  2.0954  0.7942 -0.2966
   98MYC    C7218540   6.133   3.438   4.822 -0.5980 -0.1763 -0.2957
   98MYC   H11518541   6.051   3.423   4.751  1.0799  0.6653 -2.5263
   98MYC   H11618542   6.194   3.347   4.822  0.9247  0.7992  0.9085
   98MYC    C7118543   6.207   3.561   4.761 -0.6828 -0.4467 -0.7313
   98MYC   H11718544   6.293   3.581   4.826 -0.9481 -0.9967 -0.1982
   98MYC   H11818545   6.141   3.648   4.772  0.8216  0.6347  0.0328
   98MYC    C7018546   6.247   3.562   4.618 -0.0080  1.0132 -0.0862
   98MYC   H11918547   6.269   3.663   4.581  0.1191  0.6180 -1.1362
   98MYC   H12018548   6.159   3.537   4.557 -0.2405  0.2556  0.5489
   98MYC    C6918549   6.367   3.459   4.596 -0.1235  0.3094  0.7280
   98MYC   H12118550   6.351   3.365   4.651  2.2263 -1.5766 -1.5654
   98MYC   H12218551   6.457   3.502   4.641  0.8916 -2.5117  1.5871
   98MYC    C6818552   6.398   3.422   4.452  0.6887  0.2847 -0.0998
   98MYC   HH1218553   6.307   3.379   4.410  0.6069  1.9010 -1.7135
   98MYC   H12318554   6.468   3.339   4.467 -0.5660 -0.9078 -0.6423
   98MYC    C6718555   6.456   3.527   4.356  0.5070  0.1903 -0.3895
   98MYC   H12418556   6.536   3.575   4.414  0.1865  1.8178 -1.2377
   98MYC   H12518557   6.386   3.606   4.329  2.3899  1.5012 -1.6530
   98MYC    C6618558   6.509   3.467   4.230  0.2543  0.5470 -0.1774
   98MYC   H12618559   6.429   3.406   4.185  1.2765 -2.0566  1.3742
   98MYC   H12718560   6.589   3.401   4.264  0.2045  0.4626 -0.2243
   98MYC    C6518561   6.563   3.561   4.132 -0.2123  0.2155 -0.1919
   98MYC   H12818562   6.654   3.614   4.165 -1.8292  1.4646  2.6511
   98MYC   H12918563   6.481   3.631   4.115 -0.2461  0.0251 -0.8437
   98MYC    C6418564   6.609   3.501   4.000  0.1388 -0.2517  0.4731
   98MYC   H13018565   6.523   3.456   3.947  0.0218  0.5244 -0.0107
   98MYC   H13118566   6.668   3.412   4.022 -1.1353 -2.3309 -3.4310
   98MYC    C6318567   6.675   3.590   3.903 -1.1095 -0.3869  0.3489
   98MYC   HH1118568   6.756   3.647   3.951 -0.7785 -2.1801  2.0266
   98MYC   H13218569   6.600   3.665   3.876 -0.2426  0.1012 -0.7980
   98MYC    C6218570   6.737   3.524   3.779  0.4833 -0.3368 -0.7822
   98MYC   H13318571   6.647   3.500   3.721 -0.3853 -1.3449  0.8899
   98MYC   H13418572   6.794   3.436   3.810  0.7616 -0.0787 -0.5521
   98MYC    C6118573   6.828   3.628   3.700  0.1315  0.2195 -0.5288
   98MYC   H13518574   6.915   3.659   3.760  0.6710 -2.4723  0.2327
   98MYC   H13618575   6.767   3.717   3.680  0.6960 -0.0500 -3.9621
   98MYC    C6018576   6.882   3.566   3.572  0.3484 -0.0006 -0.4808
   98MYC   H13718577   6.795   3.523   3.523 -0.8447 -1.4812  2.6336
   98MYC    C5818578   6.974   3.637   3.478  0.0797 -0.6261 -0.2898
   98MYC   H13818579   7.027   3.727   3.508 -1.3427  1.0010 -2.3823
   98MYC    C5918580   7.016   3.513   3.554  0.1769  0.3959  0.3844
   98MYC   H13918581   7.015   3.417   3.504 -0.9137 -0.6099  2.2608
   98MYC   H14018582   7.108   3.530   3.609 -0.2738 -0.8552  1.5834
   98MYC    C5718583   6.955   3.639   3.327 -0.6374 -0.2762  0.8097
   98MYC   HH1018584   6.863   3.695   3.303 -2.0296 -2.2694  1.2726
   98MYC   H14118585   6.939   3.536   3.294  2.4194 -0.5589 -0.1114
   98MYC    C5618586   7.078   3.702   3.255 -0.7636 -0.5162  0.3870
   98MYC   H14218587   7.164   3.643   3.287  0.2612  0.6650 -0.1106
   98MYC   H14318588   7.092   3.800   3.303 -0.2617 -0.2160 -0.3549
   98MYC    C5518589   7.072   3.718   3.104  0.3416  0.1786 -0.4734
   98MYC   H14418590   6.973   3.761   3.087 -0.6892 -1.5143  1.0039
   98MYC   H14518591   7.066   3.619   3.058 -0.2504 -0.5260  1.0842
   98MYC    C5418592   7.183   3.805   3.043 -0.6547  0.0156 -0.4332
   98MYC   H14618593   7.279   3.760   3.070 -0.4698  0.5927 -0.1104
   98MYC   H14718594   7.187   3.905   3.087 -0.6010  0.4865 -1.4749
   98MYC    C5318595   7.176   3.820   2.883  1.1028 -0.7941  0.3991
   98MYC   H14818596   7.092   3.883   2.852 -1.1382 -3.3023  1.0326
   98MYC   H14918597   7.153   3.721   2.842  0.8122 -0.0080 -1.4276
   98MYC    C5218598   7.305   3.879   2.823 -0.1077  0.4549  0.3942
   98MYC    H9918599   7.379   3.802   2.848 -0.8285 -0.3696  0.0184
   98MYC   H15018600   7.335   3.971   2.875 -1.7611  0.3592  1.5716
   98MYC    C5118601   7.299   3.889   2.663 -0.4387 -0.7243  0.1365
   98MYC    H9718602   7.205   3.940   2.637 -0.2266 -0.1328  0.5002
   98MYC    H9818603   7.290   3.785   2.630  0.3832 -0.1965 -1.9069
   98MYC    C5018604   7.404   3.958   2.591  0.6145  0.1539 -0.2288
   98MYC    H9518605   7.501   3.911   2.609  0.9989  0.4869 -1.3578
   98MYC    H9618606   7.419   4.060   2.626  0.1837  0.5931 -1.2793
   98MYC    C4918607   7.380   3.954   2.441 -0.0511  0.3061  0.6066
   98MYC    H9318608   7.290   4.017   2.434  1.2200  2.2802  1.1292
   98MYC    H9418609   7.363   3.851   2.408 -2.5632  1.2327 -1.3302
   98MYC    C4818610   7.482   4.011   2.345 -0.3949  0.3040  0.0707
   98MYC    H9118611   7.580   3.964   2.342 -0.1327  0.8386  0.1518
   98MYC    H9218612   7.493   4.115   2.380 -2.0091  0.6686 -0.4148
   98MYC    C4718613   7.432   4.000   2.203 -0.3716  0.0335  0.1943
   98MYC    H8918614   7.335   4.049   2.210  0.9620  2.5856  2.3463
   98MYC    H9018615   7.422   3.893   2.181  0.8228  0.1327 -1.0300
   98MYC    C4618616   7.513   4.082   2.100 -0.3965  0.4141  0.3868
   98MYC    H8718617   7.620   4.087   2.122  0.3369 -2.9579 -1.6996
   98MYC    H8818618   7.483   4.187   2.105  2.0335  1.0930  3.7390
   98MYC    C4518619   7.495   4.040   1.954 -0.3263 -0.1854  0.5118
   98MYC    H8518620   7.551   4.119   1.902  1.5088 -1.9632 -0.3269
   98MYC    H8618621   7.386   4.039   1.944 -0.3294 -1.2694  0.5709
   98MYC    C4418622   7.572   3.909   1.915 -0.4370  0.1801  0.2237
   98MYC    H8318623   7.525   3.853   1.832  1.3804 -0.0275 -0.7162
   98MYC    H8418624   7.568   3.838   1.998  0.3002 -1.6359 -1.2000
   98MYC    C1818625   7.719   3.941   1.887 -0.3742  0.5718 -0.0463
   98MYC    H3118626   7.773   3.975   1.974  1.4032  0.3197 -1.0125
   98MYC    C1718627   7.799   3.843   1.794  0.3604 -0.3030 -0.7874
   98MYC    H3018628   7.754   3.765   1.732  0.3308  0.0134 -1.1715
   98MYC    C1918629   7.766   3.980   1.743  0.2439 -0.2143 -1.0885
   98MYC    H3218630   7.686   3.993   1.671  0.3469  0.7964 -1.0217
   98MYC    H3318631   7.846   4.053   1.741 -0.6025  0.7110 -1.9352
   98MYC    C1618632   7.939   3.819   1.832  0.8044 -0.5488  0.1692
   98MYC    H2818633   7.984   3.910   1.874  1.2568  0.7832 -2.8765
   98MYC    H2918634   7.991   3.803   1.737  1.8315  1.6941  0.2872
   98MYC    C1518635   7.950   3.696   1.916 -0.3179  0.5566  0.3633
   98MYC    H2618636   7.907   3.612   1.862 -0.8732 -0.2853  2.0345
   98MYC    H2718637   7.885   3.715   2.003 -0.4639  0.1190  0.3526
   98MYC    C1418638   8.091   3.667   1.956 -0.3346  0.6244  0.1956
   98MYC    H2418639   8.127   3.746   2.022 -0.9740 -0.7330  2.2643
   98MYC    H2518640   8.162   3.653   1.874 -0.7379 -3.3750  0.3177
   98MYC    C1318641   8.094   3.522   2.019  0.5023 -0.2893  0.0598
   98MYC    H2218642   8.045   3.447   1.955  3.1102 -1.2539 -0.9519
   98MYC    H2318643   8.041   3.522   2.115  0.6412  0.9156  0.1469
   98MYC    C1218644   8.234   3.472   2.050 -0.0925 -0.1918  0.2121
   98MYC    H2018645   8.294   3.560   2.077 -1.8843  1.2578 -0.3516
   98MYC    H2118646   8.284   3.440   1.957  1.9838  0.9221  0.8675
   98MYC    C1118647   8.243   3.357   2.149  0.2067  0.6106  0.7912
   98MYC    H1818648   8.342   3.310   2.153 -0.4666 -0.7382  2.9780
   98MYC    H1918649   8.180   3.273   2.117  1.5964 -0.0714 -0.2781
   98MYC    C1018650   8.207   3.395   2.287  0.5661 -0.8576 -0.6912
   98MYC    H1618651   8.234   3.315   2.356  1.5844 -0.1714 -0.2809
   98MYC    H1718652   8.097   3.403   2.287  0.5510 -1.0188 -0.0947
   98MYC     C918653   8.274   3.531   2.335  0.1038 -0.4539  0.0022
   98MYC    H1418654   8.253   3.614   2.266 -1.9640  0.4551  1.6018
   98MYC    H1518655   8.382   3.522   2.347  0.0873  0.6584  1.1877
   98MYC     C818656   8.222   3.569   2.479 -0.1864  0.2306 -0.3308
   98MYC    H1218657   8.260   3.492   2.547 -2.5227 -1.6324 -0.9926
   98MYC    H1318658   8.113   3.571   2.490 -0.3453 -0.7008 -1.5083
   98MYC     C718659   8.277   3.714   2.514 -0.4367  0.0358 -0.0854
   98MYC    H1018660   8.229   3.788   2.449  0.3713 -0.8880 -1.8125
   98MYC    H1118661   8.384   3.727   2.498 -0.6312  1.5494 -0.3223
   98MYC     C618662   8.273   3.738   2.666  1.2763 -0.2521 -0.2022
   98MYC     H818663   8.288   3.846   2.673 -0.3752 -0.0715  1.0226
   98MYC     H918664   8.358   3.688   2.714  1.8474  0.7882 -0.1002
   98MYC     C518665   8.141   3.708   2.736 -0.9903  0.1243 -0.3349
   98MYC     H618666   8.121   3.600   2.735  0.6614 -0.2474  1.2346
   98MYC     H718667   8.056   3.754   2.684  1.2378  1.4526 -2.9893
   98MYC     C418668   8.140   3.741   2.890  0.0707  0.1193  0.5337
   98MYC     H418669   8.148   3.851   2.888 -1.4490  0.2395 -0.9435
   98MYC     H518670   8.232   3.703   2.936  0.3964  2.2350  1.7954
   98MYC     C218671   7.999   3.704   2.966 -0.2224  0.1100 -0.1469
   98MYC     H218672   7.926   3.779   2.932  0.9167  0.2499 -2.4641
   98MYC     O318673   7.956   3.575   2.923  0.3408 -0.2256  0.0216
   98MYC     H318674   8.031   3.513   2.916 -1.1937 -2.6119  2.6565
   98MYC     C118675   8.010   3.709   3.121 -0.0315 -0.9656 -0.2523
   98MYC     H118676   8.033   3.813   3.147  0.2571 -0.8816 -0.8024
   98MYC    C8118677   8.124   3.630   3.186 -0.6023  0.6683  0.7807
   98MYC    O8218678   8.141   3.510   3.174  0.2198 -0.2807 -0.3119
   98MYC    O8318679   8.214   3.697   3.254 -0.0634 -0.0199 -0.3899
   98MYC   H10518680   8.272   3.633   3.299  0.5449 -0.5349 -1.8619
   98MYC    C2018681   7.869   3.659   3.183 -0.1395  0.2122 -0.2453
   98MYC    H3418682   7.787   3.717   3.140 -0.7163  1.1962  2.0563
   98MYC    H3518683   7.857   3.551   3.163 -0.5026  0.5356 -2.0147
   98MYC    C2118684   7.858   3.678   3.337 -0.0920 -0.7831 -0.1078
   98MYC    H3618685   7.950   3.654   3.391  0.8886  0.6271 -1.0758
   98MYC    H3718686   7.848   3.785   3.361 -1.6828 -0.4689 -1.9363
   98MYC    C2218687   7.741   3.606   3.398  0.7620  0.0905 -0.2218
   98MYC    H3818688   7.652   3.623   3.337  1.9308  2.3601 -1.4300
   98MYC    H3918689   7.759   3.498   3.407 -3.0787 -0.5982  1.1667
   98MYC    C2318690   7.706   3.649   3.543 -0.2714  0.4133  0.3310
   98MYC    H4018691   7.785   3.618   3.613 -1.0233 -0.1692  0.9434
   98MYC    H4118692   7.702   3.758   3.540 -1.7751  0.5095  2.8560
   98MYC    C2418693   7.573   3.571   3.579  0.7636 -0.6041 -0.1782
   98MYC    H4218694   7.494   3.584   3.504  1.5695 -0.4161 -1.0125
   98MYC    H4318695   7.585   3.462   3.567 -4.2832 -1.3865 -0.3657
   98MYC    C2518696   7.519   3.597   3.720 -0.3195  0.5723 -0.2426
   98MYC    H4418697   7.577   3.544   3.797 -0.4101  1.4430  0.4365
   98MYC    H4518698   7.516   3.703   3.747 -3.3685  0.3631  0.5809
   98MYC    C2618699   7.372   3.547   3.723  0.1749  0.2662  0.1757
   98MYC    H4618700   7.307   3.621   3.674 -1.1558 -1.2295 -0.3977
   98MYC    H4718701   7.368   3.453   3.667 -1.4811 -0.4831  1.4464
   98MYC    C2718702   7.338   3.523   3.873  0.0755 -0.1944  0.1197
   98MYC    H4818703   7.415   3.452   3.905  1.4067 -0.6163 -3.5507
   98MYC    H4918704   7.349   3.616   3.931 -3.9395  0.1308  0.6257
   98MYC    C2818705   7.189   3.472   3.904 -0.1213 -0.0867  0.2986
   98MYC    H5018706   7.115   3.534   3.852  2.5069  1.1238 -2.2569
   98MYC    H5118707   7.181   3.369   3.867  1.2709 -0.3246  0.6181
   98MYC    C2918708   7.179   3.477   4.061 -0.6045 -0.2723  0.3459
   98MYC    H5218709   7.267   3.421   4.093  0.3597  1.1053  0.1878
   98MYC    H5318710   7.202   3.572   4.109  1.3216 -0.4106 -0.2221
   98MYC    C3018711   7.055   3.415   4.125 -0.4378  0.5956  0.2080
   98MYC    H5418712   6.966   3.452   4.074 -1.2836 -0.9367  0.5015
   98MYC    H5518713   7.058   3.306   4.119 -4.2085  0.2684  1.6871
   98MYC    C3118714   7.041   3.431   4.280 -0.3728 -0.0549  0.6202
   98MYC    H5618715   7.124   3.378   4.328 -0.9749  0.5958  2.4824
   98MYC    H5718716   7.050   3.537   4.306 -0.4138  0.3938 -1.0591
   98MYC    C3218717   6.910   3.375   4.334  0.4880  0.7093 -0.1695
   98MYC    H5818718   6.833   3.453   4.322  1.3552  1.6311  0.1340
   98MYC    H5918719   6.873   3.296   4.268 -0.4340 -0.1062  1.2628
   98MYC    C3318720   6.911   3.332   4.479  0.4248 -0.0186  0.3949
   98MYC    H6018721   6.947   3.229   4.473  2.9954  0.8586 -1.0241
   98MYC    H6118722   6.977   3.392   4.544  0.7561 -0.8514  0.8520
   98MYC    C3418723   6.775   3.334   4.542  0.4163  0.6127 -0.5043
   98MYC    H6218724   6.731   3.434   4.554  1.0557  1.0568 -1.6773
   98MYC    H6318725   6.716   3.271   4.475  1.5114 -1.5732  0.4663
   98MYC    C3518726   6.775   3.255   4.682  0.3900 -0.3004 -0.1004
   98MYC    H6418727   6.803   3.150   4.664  1.1536 -0.2094  0.4929
   98MYC    H6518728   6.853   3.301   4.744  2.7165 -0.4929 -2.6901
   98MYC    C3618729   6.636   3.255   4.754  0.0701  0.4778  0.0593
   98MYC    H6618730   6.611   3.360   4.776 -2.0903 -0.0413  0.3126
   98MYC    H6718731   6.558   3.216   4.688  0.9822 -0.1027 -0.7065
   98MYC    C3718732   6.622   3.184   4.890  0.1534  0.5660 -0.1082
   98MYC    H6818733   6.657   3.080   4.879 -2.3134 -0.2529 -0.9284
   98MYC    H6918734   6.690   3.237   4.956  1.4734 -1.7131  0.4685
   98MYC    C3818735   6.484   3.184   4.956 -0.4177  0.6762  0.9046
   98MYC    H7018736   6.458   3.290   4.966 -0.4091  0.6759  0.9304
   98MYC    H7118737   6.412   3.151   4.880 -1.1537  1.8428  1.0633
   98MYC    C3918738   6.490   3.097   5.078 -0.4284 -0.0346  0.0492
   98MYC    H7218739   6.514   2.996   5.043  0.0376  0.7266 -1.9405
   98MYC    H7318740   6.567   3.121   5.151 -0.2504 -0.8571  0.1410
   98MYC    C4018741   6.350   3.104   5.155  0.5156 -0.9250 -0.1216
   98MYC    H7418742   6.328   3.204   5.193  0.4920 -0.6611 -0.8225
   98MYC    H7518743   6.266   3.085   5.088  1.2187  0.1573 -1.3600
   98MYC    C4118744   6.339   3.003   5.271 -0.1671  0.6358 -0.2370
   98MYC    H7618745   6.353   2.904   5.227 -1.7342 -0.0261  0.6619
   98MYC    H7718746   6.418   3.016   5.345 -2.5211 -1.2355  2.8748
   98MYC    C4218747   6.207   3.001   5.356 -0.1517  0.3356 -0.1120
   98MYC    H7818748   6.180   3.104   5.382 -1.3093  0.2681 -0.9781
   98MYC    H7918749   6.126   2.975   5.288  1.4544 -0.9203 -1.6368
   98MYC    C4318750   6.213   2.906   5.482 -0.5216 -0.3893  0.3102
   98MYC    H8018751   6.267   2.811   5.471  0.4366 -0.0073  1.4687
   98MYC    H8118752   6.109   2.878   5.503 -0.1169 -1.4204  1.0217
   98MYC    H8218753   6.255   2.957   5.569  1.1838 -2.7778  0.9960
   99MYC   HH1518754   6.162   3.540   5.936  2.0746  2.0109  0.3955
   99MYC    C8018755   6.080   3.611   5.924  0.6856  0.4746  0.4620
   99MYC   H10018756   5.992   3.595   5.988  1.2557  0.9717  1.3885
   99MYC   H10118757   6.126   3.701   5.967  1.6870  1.2241 -1.9819
   99MYC    C7918758   6.033   3.637   5.783 -0.0180 -0.5417 -0.1667
   99MYC   H10218759   5.943   3.700   5.785  1.3946  1.5689  0.9998
   99MYC   H10318760   6.009   3.540   5.738  0.4917  0.0100 -1.7190
   99MYC    C7818761   6.133   3.702   5.691 -0.2169  0.2717 -0.1050
   99MYC   HH1418762   6.225   3.650   5.719 -0.4093  0.6846  1.3612
   99MYC   H10418763   6.134   3.809   5.715 -0.7727  0.0034  1.1833
   99MYC    C7718764   6.109   3.691   5.535 -0.5120 -0.5232 -0.6405
   99MYC   H10618765   6.011   3.734   5.510 -0.9330 -1.4583 -0.6418
   99MYC   H10718766   6.115   3.585   5.506 -1.2417 -0.8806  0.4447
   99MYC    C7618767   6.219   3.763   5.461 -0.5918  0.0816  0.7793
   99MYC   H10818768   6.313   3.733   5.508  0.4816  1.7934 -0.1978
   99MYC   H10918769   6.217   3.871   5.478 -1.0209  0.0395  1.0315
   99MYC    C7518770   6.238   3.723   5.313 -0.2077  0.6797 -0.0241
   99MYC   H11018771   6.141   3.729   5.263 -0.7637 -0.5297  0.8385
   99MYC   H11118772   6.282   3.624   5.294  4.2184  2.2719  0.7334
   99MYC    C7418773   6.342   3.818   5.238 -0.8460 -0.3827  0.0947
   99MYC   H11218774   6.431   3.824   5.302 -1.1274  1.5202  0.3593
   99MYC   H11318775   6.298   3.917   5.223 -0.4075  0.1805  2.2505
   99MYC    C7318776   6.367   3.766   5.089  0.6865 -0.4090  0.5256
   99MYC   HH1318777   6.268   3.752   5.043  0.1212 -1.3001  1.9246
   99MYC   H11418778   6.405   3.663   5.092 -0.4507 -0.8996 -0.7822
   99MYC    C7218779   6.467   3.835   4.995  0.0832 -0.2937 -0.0269
   99MYC   H11518780   6.551   3.836   5.066 -0.9623 -0.7212  1.2681
   99MYC   H11618781   6.435   3.936   4.969 -0.9178 -0.7590 -0.6721
   99MYC    C7118782   6.519   3.768   4.868  0.5484 -0.3539 -0.2192
   99MYC   H11718783   6.430   3.780   4.804  1.1162 -3.5086 -1.8167
   99MYC   H11818784   6.542   3.661   4.871 -0.4627 -0.6374 -1.4651
   99MYC    C7018785   6.633   3.836   4.790 -0.5487 -0.3903  0.0002
   99MYC   H11918786   6.720   3.825   4.855 -0.3321  0.6662 -0.1038
   99MYC   H12018787   6.614   3.943   4.776  3.1410  0.3350 -0.3788
   99MYC    C6918788   6.654   3.776   4.644  0.7563 -0.0992 -0.0039
   99MYC   H12118789   6.557   3.786   4.595  1.1913 -2.2288 -1.4253
   99MYC   H12218790   6.678   3.670   4.654  1.5940  0.1262  0.5661
   99MYC    C6818791   6.756   3.867   4.564 -0.2120  0.5017  0.1720
   99MYC   HH1218792   6.852   3.864   4.618 -0.7288 -0.4956  1.0689
   99MYC   H12318793   6.732   3.973   4.570  1.0466  0.7863  0.4610
   99MYC    C6718794   6.791   3.814   4.421  0.9226  0.2466  0.2519
   99MYC   H12418795   6.694   3.812   4.370  0.2803 -0.1691  1.4713
   99MYC   H12518796   6.833   3.713   4.421  2.8343  0.9885  0.7306
   99MYC    C6618797   6.896   3.904   4.344 -0.3223 -0.0672 -0.0894
   99MYC   H12618798   6.981   3.915   4.412 -0.3438 -2.2160  0.3594
   99MYC   H12718799   6.853   4.003   4.329  0.3616  0.3694  0.7642
   99MYC    C6518800   6.924   3.839   4.204 -0.6792 -0.1031 -1.2444
   99MYC   H12818801   6.825   3.815   4.163 -1.5378 -0.1591  0.7373
   99MYC   H12918802   6.977   3.746   4.229 -0.3446  0.4470  0.1677
   99MYC    C6418803   7.017   3.933   4.123 -0.3455  0.2163  0.1937
   99MYC   H13018804   7.102   3.969   4.182 -0.0287  2.5735 -1.5592
   99MYC   H13118805   6.961   4.025   4.102 -0.2859  0.1376 -0.3195
   99MYC    C6318806   7.068   3.869   3.995  0.6566 -0.3719 -0.3546
   99MYC   HH1118807   6.994   3.800   3.954  1.1288 -0.4771 -1.0483
   99MYC   H13218808   7.154   3.806   4.020 -0.7896 -1.4647  2.2688
   99MYC    C6218809   7.106   3.977   3.884 -0.7063  0.3166 -0.0352
   99MYC   H13318810   7.162   4.064   3.919 -1.8811  0.9643  0.2701
   99MYC   H13418811   7.014   4.014   3.839 -0.2399 -0.4877 -1.7603
   99MYC    C6118812   7.194   3.901   3.781 -0.5151  0.3683 -0.1353
   99MYC   H13518813   7.149   3.817   3.725 -1.1858  1.4372 -1.2424
   99MYC   H13618814   7.278   3.849   3.829 -1.8087 -1.1361  0.6508
   99MYC    C6018815   7.257   3.994   3.682 -0.0598  0.3970  0.9193
   99MYC   H13718816   7.313   4.079   3.721  0.8458  1.8122 -3.0677
   99MYC    C5818817   7.304   3.940   3.546  0.5534 -0.2733  0.2754
   99MYC   H13818818   7.286   3.833   3.538  0.5712 -0.2018 -0.8482
   99MYC    C5918819   7.181   4.018   3.556  0.3596 -0.2028 -0.4719
   99MYC   H13918820   7.192   4.117   3.513  0.9438 -0.5984 -1.2876
   99MYC   H14018821   7.093   3.962   3.526 -1.4210  1.7125  0.9306
   99MYC    C5718822   7.429   3.979   3.483 -0.2527 -0.5438 -0.1880
   99MYC   HH1018823   7.505   3.906   3.516 -0.5925 -0.5845  0.5163
   99MYC   H14118824   7.460   4.080   3.511  1.4114 -0.7772 -1.0618
   99MYC    C5618825   7.431   3.970   3.333  0.5084  0.1498  0.2802
   99MYC   H14218826   7.371   4.056   3.299  1.0910  0.7016  0.6341
   99MYC   H14318827   7.374   3.881   3.305  1.8380 -0.4015 -0.7584
   99MYC    C5518828   7.571   3.975   3.270  0.5638 -0.1538  0.3042
   99MYC   H14418829   7.632   3.891   3.305 -1.3437 -2.1465 -0.8762
   99MYC   H14518830   7.613   4.073   3.294 -0.5912  0.7155 -1.0948
   99MYC    C5418831   7.573   3.954   3.119 -0.2010 -0.6382  0.0803
   99MYC   H14618832   7.485   4.003   3.076 -0.2250 -1.0487 -0.3539
   99MYC   H14718833   7.566   3.848   3.091  1.8556 -0.7351 -0.2447
   99MYC    C5318834   7.699   4.012   3.054 -0.0836  0.1508 -0.5492
   99MYC   H14818835   7.776   3.968   3.119  0.2592  2.3776  0.6263
   99MYC   H14918836   7.702   4.121   3.060  0.7410  0.1576 -0.9135
   99MYC    C5218837   7.711   3.968   2.903 -0.8461  0.4497 -0.0968
   99MYC    H9918838   7.612   3.989   2.862 -0.5806  0.1866 -0.8928
   99MYC   H15018839   7.732   3.862   2.883 -1.7352  0.0057  1.1906
   99MYC    C5118840   7.802   4.047   2.811  0.2281  0.6660 -0.1927
   99MYC    H9718841   7.903   4.056   2.853  0.3863 -1.0884 -0.1180
   99MYC    H9818842   7.777   4.153   2.805 -0.4192  0.5330  0.0995
   99MYC    C5018843   7.847   4.004   2.673 -0.5387 -0.3571  0.5680
   99MYC    H9518844   7.764   4.002   2.600  0.1380 -3.4400 -0.2464
   99MYC    H9618845   7.880   3.900   2.670  1.6700  0.3241 -1.0314
   99MYC    C4918846   7.964   4.104   2.620  0.3372  0.4762 -0.5010
   99MYC    H9318847   8.031   4.134   2.701  2.0920  2.1162 -2.4390
   99MYC    H9418848   7.910   4.194   2.587 -0.0297  0.3458 -0.2621
   99MYC    C4818849   8.046   4.053   2.505  0.4555  0.8975 -0.5111
   99MYC    H9118850   8.117   3.973   2.524  2.3259  2.4510 -0.6227
   99MYC    H9218851   8.114   4.131   2.468  0.4404  0.1402 -2.2732
   99MYC    C4718852   7.958   4.030   2.386 -0.4695  0.2276  0.5516
   99MYC    H8918853   7.883   4.110   2.377  0.1323  0.6124 -1.4544
   99MYC    H9018854   7.888   3.949   2.408 -3.1373  1.9028 -1.1985
   99MYC    C4618855   8.027   4.003   2.243 -0.4663 -0.4928 -0.8811
   99MYC    H8718856   7.955   3.950   2.180 -1.2079  0.3137 -0.7203
   99MYC    H8818857   8.099   3.920   2.252  0.7166  0.4912 -1.1020
   99MYC    C4518858   8.108   4.119   2.180 -0.0980 -0.5381  0.1340
   99MYC    H8518859   8.143   4.102   2.078  0.5621  1.0988  0.0568
   99MYC    H8618860   8.205   4.122   2.233  2.0585 -0.9112 -3.4577
   99MYC    C4418861   8.037   4.257   2.188 -0.6459  0.0232 -0.3290
   99MYC    H8318862   8.110   4.335   2.162 -0.4543 -0.9320 -3.0071
   99MYC    H8418863   8.016   4.280   2.293  1.0211  2.5382 -0.4646
   99MYC    C1818864   7.916   4.273   2.101 -0.3832  0.0492 -0.3630
   99MYC    H3118865   7.827   4.224   2.140 -0.8433  0.4143 -0.9337
   99MYC    C1718866   7.901   4.404   2.021 -0.6431 -0.1618  0.1589
   99MYC    H3018867   7.984   4.474   2.027 -1.8325  1.4224 -1.1963
   99MYC    C1918868   7.931   4.276   1.950 -0.4734  0.1716 -0.3247
   99MYC    H3218869   8.029   4.267   1.905 -0.3044  0.1108  0.0554
   99MYC    H3318870   7.846   4.233   1.897  0.9242 -1.6338 -1.1827
   99MYC    C1618871   7.767   4.471   1.998 -0.6224 -0.1503 -0.1505
   99MYC    H2818872   7.691   4.396   1.975 -0.9799  0.7068 -1.8969
   99MYC    H2918873   7.775   4.527   1.904 -1.0422  1.7054  0.8810
   99MYC    C1518874   7.715   4.571   2.103  0.5185  0.3590  1.2429
   99MYC    H2618875   7.613   4.594   2.071  0.8143 -0.4569 -0.4081
   99MYC    H2718876   7.763   4.669   2.104 -0.2428  0.7668 -0.0766
   99MYC    C1418877   7.704   4.508   2.240 -0.1814  0.5690  0.2565
   99MYC    H2418878   7.802   4.472   2.274  0.1023  1.4273  0.3605
   99MYC    H2518879   7.645   4.416   2.230  0.2144 -0.0420  2.9625
   99MYC    C1318880   7.648   4.609   2.353  0.2702  0.9486 -0.1847
   99MYC    H2218881   7.588   4.684   2.300  0.2793  0.8101 -0.3893
   99MYC    H2318882   7.736   4.655   2.399  1.2360 -0.2933 -0.7504
   99MYC    C1218883   7.572   4.543   2.465 -0.0815  0.9145 -0.9556
   99MYC    H2018884   7.478   4.497   2.433 -0.0705  1.5889 -1.9974
   99MYC    H2118885   7.542   4.623   2.533 -0.4085 -0.0798  0.1138
   99MYC    C1118886   7.657   4.438   2.529  0.5454 -0.5840 -0.2604
   99MYC    H1818887   7.753   4.482   2.560 -1.1709  0.4879  4.2507
   99MYC    H1918888   7.677   4.363   2.450 -0.3401  0.1557 -1.2122
   99MYC    C1018889   7.577   4.362   2.638 -0.2850 -0.0357  0.4900
   99MYC    H1618890   7.632   4.278   2.682 -1.5453 -0.1839  1.8716
   99MYC    H1718891   7.484   4.324   2.595  0.0327  0.6903 -0.9006
   99MYC     C918892   7.531   4.451   2.750  0.0478 -0.0743  0.6667
   99MYC    H1418893   7.446   4.513   2.720 -0.1083 -0.0976  1.0478
   99MYC    H1518894   7.611   4.522   2.777 -0.2630  0.4683  0.1754
   99MYC     C818895   7.487   4.375   2.877 -1.0803  0.5433  0.0388
   99MYC    H1218896   7.577   4.329   2.921 -2.2612 -1.6277  0.3610
   99MYC    H1318897   7.418   4.291   2.859 -0.6393  0.5289 -1.7238
   99MYC     C718898   7.426   4.458   2.999  0.5573  0.8979  0.4229
   99MYC    H1018899   7.334   4.499   2.957 -1.2891 -2.8911  0.2921
   99MYC    H1118900   7.496   4.534   3.034 -0.0103  0.5855  2.3415
   99MYC     C618901   7.392   4.372   3.126  0.1437  0.2028 -0.5934
   99MYC     H818902   7.473   4.306   3.158  0.6646  0.8590 -0.5360
   99MYC     H918903   7.317   4.295   3.103 -1.7606  1.3134  1.4975
   99MYC     C518904   7.322   4.456   3.241 -0.2633 -0.3083  0.1123
   99MYC     H618905   7.300   4.384   3.321 -1.3350 -1.3458 -1.0848
   99MYC     H718906   7.230   4.502   3.204  0.7591  1.3605 -0.4825
   99MYC     C418907   7.420   4.552   3.308  0.6686 -0.0130 -0.1014
   99MYC     H418908   7.361   4.611   3.378  0.7728 -0.2451  0.1828
   99MYC     H518909   7.471   4.622   3.241  2.6296 -0.7140  0.6122
   99MYC     C218910   7.519   4.488   3.406 -0.0830 -0.7304 -0.2065
   99MYC     H218911   7.459   4.428   3.474  2.0134 -1.2283  1.3064
   99MYC     O318912   7.609   4.406   3.349 -0.6564  0.3369  0.2371
   99MYC     H318913   7.690   4.455   3.330 -0.2229 -0.2580  0.5062
   99MYC     C118914   7.607   4.588   3.491  0.5074 -0.0344  0.0156
   99MYC     H118915   7.536   4.646   3.550 -2.0819 -1.8491 -1.1369
   99MYC    C8118916   7.689   4.679   3.394 -0.3698  0.0658  0.0014
   99MYC    O8218917   7.804   4.655   3.353 -0.5766  1.3921 -0.1127
   99MYC    O8318918   7.634   4.799   3.373 -0.3817  0.5381  0.4352
   99MYC   H10518919   7.699   4.839   3.312  0.0363 -1.9195 -0.8289
   99MYC    C2018920   7.705   4.509   3.592  0.4326 -0.1763  0.5742
   99MYC    H3418921   7.775   4.444   3.538  0.8196  0.2669  0.5360
   99MYC    H3518922   7.759   4.578   3.657  0.7823 -1.4829  1.7253
   99MYC    C2118923   7.640   4.410   3.690 -0.0114  0.6116 -0.3100
   99MYC    H3618924   7.585   4.331   3.636 -0.3331  0.6678 -0.0667
   99MYC    H3718925   7.726   4.361   3.737 -2.3266 -0.1102  3.5838
   99MYC    C2218926   7.551   4.480   3.799 -0.5533  0.7471  0.4261
   99MYC    H3818927   7.613   4.548   3.858  0.4479  0.5596 -0.3831
   99MYC    H3918928   7.474   4.539   3.747  0.7884  1.5074 -0.7600
   99MYC    C2318929   7.482   4.383   3.893  0.0137  0.0282  0.0129
   99MYC    H4018930   7.427   4.307   3.835 -0.3539 -0.9713  1.6009
   99MYC    H4118931   7.566   4.337   3.946  0.0166 -0.5749 -0.4942
   99MYC    C2418932   7.381   4.433   4.003  0.9018  0.8571  0.3504
   99MYC    H4218933   7.407   4.537   4.026  1.7133  1.2750 -2.1169
   99MYC    H4318934   7.277   4.443   3.969  0.5937 -0.3596  0.8752
   99MYC    C2518935   7.382   4.351   4.139 -0.1190  0.3361  0.0783
   99MYC    H4418936   7.418   4.248   4.125  1.4255  0.7510  0.6989
   99MYC    H4518937   7.466   4.385   4.202 -0.6207 -2.1866  2.2829
   99MYC    C2618938   7.246   4.360   4.222  0.3244  0.5431  0.3205
   99MYC    H4618939   7.239   4.466   4.251 -0.8506 -0.0057  2.2200
   99MYC    H4718940   7.164   4.337   4.153 -1.2114 -2.7140  2.9499
   99MYC    C2718941   7.234   4.288   4.359 -0.3844  0.6056 -0.5171
   99MYC    H4818942   7.234   4.181   4.337 -1.4095 -0.4758  3.8065
   99MYC    H4918943   7.326   4.304   4.417 -0.0046 -2.1558 -0.2478
   99MYC    C2818944   7.111   4.324   4.438  0.6388 -0.9401  0.3799
   99MYC    H5018945   7.104   4.430   4.466 -1.5492 -0.9135 -0.0620
   99MYC    H5118946   7.022   4.315   4.374  0.7654  3.5703 -0.7481
   99MYC    C2918947   7.085   4.256   4.572  0.3487  0.5476  0.0907
   99MYC    H5218948   7.117   4.152   4.558  1.2643  0.7364  0.7245
   99MYC    H5318949   7.150   4.296   4.650  0.6441 -3.1648  1.9868
   99MYC    C3018950   6.936   4.248   4.625 -0.1564  0.0612  0.9360
   99MYC    H5418951   6.896   4.350   4.615  1.5419  0.7111  0.3456
   99MYC    H5518952   6.868   4.200   4.553 -1.6331 -0.3808  2.5828
   99MYC    C3118953   6.928   4.173   4.757  0.5797 -0.7742 -0.2014
   99MYC    H5618954   6.962   4.070   4.744 -0.3659 -0.8373 -2.6344
   99MYC    H5718955   7.005   4.222   4.818 -0.0911 -0.8448  0.7308
   99MYC    C3218956   6.789   4.167   4.822 -0.1973 -0.5097  0.8401
   99MYC    H5818957   6.723   4.155   4.735  0.7204 -0.2075  0.0952
   99MYC    H5918958   6.765   4.084   4.890 -2.1661 -0.0574  0.7600
   99MYC    C3318959   6.747   4.299   4.893 -0.1055 -0.2660 -0.8426
   99MYC    H6018960   6.805   4.317   4.985 -0.1827  0.1076 -0.8662
   99MYC    H6118961   6.763   4.384   4.825  1.1074 -1.8860 -2.6749
   99MYC    C3418962   6.600   4.298   4.937 -0.2659  0.5386  0.4213
   99MYC    H6218963   6.525   4.304   4.857 -0.5485  0.7239  0.6977
   99MYC    H6318964   6.581   4.203   4.987 -2.2908  1.0416  0.6856
   99MYC    C3518965   6.562   4.413   5.037  0.3799  0.1407  0.2268
   99MYC    H6418966   6.615   4.401   5.132  0.4041  0.6470  0.2793
   99MYC    H6518967   6.586   4.508   4.987 -0.9804  0.5703  0.3632
   99MYC    C3618968   6.413   4.405   5.072  0.0813  0.0498  0.1698
   99MYC    H6618969   6.365   4.394   4.974  2.9500  2.1847 -1.6432
   99MYC    H6718970   6.394   4.322   5.142  1.1773 -1.3972 -1.1706
   99MYC    C3718971   6.365   4.543   5.133  0.6024 -0.0688 -0.6386
   99MYC    H6818972   6.398   4.546   5.238  2.9629  2.1568 -1.3390
   99MYC    H6918973   6.410   4.629   5.083  1.6192 -0.6612 -0.7566
   99MYC    C3818974   6.210   4.559   5.136  0.0054  0.2861  0.5057
   99MYC    H7018975   6.175   4.534   5.035  1.0493 -1.2196  0.4904
   99MYC    H7118976   6.176   4.490   5.214  2.9622 -1.0783  0.7135
   99MYC    C3918977   6.161   4.707   5.165  0.0004 -0.7589 -0.0378
   99MYC    H7218978   6.052   4.714   5.173  0.1264  1.1918  0.5119
   99MYC    H7318979   6.180   4.738   5.268  0.9985  0.6864 -0.6237
   99MYC    C4018980   6.215   4.806   5.062  0.4773 -0.2492  0.0456
   99MYC    H7418981   6.320   4.824   5.088 -0.0839 -0.1996  2.4675
   99MYC    H7518982   6.206   4.750   4.968 -1.2560 -0.5444  0.3561
   99MYC    C4118983   6.147   4.942   5.063  0.0905 -0.2371  0.1583
   99MYC    H7618984   6.038   4.939   5.053  0.1856  1.7715 -2.6577
   99MYC    H7718985   6.157   4.992   5.160  1.1394  1.3132 -0.7032
   99MYC    C4218986   6.196   5.043   4.958 -0.3509  0.3647  0.1563
   99MYC    H7818987   6.165   5.141   4.995 -0.1747 -0.0537  1.4991
   99MYC    H7918988   6.306   5.038   4.950 -0.3321 -0.4518  0.7103
   99MYC    C4318989   6.140   5.011   4.821 -0.1385 -0.0246 -0.4377
   99MYC    H8018990   6.150   4.906   4.792 -2.1608 -0.4152  0.1617
   99MYC    H8118991   6.179   5.072   4.738  1.5342 -0.2637  0.1287
   99MYC    H8218992   6.032   5.027   4.828 -0.2525 -0.9168  0.0104
  100MYC   HH1518993   6.127   5.723   6.025 -0.9165  0.5914 -1.0389
  100MYC    C8018994   6.115   5.615   6.008 -0.4573  0.3312  0.1867
  100MYC   H10018995   6.155   5.550   6.086  0.7322  0.1677 -0.5302
  100MYC   H10118996   6.011   5.592   5.980 -0.4560  1.9969 -1.3630
  100MYC    C7918997   6.200   5.565   5.893 -0.1652 -0.1800  0.6583
  100MYC   H10218998   6.177   5.458   5.883  0.0651 -0.1304 -0.6073
  100MYC   H10318999   6.307   5.565   5.917  0.2024 -1.3925 -0.8108
  100MYC    C7819000   6.167   5.641   5.765  0.5769 -0.5860  0.2635
  100MYC   HH1419001   6.182   5.749   5.778  0.6263 -0.7838  2.0812
  100MYC   H10419002   6.063   5.625   5.736  0.3013  1.0661  0.2241
  100MYC    C7719003   6.248   5.598   5.641  0.1980 -0.1617 -0.1767
  100MYC   H10619004   6.238   5.494   5.609  1.8097 -1.2467  2.4796
  100MYC   H10719005   6.356   5.605   5.660 -0.0197  1.3144  0.6865
  100MYC    C7619006   6.217   5.669   5.508  0.3913  0.7001  0.0337
  100MYC   H10819007   6.218   5.778   5.523 -2.5897  0.9792 -1.1759
  100MYC   H10919008   6.109   5.657   5.491  0.1390  2.6829 -0.0024
  100MYC    C7519009   6.306   5.629   5.395 -0.5280  0.6648 -0.3894
  100MYC   H11019010   6.310   5.520   5.386 -0.4943  0.5308  1.0679
  100MYC   H11119011   6.411   5.644   5.425 -0.8727  1.4712  0.4394
  100MYC    C7419012   6.270   5.695   5.259 -0.2566 -0.4343  0.3855
  100MYC   H11219013   6.253   5.802   5.272  1.2927 -0.0014 -0.9307
  100MYC   H11319014   6.176   5.650   5.223 -0.6160  1.0416 -0.6002
  100MYC    C7319015   6.381   5.689   5.147  0.8863 -0.2593  0.4586
  100MYC   HH1319016   6.422   5.588   5.139  1.2491 -0.0338 -0.8866
  100MYC   H11419017   6.464   5.759   5.160 -0.0860  0.7766  1.3694
  100MYC    C7219018   6.316   5.695   5.008 -0.2008  0.0149 -0.5016
  100MYC   H11519019   6.255   5.784   4.991  2.4520  1.6780 -1.9703
  100MYC   H11619020   6.250   5.607   5.010  0.2524 -0.3324  0.6731
  100MYC    C7119021   6.419   5.684   4.892 -0.1423  0.1233 -0.2565
  100MYC   H11719022   6.474   5.590   4.902  3.1455  1.9916  0.7736
  100MYC   H11819023   6.492   5.766   4.893 -0.0977  0.0843 -0.3392
  100MYC    C7019024   6.344   5.695   4.754 -0.1322  0.7101 -0.6160
  100MYC   H11919025   6.292   5.791   4.748 -1.7892 -0.2301 -2.2165
  100MYC   H12019026   6.265   5.620   4.744  3.0648 -2.9924 -0.7599
  100MYC    C6919027   6.436   5.666   4.638  0.0652  0.0764 -0.1944
  100MYC   H12119028   6.477   5.566   4.653  0.7383  0.3783  0.0360
  100MYC   H12219029   6.518   5.740   4.633  0.4093 -0.4072 -3.1537
  100MYC    C6819030   6.362   5.678   4.496 -0.5556 -0.1745 -0.5003
  100MYC   HH1219031   6.301   5.769   4.491  0.0651  0.2777 -0.0663
  100MYC   H12319032   6.306   5.585   4.486 -0.3785 -0.5035  1.1838
  100MYC    C6719033   6.458   5.689   4.378 -0.1742  0.0149 -0.5994
  100MYC   H12419034   6.524   5.603   4.388  1.2699  1.1268 -0.2121
  100MYC   H12519035   6.520   5.779   4.385 -1.8538  1.0752  2.1253
  100MYC    C6619036   6.373   5.701   4.245 -0.2832  0.4624 -0.2154
  100MYC   H12619037   6.335   5.802   4.230  3.1333  2.1569  1.3731
  100MYC   H12719038   6.284   5.636   4.246 -1.7082  2.3263  0.2051
  100MYC    C6519039   6.457   5.655   4.134  0.1873 -0.1951 -0.2721
  100MYC   H12819040   6.484   5.548   4.139  1.6012  0.1586  0.1979
  100MYC   H12919041   6.555   5.703   4.145  0.4363 -0.7419 -0.0526
  100MYC    C6419042   6.406   5.693   3.995 -0.3244  0.2314 -0.7417
  100MYC   H13019043   6.396   5.802   3.990  1.7702  0.4583 -0.8580
  100MYC   H13119044   6.309   5.643   3.987 -1.2148  2.0754 -2.3068
  100MYC    C6319045   6.497   5.653   3.876  0.6142 -0.3944  0.0213
  100MYC   HH1119046   6.601   5.682   3.895  1.0431 -0.3671 -2.0896
  100MYC   H13219047   6.465   5.716   3.792  1.9712  0.7464  0.3104
  100MYC    C6219048   6.482   5.508   3.835  0.2523  0.5387 -0.5544
  100MYC   H13319049   6.379   5.472   3.822  1.1651 -3.0290  0.9850
  100MYC   H13419050   6.503   5.441   3.919  0.0901 -0.8712 -1.6147
  100MYC    C6119051   6.568   5.471   3.716 -0.0712  0.2132  0.6168
  100MYC   H13519052   6.671   5.457   3.748  0.1501  1.0383  0.2839
  100MYC   H13619053   6.561   5.545   3.635 -1.1887 -1.4999 -0.9634
  100MYC    C6019054   6.530   5.327   3.665 -0.7215  0.1882  1.1552
  100MYC   H13719055   6.426   5.314   3.639 -0.3309  0.5533 -0.7057
  100MYC    C5819056   6.639   5.248   3.597  0.2670 -0.6183  0.1847
  100MYC   H13819057   6.738   5.294   3.595  0.3248 -0.6941  1.1005
  100MYC    C5919058   6.599   5.211   3.740 -0.1556  0.8657 -0.3156
  100MYC   H13919059   6.550   5.116   3.758  1.0058  0.3916  0.4332
  100MYC   H14019060   6.663   5.233   3.824  0.4096 -0.4155 -0.4008
  100MYC    C5719061   6.617   5.150   3.478  0.3792 -0.5694 -0.0478
  100MYC   HH1019062   6.512   5.120   3.474  0.2770 -0.0248 -2.6413
  100MYC   H14119063   6.678   5.063   3.508 -1.9331 -1.7716  1.4651
  100MYC    C5619064   6.652   5.205   3.340 -0.5486  0.3374  0.2477
  100MYC   H14219065   6.637   5.114   3.281  1.4099  0.2560 -0.1925
  100MYC   H14319066   6.761   5.213   3.342  0.3753 -5.4313 -3.1210
  100MYC    C5519067   6.571   5.325   3.285  0.1671  0.0136  0.0937
  100MYC   H14419068   6.598   5.414   3.344 -0.5626 -0.8452  1.8147
  100MYC   H14519069   6.465   5.311   3.310  0.9019 -2.3863  2.4335
  100MYC    C5419070   6.584   5.346   3.130 -0.2150 -0.1735  0.8768
  100MYC   H14619071   6.688   5.377   3.113 -1.0063  2.4926  0.4942
  100MYC   H14719072   6.522   5.431   3.101 -0.3214 -2.0640 -6.2230
  100MYC    C5319073   6.556   5.228   3.034  0.5928  0.1475  0.2926
  100MYC   H14819074   6.464   5.175   3.061  1.1747  0.2336  2.6228
  100MYC   H14919075   6.632   5.156   3.067  1.7408  1.1335 -0.1310
  100MYC    C5219076   6.558   5.257   2.879  0.0834 -0.0263  0.2357
  100MYC    H9919077   6.492   5.342   2.857  1.4966  1.5874  1.9683
  100MYC   H15019078   6.532   5.166   2.824 -1.1215 -0.6128  1.7080
  100MYC    C5119079   6.707   5.289   2.834  0.1611  0.1969  0.2408
  100MYC    H9719080   6.747   5.379   2.884 -1.2339  1.0612 -0.1615
  100MYC    H9819081   6.696   5.319   2.729 -2.1902  1.4265  0.7776
  100MYC    C5019082   6.800   5.167   2.834  0.0622  0.0190  0.8213
  100MYC    H9519083   6.754   5.093   2.768 -2.3019  2.8720 -0.9950
  100MYC    H9619084   6.799   5.135   2.939  0.1804 -3.0728 -0.0201
  100MYC    C4919085   6.942   5.201   2.799 -0.4406 -0.0847  0.1738
  100MYC    H9319086   6.972   5.265   2.883  1.5888 -1.5776  0.6683
  100MYC    H9419087   6.945   5.262   2.708  2.3419 -1.2077 -0.5942
  100MYC    C4819088   7.038   5.084   2.790 -0.8412 -0.1590  0.1819
  100MYC    H9119089   7.016   5.021   2.703  1.4642 -3.6039  1.8454
  100MYC    H9219090   7.019   5.022   2.879  1.0199 -0.8562  0.1467
  100MYC    C4719091   7.193   5.115   2.800 -0.1189  0.4023  0.1010
  100MYC    H8919092   7.219   5.191   2.875  2.5835  0.0622 -0.3870
  100MYC    H9019093   7.231   5.144   2.701 -0.4805  0.0125 -0.1569
  100MYC    C4619094   7.267   4.989   2.840 -0.0887 -0.3247  0.2072
  100MYC    H8719095   7.253   4.915   2.761 -2.6839 -2.6969  2.6771
  100MYC    H8819096   7.220   4.928   2.917  0.4944 -1.5817 -0.3945
  100MYC    C4519097   7.403   5.011   2.885 -0.9960 -0.5346  0.2142
  100MYC    H8519098   7.454   4.919   2.917  1.0194  0.1770 -0.7506
  100MYC    H8619099   7.415   5.081   2.968  0.5927  1.4152 -1.5463
  100MYC    C4419100   7.498   5.095   2.792 -0.1939  0.5077  0.8332
  100MYC    H8319101   7.594   5.114   2.842  1.6890 -1.3739 -1.7490
  100MYC    H8419102   7.449   5.190   2.767  1.4881  1.1333 -0.3315
  100MYC    C1819103   7.536   5.025   2.659  0.1676 -0.5298  0.3812
  100MYC    H3119104   7.445   5.016   2.601 -0.7976 -0.4029  1.8096
  100MYC    C1719105   7.673   5.059   2.594  0.4087  0.3219 -0.7221
  100MYC    H3019106   7.740   5.117   2.657  2.5039 -2.5417 -0.1089
  100MYC    C1919107   7.648   4.913   2.638 -1.1972 -0.0188  0.0042
  100MYC    H3219108   7.696   4.876   2.728 -0.1326 -1.8059 -1.2267
  100MYC    H3319109   7.631   4.836   2.563 -0.6604  2.0977 -2.4593
  100MYC    C1619110   7.697   5.088   2.445 -0.0066  0.3584 -0.0109
  100MYC    H2819111   7.638   5.008   2.398  1.2117  0.0962 -1.1691
  100MYC    H2919112   7.803   5.077   2.419  0.1997  1.6460  0.2301
  100MYC    C1519113   7.654   5.230   2.390 -0.2448 -0.2188  0.3410
  100MYC    H2619114   7.667   5.221   2.281  0.7756 -2.1843  0.5772
  100MYC    H2719115   7.732   5.304   2.410  0.4681 -0.4972 -1.2314
  100MYC    C1419116   7.517   5.274   2.450  0.2537 -0.2152 -0.5433
  100MYC    H2419117   7.522   5.279   2.560  0.1649  0.7889 -0.5811
  100MYC    H2519118   7.446   5.199   2.413  1.2456 -0.5183 -1.9025
  100MYC    C1319119   7.483   5.420   2.405 -0.0726  0.2432 -0.0532
  100MYC    H2219120   7.512   5.434   2.300 -0.9020  0.6500 -0.2367
  100MYC    H2319121   7.551   5.490   2.453  0.4837 -0.1620 -0.2425
  100MYC    C1219122   7.342   5.463   2.442  0.5034  0.8110 -0.1406
  100MYC    H2019123   7.272   5.378   2.441 -0.6501  1.7016  1.2106
  100MYC    H2119124   7.310   5.547   2.380 -1.3681 -0.4549 -0.9960
  100MYC    C1119125   7.341   5.519   2.589  0.5320 -0.8461 -0.2117
  100MYC    H1819126   7.434   5.573   2.613  0.0705 -0.4105  0.6245
  100MYC    H1919127   7.345   5.448   2.673 -1.5226 -0.2796  0.4134
  100MYC    C1019128   7.215   5.598   2.617  0.1622 -0.6934  0.1263
  100MYC    H1619129   7.121   5.549   2.590  1.0367 -1.0064 -2.5956
  100MYC    H1719130   7.223   5.685   2.551 -2.7242 -1.1620 -0.9343
  100MYC     C919131   7.194   5.641   2.759 -0.1524  0.0556 -0.2464
  100MYC    H1419132   7.126   5.725   2.775  0.7249  0.4169  2.0313
  100MYC    H1519133   7.292   5.680   2.790  0.9308 -3.0268  0.5608
  100MYC     C819134   7.148   5.521   2.851 -0.7021  0.7759  0.2224
  100MYC    H1219135   7.191   5.423   2.829 -2.8782 -0.2993  0.5028
  100MYC    H1319136   7.040   5.516   2.831 -0.6073  1.4984 -0.5423
  100MYC     C719137   7.169   5.564   2.996 -0.1784 -0.8097 -0.2073
  100MYC    H1019138   7.107   5.655   3.003 -0.7212 -1.2909  4.0977
  100MYC    H1119139   7.271   5.603   3.009 -0.2886 -1.2090  2.2318
  100MYC     C619140   7.140   5.456   3.100  0.3808  0.2134 -0.4323
  100MYC     H819141   7.234   5.410   3.130  0.1224 -1.1133 -1.5553
  100MYC     H919142   7.092   5.368   3.054 -0.5643 -0.3899  1.5747
  100MYC     C519143   7.044   5.481   3.211 -0.4171 -0.3406 -0.4468
  100MYC     H619144   7.026   5.381   3.253  0.1095 -0.7569 -1.1814
  100MYC     H719145   6.942   5.505   3.178 -0.3185  1.9687  0.7677
  100MYC     C419146   7.091   5.589   3.310  0.0901  0.3640 -0.4669
  100MYC     H419147   7.137   5.671   3.252 -0.5446 -0.2069 -1.8221
  100MYC     H519148   7.164   5.536   3.372  0.1637 -1.1901 -1.8173
  100MYC     C219149   6.980   5.636   3.405  0.1853 -0.2693 -0.8915
  100MYC     H219150   6.930   5.552   3.454  0.1435 -0.9010 -1.9692
  100MYC     O319151   7.046   5.707   3.510  0.1480 -0.3929  0.0798
  100MYC     H319152   7.133   5.669   3.528  0.2416  0.8210  2.5894
  100MYC     C119153   6.854   5.720   3.338  0.1864 -0.0214  0.1163
  100MYC     H119154   6.776   5.646   3.316 -0.0004  0.1384  0.2335
  100MYC    C8119155   6.891   5.782   3.206 -0.0702  0.0218 -0.1112
  100MYC    O8219156   6.947   5.888   3.196  0.7453  0.5902  0.2679
  100MYC    O8319157   6.847   5.715   3.094  0.6578 -0.1706  0.5456
  100MYC   H10519158   6.874   5.774   3.022  0.6850  0.0153  0.7059
  100MYC    C2019159   6.809   5.837   3.436 -0.6952 -0.2982 -0.0247
  100MYC    H3419160   6.897   5.894   3.469 -0.0628 -0.9854 -0.4653
  100MYC    H3519161   6.740   5.893   3.372  1.5840 -0.7794 -3.2007
  100MYC    C2119162   6.726   5.794   3.553 -0.4248  0.2201  0.2113
  100MYC    H3619163   6.636   5.742   3.519  0.3710 -0.9586 -0.1654
  100MYC    H3719164   6.768   5.716   3.617 -0.7301  1.0561  1.4706
  100MYC    C2219165   6.693   5.903   3.658 -0.1105 -0.1802 -0.6826
  100MYC    H3819166   6.659   5.998   3.613  1.3334 -0.5416 -2.6578
  100MYC    H3919167   6.616   5.857   3.720  0.7580 -0.5807  0.1184
  100MYC    C2319168   6.816   5.946   3.749 -0.1696  0.5136  0.1906
  100MYC    H4019169   6.858   5.857   3.799 -1.8510 -0.3813  0.0811
  100MYC    H4119170   6.900   5.993   3.696  1.2051  0.0663  1.8670
  100MYC    C2419171   6.783   6.055   3.860 -0.3343 -0.1511  0.2193
  100MYC    H4219172   6.875   6.099   3.899  0.6616  0.5677 -2.7190
  100MYC    H4319173   6.734   6.140   3.811  0.7142 -0.0098 -0.6149
  100MYC    C2519174   6.700   5.998   3.973 -0.1058 -0.0435 -0.9883
  100MYC    H4419175   6.610   5.949   3.933 -0.1293  0.6904 -1.8580
  100MYC    H4519176   6.763   5.925   4.025  1.0765  1.5108 -0.1725
  100MYC    C2619177   6.652   6.102   4.088 -0.6210  0.7455 -0.1011
  100MYC    H4619178   6.745   6.147   4.125 -0.0999 -0.2115 -0.2004
  100MYC    H4719179   6.582   6.178   4.051 -2.0592 -0.2287  0.5287
  100MYC    C2719180   6.580   6.038   4.206  0.1028  0.7481 -0.0504
  100MYC    H4819181   6.494   5.984   4.165  0.6830  0.3617 -0.7844
  100MYC    H4919182   6.659   5.974   4.246  1.5846  0.6622 -2.8785
  100MYC    C2819183   6.534   6.136   4.320 -0.3533  0.3881  0.0299
  100MYC    H5019184   6.617   6.194   4.363  0.0146 -0.6297  0.7437
  100MYC    H5119185   6.470   6.211   4.272  0.3533 -0.3100 -2.1115
  100MYC    C2919186   6.470   6.065   4.441 -0.7520 -0.2963  0.0159
  100MYC    H5219187   6.373   6.019   4.418 -0.5706 -0.3206 -0.7318
  100MYC    H5319188   6.532   5.983   4.479 -1.1589 -1.5022 -1.7688
  100MYC    C3019189   6.426   6.158   4.549  0.1627  0.2288  0.1369
  100MYC    H5419190   6.509   6.221   4.584  0.4237  0.1743 -0.3736
  100MYC    H5519191   6.347   6.228   4.520 -0.4917 -0.2140  0.8184
  100MYC    C3119192   6.382   6.089   4.677  0.4203  0.0642 -0.5310
  100MYC    H5619193   6.285   6.040   4.662  1.4041 -1.7112 -1.3068
  100MYC    H5719194   6.438   5.999   4.703 -0.3951 -0.2748  0.1041
  100MYC    C3219195   6.381   6.173   4.806 -0.0271 -0.8281  0.1989
  100MYC    H5819196   6.485   6.189   4.835 -0.2888  0.7831  0.3316
  100MYC    H5919197   6.366   6.279   4.784  0.5046 -0.5696  1.0631
  100MYC    C3319198   6.290   6.112   4.925  0.3728  0.6587  0.2462
  100MYC    H6019199   6.196   6.084   4.875  0.6932 -1.3124  0.6524
  100MYC    H6119200   6.340   6.017   4.947 -0.4273 -0.0117 -0.7370
  100MYC    C3419201   6.262   6.190   5.053  0.5072 -0.2864 -0.2689
  100MYC    H6219202   6.358   6.233   5.084 -0.5970  2.4045 -0.2851
  100MYC    H6319203   6.195   6.275   5.034 -0.8032 -1.4836 -1.1537
  100MYC    C3519204   6.204   6.103   5.165 -0.3654  0.1666 -0.8670
  100MYC    H6419205   6.111   6.049   5.145 -0.3834 -1.3333  2.6007
  100MYC    H6519206   6.273   6.018   5.172  1.7753  1.7265 -2.0901
  100MYC    C3619207   6.194   6.173   5.306  0.4603 -0.0209 -0.1977
  100MYC    H6619208   6.292   6.186   5.354 -0.1079  0.1199  0.9769
  100MYC    H6719209   6.142   6.265   5.280  0.3263 -0.3519 -1.1167
  100MYC    C3719210   6.102   6.090   5.407 -0.3288 -0.2953 -0.5698
  100MYC    H6819211   5.999   6.082   5.371 -0.2781  1.4763 -1.2278
  100MYC    H6919212   6.150   5.992   5.413 -2.4763 -1.3211  1.2933
  100MYC    C3819213   6.096   6.160   5.543 -0.1768  0.7048  0.1065
  100MYC    H7019214   6.193   6.200   5.574 -0.0910  2.4962 -2.2449
  100MYC    H7119215   6.041   6.252   5.523 -1.6873 -0.1946 -0.0672
  100MYC    C3919216   6.039   6.070   5.656 -0.0777  0.3306  0.7307
  100MYC    H7219217   5.947   6.026   5.616  0.0936  2.4356 -2.3107
  100MYC    H7319218   6.101   5.980   5.660  0.0506  0.3883  0.1386
  100MYC    C4019219   6.026   6.143   5.791  0.2459 -0.0254 -0.0037
  100MYC    H7419220   6.129   6.157   5.828  0.0038  2.3794 -0.0331
  100MYC    H7519221   5.979   6.242   5.784  1.0495  0.5096  1.4890
  100MYC    C4119222   5.953   6.050   5.889  0.4478  0.2584 -0.9997
  100MYC    H7619223   5.847   6.043   5.862  0.8905 -0.5417 -2.6153
  100MYC    H7719224   5.985   5.946   5.882 -0.4691 -0.0304 -1.0855
  100MYC    C4219225   5.967   6.096   6.033 -0.0038  0.0386 -0.4147
  100MYC    H7819226   6.065   6.074   6.076  0.4266 -0.1693 -1.4736
  100MYC    H7919227   5.928   6.198   6.030 -2.0475 -0.7119 -2.3100
  100MYC    C4319228   5.878   6.016   6.128  0.4991  0.0113 -0.2095
  100MYC    H8019229   5.772   6.031   6.107  0.7344  2.6936  0.1291
  100MYC    H8119230   5.887   6.060   6.228  1.4568 -0.1918 -0.2006
  100MYC    H8219231   5.890   5.907   6.127 -3.6344 -0.6166 -0.5517
  101MYC   HH1519232   5.724   0.154   6.244  0.7476  2.0314  1.9773
  101MYC    C8019233   5.806   0.096   6.290 -0.1240 -0.2279  0.8213
  101MYC   H10019234   5.813   0.132   6.394 -1.9739  1.1239  0.5368
  101MYC   H10119235   5.769  -0.007   6.300  0.2623 -0.4760 -0.2063
  101MYC    C7919236   5.937   0.090   6.197 -0.6049 -0.3207  0.1086
  101MYC   H10219237   5.997   0.012   6.245 -1.2801  0.1587  1.8085
  101MYC   H10319238   6.003   0.176   6.215  1.1230 -1.9462  2.0898
  101MYC    C7819239   5.905   0.067   6.044 -0.2009 -0.8286 -0.6291
  101MYC   HH1419240   5.830   0.145   6.030  0.0924 -0.0328  1.7066
  101MYC   H10419241   5.862  -0.032   6.028 -0.3941 -0.6109 -1.5191
  101MYC    C7719242   6.025   0.090   5.950 -0.0658 -0.4817  0.1233
  101MYC   H10619243   6.110   0.026   5.975  1.8141  1.9077  0.2095
  101MYC   H10719244   6.066   0.190   5.970 -0.7267  0.0562 -1.0578
  101MYC    C7619245   5.992   0.074   5.807 -0.0114  0.3160 -0.2029
  101MYC   H10819246   5.928   0.160   5.786  0.1090  0.5260  0.2910
  101MYC   H10919247   5.932  -0.014   5.781  0.9526 -0.3815 -0.1331
  101MYC    C7519248   6.105   0.092   5.708 -0.4550 -0.0290 -0.0215
  101MYC   H11019249   6.175   0.009   5.720 -0.1034  0.4331  1.2739
  101MYC   H11119250   6.161   0.185   5.726  0.2268 -0.2212 -1.0453
  101MYC    C7419251   6.053   0.098   5.561 -0.0700  0.2994 -0.7688
  101MYC   H11219252   5.995   0.190   5.548 -0.1232  0.4231  0.2389
  101MYC   H11319253   5.986   0.013   5.542  1.4517 -0.8080 -1.3695
  101MYC    C7319254   6.172   0.108   5.469 -0.0150 -0.2424  0.4872
  101MYC   HH1319255   6.238   0.021   5.486  0.6247 -0.0966 -1.1060
  101MYC   H11419256   6.228   0.197   5.500  0.0497 -0.9315  2.5518
  101MYC    C7219257   6.124   0.123   5.324 -0.0260  0.9078  0.4427
  101MYC   H11519258   6.059   0.211   5.317 -0.4562  0.6708  1.2645
  101MYC   H11619259   6.056   0.041   5.299  0.0706  0.7812  0.5911
  101MYC    C7119260   6.239   0.151   5.221 -0.2170 -0.6676  0.2269
  101MYC   H11719261   6.320   0.078   5.238 -1.3690 -2.0112  0.1403
  101MYC   H11819262   6.284   0.249   5.238 -0.3456 -0.7201  0.8874
  101MYC    C7019263   6.191   0.149   5.078 -0.2267 -0.1029  0.0145
  101MYC   H11919264   6.131   0.240   5.066 -0.1043  0.2075  1.5680
  101MYC   H12019265   6.131   0.059   5.059 -0.5764  0.4561 -1.8064
  101MYC    C6919266   6.312   0.140   4.979 -0.0674 -0.7234  0.6222
  101MYC   H12119267   6.364   0.052   5.019 -0.1337 -0.9594  0.1949
  101MYC   H12219268   6.374   0.228   4.997 -1.7094  0.3192  1.4483
  101MYC    C6819269   6.267   0.142   4.831 -0.1607  0.1170  0.2927
  101MYC   HH1219270   6.201   0.227   4.812  1.4522  1.6241  1.1120
  101MYC   H12319271   6.201   0.056   4.815 -1.7285  1.1078  1.2674
  101MYC    C6719272   6.375   0.139   4.725 -0.1207 -0.5217 -0.5771
  101MYC   H12419273   6.459   0.076   4.757 -0.4856 -0.7363 -0.0209
  101MYC   H12519274   6.415   0.240   4.720  0.1614 -0.6255 -0.4621
  101MYC    C6619275   6.321   0.105   4.590 -0.0130 -0.5810 -0.4583
  101MYC   H12619276   6.268   0.197   4.563  0.2558 -0.5141 -0.7588
  101MYC   H12719277   6.254   0.018   4.589  0.2689 -0.8171  0.2768
  101MYC    C6519278   6.441   0.090   4.488 -0.1601 -0.3339  0.3316
  101MYC   H12819279   6.530   0.041   4.528 -0.5669 -0.2496  1.3767
  101MYC   H12919280   6.475   0.192   4.465 -2.0173  0.0614 -0.7911
  101MYC    C6419281   6.397   0.037   4.349 -0.1837 -0.1721  0.3820
  101MYC   H13019282   6.313   0.098   4.314 -0.0232 -0.3794 -0.3830
  101MYC   H13119283   6.347  -0.060   4.359  0.7896 -0.7054  0.2368
  101MYC    C6319284   6.508   0.046   4.241  0.0127 -0.4650  0.3808
  101MYC   HH1119285   6.576  -0.040   4.255 -0.2604 -0.3909  2.4139
  101MYC   H13219286   6.564   0.140   4.245  2.2430 -1.6007 -1.5809
  101MYC    C6219287   6.450   0.030   4.097 -0.5835 -0.2186 -0.0688
  101MYC   H13319288   6.358   0.088   4.080 -0.9896 -1.1048 -1.0131
  101MYC   H13419289   6.417  -0.074   4.086  1.1285 -0.7759 -0.2172
  101MYC    C6119290   6.553   0.059   3.987  0.8017  0.5380 -0.0702
  101MYC   H13519291   6.639  -0.006   4.009 -0.8570 -1.4179  0.9620
  101MYC   H13619292   6.603   0.155   4.006  2.0318 -0.2062  0.6188
  101MYC    C6019293   6.498   0.042   3.839 -1.3680 -0.0424 -0.4559
  101MYC   H13719294   6.428   0.117   3.804 -0.5835  0.0385 -1.9180
  101MYC    C5819295   6.598  -0.009   3.732  0.3366  0.2193 -0.3123
  101MYC   H13819296   6.698  -0.023   3.770  0.0833  1.2693  0.7713
  101MYC    C5919297   6.486  -0.096   3.790  0.1151  0.0664 -0.2992
  101MYC   H13919298   6.416  -0.135   3.716  0.7215 -3.0450  0.6290
  101MYC   H14019299   6.507  -0.174   3.863  0.5674  0.7095  0.2601
  101MYC    C5719300   6.604   0.033   3.581 -0.4818 -0.3587  0.9537
  101MYC   HH1019301   6.676   0.116   3.581 -1.2078  0.3072  2.0872
  101MYC   H14119302   6.508   0.077   3.549 -0.1207 -0.1858  0.0857
  101MYC    C5619303   6.672  -0.060   3.487 -0.3048  0.1615 -0.5219
  101MYC   H14219304   6.769  -0.091   3.528 -1.3643 -2.1126  0.4375
  101MYC   H14319305   6.696  -0.008   3.393 -1.4331  1.0687 -0.3373
  101MYC    C5519306   6.586  -0.183   3.464 -0.7702 -0.1808  0.8953
  101MYC   H14419307   6.488  -0.147   3.431 -0.4694 -0.6585 -0.6366
  101MYC   H14519308   6.572  -0.250   3.550 -2.4415  0.8164  1.4429
  101MYC    C5419309   6.630  -0.272   3.346 -0.4175  0.4513  0.2404
  101MYC   H14619310   6.578  -0.367   3.362 -2.5532  1.7462  1.4601
  101MYC   H14719311   6.733  -0.300   3.371 -0.7687 -1.9841 -0.8181
  101MYC    C5319312   6.608  -0.218   3.201 -0.1130 -0.1983  0.3720
  101MYC   H14819313   6.610  -0.109   3.209 -0.7563 -0.1358 -0.2808
  101MYC   H14919314   6.509  -0.238   3.160 -0.2359  0.5943  0.2762
  101MYC    C5219315   6.700  -0.272   3.087 -0.1184  1.0029 -0.4583
  101MYC    H9919316   6.699  -0.381   3.101 -0.4283  1.4057  4.3459
  101MYC   H15019317   6.798  -0.230   3.114 -0.1360 -0.6839  2.6611
  101MYC    C5119318   6.656  -0.227   2.949  0.0134  0.6670  0.2809
  101MYC    H9719319   6.638  -0.119   2.957 -0.8786  0.5316  0.2826
  101MYC    H9819320   6.561  -0.276   2.922  0.5765  0.4756 -1.4944
  101MYC    C5019321   6.768  -0.259   2.844 -0.1442 -0.1703 -0.6039
  101MYC    H9519322   6.827  -0.349   2.865  1.0146  0.1354 -2.2906
  101MYC    H9619323   6.848  -0.186   2.862 -0.3025 -0.3001  0.6696
  101MYC    C4919324   6.722  -0.240   2.694  0.1023 -0.0134  1.0599
  101MYC    H9319325   6.714  -0.132   2.679  0.6893  0.4872  3.7895
  101MYC    H9419326   6.621  -0.277   2.674  0.4725 -0.4024 -0.2375
  101MYC    C4819327   6.806  -0.300   2.581  0.3566 -0.3377 -0.5069
  101MYC    H9119328   6.833  -0.400   2.616  0.3943 -0.7028 -1.5622
  101MYC    H9219329   6.901  -0.246   2.571  0.8934 -0.2800  3.4022
  101MYC    C4719330   6.745  -0.311   2.442 -0.1158  0.7622 -0.5572
  101MYC    H8919331   6.684  -0.402   2.445 -0.0247  0.6746  2.8268
  101MYC    H9019332   6.830  -0.330   2.374 -0.3697  1.3197 -1.0399
  101MYC    C4619333   6.664  -0.193   2.386  0.0202 -0.0198  0.1763
  101MYC    H8719334   6.729  -0.106   2.394 -0.3614  0.0985  2.9715
  101MYC    H8819335   6.583  -0.167   2.456  0.6305  3.6294 -0.2735
  101MYC    C4519336   6.601  -0.215   2.246  0.2422  0.1375 -0.1631
  101MYC    H8519337   6.560  -0.118   2.214  3.7267  2.4745  1.7724
  101MYC    H8619338   6.522  -0.290   2.253 -0.4125  0.7587 -0.7231
  101MYC    C4419339   6.713  -0.245   2.134  0.1013  0.6122 -0.2317
  101MYC    H8319340   6.654  -0.255   2.042  1.0789  0.3926 -0.8442
  101MYC    H8419341   6.764  -0.334   2.171 -0.4367 -0.1431 -1.2464
  101MYC    C1819342   6.815  -0.140   2.102 -0.1921 -0.2387 -0.1100
  101MYC    H3119343   6.874  -0.115   2.190 -0.8842 -0.0233  0.3017
  101MYC    C1719344   6.906  -0.157   1.982  0.0433  0.1301  0.7520
  101MYC    H3019345   6.879  -0.249   1.931  0.7430 -0.2522  1.0551
  101MYC    C1919346   6.803  -0.040   1.989 -0.3015 -0.2837 -0.3524
  101MYC    H3219347   6.727  -0.040   1.912  0.7628 -2.2743 -1.5025
  101MYC    H3319348   6.838   0.061   2.011  1.7393  0.1114 -4.3938
  101MYC    C1619349   7.053  -0.130   1.983  0.3352  0.0661  0.1279
  101MYC    H2819350   7.070  -0.027   2.014 -0.6167  0.1191  0.5127
  101MYC    H2919351   7.087  -0.146   1.880 -2.1648  0.6422 -0.8777
  101MYC    C1519352   7.145  -0.229   2.057 -0.0816 -0.1053 -0.2439
  101MYC    H2619353   7.122  -0.216   2.163 -2.4784 -1.2234 -0.5489
  101MYC    H2719354   7.244  -0.197   2.024 -0.8735  1.9697 -0.7649
  101MYC    C1419355   7.112  -0.376   2.017  0.0204 -0.9068 -0.6150
  101MYC    H2419356   7.085  -0.375   1.911 -3.1918 -1.5024  0.0929
  101MYC    H2519357   7.023  -0.407   2.073 -0.3426 -0.7420 -1.0894
  101MYC    C1319358   7.234  -0.470   2.025  1.1212 -0.4407  1.1623
  101MYC    H2219359   7.319  -0.422   1.975  0.8050  0.1031  1.1477
  101MYC    H2319360   7.212  -0.563   1.970 -1.4522  1.4432 -1.2756
  101MYC    C1219361   7.272  -0.490   2.171  0.2699 -0.5930 -0.8141
  101MYC    H2019362   7.178  -0.512   2.225 -0.3231  1.7539 -0.7672
  101MYC    H2119363   7.300  -0.389   2.204  1.4291 -1.3706  0.7149
  101MYC    C1119364   7.395  -0.595   2.190 -0.4877 -0.1515  0.2477
  101MYC    H1819365   7.482  -0.570   2.128 -0.2452 -1.6281 -0.0381
  101MYC    H1919366   7.369  -0.687   2.137  0.5611 -0.9231  1.0158
  101MYC    C1019367   7.432  -0.645   2.335  0.1893  0.0667  0.0769
  101MYC    H1619368   7.502  -0.729   2.338  0.0216 -0.0574  0.7347
  101MYC    H1719369   7.338  -0.679   2.381 -0.7960  0.8135 -1.2962
  101MYC     C919370   7.505  -0.528   2.413  0.0346 -0.2062  0.4488
  101MYC    H1419371   7.458  -0.430   2.407 -0.9744 -0.6219  1.2100
  101MYC    H1519372   7.607  -0.521   2.373  1.0854 -0.5237  2.8748
  101MYC     C819373   7.526  -0.559   2.569  0.6346  1.3834 -0.4025
  101MYC    H1219374   7.619  -0.516   2.610  1.1677  0.2774 -0.4100
  101MYC    H1319375   7.552  -0.665   2.568  2.6613  1.8350 -1.6944
  101MYC     C719376   7.403  -0.523   2.667 -0.2324  0.7645  0.6440
  101MYC    H1019377   7.436  -0.568   2.761  1.6758 -0.2045 -0.4287
  101MYC    H1119378   7.315  -0.578   2.633 -0.2822  0.4319  1.3135
  101MYC     C619379   7.376  -0.360   2.665 -0.2244  0.2579 -0.1675
  101MYC     H819380   7.332  -0.342   2.566  0.5397  0.8650 -0.4127
  101MYC     H919381   7.471  -0.305   2.664 -1.1780  2.1251  2.2623
  101MYC     C519382   7.276  -0.309   2.775  0.0522  0.3297 -0.0386
  101MYC     H619383   7.181  -0.360   2.755  2.0075 -3.1992 -1.1931
  101MYC     H719384   7.265  -0.200   2.769  0.6246  0.3332 -1.1828
  101MYC     C419385   7.320  -0.345   2.921  0.3951  0.7319 -0.3732
  101MYC     H419386   7.419  -0.299   2.932  1.4527 -1.2854 -0.9710
  101MYC     H519387   7.327  -0.454   2.926  0.5801  0.7585  3.8366
  101MYC     C219388   7.219  -0.294   3.031 -0.4518 -0.3092  0.5727
  101MYC     H219389   7.201  -0.187   3.016  1.5869 -0.1338 -1.0809
  101MYC     O319390   7.089  -0.356   3.007 -0.4797  0.0937  0.6613
  101MYC     H319391   7.102  -0.449   3.032 -2.1813  0.0904  1.6639
  101MYC     C119392   7.260  -0.307   3.180  0.2991 -0.6424  0.4602
  101MYC     H119393   7.352  -0.250   3.193 -0.1750  0.2516  0.0176
  101MYC    C8119394   7.298  -0.453   3.206 -0.4012 -0.4308  0.5853
  101MYC    O8219395   7.225  -0.548   3.206  0.6944  0.0504  0.0060
  101MYC    O8319396   7.429  -0.481   3.193 -0.2943  0.4469 -0.0500
  101MYC   H10519397   7.442  -0.577   3.198 -1.4467  0.2191 -0.9548
  101MYC    C2019398   7.152  -0.251   3.272 -0.0860 -0.4754 -0.9693
  101MYC    H3419399   7.106  -0.159   3.237  1.4377  0.8680  0.4043
  101MYC    H3519400   7.069  -0.320   3.289 -0.2278  0.1255  1.0151
  101MYC    C2119401   7.198  -0.215   3.411 -0.1271  0.0401 -0.7655
  101MYC    H3619402   7.233  -0.308   3.458  0.2656 -0.2280 -1.5612
  101MYC    H3719403   7.290  -0.156   3.411  0.3043 -0.6162 -0.6389
  101MYC    C2219404   7.087  -0.149   3.501 -0.4515 -0.1755  0.5984
  101MYC    H3819405   7.048  -0.059   3.453  0.4541  0.8761  1.8010
  101MYC    H3919406   7.004  -0.221   3.507 -2.0159  1.1954 -2.4036
  101MYC    C2319407   7.133  -0.107   3.644 -0.4522 -0.0171 -0.2414
  101MYC    H4019408   7.182  -0.192   3.692  1.1426 -0.3349 -2.3082
  101MYC    H4119409   7.198  -0.021   3.626 -1.3816  0.6905 -0.3499
  101MYC    C2419410   7.018  -0.059   3.737 -0.1355  0.5832  0.1379
  101MYC    H4219411   6.951   0.010   3.684  1.3152  0.9786 -1.2359
  101MYC    H4319412   6.958  -0.148   3.759  0.9272 -0.5742 -1.4332
  101MYC    C2519413   7.068   0.006   3.861  0.1777 -0.0432 -0.6180
  101MYC    H4419414   7.148  -0.052   3.907 -0.7621 -0.2672  0.8172
  101MYC    H4519415   7.106   0.105   3.830 -2.0530  0.8600 -0.6725
  101MYC    C2619416   6.953   0.041   3.965 -0.3662 -0.8492  0.1362
  101MYC    H4619417   6.910   0.138   3.935 -0.8449 -0.9140  0.5965
  101MYC    H4719418   6.876  -0.038   3.965 -0.4652 -0.7599 -0.5800
  101MYC    C2719419   6.999   0.045   4.106 -0.0823 -0.5502  0.1797
  101MYC    H4819420   7.059  -0.046   4.120  0.0030 -0.4809  0.2635
  101MYC    H4919421   7.069   0.128   4.123  0.5887 -0.5527 -2.2055
  101MYC    C2819422   6.883   0.047   4.215  0.1804  0.8496  0.0244
  101MYC    H5019423   6.814   0.128   4.189 -0.0443  0.3066 -1.1410
  101MYC    H5119424   6.835  -0.051   4.209  0.4467  0.7077  0.1934
  101MYC    C2919425   6.928   0.064   4.357 -0.5636  0.0602  0.6376
  101MYC    H5219426   7.011  -0.007   4.366 -1.4849 -1.0120  0.8882
  101MYC    H5319427   6.960   0.168   4.375  1.6637 -0.6427  1.1005
  101MYC    C3019428   6.815   0.045   4.462  0.0435 -0.2353  0.0574
  101MYC    H5419429   6.727   0.108   4.444 -1.0380 -1.4707  0.8282
  101MYC    H5519430   6.780  -0.059   4.472  0.1000 -0.0839  2.3539
  101MYC    C3119431   6.862   0.083   4.609  0.7293  0.8384  0.2092
  101MYC    H5619432   6.943   0.017   4.643 -1.1172 -2.1774 -0.8552
  101MYC    H5719433   6.901   0.185   4.595  0.4659  0.6624 -2.1004
  101MYC    C3219434   6.748   0.090   4.707  0.5896 -0.3401  0.1043
  101MYC    H5819435   6.681   0.170   4.675  1.2940 -0.4160 -1.6562
  101MYC    H5919436   6.685   0.001   4.699 -0.8015  0.7664 -2.0684
  101MYC    C3319437   6.792   0.125   4.857 -0.0717  0.2561  0.3474
  101MYC    H6019438   6.877   0.070   4.898  0.8004  1.4628  0.1964
  101MYC    H6119439   6.833   0.226   4.859 -0.5132  0.4299  2.7458
  101MYC    C3419440   6.682   0.118   4.967 -0.0842  0.0030 -0.3084
  101MYC    H6219441   6.619   0.207   4.958 -0.2189  0.2971  2.5987
  101MYC    H6319442   6.613   0.033   4.955  0.7189 -0.9358  1.3649
  101MYC    C3519443   6.736   0.118   5.104 -0.3920  0.3169 -0.3850
  101MYC    H6419444   6.813   0.041   5.110 -0.4023  0.0465 -2.7234
  101MYC    H6519445   6.787   0.215   5.107 -0.3194  0.3212 -1.3247
  101MYC    C3619446   6.624   0.097   5.219  0.1805  0.4751  0.3361
  101MYC    H6619447   6.541   0.168   5.222  1.7968  2.4440  0.9870
  101MYC    H6719448   6.575   0.003   5.190  1.9144 -0.0679 -1.0051
  101MYC    C3719449   6.675   0.073   5.364  0.0057  0.2702  0.3762
  101MYC    H6819450   6.755  -0.002   5.365 -1.7033 -1.7190 -1.4874
  101MYC    H6919451   6.732   0.164   5.387  0.3115 -0.2001  1.5486
  101MYC    C3819452   6.559   0.036   5.460 -0.2613  0.8729 -0.7819
  101MYC    H7019453   6.486   0.117   5.469  0.0809  1.0653  0.5463
  101MYC    H7119454   6.496  -0.049   5.432  0.0000 -0.1144  1.3625
  101MYC    C3919455   6.615  -0.002   5.603 -0.2547 -0.4305  0.1861
  101MYC    H7219456   6.697  -0.073   5.588 -0.8074 -1.0074 -0.0891
  101MYC    H7319457   6.670   0.084   5.644  1.0939 -1.2809  0.2318
  101MYC    C4019458   6.507  -0.065   5.695  0.0824 -0.4244  0.6709
  101MYC    H7419459   6.430   0.011   5.708  0.9555  0.3733  1.3960
  101MYC    H7519460   6.456  -0.156   5.661 -2.8040  0.6126  1.9054
  101MYC    C4119461   6.559  -0.077   5.840  0.9011  0.1688  0.2486
  101MYC    H7619462   6.636  -0.154   5.839 -1.3746 -2.2290 -0.5426
  101MYC    H7719463   6.598   0.021   5.873 -2.2330  1.4366  0.5866
  101MYC    C4219464   6.450  -0.111   5.946 -0.2765 -0.0908  0.7101
  101MYC    H7819465   6.364  -0.045   5.932  0.3343  0.8412  1.2804
  101MYC    H7919466   6.419  -0.216   5.942  0.7115 -0.4157  1.1542
  101MYC    C4319467   6.512  -0.084   6.087 -0.0500 -0.1787  0.4331
  101MYC    H8019468   6.443  -0.115   6.166 -0.5798  0.5566  0.2606
  101MYC    H8119469   6.549   0.019   6.093 -0.0515  0.1049 -2.8132
  101MYC    H8219470   6.604  -0.144   6.100  0.7847  0.6225 -1.4055
  102MYC   HH1519471   0.496   0.641   5.763 -1.9366 -0.8376 -0.4366
  102MYC    C8019472   0.456   0.742   5.774 -0.1212 -0.1985  0.5511
  102MYC   H10019473   0.347   0.752   5.780  0.0191  0.8004  4.7567
  102MYC   H10119474   0.508   0.785   5.861  1.7451  1.2248 -1.1653
  102MYC    C7919475   0.503   0.829   5.656 -0.0483 -0.0951 -0.4265
  102MYC   H10219476   0.609   0.803   5.647 -0.6659 -1.9230 -3.7483
  102MYC   H10319477   0.483   0.933   5.685  0.1686  0.5074 -2.3124
  102MYC    C7819478   0.436   0.806   5.522 -0.1038  0.6444 -1.1961
  102MYC   HH1419479   0.332   0.842   5.520  0.5835  2.9004  0.2263
  102MYC   H10419480   0.426   0.697   5.512  1.0651  0.4188 -0.1077
  102MYC    C7719481   0.517   0.870   5.406 -0.2232  0.1155  0.5786
  102MYC   H10619482   0.622   0.838   5.407 -0.3092 -0.1548  0.9611
  102MYC   H10719483   0.523   0.979   5.421 -0.2747  0.5253 -1.8500
  102MYC    C7619484   0.442   0.842   5.269 -0.5822 -0.0167  0.1074
  102MYC   H10819485   0.341   0.884   5.273 -1.3416 -1.7698  0.2352
  102MYC   H10919486   0.445   0.734   5.250 -0.4451  0.1339 -0.7724
  102MYC    C7519487   0.531   0.903   5.160 -0.6158 -0.1339  0.4250
  102MYC   H11019488   0.634   0.865   5.157 -0.0031  1.4968 -0.6661
  102MYC   H11119489   0.540   1.010   5.182  3.5965  0.3534 -2.5033
  102MYC    C7419490   0.472   0.883   5.018 -0.6331  0.1132  0.3354
  102MYC   H11219491   0.387   0.951   5.020 -0.2557  0.6614 -1.3035
  102MYC   H11319492   0.414   0.790   5.005  3.5723 -2.3937 -3.4668
  102MYC    C7319493   0.573   0.913   4.910 -0.3978  0.5558  0.0150
  102MYC   HH1319494   0.656   0.842   4.923 -1.9706 -1.4122 -0.1787
  102MYC   H11419495   0.592   1.020   4.922 -2.3028  0.7910  1.3386
  102MYC    C7219496   0.515   0.889   4.762 -0.0065  0.5339 -0.5767
  102MYC   H11519497   0.423   0.948   4.759 -0.7333 -0.4160  1.2823
  102MYC   H11619498   0.480   0.785   4.752 -2.9264  1.4558 -0.7479
  102MYC    C7119499   0.604   0.914   4.643  0.0208  0.2030  0.0720
  102MYC   H11719500   0.690   0.847   4.656 -0.8186 -1.4174 -2.1187
  102MYC   H11819501   0.635   1.019   4.644 -2.7805  1.1350 -1.5806
  102MYC    C7019502   0.541   0.893   4.508 -0.5093 -0.1942 -0.0031
  102MYC   H11919503   0.446   0.948   4.503 -1.0816 -1.1812 -0.4407
  102MYC   H12019504   0.514   0.787   4.501 -1.3851 -0.3021  3.2303
  102MYC    C6919505   0.634   0.921   4.381 -0.0837  0.2618  0.8109
  102MYC   H12119506   0.725   0.865   4.407  0.3206  0.5522  0.0227
  102MYC   H12219507   0.650   1.028   4.364 -3.6120  0.6538 -0.8813
  102MYC    C6819508   0.582   0.861   4.244  0.5884 -0.1992 -0.0245
  102MYC   HH1219509   0.485   0.909   4.222  0.3672 -0.9942 -0.8869
  102MYC   H12319510   0.557   0.754   4.253 -0.1720  0.0157  0.5290
  102MYC    C6719511   0.683   0.878   4.129 -0.6434 -0.2927 -0.2857
  102MYC   H12419512   0.768   0.815   4.159 -0.2288 -0.4610 -1.7314
  102MYC   H12519513   0.727   0.978   4.121 -1.4406 -0.0386 -1.6894
  102MYC    C6619514   0.624   0.840   3.997 -0.6663 -0.5092  0.1593
  102MYC   H12619515   0.550   0.918   3.975 -1.1819 -0.8119  0.7690
  102MYC   H12719516   0.567   0.747   4.014 -0.9003 -0.2231  0.9947
  102MYC    C6519517   0.730   0.815   3.886 -0.0828  0.6580 -0.1839
  102MYC   H12819518   0.801   0.736   3.914 -0.5899  0.0739 -0.5401
  102MYC   H12919519   0.791   0.906   3.878  1.4823 -0.2470  0.7515
  102MYC    C6419520   0.669   0.794   3.748 -0.4283 -0.2319  0.0493
  102MYC   H13019521   0.581   0.857   3.734 -0.7208 -0.6152  0.1458
  102MYC   H13119522   0.626   0.693   3.745 -0.6158 -0.1861  0.9426
  102MYC    C6319523   0.765   0.813   3.625  0.3855  0.2672  0.4488
  102MYC   HH1119524   0.831   0.726   3.631  0.6989  0.5259  0.7652
  102MYC   H13219525   0.827   0.902   3.640 -0.6375  0.6233  3.1790
  102MYC    C6219526   0.688   0.805   3.491  0.2665  0.7188 -0.1643
  102MYC   H13319527   0.606   0.878   3.496  0.8747  1.3483  0.9940
  102MYC   H13419528   0.643   0.705   3.486 -0.8155  1.2161 -4.2516
  102MYC    C6119529   0.775   0.834   3.367 -0.1542 -0.1951 -0.7607
  102MYC   H13519530   0.879   0.809   3.392 -0.1722  0.7126  0.2368
  102MYC   H13619531   0.770   0.938   3.334  0.8481 -0.3332 -1.4038
  102MYC    C6019532   0.759   0.758   3.235  0.8374  0.2603 -0.2405
  102MYC   H13719533   0.838   0.683   3.224  0.5145  0.0804 -1.5374
  102MYC    C5819534   0.622   0.734   3.165  0.1412 -0.0311 -0.5082
  102MYC   H13819535   0.531   0.772   3.211 -0.3073 -0.6700 -0.8577
  102MYC    C5919536   0.717   0.834   3.105 -0.7438  0.6114 -0.7700
  102MYC   H13919537   0.774   0.809   3.016 -0.8860  0.0820 -0.7178
  102MYC   H14019538   0.683   0.937   3.111 -0.8374  0.5251  0.4528
  102MYC    C5719539   0.600   0.595   3.093  0.6763  0.1535 -0.1210
  102MYC   HH1019540   0.509   0.555   3.141  0.8937 -1.7769 -1.2258
  102MYC   H14119541   0.678   0.520   3.109 -1.1559 -2.0112 -0.8723
  102MYC    C5619542   0.584   0.614   2.942 -0.4622 -0.0876 -0.1857
  102MYC   H14219543   0.669   0.661   2.891 -3.1355  1.8500 -3.1864
  102MYC   H14319544   0.502   0.681   2.917 -0.6535  0.0713  0.8334
  102MYC    C5519545   0.566   0.483   2.866 -0.4146 -0.1808 -0.7880
  102MYC   H14419546   0.470   0.444   2.901  0.6578 -2.2212  0.0173
  102MYC   H14519547   0.644   0.410   2.888  1.2050  1.5805 -0.3822
  102MYC    C5419548   0.550   0.502   2.714 -0.5094  0.2656 -0.3497
  102MYC   H14619549   0.458   0.562   2.708  0.6733  2.0934 -1.4749
  102MYC   H14719550   0.528   0.404   2.672  0.6888 -1.1965  2.1966
  102MYC    C5319551   0.661   0.575   2.640  0.0585  0.2669  0.0319
  102MYC   H14819552   0.673   0.678   2.674 -1.0321  0.4801 -0.1964
  102MYC   H14919553   0.629   0.579   2.535  0.7136  1.0821 -0.1426
  102MYC    C5219554   0.794   0.493   2.645 -0.3108  0.7587  0.3009
  102MYC    H9919555   0.776   0.385   2.647  1.8618  0.3470  0.4154
  102MYC   H15019556   0.847   0.520   2.737  0.1170 -4.2895  1.8593
  102MYC    C5119557   0.883   0.520   2.531 -0.2123  0.5427  0.8696
  102MYC    H9719558   0.924   0.621   2.538  2.0436 -0.1429 -1.2126
  102MYC    H9819559   0.813   0.518   2.447  1.0214  1.4677 -0.2092
  102MYC    C5019560   1.003   0.426   2.517  0.2618 -0.2880 -0.0204
  102MYC    H9519561   0.957   0.329   2.494  0.8228 -0.3575 -0.8979
  102MYC    H9619562   1.059   0.418   2.611 -0.6799 -0.0422  0.5715
  102MYC    C4919563   1.096   0.483   2.397 -0.3345  0.3928 -0.5589
  102MYC    H9319564   1.148   0.571   2.436  0.1342  0.7352 -1.9118
  102MYC    H9419565   1.024   0.498   2.316 -0.2972 -0.5136 -0.7685
  102MYC    C4819566   1.194   0.384   2.341 -0.6551  0.1636  0.5645
  102MYC    H9119567   1.142   0.293   2.312  0.7925 -0.4187 -0.3037
  102MYC    H9219568   1.272   0.342   2.405  0.6177  1.0406 -0.3694
  102MYC    C4719569   1.272   0.450   2.224 -0.1018  0.3966  0.0818
  102MYC    H8919570   1.336   0.532   2.259 -0.9494  1.8063 -1.4969
  102MYC    H9019571   1.198   0.506   2.165  0.8770  0.7395 -0.8475
  102MYC    C4619572   1.355   0.349   2.137  0.1903 -0.1181  0.0694
  102MYC    H8719573   1.289   0.266   2.111  1.2355 -1.7462  2.2283
  102MYC    H8819574   1.434   0.310   2.203  1.1578  3.4412  1.2420
  102MYC    C4519575   1.403   0.402   2.001  0.2101 -0.9613  0.1395
  102MYC    H8519576   1.468   0.488   2.022 -2.4750  1.2002  0.1483
  102MYC    H8619577   1.323   0.451   1.945  1.7612  1.5864  0.0025
  102MYC    C4419578   1.479   0.303   1.919  0.1928  0.6323  0.5146
  102MYC    H8319579   1.417   0.219   1.886  0.3734  1.0251 -0.8876
  102MYC    H8419580   1.557   0.263   1.985 -0.0123  1.7146  1.4489
  102MYC    C1819581   1.536   0.375   1.790 -0.2376 -0.0158  0.1503
  102MYC    H3119582   1.463   0.411   1.718 -0.1121 -0.3412 -0.1401
  102MYC    C1719583   1.666   0.452   1.793 -0.1451  0.3732 -0.4584
  102MYC    H3019584   1.727   0.456   1.883 -0.2716  2.2333 -0.4317
  102MYC    C1919585   1.663   0.317   1.731  0.7230 -0.5165  0.3909
  102MYC    H3219586   1.706   0.232   1.784  1.8155 -0.4663 -0.3802
  102MYC    H3319587   1.665   0.304   1.623  1.2548  0.0382  0.3280
  102MYC    C1619588   1.695   0.569   1.701 -0.3411  0.1155 -0.1561
  102MYC    H2819589   1.664   0.661   1.753  1.0707  0.9531 -0.7402
  102MYC    H2919590   1.635   0.579   1.610  0.8936  1.3141 -0.8909
  102MYC    C1519591   1.845   0.597   1.676  0.0939  0.5365 -0.1636
  102MYC    H2619592   1.847   0.682   1.607 -0.2793 -0.1701 -1.0569
  102MYC    H2719593   1.889   0.515   1.618 -0.2910  0.3090 -0.1386
  102MYC    C1419594   1.931   0.631   1.805 -0.2160 -0.5673  0.5137
  102MYC    H2419595   2.031   0.663   1.770 -1.2986 -0.3142 -2.6937
  102MYC    H2519596   1.952   0.533   1.848  0.1877 -1.2866 -1.2279
  102MYC    C1319597   1.889   0.747   1.903  0.4505 -0.0230 -0.3493
  102MYC    H2219598   1.851   0.832   1.845  0.2627  0.1870  0.0834
  102MYC    H2319599   1.983   0.781   1.949 -1.1292  0.4836  2.7586
  102MYC    C1219600   1.798   0.715   2.026  0.2569 -0.1253 -0.4451
  102MYC    H2019601   1.827   0.624   2.080  1.2178  1.0628  1.1151
  102MYC    H2119602   1.701   0.691   1.981 -0.8125 -0.6499  2.0035
  102MYC    C1119603   1.785   0.837   2.122 -0.0101 -0.2419 -0.3358
  102MYC    H1819604   1.750   0.928   2.072 -0.0421 -0.0625  0.0118
  102MYC    H1919605   1.879   0.858   2.173  1.1927 -2.0186 -1.7126
  102MYC    C1019606   1.691   0.814   2.244 -0.1284  1.8451  0.0506
  102MYC    H1619607   1.698   0.903   2.308  3.2453  1.4683  0.3899
  102MYC    H1719608   1.739   0.740   2.309  1.2998  2.2552 -0.5163
  102MYC     C919609   1.547   0.779   2.219 -0.6632  0.1792  0.2829
  102MYC    H1419610   1.537   0.676   2.184 -1.3268  1.2162 -2.8895
  102MYC    H1519611   1.510   0.846   2.141 -0.6521  0.2750  0.3602
  102MYC     C819612   1.451   0.791   2.343 -0.3382 -0.0978  1.2420
  102MYC    H1219613   1.347   0.779   2.309 -0.2048  0.1524  0.7267
  102MYC    H1319614   1.466   0.893   2.380 -0.7678  1.5379 -2.5251
  102MYC     C719615   1.473   0.696   2.455 -0.4500  0.3141 -0.4124
  102MYC    H1019616   1.568   0.708   2.508 -1.1543 -2.2328  1.6632
  102MYC    H1119617   1.485   0.591   2.423  1.6355 -0.2686  1.9285
  102MYC     C619618   1.373   0.706   2.570 -0.4348 -0.0493  0.4576
  102MYC     H819619   1.272   0.704   2.526 -0.6251 -0.1269  0.8891
  102MYC     H919620   1.385   0.802   2.622 -0.3895 -0.7349  1.7467
  102MYC     C519621   1.377   0.580   2.668  0.1883 -0.1782 -0.0308
  102MYC     H619622   1.484   0.564   2.688  1.3020  2.2982 -3.1430
  102MYC     H719623   1.357   0.486   2.618  0.8311 -0.8039  0.8394
  102MYC     C419624   1.289   0.576   2.799  0.6131  0.1565 -0.5691
  102MYC     H419625   1.294   0.469   2.821  2.4853 -0.2715 -2.7198
  102MYC     H519626   1.186   0.601   2.774  0.8801  0.2730 -1.6065
  102MYC     C219627   1.350   0.653   2.916 -0.3273  0.1896  0.3800
  102MYC     H219628   1.455   0.624   2.930 -0.4570 -1.0118 -0.8796
  102MYC     O319629   1.345   0.787   2.875 -0.4326 -0.7039  0.1892
  102MYC     H319630   1.252   0.814   2.878 -0.6314 -1.2250 -0.7868
  102MYC     C119631   1.270   0.629   3.052 -0.8132  0.0359  0.1194
  102MYC     H119632   1.304   0.526   3.069  2.1304  1.1112  1.6328
  102MYC    C8119633   1.116   0.628   3.050 -0.1047 -0.2770  0.2326
  102MYC    O8219634   1.048   0.529   3.042  0.7059 -0.1439 -0.3441
  102MYC    O8319635   1.075   0.745   3.010  0.7019  0.2540  1.0474
  102MYC   H10519636   0.988   0.725   2.973  1.8440  0.1612 -1.8435
  102MYC    C2019637   1.325   0.719   3.169 -0.1033 -0.0646 -0.6717
  102MYC    H3419638   1.422   0.675   3.195 -1.0614 -3.7535 -2.5697
  102MYC    H3519639   1.335   0.823   3.136  4.1169  0.0445  0.4182
  102MYC    C2119640   1.223   0.728   3.296  0.2871  0.2430  0.6586
  102MYC    H3619641   1.152   0.808   3.272  2.1332  1.3308 -1.6177
  102MYC    H3719642   1.179   0.628   3.303  2.8506 -1.4234 -3.3498
  102MYC    C2219643   1.279   0.750   3.434 -0.6852 -1.3416  0.5300
  102MYC    H3819644   1.360   0.681   3.460 -1.2984 -1.9978  0.7095
  102MYC    H3919645   1.333   0.846   3.430  0.2513 -1.8291  1.0077
  102MYC    C2319646   1.175   0.748   3.546 -0.5480  0.0390 -0.0475
  102MYC    H4019647   1.118   0.841   3.539  1.5987  1.3732 -0.8162
  102MYC    H4119648   1.121   0.653   3.543 -0.3205 -0.2176  2.1424
  102MYC    C2419649   1.238   0.756   3.686  0.0507  0.6625  0.5643
  102MYC    H4219650   1.303   0.667   3.689 -0.0682  0.4949 -0.9413
  102MYC    H4319651   1.299   0.847   3.685  1.8412 -0.4860  0.3120
  102MYC    C2519652   1.131   0.752   3.798 -0.0442 -0.6538 -0.5901
  102MYC    H4419653   1.049   0.819   3.770  0.2480 -0.3214 -0.6703
  102MYC    H4519654   1.092   0.652   3.818 -0.8469  0.3483  4.1570
  102MYC    C2619655   1.188   0.800   3.940 -0.3107 -0.0248  0.2702
  102MYC    H4619656   1.284   0.749   3.953  0.3407  0.7535 -1.2390
  102MYC    H4719657   1.223   0.904   3.941 -1.3648  0.3496  1.2856
  102MYC    C2719658   1.099   0.777   4.054  0.1289 -0.6983  0.4265
  102MYC    H4819659   0.999   0.815   4.034  0.3434 -0.3593 -0.0232
  102MYC    H4919660   1.092   0.667   4.054 -0.4235 -0.6633  0.7389
  102MYC    C2819661   1.151   0.818   4.190  0.1743  0.6997  0.6998
  102MYC    H5019662   1.241   0.756   4.204 -0.4387 -0.7474 -1.2192
  102MYC    H5119663   1.183   0.922   4.192  3.5971 -0.1102 -1.7178
  102MYC    C2919664   1.048   0.785   4.306  0.8259  0.2032 -0.1270
  102MYC    H5219665   0.947   0.825   4.292  1.0432  0.0862 -2.3494
  102MYC    H5319666   1.038   0.676   4.302 -0.9541  0.3831 -2.3481
  102MYC    C3019667   1.088   0.834   4.444  1.1930 -0.6545  0.0477
  102MYC    H5419668   1.192   0.804   4.464  1.3299  0.5362  1.2221
  102MYC    H5519669   1.082   0.943   4.444  1.2033 -0.6326 -1.1971
  102MYC    C3119670   1.003   0.784   4.558  0.5393 -0.5278 -0.2788
  102MYC    H5619671   0.903   0.827   4.568  0.9641  0.9070 -1.7286
  102MYC    H5719672   0.990   0.675   4.556 -1.0817 -0.4154  1.3950
  102MYC    C3219673   1.070   0.810   4.695  0.2869  0.2566  0.4419
  102MYC    H5819674   1.171   0.770   4.683  0.2640  0.5986 -1.1137
  102MYC    H5919675   1.082   0.919   4.705 -2.8458  0.7156  0.1393
  102MYC    C3319676   0.982   0.749   4.811 -0.0281  0.0873  0.3662
  102MYC    H6019677   0.883   0.796   4.801 -0.7727 -1.3272  0.8446
  102MYC    H6119678   0.962   0.644   4.786  0.4496 -0.0686  0.6396
  102MYC    C3419679   1.033   0.770   4.955 -0.1146  0.2799 -0.0064
  102MYC    H6219680   1.129   0.719   4.972  0.8555  2.2880  0.7970
  102MYC    H6319681   1.039   0.879   4.962 -0.4941  0.4254 -1.5198
  102MYC    C3519682   0.941   0.713   5.056 -0.2950  0.0839 -0.3796
  102MYC    H6419683   0.852   0.774   5.040  0.2337  0.6194 -1.3963
  102MYC    H6519684   0.931   0.606   5.032  1.0223 -0.3730  0.9429
  102MYC    C3619685   1.002   0.726   5.197  0.5095 -0.3384 -0.1594
  102MYC    H6619686   1.094   0.667   5.202 -1.3413 -3.3452  1.1821
  102MYC    H6719687   1.032   0.829   5.219 -1.7626  0.3835 -0.1555
  102MYC    C3719688   0.906   0.691   5.312 -0.2422  0.4850 -0.4022
  102MYC    H6819689   0.836   0.773   5.297 -0.0048  0.4696 -1.7427
  102MYC    H6919690   0.853   0.598   5.288  0.3445  0.6480 -2.5566
  102MYC    C3819691   0.975   0.684   5.455 -0.0678  0.2273  0.1928
  102MYC    H7019692   1.054   0.608   5.452 -2.0017 -1.9158  0.5062
  102MYC    H7119693   1.027   0.780   5.465 -0.8378  0.5028  2.0661
  102MYC    C3919694   0.873   0.649   5.563  0.6705 -0.1716 -0.0505
  102MYC    H7219695   0.790   0.721   5.554 -0.2012 -1.3254 -1.8288
  102MYC    H7319696   0.844   0.546   5.539  0.6045 -0.0997 -0.2842
  102MYC    C4019697   0.940   0.646   5.701  0.0150  0.1488  0.0323
  102MYC    H7419698   1.012   0.566   5.722 -0.7581 -0.5970 -0.1424
  102MYC    H7519699   0.991   0.742   5.716  0.1850  0.2582 -1.1502
  102MYC    C4119700   0.831   0.623   5.804  0.3403  0.4709  0.2243
  102MYC    H7619701   0.742   0.679   5.774  0.4880 -0.2311 -1.6594
  102MYC    H7719702   0.802   0.517   5.811  1.9804 -0.0563 -0.4938
  102MYC    C4219703   0.869   0.660   5.945 -0.4566  0.1588 -0.4359
  102MYC    H7819704   0.930   0.575   5.979  0.3584  1.2908  1.0700
  102MYC    H7919705   0.925   0.753   5.931 -0.5825  0.0049 -2.1699
  102MYC    C4319706   0.751   0.690   6.043  0.2137 -0.4111  0.2733
  102MYC    H8019707   0.685   0.602   6.047  2.2277 -2.1450 -1.8518
  102MYC    H8119708   0.695   0.783   6.027  0.6028 -0.3906 -1.0183
  102MYC    H8219709   0.793   0.695   6.144  2.6879 -1.6054 -0.6292
  103MYC   HH1519710   1.149   1.448   5.408 -0.2695  1.7699 -0.5965
  103MYC    C8019711   1.101   1.426   5.312 -0.1324  0.5328 -0.4023
  103MYC   H10019712   1.086   1.317   5.307  0.5560  0.3840  0.6399
  103MYC   H10119713   1.010   1.483   5.287  0.3397  2.3469  1.7330
  103MYC    C7919714   1.214   1.455   5.206 -0.3455  0.1968 -0.2204
  103MYC   H10219715   1.306   1.398   5.226 -0.9326  0.2549  3.4995
  103MYC   H10319716   1.243   1.560   5.201  0.8956  0.0666  2.4073
  103MYC    C7819717   1.164   1.423   5.060  0.1264 -0.0899  0.0979
  103MYC   HH1419718   1.072   1.479   5.039 -1.2783 -2.2388  0.2295
  103MYC   H10419719   1.150   1.315   5.067  2.2687 -0.5273 -1.3590
  103MYC    C7719720   1.263   1.462   4.949  0.0663 -0.7275  0.0199
  103MYC   H10619721   1.347   1.392   4.959 -0.4056 -1.2173  0.6944
  103MYC   H10719722   1.291   1.566   4.970  0.2673 -0.7044 -0.3619
  103MYC    C7619723   1.209   1.450   4.810 -0.0678 -0.6265  0.1074
  103MYC   H10819724   1.119   1.511   4.801  2.3138  2.9724 -1.2868
  103MYC   H10919725   1.176   1.345   4.806  0.9508 -0.9129 -1.2885
  103MYC    C7519726   1.302   1.475   4.688 -0.6008  0.0800  0.5875
  103MYC   H11019727   1.387   1.410   4.715 -0.2488  1.3761  2.9223
  103MYC   H11119728   1.333   1.579   4.698  0.8588 -0.2617 -0.0499
  103MYC    C7419729   1.224   1.457   4.549 -0.5613  0.5411 -0.3838
  103MYC   H11219730   1.149   1.537   4.547  0.5317  1.6123 -0.0853
  103MYC   H11319731   1.183   1.356   4.537 -0.4126  0.6149 -1.6873
  103MYC    C7319732   1.311   1.472   4.426 -0.6931 -0.2219  0.2499
  103MYC   HH1319733   1.404   1.415   4.428 -1.3240 -1.3185 -0.5249
  103MYC   H11419734   1.354   1.573   4.429 -0.6305 -0.1306 -2.0707
  103MYC    C7219735   1.232   1.460   4.288 -0.4433 -0.3608  0.2809
  103MYC   H11519736   1.143   1.523   4.298 -0.9032 -0.7331 -1.2788
  103MYC   H11619737   1.193   1.358   4.276  1.1628 -0.6744 -3.4655
  103MYC    C7119738   1.327   1.478   4.166  0.2917  0.0644 -0.5109
  103MYC   H11719739   1.409   1.407   4.183 -0.5931 -1.8663 -3.3887
  103MYC   H11819740   1.371   1.578   4.173  0.4630  0.0708 -1.4738
  103MYC    C7019741   1.265   1.455   4.024  0.1380  0.7484 -0.2692
  103MYC   H11919742   1.164   1.496   4.010  0.5159  1.2593 -1.6930
  103MYC   H12019743   1.258   1.347   4.011 -0.9782  0.9527 -1.6954
  103MYC    C6919744   1.358   1.503   3.907 -0.2041 -0.3947 -0.1996
  103MYC   H12119745   1.460   1.469   3.932 -0.5132  1.2314  4.2445
  103MYC   H12219746   1.372   1.612   3.911  0.9967 -0.4328 -2.2041
  103MYC    C6819747   1.307   1.471   3.771  0.2495  0.4631 -0.5958
  103MYC   HH1219748   1.214   1.530   3.770 -0.3181 -0.2962  1.5270
  103MYC   H12319749   1.286   1.365   3.753  0.4531  0.4064 -0.4968
  103MYC    C6719750   1.397   1.517   3.655 -0.3597  0.2057  0.6177
  103MYC   H12419751   1.499   1.481   3.670 -0.0966  1.0604  0.8889
  103MYC   H12519752   1.399   1.626   3.649  0.6195  0.1940  0.6595
  103MYC    C6619753   1.358   1.471   3.514 -0.0499  0.1335  0.1283
  103MYC   H12619754   1.250   1.489   3.508 -0.1031  0.3116  1.4579
  103MYC   H12719755   1.371   1.363   3.498 -0.1903  0.2115 -0.5718
  103MYC    C6519756   1.431   1.550   3.401 -0.1201  0.6442 -0.5280
  103MYC   H12819757   1.536   1.530   3.423 -0.6349 -0.0887  1.4518
  103MYC   H12919758   1.410   1.658   3.405 -1.1774  0.5867 -2.6658
  103MYC    C6419759   1.392   1.514   3.250  0.1795 -0.2891 -0.1962
  103MYC   H13019760   1.284   1.533   3.249  0.1645  0.0531  2.2422
  103MYC   H13119761   1.414   1.406   3.244 -0.0023 -0.3699  0.4621
  103MYC    C6319762   1.449   1.589   3.127  0.6588  0.0918  0.3897
  103MYC   HH1119763   1.409   1.690   3.108  0.6728 -0.5461 -3.8328
  103MYC   H13219764   1.400   1.524   3.055 -1.1771  1.0038  0.7482
  103MYC    C6219765   1.607   1.598   3.123 -0.0490 -0.2191  0.3990
  103MYC   H13319766   1.666   1.524   3.178  3.3352  1.3603 -0.8067
  103MYC   H13419767   1.649   1.689   3.168 -0.5138 -0.1186  0.6341
  103MYC    C6119768   1.668   1.600   2.976 -0.3757 -0.3878 -0.2513
  103MYC   H13519769   1.642   1.700   2.940  0.6497  0.2577  0.7288
  103MYC   H13619770   1.614   1.522   2.921  3.1376 -2.6953 -0.7369
  103MYC    C6019771   1.819   1.574   2.966  0.0074 -0.2788 -0.1525
  103MYC   H13719772   1.842   1.474   3.002  0.2330 -0.1573  0.0438
  103MYC    C5819773   1.888   1.616   2.838 -0.0400 -0.5616  0.2348
  103MYC   H13819774   1.831   1.663   2.758 -2.7217 -1.7398  1.3349
  103MYC    C5919775   1.918   1.689   2.964 -0.2523 -0.4892 -0.9047
  103MYC   H13919776   2.017   1.676   3.006  0.2981  0.9205 -1.6870
  103MYC   H14019777   1.882   1.792   2.965  1.7565  0.2458 -0.1626
  103MYC    C5719778   1.993   1.513   2.781  1.2524  0.0823  0.1770
  103MYC   HH1019779   2.034   1.458   2.866 -0.1559 -0.9443  0.2229
  103MYC   H14119780   2.086   1.550   2.738  1.0103  2.1882  1.2894
  103MYC    C5619781   1.925   1.419   2.681  0.3315  0.1177  0.5688
  103MYC   H14219782   1.835   1.370   2.720  1.0403 -1.6739  0.0580
  103MYC   H14319783   1.991   1.335   2.655  0.6991  0.7830 -0.7637
  103MYC    C5519784   1.886   1.483   2.550  0.4766 -0.4085 -0.0305
  103MYC   H14419785   1.789   1.532   2.560  0.5493  0.2895 -2.1490
  103MYC   H14519786   1.867   1.404   2.476 -1.1845  1.0382 -1.2198
  103MYC    C5419787   1.985   1.598   2.497 -0.4257 -0.2340  0.4397
  103MYC   H14619788   2.087   1.559   2.497 -0.6469 -0.9335  2.8241
  103MYC   H14719789   1.996   1.685   2.563 -0.3680  0.8633 -0.9743
  103MYC    C5319790   1.935   1.647   2.358  0.5213  0.0793 -0.9418
  103MYC   H14819791   1.851   1.715   2.377  0.0301  0.3348 -3.6963
  103MYC   H14919792   1.895   1.558   2.307 -0.2592  0.4416 -0.9761
  103MYC    C5219793   2.047   1.705   2.268 -0.3749 -0.4326 -0.3915
  103MYC    H9919794   2.100   1.613   2.240  0.0659 -0.7635  1.3615
  103MYC   H15019795   2.105   1.761   2.342  0.1253 -1.1881 -0.1901
  103MYC    C5119796   1.997   1.789   2.150  0.9483  0.3015  0.0384
  103MYC    H9719797   1.962   1.887   2.185  0.0929 -0.2453  0.7725
  103MYC    H9819798   1.928   1.725   2.095  0.8700  0.7624 -0.4134
  103MYC    C5019799   2.106   1.821   2.042 -0.1475 -0.0367 -0.7014
  103MYC    H9519800   2.180   1.874   2.103 -2.7682  0.7942  1.9748
  103MYC    H9619801   2.058   1.891   1.971  2.4250  1.3796 -1.1685
  103MYC    C4919802   2.165   1.696   1.962  0.3642  0.0635 -0.4650
  103MYC    H9319803   2.083   1.648   1.908  0.7979 -1.2442 -0.0153
  103MYC    H9419804   2.204   1.622   2.034 -1.3198  0.9101  1.4356
  103MYC    C4819805   2.273   1.734   1.868 -0.1809 -0.1109 -0.0104
  103MYC    H9119806   2.369   1.747   1.919  0.6862  2.3112 -2.0302
  103MYC    H9219807   2.248   1.833   1.828  1.5324 -0.3299 -1.8147
  103MYC    C4719808   2.285   1.629   1.755  0.4372  0.5696  0.0428
  103MYC    H8919809   2.371   1.647   1.689 -1.5591  1.1688 -2.5425
  103MYC    H9019810   2.193   1.635   1.695 -1.3669 -2.7290  2.1591
  103MYC    C4619811   2.306   1.483   1.816  0.8464 -0.0511 -0.0534
  103MYC    H8719812   2.218   1.446   1.869  0.9713 -1.5505 -0.8405
  103MYC    H8819813   2.395   1.478   1.880 -0.3455  3.9864  2.2473
  103MYC    C4519814   2.344   1.370   1.719  0.0466  0.5274  0.2309
  103MYC    H8519815   2.340   1.279   1.780  2.0065  0.3066  0.0910
  103MYC    H8619816   2.450   1.378   1.693  0.8088  0.5611  3.0713
  103MYC    C4419817   2.255   1.335   1.595  0.0073  0.1731  0.5691
  103MYC    H8319818   2.287   1.237   1.557  1.0169  0.6222  0.2443
  103MYC    H8419819   2.278   1.399   1.509 -1.5814 -1.3579 -1.1146
  103MYC    C1819820   2.109   1.340   1.618  0.9401 -0.2757  0.1224
  103MYC    H3119821   2.069   1.441   1.613  2.0670  0.1267 -1.1023
  103MYC    C1719822   2.007   1.245   1.553  0.1772  0.5267 -0.3789
  103MYC    H3019823   2.042   1.151   1.511  1.2471 -0.7829  3.1470
  103MYC    C1919824   2.033   1.233   1.702  0.5867  0.0548 -0.5754
  103MYC    H3219825   2.095   1.148   1.729  0.1733  0.7933  3.2168
  103MYC    H3319826   1.962   1.271   1.775  0.8182  2.0966 -1.3421
  103MYC    C1619827   1.879   1.301   1.499  0.5991 -0.0134 -0.0570
  103MYC    H2819828   1.891   1.348   1.401  1.9473 -0.0132  0.0921
  103MYC    H2919829   1.845   1.385   1.561 -2.2446 -1.2619  0.2366
  103MYC    C1519830   1.751   1.209   1.492  0.5131  0.1656  0.3990
  103MYC    H2619831   1.792   1.120   1.444  1.2159 -0.0481  1.3559
  103MYC    H2719832   1.686   1.265   1.424 -0.0674  0.8101  1.4445
  103MYC    C1419833   1.709   1.172   1.633 -0.3498  0.2589  0.0008
  103MYC    H2419834   1.694   1.255   1.703 -0.4058 -0.9058  1.4113
  103MYC    H2519835   1.776   1.100   1.680  0.5913  1.1822  0.1283
  103MYC    C1319836   1.567   1.107   1.646 -0.3145  0.0276  0.8806
  103MYC    H2219837   1.565   1.020   1.581 -1.1055 -0.7325  1.8868
  103MYC    H2319838   1.494   1.180   1.608 -1.0996 -1.3630 -0.3679
  103MYC    C1219839   1.522   1.063   1.784 -0.7553 -0.1033 -0.9012
  103MYC    H2019840   1.541   1.155   1.840  2.4181  0.5354 -2.7695
  103MYC    H2119841   1.597   0.996   1.828  0.4109  2.7378  1.8255
  103MYC    C1119842   1.381   1.016   1.798  0.0811 -0.8318 -0.1073
  103MYC    H1819843   1.364   0.934   1.727  0.9723 -2.2340  1.2497
  103MYC    H1919844   1.325   1.106   1.770 -0.3416 -0.2604  2.3915
  103MYC    C1019845   1.332   0.970   1.937  0.3508  0.3007 -1.0905
  103MYC    H1619846   1.358   1.038   2.019  2.6813 -1.8037  0.0421
  103MYC    H1719847   1.376   0.871   1.950 -2.8804 -0.9859  1.7315
  103MYC     C919848   1.176   0.949   1.936 -0.5881 -0.3463  1.0801
  103MYC    H1419849   1.144   0.905   1.841  2.5138  3.3759 -2.0698
  103MYC    H1519850   1.127   1.047   1.940 -1.1318 -0.6463  2.2116
  103MYC     C819851   1.125   0.866   2.055 -0.3733 -0.2894 -0.3280
  103MYC    H1219852   1.183   0.773   2.064  0.5813  0.3215 -0.0344
  103MYC    H1319853   1.022   0.835   2.034 -0.7086  1.3702 -1.2901
  103MYC     C719854   1.113   0.938   2.191 -0.3800 -0.0195  0.1833
  103MYC    H1019855   1.051   1.028   2.181 -1.9056 -0.9653  0.7441
  103MYC    H1119856   1.212   0.979   2.215 -2.2784  3.6424  2.7072
  103MYC     C619857   1.052   0.848   2.303 -0.1838  0.1559  0.4199
  103MYC     H819858   1.126   0.776   2.341  1.3709  1.0383 -0.7952
  103MYC     H919859   0.979   0.780   2.256  1.8780 -0.9102 -1.4352
  103MYC     C519860   0.975   0.923   2.410 -0.0984 -0.8889  0.0835
  103MYC     H619861   0.929   0.851   2.479  1.4822 -0.4053  1.7280
  103MYC     H719862   0.898   0.976   2.352  2.1335  0.7676 -1.5558
  103MYC     C419863   1.059   1.035   2.484  0.2633 -0.0154  0.1559
  103MYC     H419864   1.074   1.118   2.413 -1.5420 -0.8267 -1.2592
  103MYC     H519865   1.157   1.000   2.519  0.6322  1.8903  1.1863
  103MYC     C219866   0.991   1.110   2.602 -0.2240 -0.4958  0.2243
  103MYC     H219867   1.048   1.204   2.602 -2.9570  1.3825 -2.9852
  103MYC     O319868   0.863   1.151   2.564 -0.4279  0.3015 -0.0573
  103MYC     H319869   0.813   1.085   2.513 -2.2672  0.7943  1.0314
  103MYC     C119870   0.995   1.025   2.736 -0.6769  0.1209 -0.0699
  103MYC     H119871   1.096   0.985   2.749 -1.0102 -0.9030 -0.5561
  103MYC    C8119872   0.892   0.909   2.739 -0.0490  0.1391 -0.3430
  103MYC    O8219873   0.927   0.791   2.753  0.1301 -0.1760  0.7875
  103MYC    O8319874   0.763   0.940   2.751  0.4529  0.0665 -0.3755
  103MYC   H10519875   0.723   0.860   2.790  2.4538 -1.9909 -2.1834
  103MYC    C2019876   0.984   1.132   2.857 -0.2044  0.0240  0.2306
  103MYC    H3419877   1.063   1.205   2.836 -0.5602  0.3379 -0.0468
  103MYC    H3519878   0.887   1.182   2.872  0.1069  0.8111 -0.2911
  103MYC    C2119879   1.033   1.075   2.990  0.6033 -0.1676 -0.1876
  103MYC    H3619880   0.965   0.993   3.018 -1.8363  1.1603 -1.7793
  103MYC    H3719881   1.135   1.037   2.979  0.7332 -0.1200  0.8360
  103MYC    C2219882   1.032   1.178   3.106 -0.0927  0.2960  0.3291
  103MYC    H3819883   1.112   1.250   3.084  1.1620 -0.5138  2.0411
  103MYC    H3919884   0.940   1.237   3.109 -0.1123  0.4115 -1.3836
  103MYC    C2319885   1.053   1.118   3.248 -0.5339  0.0823  0.0717
  103MYC    H4019886   0.998   1.026   3.273 -0.5897  0.8722  3.1689
  103MYC    H4119887   1.153   1.074   3.250 -0.5953 -0.0268  1.9555
  103MYC    C2419888   1.036   1.227   3.355  0.1582  0.3088 -0.1404
  103MYC    H4219889   1.111   1.305   3.336 -1.3413  1.6235 -0.8604
  103MYC    H4319890   0.932   1.257   3.340 -0.5290 -1.6781  0.2922
  103MYC    C2519891   1.061   1.165   3.499 -0.2799 -0.0755  0.0209
  103MYC    H4419892   1.007   1.069   3.506 -1.4242  0.6101  0.8535
  103MYC    H4519893   1.167   1.141   3.514 -0.0950  0.3506 -0.5926
  103MYC    C2619894   1.014   1.249   3.622 -0.2716  0.7184  0.4450
  103MYC    H4619895   1.068   1.344   3.626  0.7277  0.1479  0.9533
  103MYC    H4719896   0.910   1.281   3.607 -1.1819 -1.3967  1.6940
  103MYC    C2719897   1.037   1.176   3.758  0.6221  0.6269 -0.4948
  103MYC    H4819898   0.975   1.085   3.752  1.1439  0.3364 -2.1465
  103MYC    H4919899   1.142   1.144   3.766  0.6016 -0.5907 -3.6674
  103MYC    C2819900   0.994   1.250   3.886  0.0801  0.1411 -0.0560
  103MYC    H5019901   1.050   1.342   3.905  0.4117  0.3428 -1.9057
  103MYC    H5119902   0.888   1.271   3.867 -0.2765  0.1565  1.7163
  103MYC    C2919903   1.000   1.161   4.015  0.6260 -0.3464  0.0033
  103MYC    H5219904   0.922   1.084   4.006 -1.4519  1.5137  1.2062
  103MYC    H5319905   1.103   1.128   4.030  1.0554  1.1301  0.4163
  103MYC    C3019906   0.954   1.249   4.141 -0.1040  0.4479 -0.0028
  103MYC    H5419907   1.019   1.337   4.144  1.4933 -0.6901  3.3332
  103MYC    H5519908   0.851   1.275   4.114  0.0884 -0.9983 -2.3741
  103MYC    C3119909   0.960   1.160   4.272  0.3732  0.2817  0.2009
  103MYC    H5619910   0.884   1.082   4.255 -0.9751  1.5040  0.3815
  103MYC    H5719911   1.052   1.101   4.273  0.6360  0.6970  0.6991
  103MYC    C3219912   0.939   1.243   4.400  0.0251  0.1882  0.0611
  103MYC    H5819913   0.997   1.336   4.408  0.6919 -0.3322  1.8001
  103MYC    H5919914   0.837   1.282   4.397  0.1169  0.5876  1.5958
  103MYC    C3319915   0.955   1.163   4.530 -0.0906 -0.3479 -0.1271
  103MYC    H6019916   0.902   1.068   4.514 -0.7995  0.1136 -0.5530
  103MYC    H6119917   1.062   1.146   4.546  1.0163  3.2981 -2.5678
  103MYC    C3419918   0.905   1.230   4.663  0.5657 -0.5549 -0.9168
  103MYC    H6219919   0.965   1.322   4.666  0.4277 -0.4765 -0.3986
  103MYC    H6319920   0.803   1.270   4.654 -0.0482 -2.4206 -3.2054
  103MYC    C3519921   0.924   1.152   4.797 -0.6482  0.2162 -0.4438
  103MYC    H6419922   0.913   1.044   4.786  0.7586 -0.1722  1.4551
  103MYC    H6519923   1.029   1.165   4.825 -0.4300 -2.2125  0.0818
  103MYC    C3619924   0.870   1.212   4.927 -0.1096  0.1031  0.0844
  103MYC    H6619925   0.900   1.317   4.936 -0.0367  0.0395  0.5799
  103MYC    H6719926   0.761   1.214   4.915 -0.0565 -0.1761 -0.4598
  103MYC    C3719927   0.893   1.134   5.055 -0.2276 -0.5930  0.2585
  103MYC    H6819928   0.850   1.034   5.047 -1.2191 -0.1909  0.4484
  103MYC    H6919929   1.001   1.136   5.073 -0.4031  0.5522  1.3258
  103MYC    C3819930   0.824   1.192   5.179  0.4403 -0.4987 -0.2499
  103MYC    H7019931   0.867   1.289   5.208 -0.4195 -0.5014  1.1188
  103MYC    H7119932   0.721   1.221   5.159  0.7587 -1.3334 -3.7628
  103MYC    C3919933   0.844   1.092   5.294 -0.2683  0.6518 -0.0034
  103MYC    H7219934   0.784   1.001   5.285  0.4353  0.1119  0.5313
  103MYC    H7319935   0.947   1.054   5.288 -0.5497 -0.3404  1.0106
  103MYC    C4019936   0.813   1.161   5.423 -0.6323  0.1473 -0.6795
  103MYC    H7419937   0.889   1.238   5.435 -0.9128  0.3592 -0.2217
  103MYC    H7519938   0.717   1.215   5.414  0.9696  3.0842 -1.4337
  103MYC    C4119939   0.809   1.079   5.556  0.5533  0.2405  1.1744
  103MYC    H7619940   0.725   1.009   5.547 -0.2406  1.3728 -0.7315
  103MYC    H7719941   0.895   1.010   5.563  0.5182  0.1746  0.9707
  103MYC    C4219942   0.806   1.163   5.681 -0.1930 -0.9434 -0.7725
  103MYC    H7819943   0.901   1.217   5.677  0.1405 -1.5606 -1.5000
  103MYC    H7919944   0.731   1.243   5.680  0.2309 -0.4534  1.3265
  103MYC    C4319945   0.802   1.099   5.818 -0.3251  0.2802  0.4160
  103MYC    H8019946   0.887   1.030   5.823 -0.8700 -0.5219 -0.8512
  103MYC    H8119947   0.709   1.042   5.828 -0.9618  1.2988  0.4236
  103MYC    H8219948   0.801   1.179   5.894 -0.4659  1.9576 -1.2734
  104MYC   HH1519949   1.437   2.220   5.584  0.0222  1.6408 -2.4116
  104MYC    C8019950   1.337   2.187   5.555 -0.1638 -0.4927  0.2383
  104MYC   H10019951   1.285   2.131   5.634  1.0139 -0.7421  0.8559
  104MYC   H10119952   1.271   2.273   5.539 -1.4949 -1.9013 -2.6819
  104MYC    C7919953   1.322   2.100   5.427  0.0549 -0.3589 -0.3301
  104MYC   H10219954   1.218   2.073   5.402 -0.2146  1.7715 -1.7253
  104MYC   H10319955   1.371   2.003   5.442  0.6796  0.1065  0.7730
  104MYC    C7819956   1.376   2.181   5.303 -0.3454 -0.2468  0.4474
  104MYC   HH1419957   1.463   2.236   5.338 -0.7188  1.1979 -0.7884
  104MYC   H10419958   1.300   2.257   5.278  0.8195  0.6568 -0.4274
  104MYC    C7719959   1.400   2.095   5.177 -0.0008 -0.1009  0.0325
  104MYC   H10619960   1.307   2.040   5.154 -0.1393  0.6373 -1.3161
  104MYC   H10719961   1.479   2.026   5.207  0.8607  0.3001 -1.2033
  104MYC    C7619962   1.440   2.182   5.053 -0.4844  0.2807  0.3053
  104MYC   H10819963   1.517   2.257   5.071  0.0538  0.8926 -3.6263
  104MYC   H10919964   1.351   2.241   5.027  0.8857  2.1424 -0.2997
  104MYC    C7519965   1.493   2.087   4.941  0.1417  1.0610  1.1013
  104MYC   H11019966   1.423   2.006   4.917  1.6324  0.3279 -0.9665
  104MYC   H11119967   1.594   2.045   4.948  0.7425  2.5341  1.6328
  104MYC    C7419968   1.498   2.175   4.805  0.3799  0.5784 -0.7459
  104MYC   H11219969   1.567   2.257   4.831  0.8579  0.0216 -0.2182
  104MYC   H11319970   1.395   2.209   4.788 -0.6379 -2.8359 -2.0842
  104MYC    C7319971   1.546   2.084   4.694 -0.0216 -0.9348  0.2513
  104MYC   HH1319972   1.465   2.012   4.678 -0.4830 -0.6906  1.4009
  104MYC   H11419973   1.640   2.034   4.717  0.7766  0.2128 -0.3805
  104MYC    C7219974   1.545   2.158   4.556 -0.6583  0.2545  0.3134
  104MYC   H11519975   1.601   2.251   4.573 -0.2628 -0.0466  0.7181
  104MYC   H11619976   1.441   2.181   4.534 -0.4030  2.6736  1.2912
  104MYC    C7119977   1.614   2.077   4.442  0.1534  0.1341 -0.3222
  104MYC   H11719978   1.569   1.977   4.447  0.7406 -0.1001  0.6745
  104MYC   H11819979   1.719   2.062   4.470 -0.3976 -0.6580  1.4292
  104MYC    C7019980   1.585   2.126   4.296  0.6228 -0.8270  0.0689
  104MYC   H11919981   1.638   2.220   4.276 -0.9683  0.3088  0.9047
  104MYC   H12019982   1.480   2.157   4.299  0.2270 -2.1819  1.9044
  104MYC    C6919983   1.636   2.017   4.187  0.2768  0.1111 -1.1551
  104MYC   H12119984   1.580   1.925   4.206 -0.3375  0.6382 -0.3311
  104MYC   H12219985   1.743   1.995   4.200  0.6491  2.6989  1.6407
  104MYC    C6819986   1.618   2.072   4.044  0.1409  0.0434  0.8558
  104MYC   HH1219987   1.700   2.139   4.016  2.8993 -3.5946 -0.6063
  104MYC   H12319988   1.522   2.125   4.042  0.4086  0.5247  0.6990
  104MYC    C6719989   1.632   1.970   3.926 -0.7712 -0.0437 -0.7307
  104MYC   H12419990   1.559   1.890   3.942 -0.3848 -0.3764 -0.6084
  104MYC   H12519991   1.735   1.934   3.925 -0.3254  0.9924  1.8541
  104MYC    C6619992   1.604   2.043   3.791  1.1104  0.5363  0.6381
  104MYC   H12619993   1.658   2.139   3.788 -1.2664  1.9959  1.7012
  104MYC   H12719994   1.500   2.073   3.777  0.5971 -2.3120 -3.0701
  104MYC    C6519995   1.638   1.949   3.666  0.0665 -0.2687 -0.1671
  104MYC   H12819996   1.579   1.857   3.660  1.4914 -1.1078 -2.7810
  104MYC   H12919997   1.735   1.902   3.683 -0.3433 -0.7895  0.8574
  104MYC    C6419998   1.634   2.032   3.536 -0.0360  0.0406  0.1211
  104MYC   H13019999   1.686   2.128   3.536 -1.2033  0.7067 -0.8925
  104MYC   H13120000   1.531   2.068   3.536 -0.3927 -0.9143  0.8701
  104MYC    C6320001   1.663   1.946   3.407 -0.0005  0.4591 -0.2223
  104MYC   HH1120002   1.590   1.866   3.391  2.1264 -1.7116  0.3385
  104MYC   H13220003   1.762   1.902   3.425 -1.2402 -1.4924  2.7538
  104MYC    C6220004   1.656   2.034   3.282 -0.3433  0.6369 -0.3803
  104MYC   H13320005   1.740   2.104   3.293 -0.5246  0.8801 -0.5135
  104MYC   H13420006   1.565   2.095   3.276 -0.5597  0.3979  0.3935
  104MYC    C6120007   1.694   1.971   3.152 -0.2272  0.9884  0.5214
  104MYC   H13520008   1.606   1.916   3.116 -0.3119  0.3058  1.6997
  104MYC   H13620009   1.779   1.908   3.181 -1.3634 -1.8552 -1.7652
  104MYC    C6020010   1.745   2.073   3.058  0.0731  0.1719  0.0542
  104MYC   H13720011   1.832   2.128   3.094  0.3003  0.3049 -0.6958
  104MYC    C5820012   1.764   2.038   2.911  0.2473 -0.5192  1.5539
  104MYC   H13820013   1.742   1.935   2.882  1.4464  0.1503 -2.1707
  104MYC    C5920014   1.663   2.144   2.956  0.0302  0.3970  0.0216
  104MYC   H13920015   1.692   2.248   2.942  2.2615  0.1321  2.1301
  104MYC   H14020016   1.557   2.120   2.960  0.1237  0.1307  1.2507
  104MYC    C5720017   1.902   2.071   2.848 -0.3159 -0.5428 -0.3083
  104MYC   HH1020018   1.976   2.002   2.890 -0.1331 -0.6715 -0.8328
  104MYC   H14120019   1.941   2.169   2.877 -2.9470  0.9134 -1.2648
  104MYC    C5620020   1.901   2.073   2.690  0.6275 -0.2361  0.2238
  104MYC   H14220021   1.861   1.978   2.652  1.2363 -0.5916  0.4704
  104MYC   H14320022   2.003   2.076   2.652  0.9576  1.3119  1.1607
  104MYC    C5520023   1.836   2.189   2.624 -0.0080 -0.4430 -0.2796
  104MYC   H14420024   1.890   2.271   2.672 -0.4454 -0.7369  0.7427
  104MYC   H14520025   1.731   2.207   2.652  0.3011 -1.0056  1.3503
  104MYC    C5420026   1.838   2.209   2.475 -0.1373 -0.1556  0.3912
  104MYC   H14620027   1.929   2.263   2.446  0.5572 -0.5738  1.7455
  104MYC   H14720028   1.767   2.290   2.450  1.3314  0.4639 -2.1134
  104MYC    C5320029   1.800   2.089   2.392  0.0966  0.3200  0.6623
  104MYC   H14820030   1.726   2.032   2.449 -0.7230  2.3948  1.7487
  104MYC   H14920031   1.891   2.027   2.388  0.0593  0.3151 -0.3847
  104MYC    C5220032   1.742   2.130   2.249  0.1979 -0.4500 -0.5190
  104MYC    H9920033   1.666   2.207   2.265 -0.2707 -1.1070  0.5485
  104MYC   H15020034   1.690   2.037   2.224 -2.8611  0.7631  0.7975
  104MYC    C5120035   1.851   2.183   2.140  0.0429 -0.0959 -0.1252
  104MYC    H9720036   1.938   2.117   2.147 -0.1557 -0.2490  1.0781
  104MYC    H9820037   1.887   2.278   2.182 -0.9685 -0.1278  0.8275
  104MYC    C5020038   1.803   2.190   1.987  0.2023  0.3818  0.2140
  104MYC    H9520039   1.698   2.221   1.979 -0.6510 -1.9096  1.5930
  104MYC    H9620040   1.804   2.084   1.958 -2.4257  0.4971 -0.5047
  104MYC    C4920041   1.886   2.275   1.899  0.0664  0.4917 -0.1364
  104MYC    H9320042   1.882   2.238   1.796  3.4070 -0.2437 -0.1109
  104MYC    H9420043   1.991   2.271   1.929  0.1858  1.6188 -0.3605
  104MYC    C4820044   1.849   2.427   1.907 -0.0704 -0.2761  0.3960
  104MYC    H9120045   1.901   2.462   1.997  4.9084  0.8283 -2.5598
  104MYC    H9220046   1.740   2.440   1.909 -0.2461 -0.8853 -2.2622
  104MYC    C4720047   1.908   2.507   1.788 -0.2639 -0.1804  0.0436
  104MYC    H8920048   1.872   2.462   1.694 -0.4829 -1.2024  0.5943
  104MYC    H9020049   2.013   2.475   1.791 -0.7040 -1.6255  0.8512
  104MYC    C4620050   1.896   2.665   1.786 -0.2781  0.4590 -0.7105
  104MYC    H8720051   1.964   2.710   1.713  1.1601 -2.2172 -1.1581
  104MYC    H8820052   1.940   2.689   1.883  0.0715 -0.2719 -0.6787
  104MYC    C4520053   1.753   2.717   1.769 -0.1606 -0.0812  0.1612
  104MYC    H8520054   1.683   2.692   1.850 -1.2843  1.8802 -0.1381
  104MYC    H8620055   1.731   2.688   1.666 -0.7153 -0.9270  0.5055
  104MYC    C4420056   1.750   2.869   1.770  0.1221 -0.6538 -0.0440
  104MYC    H8320057   1.810   2.915   1.691  3.3216  2.0881  3.5782
  104MYC    H8420058   1.799   2.916   1.856 -0.2449  1.3911 -0.8991
  104MYC    C1820059   1.607   2.923   1.762 -0.4175  0.2427  0.4664
  104MYC    H3120060   1.561   2.909   1.664 -0.3277  0.5419  0.3815
  104MYC    C1720061   1.520   2.905   1.892  0.2031  0.4854  0.5914
  104MYC    H3020062   1.574   2.869   1.979 -2.6197  0.0143  2.2614
  104MYC    C1920063   1.565   3.039   1.845  0.6279 -0.3874 -0.1882
  104MYC    H3220064   1.641   3.104   1.888 -0.6233  0.7344  0.4404
  104MYC    H3320065   1.496   3.105   1.794  1.2116 -0.8965 -1.6786
  104MYC    C1620066   1.376   2.873   1.879 -0.1499  0.0934 -0.5059
  104MYC    H2820067   1.344   2.895   1.776 -1.8230 -1.7894 -0.4526
  104MYC    H2920068   1.325   2.941   1.947  0.1437  0.4494 -0.6353
  104MYC    C1520069   1.326   2.730   1.911 -0.1749  0.7026  0.3452
  104MYC    H2620070   1.216   2.728   1.917 -0.4203  0.0204 -2.7965
  104MYC    H2720071   1.356   2.693   2.010  3.1206  1.2285 -0.3590
  104MYC    C1420072   1.376   2.618   1.810 -0.4671 -0.4482  0.5330
  104MYC    H2420073   1.485   2.617   1.817 -0.5520 -0.2527  4.0097
  104MYC    H2520074   1.355   2.644   1.706  1.1613 -3.9499 -0.7886
  104MYC    C1320075   1.312   2.477   1.843 -0.5543 -0.1018 -0.1089
  104MYC    H2220076   1.346   2.410   1.763  1.3805  0.0734  0.5086
  104MYC    H2320077   1.203   2.468   1.837 -0.5676  0.0311 -0.0761
  104MYC    C1220078   1.359   2.411   1.970  0.2972 -0.0130  0.2474
  104MYC    H2020079   1.337   2.461   2.064  2.7880  0.7480  0.5106
  104MYC    H2120080   1.468   2.418   1.955  0.1753  1.7036 -0.0273
  104MYC    C1120081   1.324   2.262   1.978 -0.0093  0.1147 -0.3359
  104MYC    H1820082   1.341   2.211   1.883 -0.9835  1.2290 -1.1324
  104MYC    H1920083   1.215   2.263   1.991 -0.2606  1.4093 -2.1303
  104MYC    C1020084   1.388   2.198   2.100 -0.0635  0.0786  0.4304
  104MYC    H1620085   1.345   2.237   2.193 -1.5878 -0.5149  0.0119
  104MYC    H1720086   1.495   2.219   2.108  0.1484 -1.0478  0.8480
  104MYC     C920087   1.385   2.040   2.115 -0.2168 -0.3598  0.1102
  104MYC    H1420088   1.278   2.016   2.112 -0.2019 -0.9306  2.3383
  104MYC    H1520089   1.431   2.013   2.211  0.2128  2.0265  0.6629
  104MYC     C820090   1.451   1.952   2.000 -1.0563 -0.3165  0.2547
  104MYC    H1220091   1.558   1.976   1.992 -0.9062 -0.0911  2.3263
  104MYC    H1320092   1.403   1.979   1.905  2.2053  1.5714 -1.0512
  104MYC     C720093   1.440   1.795   2.037 -0.0332 -0.6424 -0.0192
  104MYC    H1020094   1.468   1.739   1.947 -1.9890  0.9767 -1.7632
  104MYC    H1120095   1.332   1.779   2.051  0.4148 -3.1146  1.0172
  104MYC     C620096   1.516   1.746   2.155  0.4361  0.7537  0.7724
  104MYC     H820097   1.604   1.809   2.173 -0.3131  1.6415  1.4183
  104MYC     H920098   1.550   1.646   2.125 -1.8630 -0.9261  3.2628
  104MYC     C520099   1.440   1.728   2.288  0.2693  0.6419 -0.5457
  104MYC     H620100   1.372   1.642   2.286 -0.0341  0.7097  2.4968
  104MYC     H720101   1.373   1.813   2.304 -0.6029 -0.3337  1.4062
  104MYC     C420102   1.543   1.703   2.405  1.1101 -0.5197  0.3618
  104MYC     H420103   1.613   1.787   2.400 -1.4868  1.7582 -0.4590
  104MYC     H520104   1.590   1.606   2.385 -1.0656 -1.5833  0.0717
  104MYC     C220105   1.462   1.690   2.545  0.2083 -0.1385 -0.0366
  104MYC     H220106   1.380   1.619   2.531  1.2847 -1.4901  0.1593
  104MYC     O320107   1.557   1.641   2.648 -0.1986 -0.3894  0.3476
  104MYC     H320108   1.527   1.683   2.730 -1.3984 -0.5375  0.0081
  104MYC     C120109   1.390   1.816   2.597  0.1801  0.1114 -0.1601
  104MYC     H120110   1.311   1.853   2.531 -1.2638 -0.5540  1.1229
  104MYC    C8120111   1.485   1.942   2.600  0.9457 -0.0383 -0.8507
  104MYC    O8220112   1.578   1.944   2.677 -0.1235  0.6229  0.8181
  104MYC    O8320113   1.479   2.032   2.502 -0.1192  0.1585  0.2290
  104MYC   H10520114   1.548   2.099   2.517 -1.4414  1.3143  1.4695
  104MYC    C2020115   1.319   1.799   2.738 -0.1840  0.4738 -0.8163
  104MYC    H3420116   1.254   1.711   2.750  0.5503  0.0764  0.3542
  104MYC    H3520117   1.397   1.776   2.811 -0.0618 -0.1023 -1.1225
  104MYC    C2120118   1.241   1.927   2.772 -0.0042  0.4059 -0.0594
  104MYC    H3620119   1.314   2.008   2.782  0.0540  0.3510 -0.0407
  104MYC    H3720120   1.172   1.953   2.691 -0.9181 -1.1432  0.1780
  104MYC    C2220121   1.154   1.934   2.902 -1.3341  0.0256 -0.0152
  104MYC    H3820122   1.077   2.012   2.905  0.1343  1.6728 -1.9071
  104MYC    H3920123   1.094   1.843   2.904 -0.1363 -0.7863  1.9980
  104MYC    C2320124   1.246   1.936   3.024 -0.5886 -0.1818 -0.5051
  104MYC    H4020125   1.330   1.866   3.012  0.5517  0.6113  2.0832
  104MYC    H4120126   1.305   2.027   3.032  1.5436 -1.5425 -0.0465
  104MYC    C2420127   1.170   1.907   3.158  0.2058  0.5094  0.0730
  104MYC    H4220128   1.077   1.964   3.159  0.7115  1.4283 -1.5341
  104MYC    H4320129   1.135   1.803   3.165  1.7105  0.0480  1.4841
  104MYC    C2520130   1.250   1.940   3.287 -0.2367  0.5427  0.3375
  104MYC    H4420131   1.347   1.890   3.280 -0.8560 -0.6989  0.3246
  104MYC    H4520132   1.264   2.048   3.295 -1.0608  0.6028  1.2438
  104MYC    C2620133   1.195   1.880   3.421 -0.1610 -0.3204 -0.2138
  104MYC    H4620134   1.090   1.913   3.419  0.3220  1.4712  1.0997
  104MYC    H4720135   1.200   1.771   3.414  0.9752 -0.3346  0.5764
  104MYC    C2720136   1.260   1.927   3.555 -0.5585  0.1412 -0.3872
  104MYC    H4820137   1.360   1.885   3.568 -0.2660  0.9644  0.0281
  104MYC    H4920138   1.259   2.036   3.549  3.4646  0.2778 -1.3605
  104MYC    C2820139   1.171   1.879   3.671 -0.4873  0.1489 -0.2735
  104MYC    H5020140   1.078   1.937   3.676  0.8012  2.3486 -0.5657
  104MYC    H5120141   1.142   1.774   3.657  1.0799 -0.6474  1.9742
  104MYC    C2920142   1.246   1.895   3.806 -0.5655 -0.0081  0.1961
  104MYC    H5220143   1.343   1.844   3.806 -0.6148 -0.1257  1.1166
  104MYC    H5320144   1.278   1.999   3.816  1.3387 -0.5875  0.5742
  104MYC    C3020145   1.154   1.860   3.922 -0.5160 -0.6396  0.2453
  104MYC    H5420146   1.066   1.926   3.916 -0.0494  0.0010  0.3485
  104MYC    H5520147   1.117   1.761   3.896 -2.7069 -0.5089  2.5104
  104MYC    C3120148   1.238   1.864   4.056 -0.1414  0.2099  0.1157
  104MYC    H5620149   1.330   1.806   4.051 -0.0432  0.3097  0.6514
  104MYC    H5720150   1.281   1.965   4.056  0.8959 -0.2163 -1.0155
  104MYC    C3220151   1.150   1.824   4.176 -0.4886 -0.1725  0.7865
  104MYC    H5820152   1.044   1.854   4.172 -0.3265  0.3480  0.2601
  104MYC    H5920153   1.147   1.714   4.176 -1.4129 -0.1558  0.4887
  104MYC    C3320154   1.211   1.871   4.311  0.4302  0.0817  0.1832
  104MYC    H6020155   1.315   1.838   4.325 -0.2558 -1.5348  1.9335
  104MYC    H6120156   1.206   1.980   4.320 -0.0754  0.5219 -3.8831
  104MYC    C3420157   1.121   1.810   4.424 -0.5943  0.5442 -0.0566
  104MYC    H6220158   1.019   1.852   4.426 -0.1780  1.5742  0.4745
  104MYC    H6320159   1.117   1.703   4.405 -1.0566  0.8135 -1.6400
  104MYC    C3520160   1.163   1.844   4.570  0.0734  0.1724 -0.3548
  104MYC    H6420161   1.253   1.788   4.598 -0.5370 -0.8910 -0.4585
  104MYC    H6520162   1.184   1.951   4.578 -2.3640  0.6522  0.4947
  104MYC    C3620163   1.061   1.821   4.687  0.5964  0.1764  0.7609
  104MYC    H6620164   0.976   1.888   4.669  1.0434  0.5577  0.0157
  104MYC    H6720165   1.024   1.719   4.671 -0.0975  0.8740 -3.1549
  104MYC    C3720166   1.122   1.849   4.822 -0.5833  0.1196 -0.4481
  104MYC    H6820167   1.219   1.801   4.842 -1.3743 -0.5853  2.0778
  104MYC    H6920168   1.143   1.955   4.837  1.8156 -0.2361 -0.7831
  104MYC    C3820169   1.028   1.829   4.944 -0.5708  0.5906  0.7444
  104MYC    H7020170   0.947   1.902   4.937 -0.7365  0.2690 -1.5550
  104MYC    H7120171   1.000   1.725   4.928  0.2204  0.4972 -0.1348
  104MYC    C3920172   1.090   1.851   5.083 -0.0880  0.3424 -1.0013
  104MYC    H7220173   1.193   1.817   5.096  0.9538  2.9629 -1.6432
  104MYC    H7320174   1.099   1.959   5.102 -0.5109  0.5009 -1.6633
  104MYC    C4020175   1.005   1.792   5.198 -0.4935  0.2999  0.2783
  104MYC    H7420176   0.899   1.818   5.188 -0.7652 -0.7664  0.2588
  104MYC    H7520177   1.015   1.683   5.188 -0.6778  0.3961 -1.3224
  104MYC    C4120178   1.064   1.836   5.331 -0.1049 -0.4669  0.2546
  104MYC    H7620179   1.166   1.800   5.350  2.4013  5.2433 -0.4155
  104MYC    H7720180   1.080   1.944   5.320  1.1459 -0.5653  0.8705
  104MYC    C4220181   0.970   1.803   5.449  0.4062 -0.0332 -0.5017
  104MYC    H7820182   0.865   1.828   5.436  0.4916  0.0540 -1.0338
  104MYC    H7920183   0.956   1.694   5.457  1.9849 -0.3613 -1.6414
  104MYC    C4320184   1.025   1.850   5.583 -0.0756  0.0659 -0.0979
  104MYC    H8020185   0.960   1.824   5.668 -0.8248 -1.6226 -1.1377
  104MYC    H8120186   1.034   1.959   5.570 -1.4886  0.1121 -0.9131
  104MYC    H8220187   1.126   1.808   5.590 -0.0168  0.4058  2.1232
  105MYC   HH1520188   6.409   2.487   4.418 -3.1575 -2.5446  2.0555
  105MYC    C8020189   6.451   2.526   4.512 -0.1022 -0.0376 -0.1423
  105MYC   H10020190   6.545   2.472   4.525 -0.6030 -0.9642 -0.2682
  105MYC   H10120191   6.479   2.631   4.497 -2.0098  0.5819  0.3194
  105MYC    C7920192   6.348   2.518   4.634 -0.0433  0.5013 -0.0100
  105MYC   H10220193   6.332   2.415   4.668 -1.5924  1.1600  1.4381
  105MYC   H10320194   6.250   2.551   4.597 -0.1021 -0.4516 -0.7321
  105MYC    C7820195   6.379   2.604   4.754  0.3046 -0.3032  0.2308
  105MYC   HH1420196   6.290   2.605   4.819 -0.3733  0.4994 -0.6916
  105MYC   H10420197   6.371   2.705   4.713 -2.1691 -0.6640 -0.3561
  105MYC    C7720198   6.499   2.559   4.840 -0.1544 -0.7255  1.2837
  105MYC   H10620199   6.574   2.518   4.772  0.0511 -0.3192  1.2602
  105MYC   H10720200   6.467   2.479   4.909 -0.2164 -1.6740  0.1823
  105MYC    C7620201   6.559   2.674   4.928  0.1045  0.0038  0.0028
  105MYC   H10820202   6.635   2.621   4.987 -0.8637 -0.8761  0.4771
  105MYC   H10920203   6.480   2.711   4.994 -0.5276 -0.7718 -0.3168
  105MYC    C7520204   6.612   2.793   4.854 -0.5088 -0.7217 -0.1592
  105MYC   H11020205   6.657   2.860   4.929 -0.7212 -1.7620  0.9180
  105MYC   H11120206   6.530   2.847   4.804 -1.7170 -0.3989  2.0685
  105MYC    C7420207   6.709   2.761   4.740  0.2452  0.2006  0.0037
  105MYC   H11220208   6.654   2.704   4.664  1.9608  1.5691 -2.4230
  105MYC   H11320209   6.776   2.681   4.774 -1.1100 -1.0365 -0.1160
  105MYC    C7320210   6.789   2.881   4.679 -0.5838  0.2571  0.5093
  105MYC   HH1320211   6.840   2.939   4.756  1.0051  0.3812 -0.6025
  105MYC   H11420212   6.717   2.941   4.622  0.4506 -0.1825 -1.3508
  105MYC    C7220213   6.900   2.832   4.586 -0.1616  0.0724  0.3412
  105MYC   H11520214   6.859   2.777   4.501  0.4547  2.0584 -1.3120
  105MYC   H11620215   6.963   2.760   4.641 -0.4012 -1.4207 -1.2558
  105MYC    C7120216   6.985   2.950   4.523 -0.1154  0.4259  0.0599
  105MYC   H11720217   7.015   3.017   4.605 -1.9149  0.9780  0.3229
  105MYC   H11820218   6.907   2.997   4.461 -0.6001 -2.7852 -1.9705
  105MYC    C7020219   7.105   2.917   4.447  0.0176  0.5391 -0.3604
  105MYC   H11920220   7.076   2.830   4.386 -1.5051  0.0839  0.9250
  105MYC   H12020221   7.173   2.880   4.525 -2.5083 -2.3883  0.6882
  105MYC    C6920222   7.164   3.029   4.359  1.0216 -0.4533  0.5506
  105MYC   H12120223   7.176   3.119   4.420  0.0506 -0.4393  0.7420
  105MYC   H12220224   7.096   3.058   4.278  3.5729  2.6242 -0.6631
  105MYC    C6820225   7.294   3.013   4.291 -0.1840  0.4600  0.6144
  105MYC   HH1220226   7.279   2.917   4.240  0.5427  0.9188 -0.5254
  105MYC   H12320227   7.371   3.001   4.368 -0.3424  0.2137  0.7336
  105MYC    C6720228   7.329   3.116   4.178  0.0037  0.0429  0.3823
  105MYC   H12420229   7.330   3.221   4.211  1.3966 -0.2628  1.3837
  105MYC   H12520230   7.254   3.112   4.098 -1.7758  3.6528  1.6570
  105MYC    C6620231   7.472   3.084   4.131  0.0380  0.1212 -0.1184
  105MYC   H12620232   7.485   2.977   4.112  0.5993  0.2731 -0.6334
  105MYC   H12720233   7.546   3.102   4.209  3.4667 -1.1829 -2.8299
  105MYC    C6520234   7.513   3.164   4.009 -0.8185 -0.4128  0.6666
  105MYC   H12820235   7.491   3.270   4.025  0.8319 -0.1671  1.4747
  105MYC   H12920236   7.440   3.143   3.930 -0.5937  0.4873  0.2063
  105MYC    C6420237   7.665   3.157   3.958 -0.3588  0.3323 -0.0794
  105MYC   H13020238   7.718   3.061   3.954  2.2342  1.6600  0.3078
  105MYC   H13120239   7.721   3.221   4.027  0.8791  0.3303 -1.0486
  105MYC    C6320240   7.672   3.220   3.816  0.1263  0.1602  0.4201
  105MYC   HH1120241   7.629   3.321   3.819 -1.5170 -0.5075  2.8383
  105MYC   H13220242   7.601   3.163   3.754  0.0791  0.9514 -0.2679
  105MYC    C6220243   7.807   3.203   3.745 -0.4968 -0.4527 -1.1680
  105MYC   H13320244   7.841   3.098   3.746  1.9200  0.2868  0.0033
  105MYC   H13420245   7.884   3.267   3.788 -3.8622  2.9453  0.4003
  105MYC    C6120246   7.796   3.254   3.605 -0.1725  0.0462  0.0616
  105MYC   H13520247   7.771   3.360   3.607 -2.1886 -0.3929  0.2463
  105MYC   H13620248   7.713   3.209   3.548  1.6030 -1.7362 -1.2927
  105MYC    C6020249   7.921   3.243   3.511 -0.3382  0.0449 -0.4421
  105MYC   H13720250   7.910   3.287   3.412  0.0198  0.5484 -0.2651
  105MYC    C5820251   8.059   3.265   3.565 -0.3497 -0.4864 -0.3276
  105MYC   H13820252   8.073   3.287   3.670 -0.7162  2.2700 -0.7688
  105MYC    C5920253   8.026   3.133   3.518 -0.2527  0.3043  0.8459
  105MYC   H13920254   8.076   3.099   3.427 -0.3888  2.3968 -0.0813
  105MYC   H14020255   8.008   3.055   3.591  1.6889 -0.4911  0.5226
  105MYC    C5720256   8.152   3.351   3.473  0.5399 -0.6305  0.0234
  105MYC   HH1020257   8.124   3.457   3.480  0.1085 -0.7636  0.3290
  105MYC   H14120258   8.127   3.323   3.370  0.0341 -0.0499 -0.0199
  105MYC    C5620259   8.301   3.335   3.497 -0.7317 -0.8497  1.0767
  105MYC   H14220260   8.319   3.228   3.510  1.0238 -1.0110 -1.7128
  105MYC   H14320261   8.325   3.383   3.592 -2.1875  0.2268  0.9263
  105MYC    C5520262   8.405   3.391   3.388  0.6948 -0.0657  0.1668
  105MYC   H14420263   8.503   3.400   3.435  2.1673 -0.8437 -2.5094
  105MYC   H14520264   8.375   3.494   3.363 -2.9116 -0.9968  0.1883
  105MYC    C5420265   8.420   3.297   3.267 -0.0558  0.1293 -0.3393
  105MYC   H14620266   8.323   3.259   3.232 -0.9188 -0.3467  2.3578
  105MYC   H14720267   8.472   3.204   3.291  1.0556  0.7927 -0.0991
  105MYC    C5320268   8.498   3.362   3.159  0.2742 -0.7027 -0.6181
  105MYC   H14820269   8.601   3.383   3.188 -0.3502  2.1833 -0.1762
  105MYC   H14920270   8.446   3.456   3.137  3.1647  1.1295 -0.1333
  105MYC    C5220271   8.488   3.285   3.020  0.0080 -0.0899 -0.5579
  105MYC    H9920272   8.386   3.293   2.981 -0.0731  1.5333 -0.0761
  105MYC   H15020273   8.520   3.181   3.040  0.0951 -0.1226 -0.8676
  105MYC    C5120274   8.589   3.342   2.919  0.0579  0.3045  0.4486
  105MYC    H9720275   8.688   3.297   2.929  0.1874  0.0775 -1.5583
  105MYC    H9820276   8.591   3.451   2.932 -0.2731  0.6638 -2.0644
  105MYC    C5020277   8.557   3.311   2.766  1.1263 -0.4224 -0.4382
  105MYC    H9520278   8.466   3.369   2.743  1.0258  0.7704  2.4925
  105MYC    H9620279   8.535   3.206   2.748  1.8350 -0.3941 -1.5641
  105MYC    C4920280   8.673   3.359   2.675  1.1481  0.0786 -0.1374
  105MYC    H9320281   8.760   3.294   2.690  1.2886  0.5063  0.9714
  105MYC    H9420282   8.703   3.461   2.698  0.3888  0.0251  1.1620
  105MYC    C4820283   8.622   3.353   2.526  0.1695  0.9095 -0.4184
  105MYC    H9120284   8.560   3.441   2.503 -2.4432 -1.0536 -1.4140
  105MYC    H9220285   8.560   3.263   2.518  2.0307 -0.7635  2.3909
  105MYC    C4720286   8.732   3.348   2.422  0.3032 -0.6221 -0.1043
  105MYC    H8920287   8.787   3.254   2.438  0.4913 -0.1984  2.0161
  105MYC    H9020288   8.793   3.438   2.433 -1.0445  0.5475 -1.6922
  105MYC    C4620289   8.671   3.353   2.276 -0.5535  0.5232 -0.0580
  105MYC    H8720290   8.605   3.440   2.274 -1.2770  0.0377  1.4455
  105MYC    H8820291   8.612   3.267   2.242 -1.2042  0.6773  0.6679
  105MYC    C4520292   8.781   3.386   2.172 -0.0403  0.7042  0.3769
  105MYC    H8520293   8.843   3.296   2.160 -1.9077 -0.5348 -0.5515
  105MYC    H8620294   8.844   3.467   2.211  1.0758  1.0075 -1.8833
  105MYC    C4420295   8.721   3.435   2.031  0.2081  0.2915 -1.2931
  105MYC    H8320296   8.792   3.515   2.007 -0.4268  1.2926  0.0195
  105MYC    H8420297   8.617   3.470   2.038 -0.0310 -0.5881 -0.2446
  105MYC    C1820298   8.737   3.333   1.915 -0.4422 -0.3759 -0.7374
  105MYC    H3120299   8.815   3.261   1.934  0.5273  1.2569  2.1490
  105MYC    C1720300   8.621   3.295   1.825  0.0169  0.0530  0.2335
  105MYC    H3020301   8.528   3.349   1.837  0.8551  1.4339  0.7902
  105MYC    C1920302   8.725   3.374   1.770 -0.0208 -0.1337  0.0918
  105MYC    H3220303   8.689   3.476   1.757  0.1620  0.2783  2.3821
  105MYC    H3320304   8.801   3.335   1.702 -0.8953  0.3102 -1.1687
  105MYC    C1620305   8.603   3.146   1.787 -0.4570  0.0384  0.1445
  105MYC    H2820306   8.703   3.102   1.784 -0.3586  0.3136 -1.7958
  105MYC    H2920307   8.559   3.128   1.689  3.0355  1.3483 -1.8621
  105MYC    C1520308   8.517   3.066   1.899 -0.3240 -0.1626  0.4034
  105MYC    H2620309   8.505   2.970   1.848 -1.4610  1.2061 -2.1207
  105MYC    H2720310   8.416   3.108   1.910  0.3444  1.6214  0.1326
  105MYC    C1420311   8.585   3.048   2.040 -0.2294 -0.4800 -0.4194
  105MYC    H2420312   8.597   3.152   2.074  0.6439 -0.2909 -1.2682
  105MYC    H2520313   8.689   3.022   2.018  0.0185  0.4980 -0.4271
  105MYC    C1320314   8.526   2.939   2.136 -0.3186 -0.5542  0.2809
  105MYC    H2220315   8.600   2.937   2.217 -0.6019 -0.6163  0.5403
  105MYC    H2320316   8.534   2.845   2.081 -1.9408  0.5967 -2.0997
  105MYC    C1220317   8.386   2.971   2.192  0.4362 -0.0980 -0.3468
  105MYC    H2020318   8.305   2.954   2.120  0.2087 -1.3770  0.1821
  105MYC    H2120319   8.394   3.078   2.213  3.6079 -0.5157  1.1980
  105MYC    C1120320   8.350   2.905   2.326  0.0631  0.8598  0.6158
  105MYC    H1820321   8.248   2.934   2.354  0.0803  1.6145 -0.0660
  105MYC    H1920322   8.427   2.937   2.397  0.0499  0.7224  0.6925
  105MYC    C1020323   8.356   2.749   2.318  0.6537  0.0438  0.0574
  105MYC    H1620324   8.334   2.701   2.414 -1.8916 -0.5133 -0.7222
  105MYC    H1720325   8.461   2.724   2.297  0.3882 -2.3754  1.2739
  105MYC     C920326   8.280   2.686   2.201  0.5809  0.1702  1.0459
  105MYC    H1420327   8.309   2.581   2.184  2.9522  1.0374 -0.9180
  105MYC    H1520328   8.324   2.725   2.109 -0.8288 -0.5066  0.0333
  105MYC     C820329   8.125   2.693   2.197  0.1903 -0.8993 -0.0470
  105MYC    H1220330   8.090   2.641   2.107  0.5889 -1.1035 -0.0857
  105MYC    H1320331   8.086   2.796   2.194 -0.7533 -1.2546 -0.4525
  105MYC     C720332   8.056   2.638   2.322 -0.6823  0.2965  0.5331
  105MYC    H1020333   8.098   2.690   2.409  0.6578 -2.6223  1.7796
  105MYC    H1120334   8.091   2.535   2.334  0.9891  0.8729  0.8601
  105MYC     C620335   7.907   2.644   2.324  0.4360 -0.1212  0.2704
  105MYC     H820336   7.868   2.604   2.229 -1.0166  2.1218 -0.1340
  105MYC     H920337   7.867   2.746   2.321 -1.0096 -0.6683 -0.4835
  105MYC     C520338   7.833   2.557   2.432 -0.4188  0.4121 -0.0233
  105MYC     H620339   7.879   2.458   2.434  1.4239  1.1974 -0.8568
  105MYC     H720340   7.727   2.542   2.410 -0.2351 -0.0032 -0.6485
  105MYC     C420341   7.835   2.623   2.575 -0.0013 -0.3926  0.5908
  105MYC     H420342   7.779   2.718   2.579  0.9157  0.2040 -0.2956
  105MYC     H520343   7.939   2.654   2.596  0.9606 -2.1407 -1.3437
  105MYC     C220344   7.766   2.533   2.689 -0.6609 -1.0359 -0.0320
  105MYC     H220345   7.659   2.556   2.688 -0.0210  2.5292  0.8334
  105MYC     O320346   7.809   2.398   2.674  0.8468 -0.4477 -0.0873
  105MYC     H320347   7.905   2.395   2.663  0.6605  1.3121 -2.8809
  105MYC     C120348   7.811   2.589   2.830 -0.0357 -0.0227  0.3545
  105MYC     H120349   7.787   2.696   2.837 -1.7072 -0.1678 -2.0009
  105MYC    C8120350   7.965   2.570   2.853  0.1217  0.2752 -0.3927
  105MYC    O8220351   8.031   2.471   2.829  0.4291  0.2248 -0.3541
  105MYC    O8320352   8.019   2.688   2.868 -0.3282 -0.2369  0.2195
  105MYC   H10520353   8.114   2.674   2.883 -0.6662  0.1485  3.8008
  105MYC    C2020354   7.718   2.528   2.940  0.0182  0.4667  0.1361
  105MYC    H3420355   7.622   2.581   2.935  0.7617  2.1534  2.2869
  105MYC    H3520356   7.698   2.422   2.921  0.3073  0.3657  0.3886
  105MYC    C2120357   7.759   2.539   3.080 -0.2481  0.7596  0.3745
  105MYC    H3620358   7.846   2.474   3.091 -1.8726 -1.6666 -0.1220
  105MYC    H3720359   7.787   2.642   3.102 -0.8187  0.7687  1.0939
  105MYC    C2220360   7.654   2.486   3.186 -0.0035 -0.6307 -0.1786
  105MYC    H3820361   7.567   2.552   3.193 -2.4311 -3.7234  1.3105
  105MYC    H3920362   7.600   2.400   3.145 -1.2849  0.7485 -1.5348
  105MYC    C2320363   7.725   2.471   3.320  0.1920  0.4123  0.3277
  105MYC    H4020364   7.817   2.416   3.296 -0.2933  0.1206 -0.9380
  105MYC    H4120365   7.754   2.568   3.363  0.1266  0.6890 -0.2388
  105MYC    C2420366   7.642   2.400   3.427  0.3161 -0.0222 -0.2211
  105MYC    H4220367   7.554   2.463   3.444 -0.5688 -1.0461 -0.8941
  105MYC    H4320368   7.612   2.303   3.387  0.8966 -0.0645 -0.5629
  105MYC    C2520369   7.705   2.390   3.568  0.5184 -0.8323  0.7733
  105MYC    H4420370   7.796   2.328   3.566  1.3072  0.3256  0.1564
  105MYC    H4520371   7.741   2.488   3.601  3.2463 -1.0123 -1.3012
  105MYC    C2620372   7.613   2.333   3.678  0.6028 -1.1546 -0.5414
  105MYC    H4620373   7.523   2.396   3.682  1.3025 -0.1411 -0.2218
  105MYC    H4720374   7.575   2.234   3.654 -0.6617 -0.3457 -2.0912
  105MYC    C2720375   7.677   2.330   3.823 -0.0593 -0.2367 -0.1321
  105MYC    H4820376   7.764   2.263   3.820  0.2150  0.1524 -0.9990
  105MYC    H4920377   7.705   2.432   3.851  0.6104 -0.1437 -1.0901
  105MYC    C2820378   7.592   2.256   3.930 -0.6721  0.1186 -0.0107
  105MYC    H5020379   7.485   2.275   3.927 -1.3643 -2.5967  2.5227
  105MYC    H5120380   7.596   2.148   3.910 -0.9074  0.4190 -1.7997
  105MYC    C2920381   7.663   2.268   4.076  0.5032  0.4404 -0.1849
  105MYC    H5220382   7.749   2.200   4.080  0.3212  0.2441  0.7167
  105MYC    H5320383   7.699   2.370   4.093  1.5173  0.1417 -0.4876
  105MYC    C3020384   7.568   2.230   4.186  0.0516 -0.2251 -0.0996
  105MYC    H5420385   7.473   2.276   4.159  1.2528  1.9029 -0.9424
  105MYC    H5520386   7.558   2.121   4.182 -0.3536 -0.1718 -0.5210
  105MYC    C3120387   7.602   2.272   4.332  0.2624 -0.2324  0.0417
  105MYC    H5620388   7.703   2.238   4.356 -0.0669 -1.4765 -0.2814
  105MYC    H5720389   7.599   2.382   4.338 -2.3183 -0.2403 -0.0874
  105MYC    C3220390   7.506   2.222   4.442 -0.1221  0.0322 -0.0434
  105MYC    H5820391   7.412   2.268   4.410 -0.2045 -0.4763 -0.5593
  105MYC    H5920392   7.500   2.112   4.437  1.3394 -0.0259 -1.4022
  105MYC    C3320393   7.552   2.268   4.585  0.9937  0.3135 -0.5064
  105MYC    H6020394   7.657   2.243   4.606  0.8753  0.4435  0.2657
  105MYC    H6120395   7.551   2.377   4.574 -2.5549  0.3907 -0.3383
  105MYC    C3420396   7.455   2.239   4.705  0.3489 -0.1935 -0.1008
  105MYC    H6220397   7.358   2.285   4.683  0.8957  1.6312  1.0688
  105MYC    H6320398   7.437   2.133   4.723  1.1724 -0.4259 -0.6213
  105MYC    C3520399   7.504   2.299   4.831 -0.3640 -0.1066 -0.4080
  105MYC    H6420400   7.599   2.246   4.842 -1.3904 -1.8803  0.1725
  105MYC    H6520401   7.534   2.405   4.825  1.3773 -0.5431  0.0642
  105MYC    C3620402   7.418   2.257   4.952 -0.6029 -0.4582 -0.2474
  105MYC    H6620403   7.325   2.314   4.950 -0.4747 -0.1776  1.0711
  105MYC    H6720404   7.385   2.152   4.956 -2.1232  0.0284  1.4584
  105MYC    C3720405   7.471   2.296   5.095  0.2952  0.0250  0.5956
  105MYC    H6820406   7.568   2.250   5.118 -0.3630 -0.7484  1.9193
  105MYC    H6920407   7.479   2.406   5.098  0.3225  0.0625 -0.6256
  105MYC    C3820408   7.375   2.241   5.206 -0.1513 -0.7742 -0.0386
  105MYC    H7020409   7.271   2.270   5.189  0.0577 -0.2786 -0.5246
  105MYC    H7120410   7.378   2.132   5.197  2.4557 -0.7399 -0.5490
  105MYC    C3920411   7.418   2.287   5.356 -0.0737 -0.2339  0.6007
  105MYC    H7220412   7.526   2.277   5.367 -0.0637 -0.2852  0.4524
  105MYC    H7320413   7.400   2.395   5.354 -1.2504 -0.4377 -0.7348
  105MYC    C4020414   7.340   2.229   5.473 -0.0109  0.2536 -0.4156
  105MYC    H7420415   7.231   2.236   5.470 -0.0440 -0.5068 -2.3888
  105MYC    H7520416   7.359   2.121   5.464 -1.6726 -0.2904  1.7215
  105MYC    C4120417   7.384   2.275   5.612  0.3615 -0.1936  0.2274
  105MYC    H7620418   7.489   2.248   5.626  1.0271  1.3661 -1.3405
  105MYC    H7720419   7.376   2.384   5.618  3.0160  0.0017  2.1055
  105MYC    C4220420   7.293   2.217   5.723  0.1350  0.3674  0.4509
  105MYC    H7820421   7.194   2.262   5.712  0.6871  1.2849 -1.3370
  105MYC    H7920422   7.290   2.108   5.711  3.3041  0.0204  1.7604
  105MYC    C4320423   7.335   2.253   5.868  0.1854 -0.8757  0.8759
  105MYC    H8020424   7.363   2.358   5.876  0.9544 -1.2059  3.4797
  105MYC    H8120425   7.426   2.201   5.901 -0.4986 -2.5676  0.2242
  105MYC    H8220426   7.249   2.230   5.932 -1.5755 -0.2499 -1.1420
  106MYC   HH1520427   0.259   2.839   5.505  0.3455  1.0482  0.6233
  106MYC    C8020428   0.355   2.834   5.453  0.1417 -0.1323  0.3204
  106MYC   H10020429   0.422   2.872   5.531  1.7389 -1.3217 -0.4252
  106MYC   H10120430   0.378   2.729   5.433 -1.4401 -0.6781  1.2135
  106MYC    C7920431   0.339   2.918   5.327 -0.2088 -0.3500  0.2558
  106MYC   H10220432   0.311   3.020   5.356 -1.8785 -0.7091  0.0066
  106MYC   H10320433   0.248   2.885   5.275  0.2602 -1.4977  0.1252
  106MYC    C7820434   0.466   2.922   5.236  0.0856 -0.3514 -0.0440
  106MYC   HH1420435   0.476   2.823   5.191  0.4225 -0.4540  0.2497
  106MYC   H10420436   0.555   2.949   5.295  0.0459 -1.0509  0.3424
  106MYC    C7720437   0.455   3.040   5.132  0.6187  0.4851  0.3072
  106MYC   H10620438   0.448   3.137   5.183  3.3865  1.9413 -1.7997
  106MYC   H10720439   0.366   3.030   5.068  0.9048  0.8520 -0.1595
  106MYC    C7620440   0.582   3.037   5.047 -0.2130  0.7475 -0.1786
  106MYC   H10820441   0.590   2.939   4.998 -0.1886  0.5155  0.2841
  106MYC   H10920442   0.667   3.030   5.116 -0.7470 -0.7984  0.3524
  106MYC    C7520443   0.609   3.151   4.949 -0.5979 -0.6021  0.4072
  106MYC   H11020444   0.625   3.246   5.002  0.8033 -1.2560  1.2303
  106MYC   H11120445   0.521   3.164   4.885 -0.5778 -0.0881  0.4731
  106MYC    C7420446   0.735   3.124   4.863 -0.3410  0.3010  0.2218
  106MYC   H11220447   0.742   3.027   4.812 -0.4161  0.6913 -0.5353
  106MYC   H11320448   0.821   3.113   4.930 -0.6441 -0.2285  0.5363
  106MYC    C7320449   0.771   3.240   4.768 -0.1746  0.0475 -0.5437
  106MYC   HH1320450   0.782   3.335   4.821  0.7830 -0.6351  0.5196
  106MYC   H11420451   0.678   3.242   4.710 -1.0347 -2.0401  0.6639
  106MYC    C7220452   0.899   3.215   4.680  0.5475 -0.5999 -0.1837
  106MYC   H11520453   0.904   3.111   4.647 -0.0466 -0.4739 -0.6889
  106MYC   H11620454   0.988   3.218   4.743 -0.3475  0.8267  1.1103
  106MYC    C7120455   0.923   3.317   4.571 -0.3031 -0.2184  0.2681
  106MYC   H11720456   0.932   3.413   4.623 -0.8544  0.6627 -1.1836
  106MYC   H11820457   0.842   3.323   4.497 -1.0822  0.0177  1.1146
  106MYC    C7020458   1.055   3.291   4.497  0.4681  0.0685 -0.5275
  106MYC   H11920459   1.060   3.191   4.453  2.7057  1.4744 -3.8610
  106MYC   H12020460   1.133   3.282   4.574 -0.0677 -0.6610 -0.0612
  106MYC    C6920461   1.091   3.390   4.380 -0.4831  0.1656 -0.4684
  106MYC   H12120462   1.089   3.489   4.426 -0.4170  0.4667 -1.0970
  106MYC   H12220463   1.019   3.389   4.298 -1.5454  0.5461  0.4475
  106MYC    C6820464   1.237   3.379   4.324 -0.2337  0.2098 -0.6961
  106MYC   HH1220465   1.242   3.280   4.276  1.2890  0.0118 -0.1914
  106MYC   H12320466   1.306   3.383   4.409 -0.7854  0.6309 -0.2572
  106MYC    C6720467   1.279   3.484   4.213  0.1679  0.0488 -0.5917
  106MYC   H12420468   1.261   3.586   4.250 -1.6628  1.2983 -4.4045
  106MYC   H12520469   1.204   3.470   4.134 -0.1400 -3.7589  0.1687
  106MYC    C6620470   1.421   3.458   4.159  0.4969 -0.1611 -0.2949
  106MYC   H12620471   1.432   3.353   4.128 -3.3772 -1.1890  1.1868
  106MYC   H12720472   1.500   3.482   4.231  1.1274  0.3259 -1.1348
  106MYC    C6520473   1.442   3.564   4.054  0.8118 -0.2854 -0.0662
  106MYC   H12820474   1.440   3.656   4.113 -1.5692 -0.4003  0.1174
  106MYC   H12920475   1.358   3.574   3.984  0.4796  1.9038  0.5737
  106MYC    C6420476   1.567   3.542   3.965  0.0777  0.2155  0.0844
  106MYC   H13020477   1.556   3.439   3.928 -0.4788 -0.2507  1.4876
  106MYC   H13120478   1.656   3.556   4.027 -1.6731  2.3390  2.2848
  106MYC    C6320479   1.581   3.653   3.857  0.7035 -0.0499 -0.0994
  106MYC   HH1120480   1.606   3.748   3.906  1.7696  0.6493 -1.8929
  106MYC   H13220481   1.489   3.664   3.798  0.9836 -1.1934 -0.7669
  106MYC    C6220482   1.704   3.629   3.765  0.1470  0.4814  0.2828
  106MYC   H13320483   1.696   3.527   3.726 -1.8308  0.6796  0.0423
  106MYC   H13420484   1.792   3.627   3.831 -1.1417 -0.1681  2.0673
  106MYC    C6120485   1.720   3.733   3.662 -0.0988 -0.3541  0.8304
  106MYC   H13520486   1.719   3.834   3.705  0.7779  0.0975 -0.1680
  106MYC   H13620487   1.642   3.724   3.585  0.6390 -0.4180  0.0807
  106MYC    C6020488   1.854   3.719   3.576 -0.3350  0.0112 -0.0131
  106MYC   H13720489   1.849   3.647   3.495 -0.4631 -0.3240  0.2906
  106MYC    C5820490   1.936   3.843   3.531 -0.8082  0.4058  0.0471
  106MYC   H13820491   1.880   3.935   3.541  1.4072  1.9034 -0.5847
  106MYC    C5920492   1.988   3.764   3.640  0.0836  0.4685  0.7812
  106MYC   H13920493   2.075   3.700   3.624  1.0939  1.5435  1.7211
  106MYC   H14020494   1.986   3.811   3.739 -1.6955  0.8749  0.5772
  106MYC    C5720495   2.016   3.843   3.402 -0.1659 -0.0729  0.3761
  106MYC   HH1020496   1.943   3.861   3.322 -1.2718 -2.8048  0.6750
  106MYC   H14120497   2.062   3.747   3.377 -1.1099 -0.0491 -1.6455
  106MYC    C5620498   2.135   3.942   3.405  0.1397  0.3817  0.6802
  106MYC   H14220499   2.189   3.953   3.500  0.5227  1.2205  0.3671
  106MYC   H14320500   2.091   4.041   3.388 -0.6510  0.1142  1.1414
  106MYC    C5520501   2.231   3.925   3.284  0.4215 -0.3810  0.2562
  106MYC   H14420502   2.307   3.846   3.301 -0.4843 -1.1046  1.0897
  106MYC   H14520503   2.290   4.017   3.279  1.4871 -0.9696  1.1921
  106MYC    C5420504   2.161   3.893   3.145  0.7284 -0.3398  1.2119
  106MYC   H14620505   2.095   3.980   3.130  0.0870 -0.4666  3.0598
  106MYC   H14720506   2.092   3.809   3.148  0.4849 -0.4572 -2.6911
  106MYC    C5320507   2.258   3.887   3.027  0.2414  0.2707  0.0316
  106MYC   H14820508   2.337   3.816   3.054  0.1673 -0.7150 -2.1241
  106MYC   H14920509   2.294   3.986   2.996  1.2170 -0.7463 -2.3536
  106MYC    C5220510   2.199   3.841   2.884 -0.1358  0.2472  0.2474
  106MYC    H9920511   2.118   3.913   2.865  0.1491  1.3276  2.6943
  106MYC   H15020512   2.144   3.747   2.891  0.9973 -0.5126 -0.6951
  106MYC    C5120513   2.306   3.826   2.768  0.0795  0.6160  0.3620
  106MYC    H9720514   2.373   3.740   2.783 -1.9768 -1.1895 -0.3440
  106MYC    H9820515   2.369   3.916   2.760  1.9770 -0.7697 -1.4400
  106MYC    C5020516   2.247   3.817   2.625  0.3023  0.3889  0.2026
  106MYC    H9520517   2.194   3.910   2.602  0.4782  0.6974  1.0132
  106MYC    H9620518   2.174   3.736   2.618  1.7540 -1.0508  0.9535
  106MYC    C4920519   2.355   3.782   2.518 -0.0517 -0.3643 -0.7396
  106MYC    H9320520   2.421   3.706   2.561  0.4599  0.1507 -0.6114
  106MYC    H9420521   2.420   3.865   2.490 -0.4837 -0.1236 -1.0461
  106MYC    C4820522   2.290   3.733   2.387  0.7784 -0.0702 -0.0661
  106MYC    H9120523   2.228   3.644   2.399  0.4586  0.1772  0.1171
  106MYC    H9220524   2.373   3.716   2.316  1.1887 -0.0206  0.3967
  106MYC    C4720525   2.201   3.824   2.300  0.3641  0.0025  0.0042
  106MYC    H8920526   2.247   3.920   2.274 -0.4333  0.2771 -0.4280
  106MYC    H9020527   2.109   3.856   2.351  0.8627  1.7375 -0.1071
  106MYC    C4620528   2.157   3.764   2.168 -0.0154 -0.6603  0.1195
  106MYC    H8720529   2.109   3.668   2.190  1.6992 -1.1160  2.2303
  106MYC    H8820530   2.239   3.740   2.099  0.1492  1.2431 -0.4244
  106MYC    C4520531   2.063   3.868   2.093 -0.5812  0.7723 -0.0461
  106MYC    H8520532   2.108   3.967   2.081 -1.3063  1.9374  4.7984
  106MYC    H8620533   1.968   3.886   2.144 -0.5248  0.3698  0.2048
  106MYC    C4420534   2.012   3.804   1.961 -0.2028 -0.6917  0.1316
  106MYC    H8320535   1.958   3.711   1.984 -0.9716 -0.0659  0.9451
  106MYC    H8420536   2.095   3.777   1.895  1.5557 -0.8336  2.2832
  106MYC    C1820537   1.906   3.892   1.897  0.5276  0.8064 -0.6351
  106MYC    H3120538   1.822   3.903   1.965  1.3447 -1.4717  0.8189
  106MYC    C1720539   1.943   4.007   1.799 -0.4212 -0.1259  0.1162
  106MYC    H3020540   2.048   4.025   1.779 -0.4319  0.0721  0.2375
  106MYC    C1920541   1.888   3.880   1.741 -0.6336 -0.6686 -1.4791
  106MYC    H3220542   1.950   3.802   1.697  1.5392  1.1133 -1.7463
  106MYC    H3320543   1.781   3.877   1.724 -0.8316  2.0499 -1.2045
  106MYC    C1620544   1.856   4.129   1.797  0.1121 -0.4790  0.2890
  106MYC    H2820545   1.754   4.112   1.833  0.7878 -1.9449  1.6531
  106MYC    H2920546   1.848   4.170   1.696  0.3671 -0.4187  0.2926
  106MYC    C1520547   1.911   4.251   1.884  0.1640  0.5386 -0.3501
  106MYC    H2620548   1.825   4.318   1.889 -0.6472 -0.5169  0.3537
  106MYC    H2720549   1.979   4.309   1.821 -0.7212  3.4499  1.1738
  106MYC    C1420550   1.983   4.225   2.020 -0.4901  0.0634  0.8740
  106MYC    H2420551   2.082   4.181   2.008 -1.3580 -2.2629  1.6664
  106MYC    H2520552   1.927   4.155   2.083  1.2705  1.5025  4.3035
  106MYC    C1320553   1.998   4.352   2.090 -0.8263 -0.2765 -1.1123
  106MYC    H2220554   1.904   4.376   2.140  0.1362  0.1976  0.5706
  106MYC    H2320555   2.013   4.435   2.019 -0.2883  0.2407 -0.4182
  106MYC    C1220556   2.103   4.353   2.208  0.5021  0.1663 -0.2093
  106MYC    H2020557   2.141   4.451   2.241  1.0925 -0.6153  1.5541
  106MYC    H2120558   2.193   4.306   2.167 -0.2474 -0.3835 -1.2641
  106MYC    C1120559   2.066   4.274   2.344  0.0894 -0.4299  0.4854
  106MYC    H1820560   2.155   4.263   2.407  0.4179  0.9810  0.3027
  106MYC    H1920561   2.024   4.178   2.309 -1.2975  1.0402 -2.1949
  106MYC    C1020562   1.961   4.358   2.425 -0.4140 -0.1143  0.1763
  106MYC    H1620563   1.873   4.352   2.360 -1.2070  0.2869  1.1889
  106MYC    H1720564   1.976   4.465   2.440 -2.8052  0.0803  1.7456
  106MYC     C920565   1.923   4.290   2.557 -0.1562 -0.1727 -0.2483
  106MYC    H1420566   1.916   4.181   2.550  0.0092 -0.4271  2.4583
  106MYC    H1520567   1.819   4.311   2.585 -0.5750 -3.0421  0.7031
  106MYC     C820568   2.021   4.323   2.670  0.0554  0.2262  0.1394
  106MYC    H1220569   2.002   4.419   2.720  0.3714 -0.9433  2.6289
  106MYC    H1320570   2.122   4.314   2.628 -0.7627 -3.1318 -1.4178
  106MYC     C720571   2.011   4.233   2.792  0.6563 -0.2305  0.4092
  106MYC    H1020572   2.091   4.275   2.854  1.6709  0.5526 -1.3391
  106MYC    H1120573   2.036   4.129   2.767  3.4635  0.1563  1.2543
  106MYC     C620574   1.874   4.252   2.865 -0.0753 -0.3470 -0.0643
  106MYC     H820575   1.793   4.205   2.807 -0.7579 -0.2096  0.7498
  106MYC     H920576   1.866   4.360   2.882  1.3150 -0.3245  0.5427
  106MYC     C520577   1.868   4.176   3.005  0.1804  1.0364 -0.5552
  106MYC     H620578   1.961   4.192   3.060  1.4508 -0.4520 -2.1451
  106MYC     H720579   1.887   4.071   2.980  2.7703  1.0617  0.9651
  106MYC     C420580   1.732   4.191   3.088 -0.4502 -0.3103  0.2695
  106MYC     H420581   1.652   4.165   3.017 -0.0643 -0.4099 -0.1371
  106MYC     H520582   1.722   4.296   3.118  0.0398 -1.0430  3.3458
  106MYC     C220583   1.729   4.112   3.219 -0.0283  0.5063  0.2449
  106MYC     H220584   1.747   4.009   3.186 -1.3728  1.0286 -2.4345
  106MYC     O320585   1.846   4.154   3.290  0.5682 -0.0685 -0.1614
  106MYC     H320586   1.811   4.224   3.348  0.8028  0.7030 -0.9387
  106MYC     C120587   1.602   4.119   3.307  0.5025 -0.7275 -0.6689
  106MYC     H120588   1.517   4.076   3.253 -1.1527  0.3402  0.9518
  106MYC    C8120589   1.552   4.267   3.326  0.2306  0.0980  0.5042
  106MYC    O8220590   1.448   4.312   3.276  0.2365  0.0067 -0.0593
  106MYC    O8320591   1.644   4.356   3.375  0.0698  0.0988 -0.8336
  106MYC   H10520592   1.589   4.436   3.375 -0.7150 -0.4102  0.2544
  106MYC    C2020593   1.592   4.039   3.443  0.0911 -0.0096  0.2775
  106MYC    H3420594   1.605   3.933   3.422  0.0718  0.0212  0.1081
  106MYC    H3520595   1.673   4.069   3.510  0.1688  0.7409 -0.1299
  106MYC    C2120596   1.455   4.047   3.520 -0.1889 -0.4781 -0.5421
  106MYC    H3620597   1.448   4.147   3.565 -1.1658  0.2147 -2.1500
  106MYC    H3720598   1.370   4.033   3.452 -1.8243  0.8306  1.1251
  106MYC    C2220599   1.442   3.949   3.642  0.8675  0.1680 -0.9427
  106MYC    H3820600   1.456   3.844   3.613 -0.5162 -0.3565  0.1237
  106MYC    H3920601   1.524   3.960   3.714 -0.0608 -0.5085  0.2532
  106MYC    C2320602   1.314   3.980   3.728 -0.2319 -0.2260 -0.4194
  106MYC    H4020603   1.321   4.083   3.766  1.9544 -0.0045 -1.2916
  106MYC    H4120604   1.224   3.976   3.666 -1.3939 -0.4039  1.2092
  106MYC    C2420605   1.293   3.887   3.845 -0.3409 -0.3630  0.5813
  106MYC    H4220606   1.271   3.788   3.804  0.7097 -0.7998  1.0401
  106MYC    H4320607   1.390   3.879   3.896  0.8111 -4.0919 -1.7676
  106MYC    C2520608   1.174   3.913   3.932 -0.8278  0.1417  0.3011
  106MYC    H4420609   1.176   4.013   3.977  1.4736  0.2901  0.0075
  106MYC    H4520610   1.081   3.896   3.877 -1.4361 -0.7470  1.5621
  106MYC    C2620611   1.147   3.814   4.044 -0.5025  0.4199  0.1206
  106MYC    H4620612   1.137   3.711   4.008 -1.3978 -0.7473  3.3169
  106MYC    H4720613   1.232   3.813   4.113 -0.9716  1.2714  0.7350
  106MYC    C2720614   1.013   3.843   4.116  0.5313 -0.0206 -0.5320
  106MYC    H4820615   1.010   3.937   4.173  0.5634 -0.3525  0.0300
  106MYC    H4920616   0.930   3.846   4.046 -0.5690 -0.9486  0.6946
  106MYC    C2820617   0.989   3.739   4.231 -0.1743 -0.1917  0.4879
  106MYC    H5020618   0.981   3.642   4.181 -0.7566  0.8373 -1.5198
  106MYC    H5120619   1.079   3.734   4.294  0.7349  0.2105 -0.7410
  106MYC    C2920620   0.860   3.769   4.312  0.4615 -0.6167 -0.4894
  106MYC    H5220621   0.858   3.877   4.329  2.3401 -0.2329 -2.3188
  106MYC    H5320622   0.769   3.748   4.254 -1.8446  4.0436  0.9602
  106MYC    C3020623   0.859   3.698   4.441  0.3599 -0.4158  0.5338
  106MYC    H5420624   0.867   3.591   4.417  1.4945  0.1015 -1.7359
  106MYC    H5520625   0.939   3.737   4.505 -1.1004  2.0173  1.0080
  106MYC    C3120626   0.721   3.720   4.519  0.1857  0.1446 -0.3697
  106MYC    H5620627   0.718   3.829   4.529  0.3771  0.1932 -0.8140
  106MYC    H5720628   0.645   3.673   4.456  0.2223 -1.6120  0.8136
  106MYC    C3220629   0.720   3.637   4.654 -0.0732  0.0269 -0.7137
  106MYC    H5820630   0.739   3.531   4.639  0.1134 -0.0076 -0.2521
  106MYC    H5920631   0.798   3.679   4.719  1.7614  0.2486 -2.9168
  106MYC    C3320632   0.585   3.653   4.712  0.3063 -0.3914  0.3099
  106MYC    H6020633   0.561   3.759   4.726 -0.6691 -0.5311 -0.1718
  106MYC    H6120634   0.506   3.618   4.644 -0.5512  0.3235  0.9168
  106MYC    C3420635   0.571   3.592   4.845 -0.4531  0.0577 -0.4999
  106MYC    H6220636   0.600   3.487   4.834  2.4527  0.5756  1.1893
  106MYC    H6320637   0.633   3.642   4.920 -1.9158 -1.1455  1.6304
  106MYC    C3520638   0.430   3.603   4.908 -0.1939  0.3348  0.3268
  106MYC    H6420639   0.427   3.707   4.943  1.0942  1.5286 -2.7368
  106MYC    H6520640   0.354   3.573   4.836 -0.2671 -0.7284  0.8334
  106MYC    C3620641   0.406   3.495   5.022  0.4635  0.0997  0.8577
  106MYC    H6620642   0.407   3.394   4.978  3.1137  0.5158 -0.2110
  106MYC    H6720643   0.490   3.501   5.091  1.2274 -0.7729  0.0411
  106MYC    C3720644   0.277   3.524   5.099  0.5570  0.1868 -0.2233
  106MYC    H6820645   0.255   3.630   5.118 -0.1993 -0.1845  1.1086
  106MYC    H6920646   0.194   3.490   5.036  0.0256 -0.6405  0.8963
  106MYC    C3820647   0.262   3.439   5.228 -1.1246  0.5306  0.5394
  106MYC    H7020648   0.276   3.336   5.196  1.1446  1.3303 -1.3516
  106MYC    H7120649   0.342   3.472   5.296  3.0673  0.2255 -3.7269
  106MYC    C3920650   0.124   3.448   5.307  0.1607 -0.2765 -0.1728
  106MYC    H7220651   0.099   3.545   5.350  0.3807 -0.5178  0.5214
  106MYC    H7320652   0.051   3.424   5.228  2.4448  0.8629 -2.8062
  106MYC    C4020653   0.120   3.347   5.418  0.3893 -0.3224 -0.8199
  106MYC    H7420654   0.131   3.246   5.377  0.1904 -0.2154 -1.1460
  106MYC    H7520655   0.203   3.376   5.484  0.1196 -0.3601 -0.4602
  106MYC    C4120656  -0.012   3.352   5.495  0.6887  0.0632  0.4378
  106MYC    H7620657  -0.022   3.457   5.525 -2.4503  1.0285 -3.2272
  106MYC    H7720658  -0.098   3.330   5.431 -0.7225  1.6906  1.6707
  106MYC    C4220659  -0.024   3.250   5.610 -0.3325 -0.0129  0.0870
  106MYC    H7820660  -0.112   3.189   5.591 -1.1269  0.6386  1.5105
  106MYC    H7920661   0.065   3.186   5.613 -0.7252 -0.6429 -1.0022
  106MYC    C4320662  -0.039   3.326   5.745  0.5973  0.0002 -0.0097
  106MYC    H8020663   0.053   3.379   5.771 -0.4388  1.0564  1.6663
  106MYC    H8120664  -0.070   3.265   5.830  1.2473 -1.2673 -0.6554
  106MYC    H8220665  -0.121   3.399   5.741  0.5871 -0.0441 -1.2666
  107MYC   HH1520666   0.126   3.955   5.582  0.4321  1.3813  0.1739
  107MYC    C8020667   0.160   3.893   5.666  0.4449  0.7771 -0.2725
  107MYC   H10020668   0.259   3.934   5.689  1.0097 -1.0819  0.7549
  107MYC   H10120669   0.103   3.902   5.759  0.9116  2.9127 -0.1415
  107MYC    C7920670   0.187   3.740   5.623  0.1183 -0.7994 -0.2025
  107MYC   H10220671   0.094   3.701   5.581 -1.1559 -0.0545  1.7563
  107MYC   H10320672   0.205   3.693   5.720 -1.7687 -2.0922 -0.4176
  107MYC    C7820673   0.322   3.721   5.537 -0.0647  0.3423  0.0432
  107MYC   HH1420674   0.329   3.616   5.507 -0.4994  0.1820  0.4870
  107MYC   H10420675   0.402   3.736   5.610  0.9017 -1.3105 -0.6115
  107MYC    C7720676   0.331   3.809   5.411 -0.0418  0.2390  0.4177
  107MYC   H10620677   0.315   3.915   5.435  0.4906  0.3112  0.4702
  107MYC   H10720678   0.250   3.782   5.342  1.3458 -0.5378 -0.9546
  107MYC    C7620679   0.464   3.801   5.347 -0.5271  0.5675 -0.2559
  107MYC   H10820680   0.499   3.697   5.345 -2.6924 -0.2061 -2.3220
  107MYC   H10920681   0.530   3.854   5.417 -0.8966  0.7646 -0.0549
  107MYC    C7520682   0.487   3.865   5.206 -0.1882  0.2883  0.1122
  107MYC   H11020683   0.480   3.973   5.219  3.2217  0.6522 -0.0511
  107MYC   H11120684   0.415   3.830   5.131 -0.5689 -2.4499  1.6032
  107MYC    C7420685   0.631   3.843   5.144  0.2516  0.2957 -0.8095
  107MYC   H11220686   0.662   3.739   5.126 -0.2639  0.6418 -4.3991
  107MYC   H11320687   0.702   3.898   5.206  0.3020  0.1254 -0.7166
  107MYC    C7320688   0.652   3.919   5.009 -0.3749 -0.2167 -0.3308
  107MYC   HH1320689   0.626   4.024   5.028  0.6090 -0.0704  0.2411
  107MYC   H11420690   0.576   3.882   4.939 -1.3831  3.1845 -1.2395
  107MYC    C7220691   0.792   3.933   4.958 -0.3808  0.0391 -0.0125
  107MYC   H11520692   0.829   3.830   4.947 -1.3867 -0.1025 -2.6154
  107MYC   H11620693   0.852   3.997   5.023  0.3341  0.3573 -0.9722
  107MYC    C7120694   0.790   4.000   4.814 -0.6700  0.2253  0.3487
  107MYC   H11720695   0.755   4.104   4.818 -0.0588  0.4129  1.4188
  107MYC   H11820696   0.736   3.937   4.744  1.1677 -0.8614 -0.1361
  107MYC    C7020697   0.935   4.001   4.752  0.5403  0.1242  0.1753
  107MYC   H11920698   0.960   3.895   4.737 -2.2465 -0.4644 -1.0455
  107MYC   H12020699   0.991   4.041   4.836 -0.8479 -0.7270  1.5630
  107MYC    C6920700   0.959   4.078   4.617 -0.5285  0.1509 -0.4715
  107MYC   H12120701   0.945   4.186   4.622 -1.4199  0.0349 -0.1935
  107MYC   H12220702   0.884   4.050   4.542 -0.0638  1.3218 -1.4028
  107MYC    C6820703   1.101   4.039   4.550  0.1081 -0.5490 -0.2196
  107MYC   HH1220704   1.095   3.931   4.532  0.7112 -0.2689 -2.3927
  107MYC   H12320705   1.176   4.057   4.629  0.4906  2.6889 -1.1775
  107MYC    C6720706   1.139   4.122   4.426  0.2508  0.5310 -0.3733
  107MYC   H12420707   1.143   4.229   4.447  2.7659  0.1584  1.4451
  107MYC   H12520708   1.058   4.104   4.354  2.1561 -1.6535 -2.1420
  107MYC    C6620709   1.277   4.085   4.369  0.2970 -0.2104 -0.7179
  107MYC   H12620710   1.276   3.977   4.350 -0.1516 -0.4415  0.5258
  107MYC   H12720711   1.358   4.105   4.440 -1.7960  0.5980  1.5491
  107MYC    C6520712   1.298   4.156   4.231  0.3832  0.4963 -0.4536
  107MYC   H12820713   1.298   4.265   4.218  1.6915  0.4553 -0.9880
  107MYC   H12920714   1.209   4.121   4.176  0.2903  1.7591 -1.1385
  107MYC    C6420715   1.425   4.104   4.164 -0.7585  0.4448  0.1682
  107MYC   H13020716   1.406   3.997   4.145  2.4716 -0.3234  0.6878
  107MYC   H13120717   1.504   4.108   4.239 -0.2023 -3.1854 -0.0281
  107MYC    C6320718   1.457   4.167   4.033  0.0021 -0.2525  0.3137
  107MYC   HH1120719   1.454   4.276   4.041  1.3103  0.1790 -3.3792
  107MYC   H13220720   1.377   4.151   3.960  0.3858 -1.5420  0.1583
  107MYC    C6220721   1.593   4.128   3.975  0.0986  0.1104  0.2125
  107MYC   H13320722   1.582   4.020   3.960  0.2502  0.3358 -1.7435
  107MYC   H13420723   1.671   4.158   4.046 -1.2121  1.8871  0.9638
  107MYC    C6120724   1.621   4.193   3.840 -0.0716 -0.0048 -0.2514
  107MYC   H13520725   1.529   4.192   3.781  0.6062 -1.2959 -1.3622
  107MYC   H13620726   1.693   4.126   3.791 -2.3288 -1.6042 -1.5621
  107MYC    C6020727   1.660   4.345   3.842  0.2601 -0.0549  0.1791
  107MYC   H13720728   1.761   4.350   3.881  1.1224  1.3501 -2.0520
  107MYC    C5820729   1.611   4.451   3.750  0.4182  0.0290 -0.1324
  107MYC   H13820730   1.537   4.426   3.675 -1.9708  1.0447  1.7719
  107MYC    C5920731   1.565   4.456   3.889  0.4351  0.0687 -0.2940
  107MYC   H13920732   1.598   4.539   3.951 -0.2426  1.8574 -2.1728
  107MYC   H14020733   1.461   4.431   3.907  0.3873  1.3857  1.6325
  107MYC    C5720734   1.701   4.559   3.692 -0.0980  0.5871  1.1328
  107MYC   HH1020735   1.735   4.536   3.590  0.1153  1.4244  1.0048
  107MYC   H14120736   1.783   4.581   3.760 -0.8793 -0.9751  2.6382
  107MYC    C5620737   1.628   4.691   3.660  0.3826  0.3664 -0.0591
  107MYC   H14220738   1.593   4.734   3.755  0.4430  1.6212 -0.5861
  107MYC   H14320739   1.542   4.672   3.594 -0.6780 -1.7829  1.7775
  107MYC    C5520740   1.719   4.803   3.603 -0.3141 -0.1952 -0.6934
  107MYC   H14420741   1.809   4.806   3.666 -0.6397 -1.2829 -0.1596
  107MYC   H14520742   1.679   4.905   3.609 -0.6166 -0.3097 -0.7487
  107MYC    C5420743   1.774   4.770   3.454 -0.2185  0.2196  0.2047
  107MYC   H14620744   1.826   4.674   3.459  2.2478  1.5335  1.9125
  107MYC   H14720745   1.856   4.838   3.427  0.3094 -1.3657 -2.5962
  107MYC    C5320746   1.665   4.777   3.350 -0.0961 -0.5014  0.3711
  107MYC   H14820747   1.603   4.864   3.374  3.8685  2.8708 -0.5542
  107MYC   H14920748   1.599   4.691   3.369 -1.1694  0.2212  0.0295
  107MYC    C5220749   1.718   4.794   3.200 -0.2446 -0.1042  0.3688
  107MYC    H9920750   1.797   4.720   3.184  0.7478  0.9584  0.2188
  107MYC   H15020751   1.774   4.888   3.194  0.1618 -0.4459 -4.1044
  107MYC    C5120752   1.592   4.785   3.102 -0.1735  0.7377  0.1602
  107MYC    H9720753   1.537   4.879   3.112 -1.7036 -0.3772  4.6346
  107MYC    H9820754   1.518   4.711   3.133 -0.2757  1.1612  0.9693
  107MYC    C5020755   1.643   4.749   2.967 -0.3350  0.3108 -0.0539
  107MYC    H9520756   1.690   4.651   2.981  0.8361  0.7451 -0.8261
  107MYC    H9620757   1.713   4.825   2.929  0.0643 -0.0581 -0.0630
  107MYC    C4920758   1.527   4.734   2.862 -0.1801  0.0813  0.3973
  107MYC    H9320759   1.489   4.836   2.846  2.6542  0.8119 -2.8233
  107MYC    H9420760   1.451   4.667   2.903  0.2175  0.4326  1.7681
  107MYC    C4820761   1.571   4.673   2.729  0.5445 -0.3559  0.0477
  107MYC    H9120762   1.480   4.645   2.675  0.1064 -1.4196  1.3183
  107MYC    H9220763   1.613   4.575   2.755  0.1256 -1.1122 -1.9208
  107MYC    C4720764   1.674   4.763   2.648  0.2453  0.6129 -0.0091
  107MYC    H8920765   1.754   4.784   2.720  1.7066 -1.6442 -0.8757
  107MYC    H9020766   1.621   4.854   2.618 -0.3513  0.8386  1.6227
  107MYC    C4620767   1.729   4.702   2.517 -0.1676 -0.4522 -0.8800
  107MYC    H8720768   1.775   4.604   2.535  0.2492 -0.2049 -0.5775
  107MYC    H8820769   1.805   4.763   2.469 -0.8139  0.9212 -0.2245
  107MYC    C4520770   1.621   4.682   2.404 -0.0065 -0.2448  0.3078
  107MYC    H8520771   1.569   4.778   2.402  1.2232  0.4394  0.1990
  107MYC    H8620772   1.554   4.598   2.426 -0.7170  0.0011 -0.8761
  107MYC    C4420773   1.681   4.657   2.268  0.4120  0.7270 -0.0977
  107MYC    H8320774   1.594   4.615   2.215 -1.1188  2.1572  1.1540
  107MYC    H8420775   1.752   4.573   2.273 -0.2893  0.1783  2.1878
  107MYC    C1820776   1.738   4.774   2.186 -0.0139 -0.6325  0.0538
  107MYC    H3120777   1.770   4.857   2.249  1.6726 -1.4323  0.3100
  107MYC    C1720778   1.826   4.740   2.068  0.7334  0.9449  0.3773
  107MYC    H3020779   1.836   4.634   2.042  1.3476  1.3613 -1.2204
  107MYC    C1920780   1.683   4.796   2.052 -0.8655  0.3656 -0.0046
  107MYC    H3220781   1.605   4.732   2.012  0.3941 -0.0187 -2.0096
  107MYC    H3320782   1.672   4.896   2.013 -2.6158  0.9036  1.7480
  107MYC    C1620783   1.943   4.829   2.033  0.1723 -0.0909  0.1637
  107MYC    H2820784   1.929   4.934   2.064  0.8534 -0.2962  1.1890
  107MYC    H2920785   1.958   4.823   1.924  0.8367  0.2234  0.2379
  107MYC    C1520786   2.078   4.782   2.071 -0.8510 -0.5014 -0.1965
  107MYC    H2620787   2.149   4.848   2.021 -1.4455 -0.1072 -0.5357
  107MYC    H2720788   2.100   4.679   2.041 -3.2490 -1.8228  2.1398
  107MYC    C1420789   2.085   4.775   2.228  0.7075 -0.1500 -0.1243
  107MYC    H2420790   2.012   4.701   2.263  1.4870  0.1943  2.4916
  107MYC    H2520791   2.050   4.872   2.265  0.9848 -0.5445  1.2387
  107MYC    C1320792   2.227   4.758   2.301 -0.2419 -0.0264  0.8047
  107MYC    H2220793   2.287   4.848   2.286 -0.5829 -0.0331 -0.8556
  107MYC    H2320794   2.283   4.685   2.242 -0.1817  0.5714  0.1098
  107MYC    C1220795   2.215   4.707   2.440  0.3188  0.5415  0.3675
  107MYC    H2020796   2.317   4.694   2.478  0.3742  1.5484  0.5955
  107MYC    H2120797   2.171   4.607   2.441 -0.6073  0.9109 -0.8615
  107MYC    C1120798   2.132   4.796   2.531  0.2337 -0.0666 -0.4407
  107MYC    H1820799   2.023   4.802   2.515 -0.2114  1.4441  2.4291
  107MYC    H1920800   2.159   4.901   2.517 -2.4218  0.3361 -4.2337
  107MYC    C1020801   2.158   4.760   2.684  0.3407 -0.0199 -0.6622
  107MYC    H1620802   2.260   4.786   2.716 -0.6194  0.3403  2.4896
  107MYC    H1720803   2.140   4.652   2.686 -2.7651  0.4104  0.6519
  107MYC     C920804   2.069   4.844   2.770 -0.0393 -0.0938 -0.4922
  107MYC    H1420805   1.964   4.816   2.751 -0.0609 -0.0763 -0.3990
  107MYC    H1520806   2.091   4.946   2.734 -2.3628 -0.0542 -2.0248
  107MYC     C820807   2.094   4.833   2.925 -0.1103 -0.2499 -0.0538
  107MYC    H1220808   2.027   4.909   2.967 -1.3574 -1.6020  0.4685
  107MYC    H1320809   2.196   4.855   2.959  0.1531 -1.0297 -0.3266
  107MYC     C720810   2.062   4.702   2.987  0.0472  0.2210 -0.4003
  107MYC    H1020811   2.112   4.615   2.943  2.0574 -0.1380  2.3166
  107MYC    H1120812   1.954   4.692   2.976 -0.2675 -2.0568  3.1507
  107MYC     C620813   2.104   4.700   3.133 -0.0274 -0.4095 -0.6444
  107MYC     H820814   2.063   4.788   3.184  0.4462 -0.9666  0.7353
  107MYC     H920815   2.213   4.708   3.133  0.1229 -1.5519  2.0450
  107MYC     C520816   2.062   4.574   3.213 -0.4856  0.7910 -0.2891
  107MYC     H620817   2.111   4.484   3.173  2.2388  2.4047 -0.8489
  107MYC     H720818   1.954   4.555   3.210 -0.4430  0.5866 -2.2086
  107MYC     C420819   2.106   4.578   3.358  0.5492  0.0565 -0.3030
  107MYC     H420820   2.063   4.671   3.397  0.7642  2.0242 -4.2485
  107MYC     H520821   2.216   4.582   3.358  0.6867 -0.6709 -3.9486
  107MYC     C220822   2.059   4.452   3.444 -0.5473 -0.4192 -0.5391
  107MYC     H220823   1.951   4.460   3.459 -0.2711  0.3313  1.2429
  107MYC     O320824   2.090   4.330   3.382  0.2421 -0.6445 -0.4174
  107MYC     H320825   2.025   4.264   3.412 -0.5094  0.8860  1.5495
  107MYC     C120826   2.112   4.462   3.588  0.2975 -0.5127  0.5954
  107MYC     H120827   2.062   4.557   3.611 -0.5304 -0.3946 -1.4849
  107MYC    C8120828   2.267   4.478   3.597  0.1604 -0.0260 -0.4866
  107MYC    O8220829   2.349   4.399   3.555  0.0406 -0.2141  0.3106
  107MYC    O8320830   2.309   4.591   3.644  0.5045 -0.4587 -0.4322
  107MYC   H10520831   2.402   4.604   3.620  0.2675  0.4887 -0.9014
  107MYC    C2020832   2.042   4.369   3.692  0.0185  0.7328 -0.3681
  107MYC    H3420833   2.012   4.421   3.783 -2.2481 -0.4579 -0.3542
  107MYC    H3520834   1.956   4.327   3.638  0.3715 -2.0371  1.0700
  107MYC    C2120835   2.130   4.238   3.722  0.2044 -0.2265  0.3845
  107MYC    H3620836   2.146   4.206   3.618  0.9946  2.0532 -0.2406
  107MYC    H3720837   2.224   4.271   3.767 -0.2886 -0.3179  1.5161
  107MYC    C2220838   2.066   4.125   3.799 -0.1592 -0.1092  0.8994
  107MYC    H3820839   1.979   4.095   3.738  0.3221 -0.7499  0.5183
  107MYC    H3920840   2.145   4.050   3.791  1.5190  1.6620 -0.1541
  107MYC    C2320841   2.028   4.151   3.943 -0.5641 -0.9517  0.1590
  107MYC    H4020842   2.123   4.155   3.997 -0.3372 -1.1904 -0.2087
  107MYC    H4120843   1.983   4.250   3.952  0.7255 -0.4111  0.9009
  107MYC    C2420844   1.932   4.048   4.003 -0.4898  0.5804  0.2886
  107MYC    H4220845   1.886   4.096   4.090  1.3795  2.4989  0.2939
  107MYC    H4320846   1.856   4.034   3.925 -0.4692  0.0917  0.3584
  107MYC    C2520847   1.990   3.911   4.041  0.5309 -0.8290 -0.5783
  107MYC    H4420848   2.028   3.850   3.958 -3.1033 -0.1788 -2.9586
  107MYC    H4520849   2.074   3.940   4.105  0.4966  0.8235 -1.2281
  107MYC    C2620850   1.886   3.813   4.099 -0.3311 -0.4124 -0.3717
  107MYC    H4620851   1.817   3.788   4.017  0.9487 -1.9686 -1.0178
  107MYC    H4720852   1.933   3.716   4.118  0.1065  0.1162  1.4202
  107MYC    C2720853   1.819   3.865   4.230  0.0282  0.9128  0.1648
  107MYC    H4820854   1.892   3.889   4.309  2.0286 -0.4306 -1.1720
  107MYC    H4920855   1.753   3.951   4.217  0.4983  1.4412  1.1047
  107MYC    C2820856   1.730   3.758   4.286  1.0716 -0.2884 -0.0975
  107MYC    H5020857   1.641   3.748   4.222  0.7547 -0.1749  0.3239
  107MYC    H5120858   1.772   3.656   4.293 -0.4247 -0.9116  0.1257
  107MYC    C2920859   1.658   3.800   4.419  0.2916  0.4646  0.4856
  107MYC    H5220860   1.724   3.782   4.505  0.7761 -2.4097 -0.3795
  107MYC    H5320861   1.636   3.907   4.426 -1.3626  0.1951 -0.1114
  107MYC    C3020862   1.521   3.728   4.432 -0.1538 -0.1716  0.2273
  107MYC    H5420863   1.447   3.755   4.355  1.7933  1.1439 -1.3003
  107MYC    H5520864   1.535   3.620   4.422 -1.8096 -0.3557 -0.4607
  107MYC    C3120865   1.448   3.750   4.562 -0.5229  0.1880  0.1573
  107MYC    H5620866   1.517   3.736   4.646 -0.8521 -0.9198  0.2641
  107MYC    H5720867   1.431   3.857   4.578  2.9729  0.7231  1.1563
  107MYC    C3220868   1.324   3.671   4.579  0.5674 -0.6977  0.3468
  107MYC    H5820869   1.239   3.705   4.518  1.3112 -0.0321 -0.3367
  107MYC    H5920870   1.342   3.568   4.547  0.1278 -0.2957 -1.3015
  107MYC    C3320871   1.273   3.683   4.728 -1.0825  0.1691  0.2762
  107MYC    H6020872   1.365   3.681   4.787  1.4682  1.5476 -3.3206
  107MYC    H6120873   1.236   3.785   4.743  1.5528  1.0664  1.2482
  107MYC    C3420874   1.171   3.572   4.762 -0.8274 -0.2498 -0.3526
  107MYC    H6220875   1.091   3.567   4.687 -0.8935 -0.2858 -0.2808
  107MYC    H6320876   1.217   3.472   4.755  2.0275  0.9688 -0.3489
  107MYC    C3520877   1.108   3.578   4.911  0.3283 -0.1434 -1.0657
  107MYC    H6420878   1.187   3.578   4.987 -0.0381  1.9576 -0.5956
  107MYC    H6520879   1.074   3.682   4.926  1.6198  0.1852 -0.3052
  107MYC    C3620880   0.999   3.481   4.956 -0.1816 -0.4477 -0.0615
  107MYC    H6620881   0.919   3.489   4.881 -1.6207  3.5622  1.6250
  107MYC    H6720882   1.051   3.385   4.950 -0.6322 -0.7687  0.9075
  107MYC    C3720883   0.926   3.510   5.092  0.1073 -0.4095 -0.0951
  107MYC    H6820884   1.004   3.516   5.169 -1.9225  1.1178  1.9589
  107MYC    H6920885   0.871   3.605   5.085 -0.8433 -0.8641  0.9409
  107MYC    C3820886   0.818   3.405   5.139 -0.0104 -0.2075 -0.6505
  107MYC    H7020887   0.728   3.423   5.079 -1.9980 -0.5567  2.0471
  107MYC    H7120888   0.846   3.302   5.115 -0.2595  0.1973 -2.9132
  107MYC    C3920889   0.766   3.425   5.278  0.5358  0.0330 -0.2024
  107MYC    H7220890   0.847   3.436   5.350  2.7450 -0.5267 -2.4465
  107MYC    H7320891   0.710   3.519   5.283 -1.0914 -0.9460  1.2068
  107MYC    C4020892   0.667   3.317   5.324 -0.1187 -0.0946 -0.1316
  107MYC    H7420893   0.583   3.329   5.254  0.2206  1.6594 -0.2750
  107MYC    H7520894   0.712   3.217   5.322  1.8502  0.6402  2.3588
  107MYC    C4120895   0.605   3.346   5.458 -0.2625 -0.1996  0.5588
  107MYC    H7620896   0.679   3.365   5.537 -3.4158  0.9963  3.5052
  107MYC    H7720897   0.555   3.442   5.443  0.4550  0.0484 -0.2794
  107MYC    C4220898   0.496   3.238   5.502 -0.3847  0.1620  0.0123
  107MYC    H7820899   0.432   3.221   5.415  1.5651 -1.0858 -1.2884
  107MYC    H7920900   0.556   3.149   5.527  1.0515  1.3152  0.8486
  107MYC    C4320901   0.421   3.285   5.627  0.5946 -0.1483  0.6214
  107MYC    H8020902   0.320   3.244   5.637  0.0021  1.1240  0.1284
  107MYC    H8120903   0.412   3.394   5.629  1.0974 -0.0622  3.5944
  107MYC    H8220904   0.473   3.255   5.719 -0.1133  0.2974  1.1762
  108MYC   HH1520905   0.120   5.849   6.095 -0.5339  2.0804 -1.2015
  108MYC    C8020906   0.140   5.789   6.006  1.1360 -0.7988  0.9397
  108MYC   H10020907   0.233   5.738   6.033  0.3423 -2.0963  1.3124
  108MYC   H10120908   0.059   5.718   5.983  0.3624 -0.4147  2.3500
  108MYC    C7920909   0.178   5.893   5.900 -0.0371  0.2932  0.5557
  108MYC   H10220910   0.275   5.934   5.931 -0.5508  0.9596  1.3377
  108MYC   H10320911   0.114   5.982   5.906 -0.9082 -0.1565 -1.3159
  108MYC    C7820912   0.176   5.834   5.754  0.3956  0.0248 -0.2679
  108MYC   HH1420913   0.075   5.797   5.734  1.1323 -1.3272 -1.7157
  108MYC   H10420914   0.226   5.737   5.749 -3.2120 -2.0572  0.6730
  108MYC    C7720915   0.222   5.930   5.641  0.7118 -0.1081 -0.0694
  108MYC   H10620916   0.254   5.865   5.559  0.1157  1.0797 -1.2843
  108MYC   H10720917   0.312   5.983   5.675 -0.9731  2.2831  0.9314
  108MYC    C7620918   0.109   6.027   5.599 -0.3488  0.4152 -0.5647
  108MYC   H10820919   0.091   6.092   5.685  0.2401 -0.7764  0.5019
  108MYC   H10920920   0.026   5.959   5.578  0.8561 -0.8098 -1.5924
  108MYC    C7520921   0.143   6.108   5.474  0.5917  0.1191  0.9261
  108MYC   H11020922   0.233   6.168   5.492  2.0203 -1.8099  0.4483
  108MYC   H11120923   0.060   6.178   5.459 -1.2860 -2.0038  0.9025
  108MYC    C7420924   0.166   6.031   5.338 -0.2787  0.3612 -0.1690
  108MYC   H11220925   0.086   5.959   5.321 -1.5248  1.3081  1.3709
  108MYC   H11320926   0.260   5.976   5.344 -1.0025 -1.0951 -1.5768
  108MYC    C7320927   0.177   6.123   5.219 -0.1216 -0.1334  0.4000
  108MYC   HH1320928   0.105   6.206   5.214 -1.2944 -0.9645  2.3627
  108MYC   H11420929   0.155   6.058   5.134 -1.5062  1.8234 -0.8313
  108MYC    C7220930   0.322   6.178   5.196  0.0605 -0.0464 -0.2284
  108MYC   H11520931   0.402   6.105   5.214  1.9538  1.7303 -0.9782
  108MYC   H11620932   0.336   6.255   5.273 -2.8627  0.8019 -0.4394
  108MYC    C7120933   0.349   6.231   5.054 -0.1781  0.6173  0.1702
  108MYC   H11720934   0.445   6.281   5.073 -0.0171  0.3801  0.0023
  108MYC   H11820935   0.283   6.314   5.027 -0.6068  0.6434  1.2513
  108MYC    C7020936   0.359   6.119   4.940 -0.0875  0.0631  0.1725
  108MYC   H11920937   0.264   6.083   4.899 -0.4148 -1.1868  1.9163
  108MYC   H12020938   0.403   6.025   4.977  1.1334  0.0013 -1.3383
  108MYC    C6920939   0.449   6.174   4.827 -0.2811 -0.5640 -0.3095
  108MYC   H12120940   0.547   6.181   4.875 -0.2086 -1.9674 -0.2387
  108MYC   H12220941   0.411   6.272   4.793  0.7943 -0.0332 -0.0315
  108MYC    C6820942   0.477   6.083   4.705  0.9387  0.2251 -0.1999
  108MYC   HH1220943   0.501   5.986   4.749  1.5481  0.7899  0.7255
  108MYC   H12320944   0.562   6.122   4.648  0.6611  2.8264  1.0222
  108MYC    C6720945   0.365   6.063   4.599 -0.6974 -0.8090 -0.0124
  108MYC   H12420946   0.355   6.165   4.561  2.0698  0.0066  1.1951
  108MYC   H12520947   0.272   6.028   4.646 -0.2170 -2.2272 -0.0619
  108MYC    C6620948   0.413   5.963   4.496  0.3674 -0.0182  0.7551
  108MYC   H12620949   0.329   5.958   4.426  0.8311 -1.6713  0.2571
  108MYC   H12720950   0.417   5.862   4.540 -1.1750 -0.8180 -0.7845
  108MYC    C6520951   0.547   5.976   4.417  0.0238  0.9650  0.1061
  108MYC   H12820952   0.555   5.901   4.337  2.0230 -0.8716  1.8808
  108MYC   H12920953   0.626   5.951   4.489 -0.0096  0.0741 -0.1492
  108MYC    C6420954   0.580   6.109   4.345  0.6299  0.0296  0.1472
  108MYC   H13020955   0.607   6.191   4.413 -0.5876  0.5349  0.0361
  108MYC   H13120956   0.490   6.140   4.291  1.2276 -0.2518 -1.0420
  108MYC    C6320957   0.693   6.104   4.243  0.1715  0.6098 -0.3336
  108MYC   HH1120958   0.778   6.045   4.281 -0.4468 -1.4916 -2.0323
  108MYC   H13220959   0.735   6.205   4.233  3.2537 -0.5022  0.1478
  108MYC    C6220960   0.651   6.069   4.106  0.0183 -0.0028  0.0704
  108MYC   H13320961   0.570   6.133   4.069 -0.3804 -0.4440  0.1772
  108MYC   H13420962   0.623   5.964   4.100 -0.4353  0.1871 -1.3853
  108MYC    C6120963   0.772   6.085   4.003  0.7055  0.4290 -0.1699
  108MYC   H13520964   0.859   6.056   4.062 -0.5606 -2.2785  0.5003
  108MYC   H13620965   0.777   6.191   3.976 -1.9761  0.4995 -0.6816
  108MYC    C6020966   0.765   5.997   3.886 -0.3898 -0.0809  0.3459
  108MYC   H13720967   0.666   6.000   3.840 -0.6857 -2.2065  0.7615
  108MYC    C5820968   0.894   5.968   3.800  0.2431 -0.6647  0.2789
  108MYC   H13820969   0.990   6.008   3.830  0.1327  0.0711 -0.3155
  108MYC    C5920970   0.828   5.863   3.891  0.3685 -0.5502  0.0173
  108MYC   H13920971   0.762   5.780   3.864 -1.3175  0.7474  0.0062
  108MYC   H14020972   0.886   5.838   3.980 -0.4163 -2.5307  0.0426
  108MYC    C5720973   0.896   5.941   3.648  0.0516 -0.3600 -0.4886
  108MYC   HH1020974   0.926   6.020   3.579 -1.2768 -0.5004 -1.2651
  108MYC   H14120975   0.793   5.919   3.616 -1.0062  0.6476  1.9037
  108MYC    C5620976   0.966   5.803   3.622  0.1750  0.1031 -0.0104
  108MYC   H14220977   0.902   5.730   3.674 -0.8697  1.6849  1.0606
  108MYC   H14320978   1.064   5.798   3.671  1.1921 -1.0720 -2.0516
  108MYC    C5520979   0.986   5.772   3.474 -0.3044  1.1821  0.4689
  108MYC   H14420980   1.030   5.860   3.426  0.8891 -0.8009 -2.3955
  108MYC   H14520981   0.884   5.755   3.437 -0.9763  1.2237  2.2160
  108MYC    C5420982   1.067   5.647   3.442 -0.0484  0.1197  0.3018
  108MYC   H14620983   1.007   5.556   3.454  1.6834 -1.3941 -1.7236
  108MYC   H14720984   1.156   5.640   3.505  2.1201  0.9164 -2.4865
  108MYC    C5320985   1.129   5.648   3.293  0.3232 -0.5978 -0.1401
  108MYC   H14820986   1.182   5.743   3.281 -0.6879 -0.0286 -0.1811
  108MYC   H14920987   1.056   5.643   3.212  0.3459  3.2693 -0.5654
  108MYC    C5220988   1.231   5.536   3.267 -0.3090 -0.5803  0.1230
  108MYC    H9920989   1.202   5.433   3.289  1.9438 -0.8392  2.3389
  108MYC   H15020990   1.308   5.546   3.344 -1.4347 -2.8978  1.6525
  108MYC    C5120991   1.293   5.547   3.127  0.4862  0.4256  0.4574
  108MYC    H9720992   1.394   5.504   3.129 -0.4956 -2.0530  0.7535
  108MYC    H9820993   1.296   5.653   3.100  2.3121  0.3451  0.2061
  108MYC    C5020994   1.217   5.467   3.013  0.0654 -0.2803 -0.2669
  108MYC    H9520995   1.124   5.518   2.988 -0.3424 -0.6237  0.5313
  108MYC    H9620996   1.174   5.378   3.059  1.3245 -0.5940  0.3582
  108MYC    C4920997   1.288   5.446   2.877  0.3018 -0.0857  0.1163
  108MYC    H9320998   1.237   5.364   2.825 -1.6064  1.3426 -0.4173
  108MYC    H9420999   1.385   5.400   2.897  0.3114 -1.0287 -1.9128
  108MYC    C4821000   1.302   5.567   2.787 -0.0415 -0.2937 -0.7326
  108MYC    H9121001   1.351   5.641   2.852  1.7870 -2.0955  0.0948
  108MYC    H9221002   1.202   5.605   2.769 -0.5085 -0.8172  0.6054
  108MYC    C4721003   1.379   5.547   2.658  0.2433 -0.9039  0.3124
  108MYC    H8921004   1.334   5.474   2.589 -0.0576  0.8307 -1.3937
  108MYC    H9021005   1.472   5.499   2.692  1.6461  0.9006 -0.7963
  108MYC    C4621006   1.422   5.673   2.583 -0.4148 -0.5167  0.0774
  108MYC    H8721007   1.468   5.741   2.655 -0.6999 -0.3714  0.1241
  108MYC    H8821008   1.333   5.717   2.536  0.3590 -0.2451 -1.2025
  108MYC    C4521009   1.517   5.638   2.456 -0.3014 -0.0812 -0.2354
  108MYC    H8521010   1.466   5.566   2.391 -1.6971  2.0468 -1.6449
  108MYC    H8621011   1.611   5.592   2.486  0.0325 -0.4408 -1.7263
  108MYC    C4421012   1.562   5.767   2.372  0.3813 -0.8740  0.5025
  108MYC    H8321013   1.616   5.837   2.436  0.6532  0.8208 -1.5028
  108MYC    H8421014   1.472   5.823   2.345  0.9797 -0.9875 -1.8914
  108MYC    C1821015   1.645   5.724   2.255 -0.0311 -0.3228 -0.1935
  108MYC    H3121016   1.730   5.664   2.284 -0.6249 -0.4860  1.3110
  108MYC    C1721017   1.577   5.679   2.127 -0.5150 -0.2836 -0.0622
  108MYC    H3021018   1.469   5.680   2.121 -0.5929  0.2190  1.1656
  108MYC    C1921019   1.647   5.808   2.128  0.4828 -0.1724 -0.3868
  108MYC    H3221020   1.578   5.891   2.117  1.2140  0.3293 -1.2819
  108MYC    H3321021   1.738   5.817   2.070  0.6245 -2.0826 -0.5232
  108MYC    C1621022   1.625   5.560   2.042 -0.0444 -0.0867  0.1582
  108MYC    H2821023   1.734   5.555   2.043  0.1418  2.4230  1.3513
  108MYC    H2921024   1.607   5.575   1.934 -1.7825 -0.2468  0.3869
  108MYC    C1521025   1.571   5.421   2.084 -1.1845  0.2568  0.1067
  108MYC    H2621026   1.592   5.349   2.004 -2.0406 -0.0885  0.1817
  108MYC    H2721027   1.461   5.419   2.080 -1.1422  0.1275 -1.6863
  108MYC    C1421028   1.640   5.352   2.204 -0.0357 -0.1271 -0.1336
  108MYC    H2421029   1.610   5.399   2.298  1.2418 -0.2285  0.3503
  108MYC    H2521030   1.747   5.374   2.200 -0.0917 -0.0148 -1.3998
  108MYC    C1321031   1.608   5.207   2.213  0.4569  0.5705  0.4583
  108MYC    H2221032   1.647   5.161   2.122 -0.5803  1.8616 -0.6819
  108MYC    H2321033   1.498   5.201   2.208  0.3975  1.1122  1.0098
  108MYC    C1221034   1.664   5.137   2.339  0.3532  0.1359  0.0320
  108MYC    H2021035   1.625   5.036   2.352  0.4720  0.0081 -0.5944
  108MYC    H2121036   1.636   5.194   2.429  2.8938  0.8915  0.4166
  108MYC    C1121037   1.819   5.126   2.329  0.2742 -0.1781  0.0521
  108MYC    H1821038   1.867   5.220   2.300  0.4281 -0.1986  0.2406
  108MYC    H1921039   1.848   5.065   2.243 -1.8398 -0.4574 -0.5226
  108MYC    C1021040   1.889   5.076   2.454 -0.5456 -0.0611 -0.4492
  108MYC    H1621041   1.998   5.082   2.442 -0.5283 -0.8095 -0.7142
  108MYC    H1721042   1.875   4.969   2.473 -1.5205  0.5797  3.3449
  108MYC     C921043   1.858   5.162   2.586  1.1188  0.1944  0.0792
  108MYC    H1421044   1.925   5.118   2.662  0.8738  1.1016  0.8420
  108MYC    H1521045   1.755   5.154   2.622  0.4956  3.1550 -0.8144
  108MYC     C821046   1.901   5.310   2.569  0.1819 -0.0708 -0.7057
  108MYC    H1221047   1.841   5.365   2.496 -0.2415  0.5488  0.0859
  108MYC    H1321048   2.008   5.314   2.543  0.7459  3.3331  1.5019
  108MYC     C721049   1.871   5.411   2.676  0.1668  0.0493  0.0037
  108MYC    H1021050   1.776   5.382   2.723 -2.1082 -0.2104 -4.2049
  108MYC    H1121051   1.848   5.511   2.635  2.8997  0.5617 -0.4385
  108MYC     C621052   1.977   5.434   2.783  0.3732 -0.4281 -0.7469
  108MYC     H821053   2.072   5.460   2.736 -0.1684  0.2909 -1.4742
  108MYC     H921054   1.991   5.338   2.834 -0.3123  0.1063  0.5033
  108MYC     C521055   1.937   5.538   2.888 -0.0650 -0.9161 -0.4700
  108MYC     H621056   1.919   5.636   2.841 -0.3031 -0.6487  0.1728
  108MYC     H721057   2.021   5.561   2.954 -1.3931  3.6355 -0.0298
  108MYC     C421058   1.824   5.502   2.987  0.6299 -0.0977 -0.8643
  108MYC     H421059   1.836   5.395   3.007 -1.0794 -0.4372 -1.4677
  108MYC     H521060   1.725   5.510   2.939 -0.7031 -1.9427  1.3642
  108MYC     C221061   1.819   5.576   3.128 -0.1329 -0.6109 -0.5745
  108MYC     H221062   1.739   5.520   3.178 -0.5368  0.0238 -0.5037
  108MYC     O321063   1.944   5.562   3.193 -0.5088 -0.2925 -0.0496
  108MYC     H321064   2.012   5.609   3.141 -0.9509 -0.9422 -1.2682
  108MYC     C121065   1.768   5.719   3.123  0.2261  0.2171 -0.6579
  108MYC     H121066   1.676   5.716   3.064 -0.7000 -1.4302  0.7701
  108MYC    C8121067   1.871   5.821   3.059  0.0415  0.1115  0.9507
  108MYC    O8221068   1.989   5.839   3.092 -0.0293 -0.2172 -0.6445
  108MYC    O8321069   1.811   5.896   2.962  0.0288 -0.0887 -0.1797
  108MYC   H10521070   1.870   5.972   2.952  0.4221 -0.4611 -0.7349
  108MYC    C2021071   1.722   5.784   3.271  0.2497  0.0055  0.4918
  108MYC    H3421072   1.806   5.802   3.340  0.1518  0.1009  0.5877
  108MYC    H3521073   1.702   5.890   3.256  1.8977  0.0901 -1.4918
  108MYC    C2121074   1.615   5.710   3.354  0.3983  0.5742 -1.1896
  108MYC    H3621075   1.541   5.682   3.278 -0.5165 -0.2477 -0.0156
  108MYC    H3721076   1.644   5.612   3.393  0.4646  0.7223 -0.8697
  108MYC    C2221077   1.564   5.793   3.473  0.0357  0.2454 -0.7985
  108MYC    H3821078   1.650   5.806   3.539 -0.9091  1.5679  0.2327
  108MYC    H3921079   1.534   5.896   3.447  1.5683  0.8435 -0.3603
  108MYC    C2321080   1.451   5.715   3.549 -0.2243  0.0970 -0.2650
  108MYC    H4021081   1.363   5.730   3.485  0.5236 -0.8354 -1.5728
  108MYC    H4121082   1.475   5.608   3.540  1.6332  0.2722  1.7681
  108MYC    C2421083   1.411   5.754   3.693  0.1315 -0.2188 -0.0122
  108MYC    H4221084   1.345   5.679   3.738  1.2735 -0.7472  0.8392
  108MYC    H4321085   1.497   5.765   3.760 -0.6354  1.7590  0.7014
  108MYC    C2521086   1.337   5.889   3.707  0.5137  0.6273  0.1450
  108MYC    H4421087   1.410   5.966   3.679  2.2326 -0.7954  0.5344
  108MYC    H4521088   1.257   5.907   3.635  1.0788 -0.5894 -0.8175
  108MYC    C2621089   1.283   5.932   3.842  0.6425 -0.2559 -0.1310
  108MYC    H4621090   1.229   6.026   3.824  0.1688 -0.4299  0.3566
  108MYC    H4721091   1.207   5.859   3.871  0.2936 -0.4577 -1.4638
  108MYC    C2721092   1.386   5.947   3.954  0.1759 -0.2293 -0.5691
  108MYC    H4821093   1.450   5.858   3.957 -0.6585 -0.8214  1.6194
  108MYC    H4921094   1.451   6.034   3.939  0.6482 -0.5346 -0.3389
  108MYC    C2821095   1.312   5.964   4.090  0.1813 -0.2197 -0.2695
  108MYC    H5021096   1.271   5.864   4.102  1.8563 -1.0473 -1.1543
  108MYC    H5121097   1.383   5.971   4.173 -0.8610  2.0729  0.5368
  108MYC    C2921098   1.217   6.085   4.107  0.4238  0.5311 -0.6733
  108MYC    H5221099   1.273   6.179   4.099 -1.8289  1.8330 -2.2909
  108MYC    H5321100   1.148   6.082   4.022 -2.5782  0.7024  1.6065
  108MYC    C3021101   1.127   6.086   4.233  0.5471  0.1361  0.6740
  108MYC    H5421102   1.070   6.179   4.231 -1.5956 -1.1272 -0.5284
  108MYC    H5521103   1.059   6.002   4.211 -0.4911  0.6716  1.7665
  108MYC    C3121104   1.206   6.067   4.363  0.8863  0.0770  0.2463
  108MYC    H5621105   1.241   5.963   4.373  1.2861  0.3714  2.5438
  108MYC    H5721106   1.298   6.127   4.358  0.4850  0.6682 -0.0776
  108MYC    C3221107   1.117   6.086   4.492  0.0804 -0.0306 -0.6553
  108MYC    H5821108   1.179   6.092   4.582  0.0342 -0.6955 -0.5807
  108MYC    H5921109   1.074   6.187   4.484  0.6164  0.2475 -0.0915
  108MYC    C3321110   1.011   5.978   4.512 -0.4702 -0.5363 -0.0428
  108MYC    H6021111   0.963   5.967   4.415  0.6109 -1.2960 -0.5074
  108MYC    H6121112   1.059   5.881   4.532 -0.8641 -0.4588  1.4441
  108MYC    C3421113   0.895   6.029   4.614  0.0385  0.2009 -0.4867
  108MYC    H6221114   0.845   6.113   4.565  0.4857  0.3051 -0.7657
  108MYC    H6321115   0.816   5.953   4.621 -0.9816  1.1817 -1.0557
  108MYC    C3521116   0.935   6.069   4.752 -0.0715  0.1805 -0.2283
  108MYC    H6421117   1.000   5.986   4.782 -2.6123 -0.6031  4.0212
  108MYC    H6521118   1.003   6.154   4.754 -0.4742  0.5105  1.2728
  108MYC    C3621119   0.827   6.070   4.865 -0.4092 -0.7776  0.1797
  108MYC    H6621120   0.778   6.168   4.851 -0.7494 -1.2511 -2.4884
  108MYC    H6721121   0.758   5.988   4.845 -2.8202  0.6450  2.0608
  108MYC    C3721122   0.878   6.052   5.009 -0.0543 -0.6799  0.0259
  108MYC    H6821123   0.923   5.952   5.002  1.0103 -0.1579 -0.9531
  108MYC    H6921124   0.965   6.113   5.036  1.0550 -1.4354 -1.7028
  108MYC    C3821125   0.767   6.056   5.112  0.4686 -0.1164 -0.0393
  108MYC    H7021126   0.749   6.163   5.126  1.9707  0.4915 -2.2010
  108MYC    H7121127   0.672   6.014   5.077 -0.3784  0.6405  1.2663
  108MYC    C3921128   0.794   5.986   5.243 -0.2647 -0.6931 -0.1426
  108MYC    H7221129   0.806   5.878   5.233  0.4919 -0.5396 -0.9319
  108MYC    H7321130   0.882   6.022   5.299 -0.2114  0.5074 -0.9533
  108MYC    C4021131   0.682   6.002   5.344 -0.0368 -1.0859  0.1591
  108MYC    H7421132   0.650   6.107   5.351  1.2161 -0.7704  2.0140
  108MYC    H7521133   0.599   5.942   5.308 -1.8317  1.3216  0.0204
  108MYC    C4121134   0.720   5.945   5.488  0.7499 -0.5026  1.0028
  108MYC    H7621135   0.729   5.837   5.476  1.1941 -0.2774 -1.1542
  108MYC    H7721136   0.816   5.991   5.514 -0.5511  2.0548  1.6003
  108MYC    C4221137   0.617   5.977   5.601  0.8114 -0.4389 -0.7506
  108MYC    H7821138   0.511   5.973   5.573 -0.0150  0.0840  2.0292
  108MYC    H7921139   0.619   5.890   5.668 -2.0115 -1.5704 -2.0036
  108MYC    C4321140   0.653   6.107   5.672 -0.1396 -0.1622 -0.0163
  108MYC    H8021141   0.750   6.101   5.722  0.4894 -0.3700 -1.2369
  108MYC    H8121142   0.580   6.130   5.751 -2.1349 -0.1852 -1.7707
  108MYC    H8221143   0.652   6.190   5.600 -1.3908 -1.0969 -1.1217
  109MYC   HH1521144   0.638   0.339   5.490  0.2613  0.2252 -0.3498
  109MYC    C8021145   0.540   0.388   5.487  0.3711  0.4776  0.1118
  109MYC   H10021146   0.457   0.318   5.469  0.0928  1.1992 -1.5719
  109MYC   H10121147   0.512   0.433   5.583  0.0233  0.1060  0.1883
  109MYC    C7921148   0.553   0.497   5.377 -0.5353 -0.0644 -0.0216
  109MYC   H10221149   0.612   0.585   5.403 -0.5668  0.4703 -1.6149
  109MYC   H10321150   0.454   0.533   5.347 -0.6967  0.5960  1.2624
  109MYC    C7821151   0.626   0.437   5.248  0.6800  0.0987  0.7881
  109MYC   HH1421152   0.563   0.351   5.222  0.0564  0.9848 -0.7976
  109MYC   H10421153   0.722   0.399   5.285  0.0973 -1.8829  0.3934
  109MYC    C7721154   0.623   0.521   5.126  0.7323 -0.1516 -0.3552
  109MYC   H10621155   0.693   0.604   5.139 -1.1484  1.6952 -1.3461
  109MYC   H10721156   0.529   0.576   5.109  0.3038 -0.3424  1.2247
  109MYC    C7621157   0.653   0.440   5.003 -0.4259 -0.5250  0.1730
  109MYC   H10821158   0.582   0.357   4.989 -1.1534 -0.0003  0.6495
  109MYC   H10921159   0.752   0.396   5.016  0.4638  1.3830  0.1540
  109MYC    C7521160   0.656   0.530   4.872 -0.3323 -0.1694  0.5300
  109MYC   H11021161   0.733   0.608   4.875 -0.2264 -0.1894 -0.8005
  109MYC   H11121162   0.558   0.569   4.841 -0.3402 -1.9354 -1.9671
  109MYC    C7421163   0.693   0.453   4.745  0.0647 -0.1795  0.1535
  109MYC   H11221164   0.631   0.364   4.733 -0.6895  0.1959  1.1185
  109MYC   H11321165   0.795   0.423   4.774 -0.5239 -1.2885  1.1681
  109MYC    C7321166   0.699   0.528   4.610  0.2752  0.0905  0.0199
  109MYC   HH1321167   0.764   0.617   4.613 -1.9576  1.7996  1.2973
  109MYC   H11421168   0.599   0.562   4.579  0.5814  1.8671  0.8627
  109MYC    C7221169   0.746   0.442   4.486 -0.0396 -0.6238 -0.1709
  109MYC   H11521170   0.682   0.357   4.461  0.4806 -0.9697 -0.3354
  109MYC   H11621171   0.837   0.388   4.512  0.4610 -1.0403 -2.5788
  109MYC    C7121172   0.755   0.515   4.354  0.3947 -0.2117 -0.0675
  109MYC   H11721173   0.826   0.599   4.355 -0.3342  0.4260 -0.2599
  109MYC   H11821174   0.659   0.561   4.327 -0.0016 -0.0808  1.4881
  109MYC    C7021175   0.797   0.425   4.243 -0.1214 -0.1690 -0.0074
  109MYC   H11921176   0.726   0.341   4.242  0.7257 -0.9737  1.9680
  109MYC   H12021177   0.901   0.391   4.254  0.7349  0.2281 -4.7067
  109MYC    C6921178   0.807   0.496   4.107 -1.1198  0.3315 -0.1611
  109MYC   H12121179   0.867   0.588   4.107  0.3922 -0.6271 -0.6061
  109MYC   H12221180   0.705   0.528   4.081 -1.0508 -0.3543 -1.3623
  109MYC    C6821181   0.835   0.400   3.983 -0.8529  0.0079  0.0651
  109MYC   HH1221182   0.754   0.326   3.982  1.1440 -2.3279  1.9168
  109MYC   H12321183   0.933   0.355   3.997  0.6567  2.3083 -2.2020
  109MYC    C6721184   0.832   0.468   3.841 -0.4478  0.2015 -1.1636
  109MYC   H12421185   0.914   0.540   3.833 -1.8836  1.7307 -3.0393
  109MYC   H12521186   0.737   0.521   3.831 -1.0887  0.5171  3.8101
  109MYC    C6621187   0.835   0.362   3.732  0.2506 -0.5097 -0.5471
  109MYC   H12621188   0.745   0.300   3.747 -0.2123  0.3251  0.1933
  109MYC   H12721189   0.920   0.292   3.733  0.7519  0.0978  0.1650
  109MYC    C6521190   0.828   0.418   3.583 -0.3628  0.7307  0.3139
  109MYC   H12821191   0.922   0.472   3.569 -0.4589  0.7149 -0.4008
  109MYC   H12921192   0.755   0.497   3.561 -0.6272 -0.1913 -2.5549
  109MYC    C6421193   0.816   0.296   3.487 -0.1248 -0.3344  0.2896
  109MYC   H13021194   0.727   0.238   3.514  0.5047 -0.0486  3.3379
  109MYC   H13121195   0.898   0.225   3.502 -1.0149 -1.5223 -0.2713
  109MYC    C6321196   0.822   0.336   3.342  0.8499 -0.1712  0.3595
  109MYC   HH1121197   0.890   0.418   3.315  2.6989 -2.1759 -1.4798
  109MYC   H13221198   0.723   0.368   3.310  1.6356  1.8222 -0.2738
  109MYC    C6221199   0.856   0.212   3.257  0.0126 -0.8001  0.5424
  109MYC   H13321200   0.780   0.135   3.276 -0.6312 -0.2011  0.4251
  109MYC   H13421201   0.952   0.166   3.283  0.9647  1.2069  0.7194
  109MYC    C6121202   0.857   0.244   3.108  0.3810  0.6853 -0.0907
  109MYC   H13521203   0.884   0.349   3.093 -1.0512  1.3195  1.4595
  109MYC   H13621204   0.754   0.242   3.069  0.4457 -1.2683 -0.2348
  109MYC    C6021205   0.947   0.144   3.025 -0.4252 -0.0653  0.1310
  109MYC   H13721206   0.914   0.042   3.016 -0.9245  0.1613 -0.6218
  109MYC    C5821207   1.022   0.193   2.902 -1.0148  0.7390 -0.5347
  109MYC   H13821208   1.038   0.295   2.869  0.4171 -0.3723 -3.6574
  109MYC    C5921209   1.098   0.160   3.027  0.6722  0.2126 -0.0215
  109MYC   H13921210   1.161   0.073   3.046  0.3464  0.0744  0.4454
  109MYC   H14021211   1.132   0.251   3.073 -1.3077  0.7597  0.4581
  109MYC    C5721212   1.041   0.119   2.772  0.3120 -0.1816  0.1184
  109MYC   HH1021213   0.971   0.164   2.701  0.2139  0.2206  0.4672
  109MYC   H14121214   1.006   0.017   2.787  1.5285 -0.8624 -1.3715
  109MYC    C5621215   1.185   0.131   2.723  0.0362 -0.1114 -0.6612
  109MYC   H14221216   1.242   0.082   2.802 -0.7151 -2.0565 -1.2530
  109MYC   H14321217   1.210   0.238   2.716 -0.9268  0.2093  0.5033
  109MYC    C5521218   1.215   0.063   2.594 -0.0777  0.0460  0.1461
  109MYC   H14421219   1.160   0.117   2.516  2.7320  1.1524 -1.2373
  109MYC   H14521220   1.186  -0.043   2.597 -2.0227  0.5614  1.9571
  109MYC    C5421221   1.371   0.061   2.558 -0.7995 -0.5774 -0.7947
  109MYC   H14621222   1.422   0.017   2.645 -1.1620  1.8378  0.7564
  109MYC   H14721223   1.416   0.161   2.552 -1.0794 -0.4824 -1.3303
  109MYC    C5321224   1.402  -0.006   2.426  0.1794  0.4478 -0.0813
  109MYC   H14821225   1.335   0.043   2.354 -0.1164  0.6161  0.3041
  109MYC   H14921226   1.381  -0.114   2.435 -1.4402  0.5220 -2.1324
  109MYC    C5221227   1.551   0.009   2.389 -0.4266  0.6699  0.3968
  109MYC    H9921228   1.615  -0.031   2.468  0.9524  0.7046 -0.6692
  109MYC   H15021229   1.572   0.116   2.375  0.1275  0.5229  0.0915
  109MYC    C5121230   1.587  -0.062   2.256 -0.0153  0.4709  0.0635
  109MYC    H9721231   1.531  -0.005   2.181  1.1472  0.5889 -0.7312
  109MYC    H9821232   1.548  -0.164   2.263  1.5756 -0.3357 -2.0060
  109MYC    C5021233   1.732  -0.050   2.206 -0.4706  0.0974  0.8819
  109MYC    H9521234   1.797  -0.088   2.286  0.2952 -1.1486 -0.2720
  109MYC    H9621235   1.752   0.058   2.198  0.9128 -0.0588  1.8296
  109MYC    C4921236   1.753  -0.128   2.075 -0.6156  0.5186 -0.1720
  109MYC    H9321237   1.674  -0.100   2.004 -1.2493 -0.9018 -0.0729
  109MYC    H9421238   1.745  -0.235   2.097  1.5667  0.2989 -0.1957
  109MYC    C4821239   1.894  -0.119   2.009 -0.2682  0.2871  0.3114
  109MYC    H9121240   1.945  -0.022   2.011  1.4520 -0.5133 -1.3777
  109MYC    H9221241   1.887  -0.116   1.899  0.3930  2.2197  0.2700
  109MYC    C4721242   1.996  -0.216   2.067  0.0224 -0.1034 -0.2621
  109MYC    H8921243   1.957  -0.319   2.069  1.9644 -0.8938 -0.4163
  109MYC    H9021244   2.011  -0.197   2.174 -1.5266 -0.4411  0.0402
  109MYC    C4621245   2.135  -0.222   2.006 -0.1660 -0.1563 -0.3571
  109MYC    H8721246   2.160  -0.116   1.999 -0.9507  0.0253 -0.4762
  109MYC    H8821247   2.124  -0.261   1.904  1.6352 -0.7827 -0.3512
  109MYC    C4521248   2.245  -0.285   2.092 -0.3735 -0.0722  0.3833
  109MYC    H8521249   2.210  -0.387   2.112 -2.4004  0.4741 -0.2049
  109MYC    H8621250   2.250  -0.226   2.184 -1.7224  0.6593  0.0135
  109MYC    C4421251   2.384  -0.287   2.005 -0.0772 -0.4867 -0.4735
  109MYC    H8321252   2.382  -0.204   1.934 -0.2337  4.0955  4.2311
  109MYC    H8421253   2.384  -0.376   1.941  0.1643 -0.0761 -1.0536
  109MYC    C1821254   2.513  -0.267   2.088  0.1283 -0.2924  0.6904
  109MYC    H3121255   2.527  -0.176   2.146 -0.4763  1.5037 -1.7971
  109MYC    C1721256   2.586  -0.389   2.137  0.0561  0.1439 -0.0627
  109MYC    H3021257   2.547  -0.485   2.106 -1.3705  1.1056 -1.3860
  109MYC    C1921258   2.640  -0.313   2.019 -0.0654  0.4180  0.1139
  109MYC    H3221259   2.642  -0.372   1.928  3.2939 -0.1385  0.4442
  109MYC    H3321260   2.732  -0.267   2.053  0.3224 -1.0398  1.1198
  109MYC    C1621261   2.655  -0.396   2.270  0.7656 -0.1593 -1.1143
  109MYC    H2821262   2.699  -0.300   2.299  0.2171 -0.4957  0.9700
  109MYC    H2921263   2.745  -0.458   2.265  0.4105 -0.8685  0.6402
  109MYC    C1521264   2.564  -0.432   2.392  0.0983 -0.0163  0.7613
  109MYC    H2621265   2.624  -0.464   2.478 -2.9399 -0.5168  2.8364
  109MYC    H2721266   2.528  -0.527   2.350  1.2370 -0.4441  0.7248
  109MYC    C1421267   2.440  -0.344   2.435  0.0915 -0.9236  0.9935
  109MYC    H2421268   2.380  -0.316   2.347 -0.5003 -1.4095  1.2371
  109MYC    H2521269   2.491  -0.251   2.466 -1.2602 -0.4537  1.8863
  109MYC    C1321270   2.359  -0.395   2.555  0.5291 -0.2730 -0.8141
  109MYC    H2221271   2.290  -0.315   2.586  1.2492 -0.0258  0.2080
  109MYC    H2321272   2.434  -0.412   2.633  0.0185 -1.3068 -0.5261
  109MYC    C1221273   2.284  -0.518   2.527 -0.0224 -0.4267  0.1420
  109MYC    H2021274   2.243  -0.555   2.622 -1.3027 -1.0259 -0.6084
  109MYC    H2121275   2.343  -0.598   2.482  3.2962  0.6550  2.2341
  109MYC    C1121276   2.154  -0.505   2.439 -0.1072  0.6937  0.2220
  109MYC    H1821277   2.131  -0.597   2.384 -0.9978  0.2504  1.2878
  109MYC    H1921278   2.178  -0.437   2.356  0.6499  1.1088  0.7733
  109MYC    C1021279   2.026  -0.462   2.513  0.4557 -0.5513  0.9351
  109MYC    H1621280   2.059  -0.371   2.563  2.6478 -0.8017  0.0472
  109MYC    H1721281   1.996  -0.543   2.581  0.9240 -0.9509  0.6661
  109MYC     C921282   1.908  -0.436   2.414 -0.4099  0.4176  0.1743
  109MYC    H1421283   1.876  -0.531   2.370 -0.7983  1.1071 -1.0794
  109MYC    H1521284   1.938  -0.376   2.327  0.8794  1.4977  1.3219
  109MYC     C821285   1.785  -0.359   2.463 -0.0142 -1.0555  0.1903
  109MYC    H1221286   1.705  -0.361   2.388 -0.9837  1.0091  1.0742
  109MYC    H1321287   1.806  -0.251   2.467 -2.2232 -0.6129  1.4704
  109MYC     C721288   1.719  -0.405   2.595 -0.5310 -0.2132  0.0403
  109MYC    H1021289   1.784  -0.368   2.675  1.7519 -1.7872 -0.9940
  109MYC    H1121290   1.728  -0.514   2.603  0.6333 -0.1409 -0.2410
  109MYC     C621291   1.575  -0.345   2.616 -0.1354  0.4602  0.0738
  109MYC     H821292   1.505  -0.374   2.537  0.1299 -1.3782  0.4574
  109MYC     H921293   1.590  -0.237   2.606 -1.6222  1.4435  5.2776
  109MYC     C521294   1.515  -0.374   2.756  0.2706  0.4452 -0.9741
  109MYC     H621295   1.577  -0.329   2.835 -2.8832  0.9978  1.3955
  109MYC     H721296   1.503  -0.482   2.769  0.4181  0.3859 -1.3319
  109MYC     C421297   1.378  -0.295   2.762  0.1429 -0.2063  0.1007
  109MYC     H421298   1.322  -0.319   2.671  0.4780 -0.4382 -0.0486
  109MYC     H521299   1.402  -0.189   2.747  0.6542 -0.6866 -3.3524
  109MYC     C221300   1.292  -0.318   2.883  0.0758  0.1043  0.0569
  109MYC     H221301   1.191  -0.276   2.872 -0.2675 -0.3796  1.1539
  109MYC     O321302   1.257  -0.458   2.901  0.1611 -0.6473  0.5537
  109MYC     H321303   1.323  -0.504   2.956  0.9814 -1.7645 -1.2809
  109MYC     C121304   1.346  -0.259   3.015  0.8563  0.4601  0.3199
  109MYC     H121305   1.385  -0.159   2.991  0.6953  0.5330  0.3592
  109MYC    C8121306   1.455  -0.336   3.084  0.1741 -0.0607  0.2494
  109MYC    O8221307   1.440  -0.451   3.132 -0.1411 -0.7341 -0.1589
  109MYC    O8321308   1.581  -0.285   3.077  0.1593  0.3241  0.1181
  109MYC   H10521309   1.640  -0.340   3.131  0.6697  1.1698  0.4321
  109MYC    C2021310   1.229  -0.219   3.105 -0.2885 -0.0972  0.4351
  109MYC    H3421311   1.153  -0.165   3.047  0.0935 -0.6737 -0.6194
  109MYC    H3521312   1.185  -0.315   3.137  2.6213 -1.9669 -0.7332
  109MYC    C2121313   1.281  -0.138   3.239  0.8017  0.4727  0.9288
  109MYC    H3621314   1.369  -0.188   3.280  1.2949  0.4771 -0.1064
  109MYC    H3721315   1.318  -0.043   3.199 -0.5023  0.2871 -0.8412
  109MYC    C2221316   1.167  -0.123   3.347 -0.3623  0.5727 -0.1116
  109MYC    H3821317   1.099  -0.051   3.301 -0.0568  0.6786 -0.4070
  109MYC    H3921318   1.121  -0.223   3.351  0.6966  0.1039  0.7442
  109MYC    C2321319   1.214  -0.077   3.486 -0.7337  0.3982  0.1612
  109MYC    H4021320   1.303  -0.131   3.520 -0.0784  0.8913 -0.7300
  109MYC    H4121321   1.254   0.024   3.477 -0.1449  0.2521  1.0654
  109MYC    C2421322   1.102  -0.072   3.587  0.0852 -0.0827 -0.3910
  109MYC    H4221323   1.023  -0.013   3.537 -2.8159 -2.7915  0.7074
  109MYC    H4321324   1.069  -0.173   3.610 -0.8889 -0.1620 -1.9699
  109MYC    C2521325   1.126   0.006   3.723 -0.6708 -0.6145 -0.2882
  109MYC    H4421326   1.230   0.001   3.759 -2.0510  1.6432  5.0841
  109MYC    H4521327   1.122   0.113   3.703 -0.2574 -0.3597  0.9101
  109MYC    C2621328   1.033  -0.026   3.833 -0.1417  0.1209 -0.2331
  109MYC    H4621329   0.930  -0.004   3.801 -1.2532  1.5465  3.6628
  109MYC    H4721330   1.031  -0.131   3.862  0.0585  0.8129  2.5847
  109MYC    C2721331   1.070   0.052   3.964 -0.0724  0.3239 -0.2984
  109MYC    H4821332   1.173   0.030   3.996  0.8378  2.5626 -1.4570
  109MYC    H4921333   1.074   0.159   3.942  0.1975  0.3005 -0.3748
  109MYC    C2821334   0.973   0.019   4.074 -0.0866 -0.1216  0.0949
  109MYC    H5021335   0.875   0.048   4.034 -0.6428  1.1067  2.1790
  109MYC    H5121336   0.979  -0.088   4.097  1.2809  0.2153  1.4470
  109MYC    C2921337   1.002   0.083   4.207 -0.6349 -0.3248  0.6805
  109MYC    H5221338   1.096   0.031   4.230 -1.2609 -1.2482  1.1927
  109MYC    H5321339   1.013   0.189   4.182 -1.6393 -0.6419 -1.3987
  109MYC    C3021340   0.898   0.047   4.304 -0.5655  0.6486 -0.3952
  109MYC    H5421341   0.815   0.119   4.293 -1.5256 -0.4669 -0.6090
  109MYC    H5521342   0.864  -0.057   4.295 -1.4509  0.7253  1.5237
  109MYC    C3121343   0.941   0.063   4.452 -1.0951  0.1123 -0.1681
  109MYC    H5621344   1.023  -0.008   4.471 -1.4739 -0.9152 -2.1616
  109MYC    H5721345   0.986   0.163   4.465 -1.5217  0.0284  2.6324
  109MYC    C3221346   0.829   0.038   4.561  0.2127 -0.3375 -0.4614
  109MYC    H5821347   0.743   0.104   4.549 -0.6405 -1.2976  0.1758
  109MYC    H5921348   0.795  -0.063   4.535 -2.4450 -0.2090  1.9823
  109MYC    C3321349   0.878   0.041   4.712  0.1859  0.1283  0.1218
  109MYC    H6021350   0.956  -0.034   4.728  0.2473 -0.3765 -2.1818
  109MYC    H6121351   0.919   0.143   4.720 -1.6702  0.9392 -0.0024
  109MYC    C3421352   0.765   0.031   4.808 -0.0571  0.2351 -0.1583
  109MYC    H6221353   0.691   0.111   4.792 -0.3832  0.2557  1.3038
  109MYC    H6321354   0.707  -0.061   4.795 -0.7115  0.6900 -0.5627
  109MYC    C3521355   0.809   0.040   4.953  0.5323  0.3572 -0.1761
  109MYC    H6421356   0.876  -0.043   4.976  1.0424  1.0746  0.9951
  109MYC    H6521357   0.863   0.132   4.978 -0.0412  0.7291 -0.2885
  109MYC    C3621358   0.692   0.041   5.048 -0.1788  0.0333  0.0959
  109MYC    H6621359   0.632   0.131   5.032 -0.9280 -0.4155  0.3466
  109MYC    H6721360   0.620  -0.040   5.031 -1.0133  0.7382  0.2077
  109MYC    C3721361   0.745   0.032   5.189 -0.2018 -0.0133  0.0857
  109MYC    H6821362   0.823  -0.045   5.197  0.0245  0.3477  1.5510
  109MYC    H6921363   0.783   0.131   5.218 -0.5682  0.3288 -0.5628
  109MYC    C3821364   0.626  -0.008   5.285 -0.1668  0.0268  0.5908
  109MYC    H7021365   0.535   0.049   5.261  0.5864  0.9593 -0.1925
  109MYC    H7121366   0.596  -0.113   5.275  1.2987 -0.4172  0.6473
  109MYC    C3921367   0.663   0.025   5.431  1.3263  0.2904 -0.7295
  109MYC    H7221368   0.739  -0.047   5.465  0.5770  0.7113  2.1431
  109MYC    H7321369   0.704   0.126   5.429  1.4220  0.2429 -1.4899
  109MYC    C4021370   0.548   0.015   5.531  0.7229  0.4328 -0.2985
  109MYC    H7421371   0.468   0.086   5.508 -1.4703 -1.6892  0.2844
  109MYC    H7521372   0.498  -0.083   5.529 -0.8867  1.1933  0.7854
  109MYC    C4121373   0.594   0.040   5.673 -0.6603  0.0882  0.0413
  109MYC    H7621374   0.652  -0.048   5.702 -0.6399  0.2356  0.4513
  109MYC    H7721375   0.642   0.138   5.684 -0.4009 -0.0089 -0.2190
  109MYC    C4221376   0.482   0.042   5.775 -0.3160 -0.3956  0.6626
  109MYC    H7821377   0.410   0.113   5.732  1.4259  0.0025 -1.8248
  109MYC    H7921378   0.437  -0.058   5.775  0.4792 -0.8006  2.6350
  109MYC    C4321379   0.514   0.092   5.915  0.4524  0.5057 -0.0331
  109MYC    H8021380   0.434   0.074   5.988  0.4886  0.8020  0.0833
  109MYC    H8121381   0.519   0.201   5.921  3.6076  0.8189 -4.0671
  109MYC    H8221382   0.604   0.038   5.947 -0.1418 -0.2416  0.3998
  110MYC   HH1521383   1.415   1.539   5.457 -0.0652 -0.1519 -0.1326
  110MYC    C8021384   1.447   1.612   5.532  0.2164 -0.0802 -0.3185
  110MYC   H10021385   1.356   1.661   5.570 -0.2571 -1.2637  0.1472
  110MYC   H10121386   1.482   1.555   5.619 -0.9698  1.9528  1.6133
  110MYC    C7921387   1.543   1.712   5.478  0.3291 -0.0732  0.3379
  110MYC   H10221388   1.650   1.689   5.477  0.4659  0.5341 -0.7442
  110MYC   H10321389   1.541   1.802   5.541 -2.0290 -1.0188  1.7221
  110MYC    C7821390   1.493   1.758   5.336 -0.6496  0.1652 -0.0978
  110MYC   HH1421391   1.512   1.866   5.334 -0.1590  0.2248  3.2475
  110MYC   H10421392   1.384   1.743   5.327 -0.3607 -2.1231 -0.5963
  110MYC    C7721393   1.576   1.689   5.225  0.1306 -0.3886 -0.2069
  110MYC   H10621394   1.563   1.581   5.241 -1.4426 -0.4403 -1.5918
  110MYC   H10721395   1.684   1.708   5.235 -0.0875  1.5779 -1.0603
  110MYC    C7621396   1.531   1.739   5.083  0.5121 -0.6163 -0.5006
  110MYC   H10821397   1.568   1.842   5.074 -0.9079 -0.0634 -0.3012
  110MYC   H10921398   1.422   1.729   5.083  0.3337  0.7686  0.8857
  110MYC    C7521399   1.598   1.668   4.971 -0.4036 -0.0118  0.5315
  110MYC   H11021400   1.556   1.567   4.968  1.0351 -0.6630  1.3750
  110MYC   H11121401   1.702   1.663   5.004 -1.1543 -3.3829  2.8095
  110MYC    C7421402   1.576   1.739   4.836  0.1294 -0.0464  0.1594
  110MYC   H11221403   1.632   1.833   4.840 -1.4359  0.8835  1.6546
  110MYC   H11321404   1.473   1.763   4.809 -0.9043 -1.0962  2.8092
  110MYC    C7321405   1.624   1.648   4.714 -0.4667  0.4519 -0.2133
  110MYC   HH1321406   1.566   1.555   4.714  0.0519  0.1097  0.9275
  110MYC   H11421407   1.723   1.611   4.743 -1.0971  0.2520  1.8750
  110MYC    C7221408   1.626   1.719   4.577 -0.2765 -0.0494  1.2019
  110MYC   H11521409   1.690   1.808   4.587 -3.4626  2.5655  0.2308
  110MYC   H11621410   1.524   1.752   4.553  0.4345  1.2554 -0.2215
  110MYC    C7121411   1.678   1.626   4.460  0.7181 -0.4448  0.4808
  110MYC   H11721412   1.608   1.542   4.467  1.2813 -0.9072  0.6229
  110MYC   H11821413   1.775   1.582   4.485  0.3618 -2.1696 -0.9528
  110MYC    C7021414   1.680   1.676   4.318  0.5527 -1.0444 -0.8956
  110MYC   H11921415   1.733   1.772   4.316 -2.0360  0.6600  2.1903
  110MYC   H12021416   1.587   1.715   4.275  1.4494  2.5194  0.0093
  110MYC    C6921417   1.725   1.561   4.221 -0.1430  0.8281  0.0967
  110MYC   H12121418   1.673   1.467   4.243 -0.9880  0.8630 -1.5858
  110MYC   H12221419   1.830   1.550   4.250 -0.2551  1.0747  0.5977
  110MYC    C6821420   1.722   1.602   4.071 -0.0232 -0.5067 -0.6647
  110MYC   HH1221421   1.784   1.692   4.057 -2.1489  1.6244  2.1036
  110MYC   H12321422   1.619   1.635   4.056 -0.4199  0.6641  3.2760
  110MYC    C6721423   1.763   1.492   3.976 -0.7195  0.5879  0.6397
  110MYC   H12421424   1.688   1.414   3.989 -1.4803  0.8059 -1.8246
  110MYC   H12521425   1.861   1.453   4.005 -0.2207 -0.0852 -1.7277
  110MYC    C6621426   1.765   1.536   3.824  0.1013 -0.0056  0.0196
  110MYC   H12621427   1.812   1.633   3.808 -0.1821  0.6587  2.6671
  110MYC   H12721428   1.664   1.548   3.782  0.9271  0.6130 -1.8983
  110MYC    C6521429   1.834   1.426   3.736  0.2062  0.5625  0.2262
  110MYC   H12821430   1.772   1.336   3.751  1.5307 -0.5694 -0.8918
  110MYC   H12921431   1.937   1.399   3.762  0.3210 -1.5661 -2.0698
  110MYC    C6421432   1.841   1.455   3.587  0.4454  0.2688  0.2396
  110MYC   H13021433   1.896   1.550   3.581 -0.1778  0.6259  0.1018
  110MYC   H13121434   1.739   1.464   3.547  0.0235 -1.6217  0.8126
  110MYC    C6321435   1.916   1.347   3.512 -0.2856  0.7198 -0.0591
  110MYC   HH1121436   1.870   1.251   3.536  0.8207 -0.5578 -2.7317
  110MYC   H13221437   2.017   1.330   3.552 -1.0799 -0.4179  1.5640
  110MYC    C6221438   1.930   1.361   3.368  0.3207  0.0735  0.0057
  110MYC   H13321439   1.981   1.455   3.346 -0.4687  0.2460 -1.1596
  110MYC   H13421440   1.832   1.372   3.321  0.8061  0.9067 -0.8371
  110MYC    C6121441   2.003   1.254   3.295 -0.0170  0.6215  0.4313
  110MYC   H13521442   1.967   1.151   3.306 -0.1671  0.6594  0.3001
  110MYC   H13621443   2.101   1.247   3.343 -0.2253 -1.0008  0.6812
  110MYC    C6021444   2.021   1.288   3.148 -0.3788 -0.3637  0.1214
  110MYC   H13721445   2.062   1.387   3.127  2.2683 -1.7881 -2.0399
  110MYC    C5821446   2.088   1.185   3.077  0.5156 -0.2379  0.8353
  110MYC   H13821447   2.091   1.086   3.122  0.4022 -1.8536 -2.4521
  110MYC    C5921448   1.948   1.217   3.038  0.5381  0.1490  0.0364
  110MYC   H13921449   1.942   1.253   2.935 -3.0084 -2.3960 -0.8492
  110MYC   H14021450   1.875   1.138   3.056  0.5024  0.5559  1.7509
  110MYC    C5721451   2.212   1.204   2.998  0.1908  0.2375  0.0558
  110MYC   HH1021452   2.219   1.304   2.954  0.6089 -0.3880 -1.3891
  110MYC   H14121453   2.209   1.138   2.910  0.2272 -2.3012  1.8589
  110MYC    C5621454   2.337   1.174   3.074 -0.0120  0.4870  0.4536
  110MYC   H14221455   2.338   1.068   3.103 -1.7860 -0.1460 -1.5608
  110MYC   H14321456   2.331   1.236   3.164 -2.3804 -1.1997  1.5517
  110MYC    C5521457   2.467   1.198   2.986  0.0949 -0.7439  0.1277
  110MYC   H14421458   2.555   1.206   3.051  1.3750 -1.3843 -1.4477
  110MYC   H14521459   2.476   1.295   2.935  0.2802 -1.9809 -2.3896
  110MYC    C5421460   2.492   1.091   2.880  0.4637 -0.0396 -0.2158
  110MYC   H14621461   2.409   1.098   2.808 -0.0177 -1.1844  0.2003
  110MYC   H14721462   2.463   0.996   2.926 -0.3843 -0.1268 -0.9049
  110MYC    C5321463   2.618   1.092   2.794 -0.1787  0.3259 -0.2887
  110MYC   H14821464   2.696   1.030   2.840 -0.1921 -2.0706 -3.1539
  110MYC   H14921465   2.650   1.196   2.777  0.3683 -0.0283 -1.5312
  110MYC    C5221466   2.593   1.029   2.650  0.7683  0.2277 -0.4800
  110MYC    H9921467   2.521   1.093   2.598 -1.6483 -1.7011  0.3472
  110MYC   H15021468   2.544   0.934   2.674  1.4991  0.1662  0.8121
  110MYC    C5121469   2.726   0.987   2.568 -0.7943 -0.1766 -0.7228
  110MYC    H9721470   2.786   0.908   2.615 -1.1867  0.2676  0.5590
  110MYC    H9821471   2.784   1.080   2.567  1.0815 -1.2798 -2.5433
  110MYC    C5021472   2.695   0.941   2.432  0.1022  1.2847 -0.3654
  110MYC    H9521473   2.595   0.966   2.394 -0.5622 -2.7237 -1.8291
  110MYC    H9621474   2.697   0.831   2.423  2.6334  1.2559 -0.0403
  110MYC    C4921475   2.797   0.995   2.332  0.0604 -0.3842  0.4540
  110MYC    H9321476   2.795   1.104   2.328 -1.1250 -0.4006  0.2619
  110MYC    H9421477   2.767   0.968   2.230  0.1534  0.4308  0.2002
  110MYC    C4821478   2.945   0.957   2.360  0.4051  0.7109 -0.2881
  110MYC    H9121479   2.944   0.848   2.351 -2.9449  0.6108  0.0223
  110MYC    H9221480   2.976   0.978   2.464  2.4992 -0.4561 -0.6132
  110MYC    C4721481   3.049   1.026   2.266 -0.1221 -0.3238 -0.3101
  110MYC    H8921482   3.148   1.000   2.306 -0.1193  0.5604  0.2751
  110MYC    H9021483   3.044   1.133   2.288  2.2134 -0.3334  0.5752
  110MYC    C4621484   3.025   0.985   2.111 -0.4387 -0.2043  0.0000
  110MYC    H8721485   2.922   1.000   2.074 -0.3441  0.3211 -0.0507
  110MYC    H8821486   3.019   0.875   2.106 -0.9915 -0.2040  0.4485
  110MYC    C4521487   3.126   1.036   2.009  0.3803 -0.5448 -0.4396
  110MYC    H8521488   3.226   0.995   2.031  0.6287  0.0652 -0.4242
  110MYC    H8621489   3.131   1.144   2.027  0.1510 -0.9416  2.5674
  110MYC    C4421490   3.092   0.994   1.865  0.4130  0.2156 -0.4883
  110MYC    H8321491   3.155   1.064   1.809 -0.0512  0.8193 -0.2672
  110MYC    H8421492   2.982   0.994   1.859  0.2299 -0.4177  1.8267
  110MYC    C1821493   3.131   0.853   1.831  1.0044  0.2508 -0.6568
  110MYC    H3121494   3.232   0.829   1.866  0.2345  0.5774  1.9539
  110MYC    C1721495   3.028   0.736   1.836  0.3735 -0.5600  0.0212
  110MYC    H3021496   2.922   0.756   1.850  0.1170 -1.8987  0.1363
  110MYC    C1921497   3.082   0.781   1.703  0.0878  0.0021 -0.6301
  110MYC    H3221498   3.017   0.844   1.643  0.9203 -0.1440 -1.7250
  110MYC    H3321499   3.141   0.707   1.649 -1.1673 -0.6559 -1.1343
  110MYC    C1621500   3.077   0.611   1.905 -0.7502  0.9083  0.5748
  110MYC    H2821501   3.107   0.643   2.005  0.9308  0.0893  0.3725
  110MYC    H2921502   3.167   0.574   1.854  0.0881  1.5454  1.5572
  110MYC    C1521503   2.979   0.495   1.897  0.0274 -0.0697  0.2349
  110MYC    H2621504   3.016   0.418   1.966  1.1358  0.6871  0.5097
  110MYC    H2721505   2.985   0.449   1.798 -1.9424 -0.8423  0.4302
  110MYC    C1421506   2.831   0.531   1.928  0.1887 -0.0693 -0.8711
  110MYC    H2421507   2.776   0.437   1.920 -0.7115  0.5184 -1.8808
  110MYC    H2521508   2.794   0.601   1.852  0.5898  1.3448  0.1872
  110MYC    C1321509   2.804   0.595   2.069 -0.4673  0.4341 -0.1107
  110MYC    H2221510   2.871   0.681   2.077 -0.6145  0.4725  0.8813
  110MYC    H2321511   2.843   0.528   2.147  2.2346  1.5806 -0.3643
  110MYC    C1221512   2.659   0.634   2.100 -0.0366  0.8674  0.1007
  110MYC    H2021513   2.623   0.692   2.014  0.5000  0.3582 -0.4726
  110MYC    H2121514   2.656   0.714   2.175  0.3654  0.5810  0.4244
  110MYC    C1121515   2.561   0.519   2.126  1.1704 -0.5350 -0.3258
  110MYC    H1821516   2.590   0.447   2.203 -0.8580 -0.2603  0.7596
  110MYC    H1921517   2.547   0.459   2.035 -0.8058  1.0713 -1.1917
  110MYC    C1021518   2.416   0.565   2.147  0.4798 -0.2642  0.0683
  110MYC    H1621519   2.350   0.477   2.147  0.7455 -0.5347 -2.4385
  110MYC    H1721520   2.369   0.616   2.063 -2.1301 -1.4532  0.6921
  110MYC     C921521   2.383   0.654   2.271 -0.9703  0.0815  0.0327
  110MYC    H1421522   2.451   0.736   2.296 -1.6193  0.3616  0.9558
  110MYC    H1521523   2.401   0.594   2.361 -1.7138 -1.8983 -1.0741
  110MYC     C821524   2.242   0.719   2.273  0.4538  0.9253 -0.6380
  110MYC    H1221525   2.163   0.649   2.302 -1.3176  3.2566  0.5456
  110MYC    H1321526   2.222   0.755   2.172  1.6885  1.3685 -0.7446
  110MYC     C721527   2.227   0.832   2.376  0.2095  0.8443  0.4028
  110MYC    H1021528   2.129   0.878   2.360  0.4812  0.6310 -2.5822
  110MYC    H1121529   2.287   0.920   2.349  0.7809  0.3675  0.0956
  110MYC     C621530   2.250   0.794   2.524  0.6389  0.2591  0.1089
  110MYC     H821531   2.344   0.836   2.561  0.0359  0.7336  1.1548
  110MYC     H921532   2.246   0.685   2.540 -0.2095  0.2309 -0.2820
  110MYC     C521533   2.134   0.857   2.627  0.3938  0.1098  0.7808
  110MYC     H621534   2.039   0.813   2.593  1.9355 -2.6040 -0.4057
  110MYC     H721535   2.128   0.966   2.619 -1.9775  0.0076  0.2523
  110MYC     C421536   2.164   0.815   2.767 -0.6958 -0.5291  0.1252
  110MYC     H421537   2.256   0.868   2.793  2.2153 -5.0638  0.1011
  110MYC     H521538   2.195   0.710   2.768  1.3786  0.0371  0.0569
  110MYC     C221539   2.045   0.848   2.875 -0.3487  0.2704  0.0922
  110MYC     H221540   2.095   0.861   2.972 -0.0175  0.3062 -0.0827
  110MYC     O321541   1.958   0.960   2.841 -0.5618  0.2484 -0.3207
  110MYC     H321542   1.896   0.926   2.774  0.7845 -0.2065 -1.3697
  110MYC     C121543   1.942   0.728   2.890 -0.7678  0.5118  0.8432
  110MYC     H121544   2.009   0.654   2.936 -2.0513  0.2645  2.4346
  110MYC    C8121545   1.890   0.671   2.756  0.0526  0.2853  0.4063
  110MYC    O8221546   1.795   0.723   2.699  0.3896 -0.3418  0.2132
  110MYC    O8321547   1.954   0.565   2.698  0.3176  0.4231 -0.1117
  110MYC   H10521548   1.906   0.547   2.615  0.2024 -0.5782  0.1534
  110MYC    C2021549   1.818   0.744   2.989  0.4591 -0.0175  1.0695
  110MYC    H3421550   1.738   0.806   2.949 -2.6239 -3.6361  1.0714
  110MYC    H3521551   1.759   0.652   2.986 -3.1322  2.0348 -3.5588
  110MYC    C2121552   1.864   0.779   3.133 -0.1550 -0.3132 -0.1197
  110MYC    H3621553   1.939   0.702   3.151 -1.8531 -1.9136  0.4495
  110MYC    H3721554   1.916   0.874   3.148 -0.2003 -0.6659  2.9242
  110MYC    C2221555   1.743   0.761   3.232 -0.2187  0.0214 -0.4849
  110MYC    H3821556   1.660   0.828   3.205  0.2143  0.8810  0.2407
  110MYC    H3921557   1.708   0.657   3.235  0.9204 -0.4774 -2.6133
  110MYC    C2321558   1.785   0.778   3.379 -0.2621 -0.3237  0.5095
  110MYC    H4021559   1.875   0.716   3.387  0.0316 -0.0920 -0.8227
  110MYC    H4121560   1.818   0.879   3.406  1.4738 -0.7296 -0.0363
  110MYC    C2421561   1.685   0.743   3.486  0.3338 -0.3245  0.5092
  110MYC    H4221562   1.608   0.821   3.480  1.0674  0.3671 -0.0434
  110MYC    H4321563   1.632   0.649   3.464  0.0025  0.3266 -1.7094
  110MYC    C2521564   1.743   0.747   3.631  0.5614  0.3011 -0.1175
  110MYC    H4421565   1.837   0.691   3.644  0.2582 -0.1783  0.0408
  110MYC    H4521566   1.780   0.848   3.649  2.2537  0.0316 -1.8228
  110MYC    C2621567   1.635   0.714   3.738 -0.2455  0.4932 -0.1180
  110MYC    H4621568   1.557   0.791   3.726  0.4751  1.5452  1.6398
  110MYC    H4721569   1.601   0.610   3.731  1.0761  0.0683 -0.4478
  110MYC    C2721570   1.706   0.735   3.881  0.1184 -0.3520 -0.2801
  110MYC    H4821571   1.805   0.691   3.896 -0.0191 -0.2053  1.2839
  110MYC    H4921572   1.722   0.844   3.883  2.1607 -0.5993 -1.1163
  110MYC    C2821573   1.615   0.694   3.994 -0.4082 -0.0768  0.0970
  110MYC    H5021574   1.526   0.752   3.967 -0.4769 -0.3680 -0.3152
  110MYC    H5121575   1.598   0.586   3.983 -1.4179 -0.0038  0.8085
  110MYC    C2921576   1.667   0.716   4.134  1.3099 -0.2011 -0.1542
  110MYC    H5221577   1.762   0.661   4.135 -0.0447 -2.7062 -1.9163
  110MYC    H5321578   1.692   0.823   4.133 -0.0413  0.1267 -0.5323
  110MYC    C3021579   1.562   0.675   4.239  0.6583 -0.5055 -0.3889
  110MYC    H5421580   1.468   0.731   4.233 -0.8779 -2.7187  1.1331
  110MYC    H5521581   1.537   0.568   4.236 -1.4495 -0.0989  0.4474
  110MYC    C3121582   1.618   0.702   4.384  0.5314  0.0724 -0.7747
  110MYC    H5621583   1.719   0.661   4.396  0.5258  0.1763 -0.3288
  110MYC    H5721584   1.628   0.811   4.396 -2.3031  0.3930 -0.4657
  110MYC    C3221585   1.522   0.656   4.494 -0.0671 -0.2843  0.1781
  110MYC    H5821586   1.427   0.710   4.485 -1.6192 -3.0631 -1.5774
  110MYC    H5921587   1.495   0.550   4.487 -1.6128  0.1732 -1.2390
  110MYC    C3321588   1.583   0.666   4.641 -0.4465  0.3695  0.1433
  110MYC    H6021589   1.673   0.604   4.648 -0.4653  0.4134  0.8694
  110MYC    H6121590   1.623   0.766   4.662  0.9859 -0.5557  2.1576
  110MYC    C3421591   1.482   0.633   4.759 -0.1574  0.2729 -0.0101
  110MYC    H6221592   1.389   0.689   4.742 -1.8178 -2.3029  0.0298
  110MYC    H6321593   1.448   0.530   4.771  0.9812 -0.0601  0.5286
  110MYC    C3521594   1.542   0.660   4.904  0.0906  0.1350  0.0209
  110MYC    H6421595   1.636   0.606   4.921  0.4004  0.9603  1.0650
  110MYC    H6521596   1.571   0.766   4.907  1.5117 -0.2481  2.6957
  110MYC    C3621597   1.443   0.617   5.021 -0.1739 -0.3810 -0.2029
  110MYC    H6621598   1.347   0.668   5.007 -0.0889 -0.2464 -0.3018
  110MYC    H6721599   1.417   0.511   5.014 -1.0780 -0.1850  0.0465
  110MYC    C3721600   1.501   0.643   5.157 -0.4276  0.1247 -0.3400
  110MYC    H6821601   1.586   0.576   5.174  0.7852  2.0768  1.9006
  110MYC    H6921602   1.542   0.744   5.168  1.2178 -0.6853  1.6618
  110MYC    C3821603   1.398   0.630   5.270  0.4337 -0.6331  0.0769
  110MYC    H7021604   1.316   0.702   5.255  1.1165  0.4432  1.2817
  110MYC    H7121605   1.370   0.524   5.277 -1.6005 -0.0435  2.1076
  110MYC    C3921606   1.467   0.654   5.410  0.0401  0.7725 -0.0397
  110MYC    H7221607   1.561   0.597   5.415  1.1955  2.2462 -2.6150
  110MYC    H7321608   1.504   0.757   5.423 -0.0632  0.6709  1.1128
  110MYC    C4021609   1.379   0.628   5.525  0.1939 -0.1820 -0.2663
  110MYC    H7421610   1.292   0.695   5.519 -0.8635 -1.1898  2.4340
  110MYC    H7521611   1.325   0.533   5.516  2.2896 -1.3898 -0.6287
  110MYC    C4121612   1.450   0.639   5.659 -0.1525 -0.4412  0.7825
  110MYC    H7621613   1.543   0.586   5.634 -0.2627  0.2344 -1.2484
  110MYC    H7721614   1.473   0.745   5.671 -1.6954  0.0719 -0.3656
  110MYC    C4221615   1.373   0.594   5.785 -0.1340  0.3678  0.3207
  110MYC    H7821616   1.275   0.643   5.778 -0.8094 -0.8207  1.0999
  110MYC    H7921617   1.354   0.487   5.779 -0.7102  0.2494  2.9482
  110MYC    C4321618   1.440   0.615   5.917 -0.1581 -0.5845  0.5040
  110MYC    H8021619   1.495   0.710   5.920  1.5971 -1.5058 -0.9585
  110MYC    H8121620   1.516   0.536   5.926 -0.4766 -0.8807  0.6147
  110MYC    H8221621   1.370   0.613   6.002  0.0228 -0.9292  0.6490
  111MYC   HH1521622   1.751   2.198   5.500 -1.5336  0.0164  1.1500
  111MYC    C8021623   1.719   2.096   5.474 -0.0394 -0.2041  0.0551
  111MYC   H10021624   1.630   2.068   5.531 -1.9408 -0.6023 -2.9281
  111MYC   H10121625   1.672   2.095   5.375  0.1777 -0.8357 -0.0464
  111MYC    C7921626   1.841   2.000   5.482  0.0694  0.9295  0.5842
  111MYC   H10221627   1.804   1.898   5.467 -1.8290  1.8410 -1.6259
  111MYC   H10321628   1.894   1.998   5.578 -0.4181 -2.3444  0.9007
  111MYC    C7821629   1.931   2.019   5.354 -0.4886  0.1094  0.5419
  111MYC   HH1421630   2.028   1.973   5.374 -1.4770 -1.0951  3.1193
  111MYC   H10421631   1.953   2.126   5.362 -1.3070  0.2244  1.5607
  111MYC    C7721632   1.869   1.968   5.223 -0.2803  0.0391  0.1439
  111MYC   H10621633   1.777   2.021   5.196  0.5514  0.0698 -3.0765
  111MYC   H10721634   1.841   1.862   5.228 -0.4456  0.0746 -0.0207
  111MYC    C7621635   1.961   2.003   5.109  0.4726  0.0530  0.7214
  111MYC   H10821636   2.062   1.960   5.112  0.3693 -0.1785  0.9277
  111MYC   H10921637   1.967   2.111   5.094  1.0611 -0.3076 -2.3296
  111MYC    C7521638   1.898   1.955   4.965  0.0435 -0.4449 -0.4405
  111MYC   H11021639   1.807   2.015   4.952 -0.1184  0.7543  4.2952
  111MYC   H11121640   1.880   1.847   4.967  2.4272 -0.9095 -1.0953
  111MYC    C7421641   2.007   1.986   4.859  0.2065  0.0199 -0.5061
  111MYC   H11221642   2.101   1.937   4.887 -0.7065 -2.0786 -0.9796
  111MYC   H11321643   2.028   2.093   4.844 -0.0772 -0.0372 -1.3878
  111MYC    C7321644   1.958   1.925   4.721 -0.4431 -0.1338 -0.5231
  111MYC   HH1321645   1.867   1.976   4.685 -0.8906  1.7140  2.8583
  111MYC   H11421646   1.919   1.826   4.745 -1.1570  0.4994  1.0837
  111MYC    C7221647   2.063   1.918   4.615  0.4550 -0.7698  0.1376
  111MYC   H11521648   2.135   1.838   4.635  0.1053 -2.2192 -3.5723
  111MYC   H11621649   2.117   2.013   4.619 -0.5451  0.0144 -2.6254
  111MYC    C7121650   2.000   1.896   4.465  0.8629  0.0764 -0.2646
  111MYC   H11721651   1.949   1.989   4.438 -1.2686 -1.0819 -0.3830
  111MYC   H11821652   1.924   1.817   4.466  0.0466  0.8455 -0.6681
  111MYC    C7021653   2.100   1.862   4.358 -0.1187 -0.3091  0.1322
  111MYC   H11921654   2.167   1.778   4.383  0.9336  0.2957 -0.5931
  111MYC   H12021655   2.171   1.945   4.351  0.3316 -0.6995 -0.0436
  111MYC    C6921656   2.037   1.832   4.221  0.3153 -0.8290 -0.1593
  111MYC   H12121657   1.961   1.908   4.198 -0.7331 -1.3262  1.4966
  111MYC   H12221658   1.992   1.733   4.221  0.7786 -1.0428  0.0656
  111MYC    C6821659   2.142   1.822   4.113  0.2436 -0.6530  0.0699
  111MYC   HH1221660   2.220   1.752   4.145  1.7557  0.4831 -0.9636
  111MYC   H12321661   2.182   1.923   4.097 -1.6152  0.0583 -0.2809
  111MYC    C6721662   2.074   1.770   3.991 -0.4162 -0.8366  0.1182
  111MYC   H12421663   2.010   1.849   3.951  1.1127  0.8983  0.9532
  111MYC   H12521664   2.032   1.670   4.006 -3.4152  0.3080  0.0937
  111MYC    C6621665   2.191   1.758   3.886  0.0660 -0.8475  0.6101
  111MYC   H12621666   2.259   1.687   3.934 -0.3531 -1.5799  0.1431
  111MYC   H12721667   2.231   1.859   3.875 -1.0412 -0.3352  1.1103
  111MYC    C6521668   2.144   1.693   3.753  0.0506 -0.4103 -0.2739
  111MYC   H12821669   2.060   1.759   3.725  0.2381  0.1367  0.4380
  111MYC   H12921670   2.117   1.587   3.766 -0.9363  0.0158  1.4507
  111MYC    C6421671   2.248   1.696   3.634 -0.0367 -0.3450 -0.9802
  111MYC   H13021672   2.328   1.635   3.678 -2.1818  0.0316  4.2460
  111MYC   H13121673   2.291   1.796   3.620 -0.5588 -0.2688 -2.1724
  111MYC    C6321674   2.194   1.639   3.499 -0.3658 -0.8444 -0.0609
  111MYC   HH1121675   2.103   1.698   3.483 -0.4304 -0.0567  2.6566
  111MYC   H13221676   2.172   1.532   3.509  2.3004 -1.7386 -2.2950
  111MYC    C6221677   2.302   1.645   3.382 -0.6506  0.0406 -0.0281
  111MYC   H13321678   2.384   1.581   3.418 -0.2588  0.0360 -0.9149
  111MYC   H13421679   2.338   1.747   3.363  0.4639 -0.7204 -2.4065
  111MYC    C6121680   2.247   1.586   3.247  0.2994  0.2312  0.3220
  111MYC   H13521681   2.161   1.638   3.203  0.3673  0.7213  0.7502
  111MYC   H13621682   2.217   1.484   3.271 -0.5833  0.7965  1.7719
  111MYC    C6021683   2.360   1.594   3.146  0.4725  0.0429  0.1922
  111MYC   H13721684   2.440   1.525   3.173  0.7818 -0.2823 -1.4037
  111MYC    C5821685   2.330   1.624   3.004  0.2044 -0.3030  0.1649
  111MYC   H13821686   2.230   1.658   2.980 -1.1142 -3.2804  1.0573
  111MYC    C5921687   2.418   1.718   3.087 -0.1875  0.1173  1.0240
  111MYC   H13921688   2.521   1.732   3.055 -0.3612  1.9741  1.1493
  111MYC   H14021689   2.379   1.819   3.103  2.0842  1.3419 -0.5704
  111MYC    C5721690   2.382   1.561   2.883  0.0846  0.0036  0.4079
  111MYC   HH1021691   2.320   1.474   2.859  0.5804  0.0507 -1.1361
  111MYC   H14121692   2.479   1.513   2.900  0.1802 -0.1692 -0.5701
  111MYC    C5621693   2.371   1.654   2.760 -0.2469 -0.1371  0.3154
  111MYC   H14221694   2.419   1.752   2.772 -1.8846  0.9534 -1.4969
  111MYC   H14321695   2.265   1.680   2.747 -0.4733 -0.7010  0.9512
  111MYC    C5521696   2.424   1.597   2.619 -0.0285  0.1343 -0.3293
  111MYC   H14421697   2.531   1.576   2.627  0.4632  1.3498 -2.8756
  111MYC   H14521698   2.406   1.675   2.544 -0.2612  1.5446  1.1575
  111MYC    C5421699   2.359   1.452   2.576  0.2288 -0.3730 -0.0868
  111MYC   H14621700   2.255   1.456   2.609  0.0026  0.4818 -0.8551
  111MYC   H14721701   2.394   1.364   2.630 -2.3324 -0.9764  0.7261
  111MYC    C5321702   2.359   1.428   2.422 -0.0297  0.6537 -0.0222
  111MYC   H14821703   2.332   1.519   2.368 -1.1168 -0.3359 -1.2127
  111MYC   H14921704   2.279   1.357   2.395  0.1533  0.4452 -0.0176
  111MYC    C5221705   2.483   1.376   2.357 -0.1321  0.6234 -0.3229
  111MYC    H9921706   2.467   1.324   2.262  1.2718  0.7427 -0.6368
  111MYC   H15021707   2.531   1.307   2.428 -0.9929 -1.1497 -1.3964
  111MYC    C5121708   2.585   1.484   2.315  0.0073  0.1848 -0.4276
  111MYC    H9721709   2.631   1.526   2.405  1.9400 -2.5639  0.0199
  111MYC    H9821710   2.533   1.567   2.266 -0.4078 -0.6940 -1.5215
  111MYC    C5021711   2.699   1.433   2.227 -0.2748 -0.5992  0.3824
  111MYC    H9521712   2.656   1.410   2.129  0.9420 -1.8013  0.1076
  111MYC    H9621713   2.731   1.338   2.270 -0.1639 -1.7786 -2.1266
  111MYC    C4921714   2.823   1.527   2.220 -0.8231  0.4201  0.4138
  111MYC    H9321715   2.879   1.526   2.315 -1.8780  0.9359  1.0540
  111MYC    H9421716   2.799   1.630   2.191 -1.0188 -0.0725 -1.2781
  111MYC    C4821717   2.931   1.483   2.118 -0.3254 -0.0001 -0.0183
  111MYC    H9121718   2.965   1.380   2.131 -0.1070  0.4082  3.4189
  111MYC    H9221719   3.015   1.550   2.140 -0.9174  1.1929 -1.2374
  111MYC    C4721720   2.899   1.503   1.966 -0.1439 -0.6763 -0.1816
  111MYC    H8921721   2.987   1.471   1.909  0.3408 -0.5544  0.4896
  111MYC    H9021722   2.895   1.612   1.954 -0.3297 -0.2396  2.9681
  111MYC    C4621723   2.778   1.437   1.892  0.3212  1.0397  0.0508
  111MYC    H8721724   2.787   1.452   1.784  0.0359  0.5574 -0.0422
  111MYC    H8821725   2.690   1.489   1.931 -1.1174 -0.2734 -1.3179
  111MYC    C4521726   2.767   1.282   1.917 -0.0815  0.5337 -0.5783
  111MYC    H8521727   2.788   1.272   2.024  1.2164  1.9715 -0.6673
  111MYC    H8621728   2.839   1.226   1.856  0.0516 -1.8538  1.6020
  111MYC    C4421729   2.621   1.228   1.890 -0.1265 -0.2369  0.2814
  111MYC    H8321730   2.607   1.229   1.781 -1.2396 -0.3960  0.4158
  111MYC    H8421731   2.543   1.291   1.933 -0.2152  0.6656 -1.1157
  111MYC    C1821732   2.609   1.078   1.924  0.2781 -0.0125  0.4817
  111MYC    H3121733   2.623   1.067   2.032  2.4141  1.1084  0.3738
  111MYC    C1721734   2.514   0.988   1.839 -0.1974  0.2065 -0.7552
  111MYC    H3021735   2.480   1.035   1.747  0.0698  1.9292 -0.0092
  111MYC    C1921736   2.663   0.961   1.843 -0.1074  0.3051  0.2539
  111MYC    H3221737   2.712   0.977   1.748 -1.0755  2.1326  0.0189
  111MYC    H3321738   2.688   0.869   1.895 -1.7501 -1.3632 -1.7254
  111MYC    C1621739   2.415   0.892   1.902 -0.6486  0.8027 -0.0940
  111MYC    H2821740   2.436   0.848   2.000 -4.0096  0.2988  0.5376
  111MYC    H2921741   2.419   0.803   1.838 -0.7395  0.5341  0.2715
  111MYC    C1521742   2.264   0.935   1.908  0.3799  0.2926  0.2841
  111MYC    H2621743   2.211   0.842   1.930  1.2368 -1.2102 -3.3067
  111MYC    H2721744   2.226   0.978   1.814 -2.2349 -1.9348  0.1977
  111MYC    C1421745   2.242   1.029   2.025  0.0228  0.6145  0.2822
  111MYC    H2421746   2.288   1.123   1.993 -0.4296  1.5676  2.2831
  111MYC    H2521747   2.298   0.998   2.114  0.4636  1.8238  0.4364
  111MYC    C1321748   2.100   1.053   2.069 -0.2482 -0.3439  0.3660
  111MYC    H2221749   2.056   0.955   2.094  1.4829 -1.6438 -1.4428
  111MYC    H2321750   2.040   1.076   1.981  0.9401  3.0839  0.2878
  111MYC    C1221751   2.077   1.168   2.177  0.5930 -0.2278 -0.2442
  111MYC    H2021752   2.133   1.262   2.164 -3.2819  2.1098 -1.8664
  111MYC    H2121753   2.112   1.135   2.276  0.7690  2.5206  0.7206
  111MYC    C1121754   1.928   1.209   2.191  0.5029  0.7101 -0.7431
  111MYC    H1821755   1.917   1.292   2.262 -1.1433 -0.0429 -0.0667
  111MYC    H1921756   1.869   1.126   2.231  0.8068  0.5003 -0.7325
  111MYC    C1021757   1.873   1.280   2.066  0.5755 -0.2110  0.3104
  111MYC    H1621758   1.871   1.211   1.981  0.5023 -0.7015  0.6983
  111MYC    H1721759   1.947   1.356   2.040 -2.1557  1.9906 -1.6005
  111MYC     C921760   1.733   1.346   2.083  0.3544  0.2114 -0.2326
  111MYC    H1421761   1.688   1.374   1.987  0.1208  1.1469  0.1408
  111MYC    H1521762   1.747   1.438   2.141 -0.0540  0.1378 -0.0130
  111MYC     C821763   1.628   1.268   2.166  0.0208  0.6896 -0.3015
  111MYC    H1221764   1.658   1.270   2.271  2.2996  1.6150 -0.9038
  111MYC    H1321765   1.640   1.163   2.138 -0.0679 -0.0352  2.2001
  111MYC     C721766   1.485   1.311   2.143  0.4430  0.7179  0.8776
  111MYC    H1021767   1.453   1.299   2.039 -2.7200  0.1787  1.8310
  111MYC    H1121768   1.475   1.417   2.170 -0.6998  1.4077 -1.9157
  111MYC     C621769   1.386   1.230   2.234 -0.6248  1.1938  0.0781
  111MYC     H821770   1.417   1.125   2.226 -2.7841  0.5717 -0.7695
  111MYC     H921771   1.292   1.226   2.179 -0.9154 -1.3733  0.6258
  111MYC     C521772   1.370   1.290   2.376  0.0703 -0.2437 -0.4840
  111MYC     H621773   1.270   1.261   2.411  0.3942  0.1772  0.8730
  111MYC     H721774   1.367   1.400   2.370  1.2880 -0.2348 -1.1899
  111MYC     C421775   1.474   1.256   2.482 -0.7037 -0.5063  0.1482
  111MYC     H421776   1.534   1.348   2.491 -1.1589 -0.1697 -0.2211
  111MYC     H521777   1.538   1.177   2.441  0.9883  1.8356 -2.1328
  111MYC     C221778   1.425   1.219   2.619 -0.2671 -0.2545 -0.1609
  111MYC     H221779   1.363   1.302   2.655 -2.0319 -1.2810 -0.7169
  111MYC     O321780   1.347   1.103   2.618  0.8202 -0.3742 -0.6425
  111MYC     H321781   1.403   1.024   2.633 -1.1179 -1.5201  1.0256
  111MYC     C121782   1.536   1.200   2.727  0.7870  0.3536  0.2992
  111MYC     H121783   1.594   1.294   2.731 -0.3320  1.0441  2.9210
  111MYC    C8121784   1.637   1.089   2.691  0.5181 -0.1732  0.0367
  111MYC    O8221785   1.753   1.107   2.663 -0.0163  0.5318 -0.0970
  111MYC    O8321786   1.590   0.965   2.711  0.1220  0.0221  0.1081
  111MYC   H10521787   1.661   0.902   2.691 -1.8167 -1.9676 -1.0267
  111MYC    C2021788   1.476   1.183   2.871 -0.1599  0.0636  1.0007
  111MYC    H3421789   1.413   1.272   2.880 -0.0738  0.9132 -4.0063
  111MYC    H3521790   1.403   1.101   2.868  0.0131 -0.1251  1.7603
  111MYC    C2121791   1.576   1.156   2.991  0.3602  0.3521 -0.6815
  111MYC    H3621792   1.660   1.091   2.964 -0.9979 -2.1267  0.7218
  111MYC    H3721793   1.628   1.250   3.014  0.2850  0.3590 -0.5400
  111MYC    C2221794   1.509   1.113   3.128  0.2598 -0.8981  0.0944
  111MYC    H3821795   1.425   1.182   3.143  1.1397 -0.0147  1.1062
  111MYC    H3921796   1.469   1.011   3.126  1.9155 -1.5621 -1.1269
  111MYC    C2321797   1.597   1.141   3.253  0.0807 -0.5066  0.1974
  111MYC    H4021798   1.671   1.060   3.253 -2.5647 -3.1339  1.9448
  111MYC    H4121799   1.641   1.241   3.242 -0.0643 -0.4153  0.4310
  111MYC    C2421800   1.516   1.124   3.379  0.1009  0.1471 -0.5739
  111MYC    H4221801   1.435   1.197   3.380  0.0565  0.1302  1.2369
  111MYC    H4321802   1.469   1.026   3.364 -0.4682  0.7320 -3.0764
  111MYC    C2521803   1.587   1.138   3.515 -0.3048 -0.2792 -0.7794
  111MYC    H4421804   1.666   1.061   3.513  0.6437  0.6768 -1.5968
  111MYC    H4521805   1.638   1.235   3.523  2.6290 -1.6765 -0.9055
  111MYC    C2621806   1.492   1.125   3.637 -0.2010  0.4623 -0.4345
  111MYC    H4621807   1.410   1.197   3.624 -2.2657 -1.8235 -0.9694
  111MYC    H4721808   1.432   1.034   3.620  2.0657 -0.9843 -1.2191
  111MYC    C2721809   1.556   1.124   3.769 -0.0712  0.7116 -0.4092
  111MYC    H4821810   1.645   1.061   3.767  0.6849  1.6939  0.9094
  111MYC    H4921811   1.596   1.225   3.781 -0.6159  0.8689  0.0944
  111MYC    C2821812   1.461   1.086   3.888  0.2105  0.0799 -0.4064
  111MYC    H5021813   1.367   1.144   3.890  0.5119  0.5565  0.7897
  111MYC    H5121814   1.435   0.980   3.877 -1.5616  0.5446 -1.1691
  111MYC    C2921815   1.524   1.101   4.034 -0.5074 -0.2277  0.1252
  111MYC    H5221816   1.617   1.043   4.028  0.6480  1.6651 -1.8193
  111MYC    H5321817   1.555   1.206   4.039  1.5998 -0.8625  1.4888
  111MYC    C3021818   1.431   1.064   4.152  0.3944 -0.3326  0.6013
  111MYC    H5421819   1.335   1.117   4.144  0.9025  0.4520 -0.8045
  111MYC    H5521820   1.410   0.959   4.132  0.5031  0.1543 -2.7085
  111MYC    C3121821   1.488   1.097   4.292  0.5065 -0.5581  0.1062
  111MYC    H5621822   1.585   1.048   4.310  1.5978  2.0643  2.0244
  111MYC    H5721823   1.495   1.206   4.302  0.3436 -0.6588  1.6633
  111MYC    C3221824   1.389   1.046   4.408  0.3045 -0.3819 -0.6242
  111MYC    H5821825   1.288   1.087   4.404  0.4056 -0.0925 -0.2254
  111MYC    H5921826   1.376   0.940   4.385  2.3210 -0.3394 -2.2976
  111MYC    C3321827   1.459   1.071   4.543  0.9892 -0.4335 -0.3680
  111MYC    H6021828   1.553   1.022   4.572 -0.1374 -1.8157  1.0929
  111MYC    H6121829   1.478   1.179   4.549 -0.3782 -0.2692  1.8695
  111MYC    C3421830   1.368   1.033   4.655  0.1032  0.3886 -0.1485
  111MYC    H6221831   1.278   1.095   4.641  1.1560  2.3781  1.3531
  111MYC    H6321832   1.341   0.927   4.645  0.2510  0.0750  2.1094
  111MYC    C3521833   1.424   1.065   4.796  0.4599 -0.1966 -0.0390
  111MYC    H6421834   1.506   0.992   4.805 -0.1401 -1.1021 -1.4803
  111MYC    H6521835   1.469   1.164   4.809  2.5405 -1.3463  2.5176
  111MYC    C3621836   1.324   1.054   4.914  0.2691 -0.2813  0.5060
  111MYC    H6621837   1.251   1.136   4.911 -0.7946 -1.2304 -1.1863
  111MYC    H6721838   1.273   0.958   4.896  3.0338 -1.6026 -0.9968
  111MYC    C3721839   1.395   1.056   5.054 -0.5970  0.4936  0.4364
  111MYC    H6821840   1.483   0.991   5.061  0.1373  1.6199  2.7679
  111MYC    H6921841   1.436   1.157   5.066  1.7187  0.3131 -3.8601
  111MYC    C3821842   1.294   1.033   5.180  0.4394 -0.1097 -0.0174
  111MYC    H7021843   1.209   1.101   5.176 -0.3623 -0.8416  2.4545
  111MYC    H7121844   1.253   0.931   5.177 -0.2887  0.1842 -0.0075
  111MYC    C3921845   1.352   1.042   5.318  0.1661 -1.3321 -0.2648
  111MYC    H7221846   1.442   0.980   5.322 -0.4257 -2.2503 -0.6795
  111MYC    H7321847   1.392   1.141   5.342 -0.3699 -1.5967  1.9582
  111MYC    C4021848   1.247   1.005   5.433  0.7564  0.5886 -0.3803
  111MYC    H7421849   1.159   1.070   5.426 -0.0950 -0.6231 -1.1415
  111MYC    H7521850   1.216   0.901   5.424  0.6800  0.4137  1.4959
  111MYC    C4121851   1.304   1.021   5.572  0.0138  0.5138 -0.1102
  111MYC    H7621852   1.394   0.958   5.574 -0.7629 -0.6399 -0.5409
  111MYC    H7721853   1.328   1.128   5.575  0.8670  0.3173  0.7578
  111MYC    C4221854   1.213   0.982   5.690  0.4544  0.2289 -0.0983
  111MYC    H7821855   1.115   1.030   5.683  0.2549 -0.2825 -0.9396
  111MYC    H7921856   1.200   0.874   5.689 -0.6616  0.3264  0.9799
  111MYC    C4321857   1.275   1.012   5.830  0.4079  0.4436 -0.4741
  111MYC    H8021858   1.211   0.971   5.908  1.4703  1.4358  0.9606
  111MYC    H8121859   1.278   1.121   5.831  0.6298  0.4392 -0.5312
  111MYC    H8221860   1.376   0.974   5.850 -0.0770 -0.5686  0.1256
  112MYC   HH1521861   1.489   2.410   5.801  0.5753 -0.9212 -0.1237
  112MYC    C8021862   1.598   2.398   5.799  0.7268  0.2362  0.4715
  112MYC   H10021863   1.623   2.386   5.905  0.5990  0.8557  0.5804
  112MYC   H10121864   1.624   2.317   5.731 -0.2348  0.4520 -0.1588
  112MYC    C7921865   1.675   2.521   5.754  0.3814  0.2134 -0.5810
  112MYC   H10221866   1.780   2.499   5.773  0.3250  1.5298  1.5991
  112MYC   H10321867   1.644   2.601   5.822 -1.1535 -1.5647  0.9188
  112MYC    C7821868   1.647   2.574   5.614  0.4075  0.6367 -0.1665
  112MYC   HH1421869   1.708   2.661   5.584  0.7738  0.4714  0.0945
  112MYC   H10421870   1.545   2.613   5.609  0.8226  1.8797  0.4973
  112MYC    C7721871   1.676   2.477   5.498 -0.2470 -0.0028 -0.5039
  112MYC   H10621872   1.598   2.401   5.493  0.4496 -0.7152 -0.8168
  112MYC   H10721873   1.773   2.427   5.513 -0.4648 -0.1168  0.6547
  112MYC    C7621874   1.701   2.542   5.356  0.4993 -0.4933  0.0980
  112MYC   H10821875   1.772   2.625   5.364 -0.9894  1.2264 -2.9152
  112MYC   H10921876   1.609   2.590   5.320  1.5558  0.4837 -1.3938
  112MYC    C7521877   1.735   2.447   5.233 -0.3355  0.1791 -0.4022
  112MYC   H11021878   1.644   2.396   5.198 -1.1554  0.9301  0.5733
  112MYC   H11121879   1.806   2.369   5.263 -1.7138 -0.6339  0.9244
  112MYC    C7421880   1.799   2.518   5.109  0.5205  0.0864 -0.2369
  112MYC   H11221881   1.893   2.564   5.142  0.5774 -1.6316  2.2333
  112MYC   H11321882   1.734   2.605   5.092 -0.0737  0.2098  2.2466
  112MYC    C7321883   1.811   2.417   4.998 -0.0542 -0.0897  0.5126
  112MYC   HH1321884   1.715   2.371   4.970 -0.6027  2.0954 -1.4813
  112MYC   H11421885   1.893   2.349   5.026  1.9607  1.7269 -0.7164
  112MYC    C7221886   1.870   2.489   4.871 -0.1728 -0.9630 -0.1489
  112MYC   H11521887   1.972   2.518   4.898  0.0688 -1.5475 -0.4080
  112MYC   H11621888   1.815   2.581   4.849  0.2189 -0.9303 -1.0222
  112MYC    C7121889   1.864   2.399   4.754 -0.6019 -0.2045  1.0172
  112MYC   H11721890   1.765   2.369   4.716  0.3295 -2.3523  0.1202
  112MYC   H11821891   1.920   2.309   4.783  2.2524  1.4295  0.8732
  112MYC    C7021892   1.927   2.449   4.617 -0.2084  0.6494  0.1971
  112MYC   H11921893   2.016   2.513   4.622  0.9187 -0.9546  3.0878
  112MYC   H12021894   1.855   2.511   4.562  1.3948  0.6031 -2.1080
  112MYC    C6921895   1.952   2.333   4.521 -0.0868  0.0706  0.1330
  112MYC   H12121896   1.868   2.263   4.518  1.0133 -1.3140  0.1655
  112MYC   H12221897   2.040   2.275   4.552  0.7780  1.9869  1.4803
  112MYC    C6821898   1.973   2.380   4.385 -0.3664  0.1826 -0.5446
  112MYC   HH1221899   2.067   2.437   4.390  1.4805 -2.7599  1.1363
  112MYC   H12321900   1.896   2.452   4.357 -1.5219 -1.5633 -2.0554
  112MYC    C6721901   1.980   2.276   4.275 -0.5124  0.1823 -1.0506
  112MYC   H12421902   1.887   2.218   4.270 -0.7937  0.6290 -1.0137
  112MYC   H12521903   2.049   2.194   4.298 -1.8007 -0.8960 -0.9354
  112MYC    C6621904   2.007   2.325   4.126 -0.1788 -0.1347 -0.2532
  112MYC   H12621905   2.089   2.397   4.127 -0.5121  0.3292  2.7770
  112MYC   H12721906   1.914   2.376   4.098 -1.3883 -1.3002  1.4052
  112MYC    C6521907   2.043   2.205   4.027  0.4343  0.1111 -0.2079
  112MYC   H12821908   1.967   2.129   4.049 -1.1088  1.0984 -1.7700
  112MYC   H12921909   2.139   2.156   4.045  0.7146  0.8801  0.4272
  112MYC    C6421910   2.034   2.247   3.881  0.2778  0.1896  0.8378
  112MYC   H13021911   2.100   2.329   3.853 -0.3604  0.4455  0.0437
  112MYC   H13121912   1.939   2.294   3.853  1.0599  1.1756 -0.3050
  112MYC    C6321913   2.049   2.128   3.777  0.4662  0.5234 -0.5289
  112MYC   HH1121914   1.988   2.042   3.807  2.0829 -0.0310  1.3220
  112MYC   H13221915   2.145   2.080   3.798  2.0845  3.8306  0.3306
  112MYC    C6221916   2.015   2.154   3.624  0.4121 -0.2415  0.3150
  112MYC   H13321917   2.082   2.232   3.586 -1.1071  0.2728 -1.4397
  112MYC   H13421918   1.910   2.181   3.612 -0.0697 -2.4456 -0.9188
  112MYC    C6121919   2.047   2.031   3.530 -0.5104  0.1702 -0.3712
  112MYC   H13521920   1.982   1.947   3.556 -1.7033  1.2884  0.3764
  112MYC   H13621921   2.150   1.995   3.547 -0.1747  1.5193  0.6863
  112MYC    C6021922   2.034   2.062   3.382  0.0654  0.9601 -0.1449
  112MYC   H13721923   1.962   2.142   3.361  0.5326  2.0896  2.2098
  112MYC    C5821924   2.160   2.059   3.292  0.0676 -0.4319 -0.5101
  112MYC   H13821925   2.253   2.031   3.340 -0.7200 -0.5647  1.0003
  112MYC    C5921926   2.053   1.946   3.284  0.0970  0.0841  0.3957
  112MYC   H13921927   1.977   1.937   3.207 -3.1882  1.0663  3.2380
  112MYC   H14021928   2.059   1.853   3.339  0.2389 -1.2631 -1.8162
  112MYC    C5721929   2.178   2.152   3.179 -0.5412 -0.3900  0.4273
  112MYC   HH1021930   2.250   2.221   3.225  0.9484 -1.6110  0.0353
  112MYC   H14121931   2.082   2.197   3.153 -0.1702 -0.3175 -0.8795
  112MYC    C5621932   2.247   2.081   3.054  0.2740  0.2227  0.5551
  112MYC   H14221933   2.193   1.992   3.021  1.2012  0.1614 -0.8921
  112MYC   H14321934   2.349   2.056   3.085  0.6796  0.7991 -0.2934
  112MYC    C5521935   2.249   2.175   2.947 -0.0865  0.4309 -0.0701
  112MYC   H14421936   2.341   2.229   2.972  1.6071 -2.3413  0.1792
  112MYC   H14521937   2.163   2.242   2.936 -1.7024 -1.6552 -0.7670
  112MYC    C5421938   2.269   2.114   2.806 -0.0707 -0.8271  0.2506
  112MYC   H14621939   2.183   2.049   2.784 -0.7056  0.0257  0.1310
  112MYC   H14721940   2.357   2.049   2.811 -1.1218 -2.2343  1.2866
  112MYC    C5321941   2.288   2.203   2.684 -0.3400 -0.6066  0.6563
  112MYC   H14821942   2.388   2.245   2.693 -0.7018  1.2280 -2.3589
  112MYC   H14921943   2.227   2.293   2.678  1.4129  0.5966  0.0383
  112MYC    C5221944   2.276   2.124   2.550  0.1219 -0.4051 -0.7000
  112MYC    H9921945   2.268   2.193   2.466  0.0116  0.9261  0.3751
  112MYC   H15021946   2.183   2.066   2.546  0.5076 -1.3576  1.8196
  112MYC    C5121947   2.401   2.035   2.520  0.1523 -0.0652 -0.8163
  112MYC    H9721948   2.389   1.950   2.588 -0.9683 -1.5159 -2.7189
  112MYC    H9821949   2.500   2.075   2.542  0.6262 -0.6327 -1.8422
  112MYC    C5021950   2.405   1.977   2.376  0.3154 -0.0693  0.4081
  112MYC    H9521951   2.299   1.963   2.352 -0.0692 -0.3137  2.0752
  112MYC    H9621952   2.445   1.875   2.373 -1.5481 -0.8169 -1.0009
  112MYC    C4921953   2.487   2.074   2.285  0.1419  0.8016  0.2112
  112MYC    H9321954   2.590   2.050   2.311  0.0083 -1.2705 -1.0015
  112MYC    H9421955   2.465   2.182   2.291  1.4058  1.2663 -2.1622
  112MYC    C4821956   2.479   2.037   2.134 -0.2611  0.3228 -0.4766
  112MYC    H9121957   2.382   2.061   2.089  0.1603  1.9227 -0.6043
  112MYC    H9221958   2.482   1.928   2.124 -1.2607  0.3340 -0.9770
  112MYC    C4721959   2.591   2.104   2.047  0.5796  0.5402 -0.3060
  112MYC    H8921960   2.694   2.089   2.080  0.4913 -1.9643 -1.0087
  112MYC    H9021961   2.568   2.211   2.061  0.6750  0.2414  2.8743
  112MYC    C4621962   2.607   2.056   1.906 -0.1593 -0.1540  0.1139
  112MYC    H8721963   2.510   2.069   1.857 -0.1500 -2.8195 -0.7912
  112MYC    H8821964   2.634   1.949   1.904  0.2207 -0.0564 -0.0088
  112MYC    C4521965   2.697   2.139   1.816 -0.6553 -0.2493  0.5287
  112MYC    H8521966   2.712   2.102   1.714  4.2650  2.8322 -0.2173
  112MYC    H8621967   2.795   2.145   1.864  0.7142  0.5619 -2.1724
  112MYC    C4421968   2.649   2.288   1.792 -0.8489 -0.2914  0.3655
  112MYC    H8321969   2.735   2.341   1.750 -0.2702  0.5652  2.5396
  112MYC    H8421970   2.630   2.341   1.886 -0.1941 -0.7335  0.7618
  112MYC    C1821971   2.535   2.306   1.694  0.6239 -0.1988 -0.0624
  112MYC    H3121972   2.443   2.256   1.722 -0.7877  0.8503 -2.4635
  112MYC    C1721973   2.516   2.434   1.612  0.7310 -0.4484  0.4428
  112MYC    H3021974   2.602   2.501   1.613  0.8741 -0.5785 -0.9771
  112MYC    C1921975   2.560   2.306   1.546 -0.2410  0.1018  0.7544
  112MYC    H3221976   2.663   2.299   1.510 -0.4782  0.6697 -0.0810
  112MYC    H3321977   2.483   2.255   1.490 -1.2866 -1.4048  3.4415
  112MYC    C1621978   2.375   2.494   1.569  0.3685 -0.4955 -0.8557
  112MYC    H2821979   2.322   2.435   1.493 -0.8440 -0.0613 -0.3667
  112MYC    H2921980   2.406   2.588   1.521 -0.4120  0.9333  1.2884
  112MYC    C1521981   2.279   2.513   1.694 -0.0739 -0.1117  1.0685
  112MYC    H2621982   2.269   2.415   1.742 -0.3173 -0.0487  1.1474
  112MYC    H2721983   2.180   2.532   1.650  0.0662 -0.4487  0.6040
  112MYC    C1421984   2.309   2.618   1.797 -0.5565  0.0452  0.8689
  112MYC    H2421985   2.258   2.705   1.755 -1.0503 -1.8031 -2.7409
  112MYC    H2521986   2.413   2.650   1.783 -1.1425  0.9865 -1.9533
  112MYC    C1321987   2.261   2.601   1.942 -0.3342 -0.0177  0.2053
  112MYC    H2221988   2.166   2.549   1.930 -1.0200  1.2530  0.0462
  112MYC    H2321989   2.233   2.704   1.967 -0.4555  0.0977 -0.4101
  112MYC    C1221990   2.357   2.530   2.031 -1.5372 -0.0186 -0.2267
  112MYC    H2021991   2.443   2.591   2.059 -0.1102 -2.0537  0.0268
  112MYC    H2121992   2.399   2.446   1.974 -2.6583 -1.0630  0.4366
  112MYC    C1121993   2.300   2.476   2.163  0.1561  0.7437 -0.2673
  112MYC    H1821994   2.373   2.401   2.196  0.1142  0.5391 -0.6453
  112MYC    H1921995   2.204   2.429   2.143  0.3799  0.1331  0.0634
  112MYC    C1021996   2.287   2.592   2.271 -0.8491  0.1470  0.0144
  112MYC    H1621997   2.238   2.676   2.222  1.8196 -0.0318 -3.2918
  112MYC    H1721998   2.386   2.630   2.299 -2.0816  1.4114  3.1110
  112MYC     C921999   2.212   2.548   2.402  0.2855 -0.2182  0.3323
  112MYC    H1422000   2.260   2.455   2.432  1.6366  0.9723  2.0273
  112MYC    H1522001   2.107   2.534   2.373  0.5605  0.7656 -1.2886
  112MYC     C822002   2.232   2.645   2.516 -0.0532  0.1187 -0.4738
  112MYC    H1222003   2.171   2.733   2.496 -2.7784 -0.8615  2.5570
  112MYC    H1322004   2.339   2.666   2.527 -0.5372  2.2741  0.5165
  112MYC     C722005   2.194   2.596   2.657 -0.1509 -0.8792 -0.3200
  112MYC    H1022006   2.191   2.687   2.718  0.7045 -0.2720 -1.1611
  112MYC    H1122007   2.269   2.524   2.692  0.8174 -0.5461 -1.6460
  112MYC     C622008   2.055   2.531   2.668 -0.5089 -0.7144  0.1417
  112MYC     H822009   2.051   2.437   2.610 -0.5697  0.4423 -1.8116
  112MYC     H922010   1.985   2.602   2.622  1.4832 -0.2662 -2.4350
  112MYC     C522011   2.026   2.498   2.811 -0.8399  0.4272 -0.6693
  112MYC     H622012   2.117   2.457   2.857  0.2158  0.5456 -2.5355
  112MYC     H722013   1.947   2.421   2.816 -0.8051  0.4212 -0.2184
  112MYC     C422014   1.992   2.615   2.901  0.3281 -0.3422  0.2276
  112MYC     H422015   1.908   2.660   2.847  0.3129 -0.1243  0.4353
  112MYC     H522016   2.073   2.688   2.910  0.4331 -0.5467  1.0012
  112MYC     C222017   1.952   2.580   3.046 -0.0333  0.5057  0.7545
  112MYC     H222018   1.877   2.499   3.044  0.3669 -0.0242  3.4612
  112MYC     O322019   2.065   2.525   3.120  0.6950 -0.3132 -0.4281
  112MYC     H322020   2.121   2.599   3.150 -0.1201  1.2180 -2.4784
  112MYC     C122021   1.890   2.699   3.126 -0.2640 -0.1764  0.1714
  112MYC     H122022   1.795   2.733   3.084 -1.9297 -1.9422  2.2599
  112MYC    C8122023   1.977   2.825   3.147 -0.0002  0.3286  0.0077
  112MYC    O8222024   2.097   2.827   3.165  0.1740  0.2884  0.3742
  112MYC    O8322025   1.906   2.946   3.128  0.0288 -0.2425  0.2514
  112MYC   H10522026   1.977   3.013   3.133  2.1345 -2.1608 -1.5008
  112MYC    C2022027   1.838   2.636   3.260 -0.2431  0.6815 -0.0324
  112MYC    H3422028   1.779   2.545   3.250  0.0894  0.3368  0.9796
  112MYC    H3522029   1.928   2.607   3.316 -0.7210 -0.7785  0.0101
  112MYC    C2122030   1.738   2.724   3.341 -0.2977  0.3440  0.4200
  112MYC    H3622031   1.777   2.826   3.333  2.3468 -0.6599 -0.1938
  112MYC    H3722032   1.641   2.721   3.290 -0.5745  1.7356  0.8107
  112MYC    C2222033   1.721   2.675   3.486  0.0411  0.6633 -0.0654
  112MYC    H3822034   1.816   2.679   3.542 -0.2840 -4.3123  1.2716
  112MYC    H3922035   1.657   2.751   3.533  0.7964  0.9378  0.5511
  112MYC    C2322036   1.655   2.531   3.507 -0.1460  0.0667  0.3211
  112MYC    H4022037   1.555   2.545   3.464  0.0074  0.3843  0.0645
  112MYC    H4122038   1.706   2.460   3.442  0.9442  1.3953 -0.3165
  112MYC    C2422039   1.660   2.473   3.656  0.2894 -0.2265  0.3128
  112MYC    H4222040   1.616   2.373   3.649  0.2971 -0.0815 -3.6530
  112MYC    H4322041   1.764   2.456   3.688  0.7252 -0.7945 -1.3368
  112MYC    C2522042   1.594   2.565   3.767 -0.9388  0.0335  0.3011
  112MYC    H4422043   1.630   2.666   3.745  0.3925 -0.6327 -0.7325
  112MYC    H4522044   1.488   2.583   3.747 -0.9321  2.5248  2.1333
  112MYC    C2622045   1.626   2.516   3.908  0.7639  0.3324 -0.0197
  112MYC    H4622046   1.590   2.413   3.922 -0.6820  0.7337 -0.5530
  112MYC    H4722047   1.735   2.515   3.906  0.9313  3.9229  0.3958
  112MYC    C2722048   1.579   2.606   4.024 -0.1538 -0.1402  0.7400
  112MYC    H4822049   1.659   2.680   4.038 -0.5526  0.0275  2.3613
  112MYC    H4922050   1.483   2.657   4.009  0.3193  1.4655  2.6359
  112MYC    C2822051   1.575   2.522   4.159  0.1000  0.1821  0.9989
  112MYC    H5022052   1.499   2.445   4.144 -0.0489  0.3511  0.8787
  112MYC    H5122053   1.673   2.479   4.180 -0.0500 -0.8772 -0.3343
  112MYC    C2922054   1.519   2.594   4.283 -0.3607  0.3614 -0.6695
  112MYC    H5222055   1.563   2.694   4.283 -1.3299  0.8002 -0.3858
  112MYC    H5322056   1.411   2.600   4.263 -0.2970 -1.9011 -2.0013
  112MYC    C3022057   1.540   2.527   4.425 -0.1894 -0.4061  0.1747
  112MYC    H5422058   1.505   2.424   4.410 -0.6045 -0.4936  1.6461
  112MYC    H5522059   1.647   2.519   4.447 -0.1488 -0.0991  0.0866
  112MYC    C3122060   1.467   2.597   4.546 -0.1730  0.5604 -0.2466
  112MYC    H5622061   1.494   2.703   4.553  0.3870  0.5224 -1.6723
  112MYC    H5722062   1.358   2.600   4.534 -0.2847 -0.9482  0.1359
  112MYC    C3222063   1.492   2.527   4.678 -0.0696 -0.4759 -0.1079
  112MYC    H5822064   1.447   2.427   4.674  0.2989 -0.7152  1.1617
  112MYC    H5922065   1.600   2.517   4.692  0.0934  2.6861  1.9054
  112MYC    C3322066   1.438   2.609   4.796 -0.6921  0.1358 -0.2171
  112MYC    H6022067   1.493   2.701   4.818  2.7973 -1.9694  0.7386
  112MYC    H6122068   1.342   2.650   4.763  0.0074  1.4165 -0.7314
  112MYC    C3422069   1.414   2.533   4.924  0.3005 -1.0304 -0.2546
  112MYC    H6222070   1.349   2.446   4.906 -0.1850 -1.1046  1.6740
  112MYC    H6322071   1.514   2.495   4.947  1.0413 -0.7963 -2.7757
  112MYC    C3522072   1.358   2.621   5.037 -0.5139  0.4402  0.4967
  112MYC    H6422073   1.435   2.697   5.049  0.2346 -0.3692  0.9538
  112MYC    H6522074   1.262   2.671   5.022 -1.0580 -0.3051  1.3380
  112MYC    C3622075   1.350   2.541   5.170 -0.3529 -0.1490 -0.0989
  112MYC    H6622076   1.292   2.449   5.153 -0.2652 -0.4607  1.2267
  112MYC    H6722077   1.449   2.505   5.201  0.6090 -1.1896 -3.8578
  112MYC    C3722078   1.289   2.630   5.280 -0.0799  0.1455 -0.1324
  112MYC    H6822079   1.348   2.722   5.294 -1.5733  0.6931  3.3612
  112MYC    H6922080   1.198   2.681   5.245 -0.2953  0.3829  0.7619
  112MYC    C3822081   1.268   2.545   5.412 -0.6523  0.9449 -0.5200
  112MYC    H7022082   1.198   2.462   5.404  0.7692 -0.5514  1.4432
  112MYC    H7122083   1.358   2.489   5.441 -0.7606  0.0257 -1.8821
  112MYC    C3922084   1.212   2.632   5.531  0.6649 -0.0862 -0.1500
  112MYC    H7222085   1.278   2.719   5.546 -0.0838  0.5489 -0.4784
  112MYC    H7322086   1.116   2.675   5.499 -0.7722 -0.6442  3.0403
  112MYC    C4022087   1.201   2.570   5.671  0.2860  0.7737 -0.3431
  112MYC    H7422088   1.146   2.475   5.668  0.9826  0.2153  2.3749
  112MYC    H7522089   1.297   2.543   5.715 -0.3650 -0.9176  0.1207
  112MYC    C4122090   1.130   2.670   5.763  0.3160  0.0973 -0.2312
  112MYC    H7622091   1.190   2.761   5.764  1.6686 -0.7667  0.0638
  112MYC    H7722092   1.033   2.691   5.716  0.4866  2.0577  0.2476
  112MYC    C4222093   1.106   2.614   5.903  0.1209  0.7132  0.1130
  112MYC    H7822094   1.052   2.519   5.897  0.5988  0.4688 -0.4588
  112MYC    H7922095   1.202   2.590   5.950  0.1664 -1.1193 -0.8423
  112MYC    C4322096   1.029   2.718   5.980  0.5256 -0.0519 -0.0321
  112MYC    H8022097   1.052   2.710   6.087 -0.8252  1.5294  0.4161
  112MYC    H8122098   0.925   2.719   5.948  0.2292  1.6284  0.8808
  112MYC    H8222099   1.068   2.820   5.971 -1.0525  0.6403  0.6133
  113MYC   HH1522100   1.457   2.823   5.654 -0.1436  0.6438  1.4138
  113MYC    C8022101   1.485   2.928   5.654  1.0360  0.3688 -0.6012
  113MYC   H10022102   1.424   2.986   5.725 -0.5595  0.1153 -1.7322
  113MYC   H10122103   1.592   2.936   5.676  0.7485 -0.3742  1.2575
  113MYC    C7922104   1.465   2.980   5.511 -0.3669 -1.0734 -0.0090
  113MYC   H10222105   1.475   3.089   5.500  0.3576 -1.2288 -1.0050
  113MYC   H10322106   1.361   2.968   5.479 -0.7407 -0.6138  0.9715
  113MYC    C7822107   1.559   2.920   5.408 -0.3512 -0.0596 -0.0001
  113MYC   HH1422108   1.539   2.812   5.416 -1.7442  0.2298  0.5500
  113MYC   H10422109   1.659   2.940   5.450 -0.7684  1.0815  0.4866
  113MYC    C7722110   1.541   2.960   5.265  0.0181 -0.1164  0.0768
  113MYC   H10622111   1.561   3.067   5.253 -0.8376 -0.0092 -0.4508
  113MYC   H10722112   1.437   2.944   5.235  0.1731 -0.6902 -0.1618
  113MYC    C7622113   1.637   2.891   5.168 -0.8362  0.2018  0.3108
  113MYC   H10822114   1.628   2.782   5.178  2.6018  0.0285  3.2521
  113MYC   H10922115   1.736   2.917   5.206 -2.4703  3.8160  2.6590
  113MYC    C7522116   1.635   2.938   5.023 -0.0493 -0.2096  0.2621
  113MYC   H11022117   1.681   3.037   5.027  0.8939 -0.6548  0.8024
  113MYC   H11122118   1.529   2.941   4.993 -0.1845 -0.0269  0.7445
  113MYC    C7422119   1.727   2.862   4.921  0.7357 -0.2360  0.1013
  113MYC   H11222120   1.711   2.755   4.940  0.5994 -0.4343 -1.0626
  113MYC   H11322121   1.829   2.873   4.961  0.2907  2.7864  0.6356
  113MYC    C7322122   1.725   2.903   4.775  0.8318  0.0954 -0.0106
  113MYC   HH1322123   1.739   3.011   4.773  0.1457  0.2596  1.8556
  113MYC   H11422124   1.620   2.897   4.744  0.8217 -2.4146  0.2470
  113MYC    C7222125   1.829   2.838   4.678 -0.3630  0.1403 -0.4446
  113MYC   H11522126   1.819   2.728   4.681 -0.2114  0.1336  1.9524
  113MYC   H11622127   1.930   2.866   4.709  0.4383 -2.0687 -0.8982
  113MYC    C7122128   1.816   2.889   4.533 -0.5527 -0.5052 -0.0777
  113MYC   H11722129   1.841   2.995   4.534 -1.2512 -0.2928  2.1982
  113MYC   H11822130   1.710   2.883   4.504 -0.3639 -0.4549 -0.7933
  113MYC    C7022131   1.917   2.810   4.436 -0.4543 -1.3051 -0.8151
  113MYC   H11922132   1.906   2.704   4.460  0.7368 -1.3129 -0.2497
  113MYC   H12022133   2.017   2.823   4.478 -0.7517  0.4723 -0.5823
  113MYC    C6922134   1.903   2.829   4.284  0.2888  0.0852 -0.2652
  113MYC   H12122135   1.918   2.934   4.260  0.1647 -0.0515 -0.9678
  113MYC   H12222136   1.802   2.802   4.251 -0.2877 -0.1775  1.6256
  113MYC    C6822137   2.011   2.755   4.207  0.5307  0.3377  0.9097
  113MYC   HH1222138   2.008   2.652   4.244  0.5219  0.0579  0.1487
  113MYC   H12322139   2.105   2.802   4.239  0.3853  0.0429  1.7680
  113MYC    C6722140   1.995   2.759   4.052 -0.9108 -0.6856  0.2015
  113MYC   H12422141   1.963   2.860   4.025 -0.8700 -0.4510  1.0258
  113MYC   H12522142   1.923   2.685   4.016 -0.9297 -0.3618 -0.4391
  113MYC    C6622143   2.123   2.724   3.978 -0.0242 -0.2260 -0.1969
  113MYC   H12622144   2.183   2.654   4.037  0.2958 -0.3541 -0.6681
  113MYC   H12722145   2.190   2.809   3.986  2.1867 -2.0176  1.6259
  113MYC    C6522146   2.117   2.673   3.827 -0.6169 -0.2863  0.0852
  113MYC   H12822147   2.049   2.740   3.773  0.3116  0.4578 -0.1944
  113MYC   H12922148   2.076   2.573   3.814 -0.9091  0.0998 -2.3808
  113MYC    C6422149   2.269   2.656   3.774 -0.1648 -0.4672  0.6445
  113MYC   H13022150   2.322   2.607   3.856 -0.1749 -1.8549 -0.1464
  113MYC   H13122151   2.319   2.753   3.769 -0.1463 -0.4760  0.6598
  113MYC    C6322152   2.279   2.567   3.651  0.3258  0.1304  0.3175
  113MYC   HH1122153   2.215   2.478   3.659 -1.3479  1.0280 -2.0427
  113MYC   H13222154   2.385   2.540   3.648 -0.0636 -1.3618 -1.4160
  113MYC    C6222155   2.242   2.641   3.526 -0.1947 -0.3882 -0.1277
  113MYC   H13322156   2.317   2.718   3.508  1.0451 -1.6466 -0.5085
  113MYC   H13422157   2.157   2.705   3.551  0.7637  0.8470  0.0398
  113MYC    C6122158   2.229   2.560   3.397  0.3415  0.3409 -0.0255
  113MYC   H13522159   2.204   2.629   3.316 -1.9172 -0.3746 -0.0056
  113MYC   H13622160   2.158   2.478   3.413  0.1217  0.6874  0.8150
  113MYC    C6022161   2.370   2.506   3.365  0.3140 -0.2974  0.1647
  113MYC   H13722162   2.387   2.423   3.433 -3.0347 -0.2251  1.2988
  113MYC    C5822163   2.433   2.512   3.225  0.8344  0.2204 -0.6279
  113MYC   H13822164   2.354   2.544   3.158 -0.7005 -1.1397  0.4604
  113MYC    C5922165   2.477   2.610   3.332  0.3103  0.4887  0.5794
  113MYC   H13922166   2.580   2.602   3.363  2.2016  1.5945 -4.4625
  113MYC   H14022167   2.451   2.715   3.317 -1.1386  0.1834  0.8053
  113MYC    C5722168   2.521   2.398   3.185  0.1499 -0.4918 -0.5891
  113MYC   HH1022169   2.450   2.318   3.159 -0.1832 -1.3320  2.5260
  113MYC   H14122170   2.585   2.370   3.269 -0.9561 -0.4567  0.2913
  113MYC    C5622171   2.615   2.425   3.071 -0.0364 -0.3329 -0.1011
  113MYC   H14222172   2.661   2.325   3.061 -1.6083 -1.4001  2.3403
  113MYC   H14322173   2.685   2.498   3.112 -0.2484 -0.6295  0.8183
  113MYC    C5522174   2.558   2.475   2.940  0.3477 -0.1938  0.2935
  113MYC   H14422175   2.494   2.559   2.968 -0.1998 -1.0990  1.9294
  113MYC   H14522176   2.484   2.405   2.900  1.1536  0.0468 -1.6979
  113MYC    C5422177   2.659   2.517   2.830  0.3719  0.2846  0.8287
  113MYC   H14622178   2.760   2.476   2.843  1.2764  2.9837  3.3001
  113MYC   H14722179   2.673   2.625   2.841  1.1846  0.2479  0.2002
  113MYC    C5322180   2.620   2.477   2.681  0.4489 -0.4052  0.0246
  113MYC   H14822181   2.514   2.506   2.677  0.3454 -0.7291  0.3519
  113MYC   H14922182   2.622   2.370   2.655 -0.2662 -0.3228 -0.4021
  113MYC    C5222183   2.699   2.556   2.583 -0.4085 -0.4721  0.1415
  113MYC    H9922184   2.803   2.525   2.602 -0.2851  1.0559  2.3739
  113MYC   H15022185   2.704   2.663   2.607  0.6155 -0.6609  0.8529
  113MYC    C5122186   2.659   2.532   2.437 -0.4154  1.0132 -0.1446
  113MYC    H9722187   2.583   2.602   2.402 -0.4767  0.8810 -0.2775
  113MYC    H9822188   2.614   2.432   2.440 -1.2709  1.4162  2.3325
  113MYC    C5022189   2.774   2.519   2.334  0.4372 -0.4668  0.8811
  113MYC    H9522190   2.855   2.455   2.372  1.0862 -0.8543 -1.0697
  113MYC    H9622191   2.816   2.617   2.307 -0.1087 -0.5028 -0.0998
  113MYC    C4922192   2.729   2.445   2.209  0.4538  0.1458 -0.1451
  113MYC    H9322193   2.651   2.500   2.154  0.6578  1.7273  1.0770
  113MYC    H9422194   2.692   2.345   2.237  2.3761 -0.8909 -1.1323
  113MYC    C4822195   2.836   2.411   2.109 -0.3441 -0.1605  0.5674
  113MYC    H9122196   2.805   2.328   2.045  3.0727  0.5268 -2.3148
  113MYC    H9222197   2.930   2.387   2.160  0.5946  1.3550 -0.3632
  113MYC    C4722198   2.871   2.533   2.024 -1.0474 -0.4993 -0.4259
  113MYC    H8922199   2.901   2.618   2.086 -0.4933  0.1552 -1.5621
  113MYC    H9022200   2.783   2.563   1.966  0.5760  1.1075 -2.2271
  113MYC    C4622201   2.997   2.507   1.936  0.4574  0.0456  0.4576
  113MYC    H8722202   2.963   2.460   1.843  1.3018  0.2877  0.0240
  113MYC    H8822203   3.065   2.431   1.977  0.5641  1.5681  3.3791
  113MYC    C4522204   3.067   2.642   1.891 -0.1624  0.9728  0.1989
  113MYC    H8522205   3.113   2.684   1.981  1.7283 -0.9106  0.1899
  113MYC    H8622206   2.993   2.704   1.839  0.5432 -0.4710 -2.7587
  113MYC    C4422207   3.193   2.615   1.792 -0.3643 -0.0603 -0.4296
  113MYC    H8322208   3.275   2.558   1.837  1.2362  0.1054 -2.8995
  113MYC    H8422209   3.239   2.714   1.779  0.9723 -0.6059 -0.0152
  113MYC    C1822210   3.167   2.569   1.651 -0.0503  0.9207  0.3731
  113MYC    H3122211   3.116   2.474   1.646  0.2623  0.8055 -1.2705
  113MYC    C1722212   3.129   2.666   1.549 -0.1633 -0.2984 -0.2284
  113MYC    H3022213   3.150   2.772   1.548 -0.5857 -0.1194  2.4867
  113MYC    C1922214   3.265   2.589   1.533 -0.4001 -0.2831 -0.2513
  113MYC    H3222215   3.360   2.638   1.555 -1.4311  2.6283 -1.6821
  113MYC    H3322216   3.271   2.517   1.452  0.2228  1.2031 -1.5963
  113MYC    C1622217   3.001   2.646   1.471 -1.7666 -0.2465  0.6366
  113MYC    H2822218   3.017   2.548   1.424  0.9086 -0.6319  2.1384
  113MYC    H2922219   3.000   2.716   1.386  1.6118 -2.5900 -1.5809
  113MYC    C1522220   2.868   2.655   1.552  0.0079  0.0866  0.3124
  113MYC    H2622221   2.882   2.589   1.639 -2.0823  0.4256  0.9727
  113MYC    H2722222   2.781   2.613   1.500  2.2149 -2.4314 -1.6540
  113MYC    C1422223   2.831   2.801   1.599 -0.3290 -0.1804 -0.7487
  113MYC    H2422224   2.797   2.867   1.519 -0.1662  0.0487 -0.6292
  113MYC    H2522225   2.921   2.840   1.648 -0.9134 -1.1515  1.2159
  113MYC    C1322226   2.721   2.800   1.707 -0.2824  0.0315  0.7414
  113MYC    H2222227   2.760   2.734   1.785  1.4823 -2.5180 -2.0905
  113MYC    H2322228   2.631   2.756   1.664 -1.9828  0.4985  3.5512
  113MYC    C1222229   2.677   2.935   1.750  0.5652 -0.4605 -0.3557
  113MYC    H2022230   2.621   2.975   1.665 -1.1896 -1.0181  0.5080
  113MYC    H2122231   2.763   2.999   1.775 -0.1909  0.0758  0.9562
  113MYC    C1122232   2.563   2.937   1.863  0.0485 -0.0288 -1.4327
  113MYC    H1822233   2.477   2.873   1.838  0.4463 -1.2166  0.0710
  113MYC    H1922234   2.528   3.040   1.869  0.3358  0.0130  3.2953
  113MYC    C1022235   2.609   2.897   2.000  0.0483  0.3849  0.6405
  113MYC    H1622236   2.686   2.970   2.028 -0.8484  2.1975 -1.3330
  113MYC    H1722237   2.641   2.792   2.002 -1.2737 -0.0913 -1.0511
  113MYC     C922238   2.513   2.917   2.117  0.5545 -1.2132 -0.1652
  113MYC    H1422239   2.443   2.833   2.113  1.5002 -2.0112 -0.3489
  113MYC    H1522240   2.465   3.015   2.110  2.0841 -0.0160  3.5690
  113MYC     C822241   2.581   2.910   2.262 -0.1764 -0.6272 -0.6918
  113MYC    H1222242   2.665   2.980   2.272 -0.6613 -0.1039 -0.2530
  113MYC    H1322243   2.626   2.814   2.291  0.4274  0.0846  0.8300
  113MYC     C722244   2.475   2.945   2.373 -0.3530 -0.1223 -0.1119
  113MYC    H1022245   2.395   2.871   2.362 -0.4188  0.0566 -0.9018
  113MYC    H1122246   2.436   3.043   2.345  0.9025 -0.1142 -2.0106
  113MYC     C622247   2.537   2.940   2.512 -0.1260 -0.4908 -0.3371
  113MYC     H822248   2.640   2.979   2.513 -0.1145 -0.5136  1.3103
  113MYC     H922249   2.548   2.834   2.535 -0.4367 -0.1727  1.3755
  113MYC     C522250   2.449   3.011   2.618 -0.6559  0.0043 -0.2878
  113MYC     H622251   2.350   2.966   2.612 -0.7735  0.0718  0.9833
  113MYC     H722252   2.434   3.117   2.591  2.0264 -0.0804 -2.6109
  113MYC     C422253   2.500   2.998   2.765 -0.1392  0.3304  0.8898
  113MYC     H422254   2.596   3.047   2.785  1.5007 -2.8629  1.5684
  113MYC     H522255   2.525   2.891   2.775  0.2413  0.2391 -0.7816
  113MYC     C222256   2.406   3.044   2.876 -0.6022  0.4731 -0.0563
  113MYC     H222257   2.395   3.153   2.869 -3.0082  0.6214  3.1776
  113MYC     O322258   2.273   2.996   2.867 -0.6689 -1.0457  0.3544
  113MYC     H322259   2.273   2.899   2.874 -0.9412 -1.1361 -0.6339
  113MYC     C122260   2.470   3.009   3.016  0.1227  0.1200  0.0464
  113MYC     H122261   2.574   3.042   3.024  0.9093 -2.1168 -0.1225
  113MYC    C8122262   2.481   2.853   3.031  1.0196  0.0715  0.0037
  113MYC    O8222263   2.384   2.778   3.022  0.3092  0.0562 -0.1551
  113MYC    O8322264   2.600   2.810   3.073 -0.0030  0.2360 -0.2361
  113MYC   H10522265   2.588   2.716   3.094  3.3209 -0.2062  0.1850
  113MYC    C2022266   2.396   3.078   3.133 -0.0522 -0.1121  0.2158
  113MYC    H3422267   2.386   3.185   3.110 -0.4261 -0.2457 -0.2499
  113MYC    H3522268   2.298   3.030   3.130 -0.5678  0.8962  0.3871
  113MYC    C2122269   2.457   3.061   3.268 -0.0066  0.1558  0.0503
  113MYC    H3622270   2.468   2.952   3.278  1.0384  0.1588 -0.8780
  113MYC    H3722271   2.558   3.103   3.275 -0.5228  1.2005  1.6744
  113MYC    C2222272   2.369   3.114   3.382 -0.2409  0.5367 -0.0239
  113MYC    H3822273   2.429   3.165   3.458 -1.1759  0.5817  0.6979
  113MYC    H3922274   2.307   3.200   3.356 -0.0754  0.5143 -0.5083
  113MYC    C2322275   2.256   3.024   3.449 -0.3375  0.3597  0.0465
  113MYC    H4022276   2.202   2.966   3.374 -0.8776  0.9649 -0.0454
  113MYC    H4122277   2.317   2.949   3.500  1.3045  1.1921 -0.6461
  113MYC    C2422278   2.151   3.089   3.546 -0.3929 -0.1287 -0.5524
  113MYC    H4222279   2.199   3.131   3.635  1.9231 -2.0876 -0.8000
  113MYC    H4322280   2.118   3.173   3.484  1.4525  0.1401 -1.2213
  113MYC    C2522281   2.034   3.005   3.595  0.3640 -0.0849 -0.0806
  113MYC    H4422282   1.957   3.002   3.517 -1.4638 -1.2040  1.6837
  113MYC    H4522283   2.065   2.900   3.604 -0.6774 -0.5509 -1.6295
  113MYC    C2622284   1.969   3.061   3.724 -0.1494 -0.4067  0.3125
  113MYC    H4622285   2.052   3.055   3.795 -0.2610  2.5827  0.8041
  113MYC    H4722286   1.953   3.169   3.714  2.0213  0.0942  1.7346
  113MYC    C2722287   1.846   2.986   3.763  0.6775  0.2723 -0.2070
  113MYC    H4822288   1.771   2.991   3.683 -0.5084  0.3356  0.8717
  113MYC    H4922289   1.874   2.880   3.775 -1.1254 -0.1005  1.2714
  113MYC    C2822290   1.776   3.045   3.883 -0.0630 -0.0139 -1.1365
  113MYC    H5022291   1.849   3.053   3.964 -0.4452 -1.0314 -0.6753
  113MYC    H5122292   1.745   3.149   3.865 -1.5388 -0.2689 -0.2491
  113MYC    C2922293   1.656   2.957   3.932  0.1522 -0.3450  0.1928
  113MYC    H5222294   1.599   2.909   3.852  0.2814  0.5673 -0.4588
  113MYC    H5322295   1.697   2.871   3.987 -2.3460 -1.2074  0.8113
  113MYC    C3022296   1.567   3.032   4.030  0.4244 -0.2410 -0.5687
  113MYC    H5422297   1.639   3.086   4.093  1.4513  0.4503 -2.2577
  113MYC    H5522298   1.514   3.112   3.976  0.9201  0.6272  0.1948
  113MYC    C3122299   1.481   2.954   4.134  0.3893  0.0141  0.2123
  113MYC    H5622300   1.408   2.890   4.083  2.5166 -1.4715 -1.1508
  113MYC    H5722301   1.549   2.881   4.180  1.9058  2.0969  1.4338
  113MYC    C3222302   1.404   3.023   4.250 -0.3390 -0.3524 -0.3009
  113MYC    H5822303   1.450   3.122   4.255  0.7643 -0.6986 -2.4918
  113MYC    H5922304   1.300   3.036   4.220 -0.0936 -0.1129 -1.0609
  113MYC    C3322305   1.393   2.948   4.385 -0.3597 -0.5703  0.1317
  113MYC    H6022306   1.366   2.842   4.374 -2.5720 -0.0737  0.4579
  113MYC    H6122307   1.494   2.935   4.425 -0.9061  0.8201  2.0600
  113MYC    C3422308   1.311   3.017   4.493 -0.7614  0.2478  0.0238
  113MYC    H6222309   1.339   3.123   4.498  2.1075 -0.3141 -1.7071
  113MYC    H6322310   1.207   3.009   4.460 -1.4072  1.2908  1.6953
  113MYC    C3522311   1.321   2.941   4.624  0.6551  0.6165  0.4725
  113MYC    H6422312   1.298   2.834   4.618  1.2040  0.5834 -2.4475
  113MYC    H6522313   1.421   2.949   4.666  1.5717 -1.0788 -1.2528
  113MYC    C3622314   1.211   3.001   4.715 -0.0960 -0.4287 -0.5335
  113MYC    H6622315   1.223   3.109   4.726  0.8681 -0.5371 -0.4462
  113MYC    H6722316   1.112   2.976   4.676  0.2787 -1.4484 -0.8765
  113MYC    C3722317   1.218   2.948   4.866  0.3069  0.1451  0.1740
  113MYC    H6822318   1.223   2.838   4.871  0.9220  0.1025 -1.1643
  113MYC    H6922319   1.306   2.995   4.911 -1.2770  2.4700  1.0091
  113MYC    C3822320   1.099   3.004   4.954 -0.0072  0.4743  0.0871
  113MYC    H7022321   1.106   3.113   4.952 -3.7208  0.8527 -2.2585
  113MYC    H7122322   1.006   2.985   4.899 -0.5386  0.4617  0.9707
  113MYC    C3922323   1.094   2.953   5.096 -1.1919 -0.1520  0.2687
  113MYC    H7222324   1.079   2.844   5.097 -3.0082  0.0524 -0.5815
  113MYC    H7322325   1.190   2.981   5.141 -1.8078  1.6489  0.5270
  113MYC    C4022326   0.985   3.015   5.187 -0.3225 -0.4850 -0.1668
  113MYC    H7422327   0.965   3.122   5.184 -0.5677 -0.5503 -1.6524
  113MYC    H7522328   0.891   2.980   5.143  0.0914 -0.0066 -1.4740
  113MYC    C4122329   1.021   2.975   5.337 -0.5536  0.0171  0.2000
  113MYC    H7622330   1.025   2.866   5.350 -1.2797  0.2691  3.7225
  113MYC    H7722331   1.122   3.010   5.362  0.0539 -1.3996 -0.1536
  113MYC    C4222332   0.910   3.024   5.433  0.1546 -0.8033  0.2906
  113MYC    H7822333   0.899   3.132   5.419  1.4219 -0.5414  1.1776
  113MYC    H7922334   0.812   2.991   5.398  0.8306 -0.8803 -1.6709
  113MYC    C4322335   0.934   2.989   5.587 -0.0580 -0.5471  0.4378
  113MYC    H8022336   0.858   3.033   5.652  0.5431 -1.3880  1.7361
  113MYC    H8122337   1.034   3.021   5.615 -0.4158 -0.1257  1.2742
  113MYC    H8222338   0.932   2.879   5.580  0.5332 -0.6266  1.4840
  114MYC   HH1522339   1.547   3.603   5.887  0.4271 -0.9181  0.1410
  114MYC    C8022340   1.457   3.554   5.848 -0.0038  0.1187 -0.2177
  114MYC   H10022341   1.442   3.456   5.896 -0.6988 -0.0780 -0.8168
  114MYC   H10122342   1.370   3.620   5.857 -0.1252  0.0894 -1.1471
  114MYC    C7922343   1.474   3.530   5.696  0.3563 -0.1653  0.4999
  114MYC   H10222344   1.565   3.471   5.682  0.4972  0.3076 -0.6536
  114MYC   H10322345   1.501   3.625   5.648 -1.4786  0.0036 -0.2716
  114MYC    C7822346   1.354   3.463   5.628  0.3394  0.2948 -0.2088
  114MYC   HH1422347   1.265   3.471   5.692  0.0160  0.7094 -0.7045
  114MYC   H10422348   1.366   3.354   5.633  0.0671  0.2733  0.0462
  114MYC    C7722349   1.323   3.515   5.489 -0.0018 -0.1863  0.0867
  114MYC   H10622350   1.408   3.486   5.426 -0.4917 -0.4414 -0.4591
  114MYC   H10722351   1.320   3.625   5.494  0.1166 -0.2318  2.2960
  114MYC    C7622352   1.200   3.453   5.421  0.7301 -0.3130  0.2600
  114MYC   H10822353   1.181   3.515   5.333  1.4316  0.2424  0.4834
  114MYC   H10922354   1.115   3.471   5.487  0.7469  0.1862  0.1482
  114MYC    C7522355   1.211   3.301   5.382 -0.1586 -0.3615 -0.1946
  114MYC   H11022356   1.113   3.276   5.341  0.2222 -0.1020 -1.2875
  114MYC   H11122357   1.220   3.252   5.480 -2.5126 -1.1003 -0.2991
  114MYC    C7422358   1.323   3.249   5.282 -0.0210  0.7360 -0.1118
  114MYC   H11222359   1.301   3.143   5.267 -0.1203  1.0372 -2.5165
  114MYC   H11322360   1.423   3.250   5.327  0.8215  1.3817 -1.8919
  114MYC    C7322361   1.323   3.323   5.141  0.4104  0.2629 -0.2507
  114MYC   HH1322362   1.333   3.428   5.171  3.6093 -0.0138 -0.0205
  114MYC   H11422363   1.228   3.292   5.095 -0.8233 -0.4957  2.5728
  114MYC    C7222364   1.438   3.265   5.063 -0.5692  0.3977 -0.2874
  114MYC   H11522365   1.427   3.159   5.038 -0.5699  0.2427  0.3667
  114MYC   H11622366   1.534   3.273   5.116 -1.5961  2.7077  1.3921
  114MYC    C7122367   1.447   3.339   4.929  0.5141  0.8834  0.5669
  114MYC   H11722368   1.463   3.445   4.955 -0.1529  1.2057 -0.2852
  114MYC   H11822369   1.343   3.334   4.894  0.9066 -1.5532 -0.3735
  114MYC    C7022370   1.540   3.274   4.827  0.1113  0.1362  0.0599
  114MYC   H11922371   1.494   3.176   4.812 -0.0560  0.0653  0.9747
  114MYC   H12022372   1.639   3.266   4.874 -0.0013 -3.0814 -0.0149
  114MYC    C6922373   1.559   3.355   4.698 -0.8590  0.0850 -0.1383
  114MYC   H12122374   1.596   3.455   4.722 -0.5027 -0.4363  1.6738
  114MYC   H12222375   1.463   3.353   4.645 -0.7679 -0.6708 -0.2917
  114MYC    C6822376   1.655   3.267   4.608  0.3037 -1.6400  0.6486
  114MYC   HH1222377   1.614   3.165   4.597 -2.3837 -0.7956  2.0563
  114MYC   H12322378   1.754   3.278   4.653 -0.4812  1.3075  1.8542
  114MYC    C6722379   1.670   3.334   4.466  0.2096 -0.8327  0.3981
  114MYC   H12422380   1.669   3.442   4.486  3.1575 -0.0501 -2.6841
  114MYC   H12522381   1.580   3.323   4.405  0.6306  0.2725 -0.4757
  114MYC    C6622382   1.792   3.284   4.386 -0.1713 -1.0913  0.2670
  114MYC   H12622383   1.802   3.175   4.394  0.4527 -1.2195 -1.7150
  114MYC   H12722384   1.882   3.322   4.435 -0.0735  0.5484 -1.1063
  114MYC    C6522385   1.799   3.329   4.234 -0.2462  1.0708 -0.6057
  114MYC   H12822386   1.784   3.437   4.236 -1.1213  1.0670 -3.3924
  114MYC   H12922387   1.720   3.288   4.170  0.0633  0.3371 -0.5275
  114MYC    C6422388   1.937   3.293   4.170  0.3512  0.3058  0.3687
  114MYC   H13022389   1.952   3.185   4.159  0.1637  0.3813 -0.8670
  114MYC   H13122390   2.013   3.324   4.242 -1.5543  2.3484  1.6309
  114MYC    C6322391   1.949   3.358   4.030  0.3158 -0.3956 -0.8438
  114MYC   HH1122392   1.914   3.460   4.050 -1.0593 -1.3492  2.4025
  114MYC   H13222393   1.875   3.310   3.965 -1.5491  1.2692 -0.0720
  114MYC    C6222394   2.085   3.350   3.968 -0.7572 -0.4164  1.0874
  114MYC   H13322395   2.108   3.245   3.950 -1.6346 -0.4220 -0.1100
  114MYC   H13422396   2.157   3.386   4.042 -1.0453 -0.4997  1.4142
  114MYC    C6122397   2.104   3.421   3.839 -0.9756 -0.2213  0.4093
  114MYC   H13522398   2.085   3.528   3.853  1.5735  0.0155  2.6974
  114MYC   H13622399   2.053   3.387   3.748  1.0620 -0.6218 -0.6440
  114MYC    C6022400   2.248   3.415   3.802 -0.5830 -0.3417 -0.3990
  114MYC   H13722401   2.281   3.313   3.784  1.7061  0.3369 -0.3590
  114MYC    C5822402   2.319   3.525   3.725 -0.1987  0.0233 -0.3136
  114MYC   H13822403   2.275   3.621   3.699 -0.8754  0.0312  0.7823
  114MYC    C5922404   2.348   3.506   3.870  0.0703  0.5071 -0.8745
  114MYC   H13922405   2.448   3.468   3.886  0.8235  1.4062 -3.1252
  114MYC   H14022406   2.304   3.577   3.939 -2.0870  1.4605 -3.0729
  114MYC    C5722407   2.427   3.489   3.624 -0.5794 -0.4644 -0.6182
  114MYC   HH1022408   2.471   3.391   3.645  0.9737  0.4812  0.7680
  114MYC   H14122409   2.505   3.566   3.629 -0.3827 -0.4299 -3.0794
  114MYC    C5622410   2.369   3.494   3.485 -0.4667  0.2292  0.5134
  114MYC   H14222411   2.322   3.591   3.468 -0.1500  0.8109  2.6571
  114MYC   H14322412   2.285   3.424   3.479 -0.4611  0.2346  0.3819
  114MYC    C5522413   2.474   3.463   3.371 -0.0986  0.0383  0.3728
  114MYC   H14422414   2.485   3.354   3.371 -0.8970 -0.1390 -2.7332
  114MYC   H14522415   2.577   3.493   3.395  1.4870 -4.5041  0.2602
  114MYC    C5422416   2.432   3.512   3.229 -0.1719  0.6928 -0.8191
  114MYC   H14622417   2.435   3.622   3.223  0.9019  0.6978 -0.4844
  114MYC   H14722418   2.338   3.461   3.209  1.4210 -2.4168 -0.9674
  114MYC    C5322419   2.543   3.456   3.131 -1.1656 -0.0368 -0.3491
  114MYC   H14822420   2.546   3.346   3.142 -0.4253  0.0912  0.9678
  114MYC   H14922421   2.637   3.501   3.165 -1.3399 -0.1261  0.2705
  114MYC    C5222422   2.513   3.492   2.978 -0.2141 -0.0355 -0.1270
  114MYC    H9922423   2.497   3.599   2.962 -2.9740 -0.1825  1.0791
  114MYC   H15022424   2.425   3.434   2.945 -0.2495 -0.4345  0.6398
  114MYC    C5122425   2.625   3.449   2.877  0.6442 -0.1360  0.4454
  114MYC    H9722426   2.638   3.341   2.882  1.8234 -0.1496 -1.7952
  114MYC    H9822427   2.717   3.507   2.893  1.0964  0.0366 -2.2179
  114MYC    C5022428   2.589   3.494   2.733 -0.4166 -0.6863 -0.4051
  114MYC    H9522429   2.584   3.603   2.722  0.6125 -0.5001  0.6925
  114MYC    H9622430   2.492   3.456   2.699 -1.3950  1.3420 -0.0121
  114MYC    C4922431   2.698   3.455   2.625  0.5672 -0.1894  0.3295
  114MYC    H9322432   2.721   3.348   2.619  1.0530 -0.0380 -1.2185
  114MYC    H9422433   2.786   3.509   2.662  0.5548 -1.9034  3.1107
  114MYC    C4822434   2.660   3.498   2.478 -0.4381 -0.1016  0.5643
  114MYC    H9122435   2.622   3.600   2.464 -2.6144 -1.1594 -2.1333
  114MYC    H9222436   2.577   3.431   2.457 -0.5107 -0.2725  1.3482
  114MYC    C4722437   2.774   3.473   2.376 -0.7131 -0.5696 -0.4495
  114MYC    H8922438   2.735   3.484   2.274  0.8821  1.2356 -0.9168
  114MYC    H9022439   2.812   3.371   2.382  1.2234  0.1961  1.5166
  114MYC    C4622440   2.887   3.576   2.388 -0.0292 -0.1483 -0.0055
  114MYC    H8722441   2.938   3.563   2.485 -1.8491  0.5408  1.0930
  114MYC    H8822442   2.843   3.675   2.407 -1.0007 -0.6363  0.3630
  114MYC    C4522443   2.990   3.582   2.274 -0.2437  1.1511  0.2843
  114MYC    H8522444   3.073   3.651   2.296  0.6625 -0.0255  0.6675
  114MYC    H8622445   2.938   3.609   2.181 -2.7422  0.8984  1.5139
  114MYC    C4422446   3.066   3.447   2.262 -0.4068  0.1825 -0.2229
  114MYC    H8322447   3.002   3.366   2.226 -2.9316  0.1192  3.7245
  114MYC    H8422448   3.120   3.434   2.357 -2.5406 -0.5432  0.9570
  114MYC    C1822449   3.164   3.449   2.138  0.6922 -0.2023  0.4746
  114MYC    H3122450   3.114   3.441   2.042  1.4793 -0.4571  0.0797
  114MYC    C1722451   3.299   3.526   2.140  0.0297 -0.1867 -0.0005
  114MYC    H3022452   3.326   3.582   2.229  1.4785 -0.3941 -0.2894
  114MYC    C1922453   3.301   3.374   2.163  0.0751 -0.0689  0.2078
  114MYC    H3222454   3.335   3.345   2.261 -0.1512 -0.4279  0.1823
  114MYC    H3322455   3.343   3.316   2.081  0.9054  0.5090  0.2102
  114MYC    C1622456   3.341   3.598   2.009  0.5786 -0.0584  0.0522
  114MYC    H2822457   3.293   3.569   1.915  1.5203  0.2996 -0.5594
  114MYC    H2922458   3.445   3.570   1.990  0.4730  0.6637 -1.8425
  114MYC    C1522459   3.323   3.749   2.019 -0.4936 -0.3194  0.0262
  114MYC    H2622460   3.378   3.794   1.935 -0.9479 -0.4473 -0.3423
  114MYC    H2722461   3.363   3.788   2.113  1.1273 -0.8866 -0.3969
  114MYC    C1422462   3.183   3.799   2.006 -0.3461  0.1258 -0.2169
  114MYC    H2422463   3.119   3.733   2.066 -0.7398  0.1965 -0.5457
  114MYC    H2522464   3.152   3.803   1.900  0.5702 -0.8145 -0.5406
  114MYC    C1322465   3.150   3.947   2.054 -0.4785 -0.7879  0.0172
  114MYC    H2222466   3.161   3.952   2.163  0.2306  1.4559 -0.1122
  114MYC    H2322467   3.049   3.976   2.023 -0.0220  1.7132  0.6118
  114MYC    C1222468   3.236   4.054   1.981 -0.6128 -0.4617 -1.0530
  114MYC    H2022469   3.245   4.031   1.874 -1.9283 -0.8093 -1.1014
  114MYC    H2122470   3.341   4.052   2.014 -0.3166  0.2298 -1.8962
  114MYC    C1122471   3.186   4.197   2.004  1.2893 -1.0174 -0.5576
  114MYC    H1822472   3.090   4.213   1.954  1.1583 -0.7997 -0.2399
  114MYC    H1922473   3.254   4.268   1.956 -0.4901  2.0447  1.0964
  114MYC    C1022474   3.141   4.242   2.146  0.0687 -0.2435  0.5852
  114MYC    H1622475   3.053   4.191   2.185 -1.2857  0.1028 -1.8686
  114MYC    H1722476   3.094   4.341   2.138 -0.8682 -0.7862 -1.1107
  114MYC     C922477   3.259   4.256   2.248  0.4172  0.0541 -0.6047
  114MYC    H1422478   3.333   4.325   2.208  0.8036  0.0909  0.1468
  114MYC    H1522479   3.309   4.158   2.252 -0.1117 -0.1889  0.6643
  114MYC     C822480   3.219   4.305   2.387  0.4122 -0.2096 -0.1000
  114MYC    H1222481   3.148   4.385   2.364  1.2544 -0.0793 -2.5592
  114MYC    H1322482   3.302   4.340   2.450 -0.3748  1.4488  0.0729
  114MYC     C722483   3.146   4.191   2.470  0.2783  0.6036 -0.2991
  114MYC    H1022484   3.215   4.106   2.476  0.7449  0.9349 -0.8194
  114MYC    H1122485   3.061   4.149   2.415 -1.5531 -1.2338  3.5886
  114MYC     C622486   3.103   4.222   2.618  0.1953 -0.4120  0.0050
  114MYC     H822487   3.045   4.315   2.609  0.7097 -0.0871 -0.0091
  114MYC     H922488   3.187   4.246   2.684 -1.1146  1.3131  1.1388
  114MYC     C522489   3.028   4.104   2.681 -0.0740 -1.1707 -0.0325
  114MYC     H622490   2.934   4.094   2.626  0.0535 -0.9267 -0.2993
  114MYC     H722491   3.008   4.143   2.781  2.0528  0.8923 -0.3069
  114MYC     C422492   3.109   3.974   2.686 -0.4253  0.1813 -0.5059
  114MYC     H422493   3.208   3.996   2.726 -0.4591  1.5891 -1.1602
  114MYC     H522494   3.113   3.932   2.584 -2.0355  2.7556 -1.7166
  114MYC     C222495   3.044   3.859   2.782  0.4715  0.0897 -0.3151
  114MYC     H222496   3.009   3.898   2.879  0.0051 -1.7652  0.3027
  114MYC     O322497   2.931   3.795   2.712 -0.4316  0.2078 -0.3515
  114MYC     H322498   2.847   3.844   2.723 -1.2662 -1.4204  0.9383
  114MYC     C122499   3.160   3.762   2.818 -0.5122  0.2770  0.3720
  114MYC     H122500   3.227   3.835   2.866  0.7691  0.4000 -1.5026
  114MYC    C8122501   3.212   3.696   2.687 -0.1647  0.0461 -0.1539
  114MYC    O8222502   3.329   3.705   2.650  0.3449  0.5062 -0.0750
  114MYC    O8322503   3.134   3.600   2.636  0.2547  0.0795  0.1882
  114MYC   H10522504   3.175   3.574   2.552  0.0284 -0.2927  0.1880
  114MYC    C2022505   3.138   3.650   2.926  0.7473 -0.1554  0.1662
  114MYC    H3422506   3.065   3.578   2.885  0.6390  0.3538 -0.5634
  114MYC    H3522507   3.229   3.592   2.942  1.4251  0.2479 -1.8723
  114MYC    C2122508   3.077   3.694   3.060  0.8573 -0.4821  0.2620
  114MYC    H3622509   3.148   3.761   3.110  1.1555  0.4396 -1.3543
  114MYC    H3722510   2.981   3.746   3.048  1.1789 -0.0538 -0.4833
  114MYC    C2222511   3.048   3.567   3.149  0.1581 -0.1518 -0.5623
  114MYC    H3822512   2.974   3.500   3.105  0.4856 -0.9056  0.0174
  114MYC    H3922513   3.142   3.512   3.158  1.0703  1.3575 -0.4523
  114MYC    C2322514   2.998   3.595   3.293 -0.2330 -0.1545  0.2350
  114MYC    H4022515   3.080   3.621   3.361 -0.8302  1.2592  0.4414
  114MYC    H4122516   2.934   3.683   3.302 -1.4835 -0.8740 -1.1484
  114MYC    C2422517   2.929   3.473   3.351 -0.4352 -0.2362  0.3526
  114MYC    H4222518   2.858   3.436   3.276 -0.9570  1.7955 -0.2102
  114MYC    H4322519   3.001   3.391   3.362  0.6564  0.7120  0.4350
  114MYC    C2522520   2.858   3.495   3.486  0.1051  0.0320 -0.1962
  114MYC    H4422521   2.804   3.591   3.482  2.8932  1.6634 -1.7443
  114MYC    H4522522   2.793   3.407   3.497  1.3949 -1.0790 -1.1690
  114MYC    C2622523   2.954   3.504   3.609 -0.8733  0.5202  0.2941
  114MYC    H4622524   2.976   3.398   3.626 -0.0705  0.2393 -2.1233
  114MYC    H4722525   3.044   3.561   3.586 -0.2924 -0.3375  0.4086
  114MYC    C2722526   2.892   3.558   3.735 -0.3886 -0.5795  0.4566
  114MYC    H4822527   2.864   3.660   3.707 -0.5569 -0.7043  0.1554
  114MYC    H4922528   2.792   3.514   3.747 -0.3458 -0.2976  2.0053
  114MYC    C2822529   2.977   3.548   3.864  0.7755 -0.0597  0.0751
  114MYC    H5022530   2.987   3.443   3.896  2.0178 -0.4877 -1.6066
  114MYC    H5122531   3.078   3.582   3.840  1.2441 -1.3330  0.1619
  114MYC    C2922532   2.931   3.624   3.988 -0.2831  0.3999  0.0985
  114MYC    H5222533   2.920   3.728   3.955 -2.8399  0.9426  2.2944
  114MYC    H5322534   2.834   3.585   4.020  0.8546 -0.4378  2.7721
  114MYC    C3022535   3.029   3.626   4.106  0.2629  0.1508  0.3906
  114MYC    H5422536   3.080   3.530   4.126  0.4117  0.0610 -0.4050
  114MYC    H5522537   3.108   3.692   4.070 -1.0818  0.9254 -1.2498
  114MYC    C3122538   2.958   3.683   4.232 -0.6352  0.1984 -0.3214
  114MYC    H5622539   2.923   3.784   4.209 -0.0405  0.0985 -1.7929
  114MYC    H5722540   2.867   3.623   4.243  0.9336 -2.5944 -1.4669
  114MYC    C3222541   3.053   3.697   4.355 -0.9009  0.0201 -0.0992
  114MYC    H5822542   3.109   3.604   4.365 -1.5484 -0.4233 -0.4882
  114MYC    H5922543   3.128   3.775   4.337  0.6305 -1.6149 -1.1395
  114MYC    C3322544   2.982   3.735   4.487  0.3170 -0.0796  0.3175
  114MYC    H6022545   2.909   3.817   4.478 -0.8027 -1.1967 -1.5692
  114MYC    H6122546   2.930   3.646   4.526  0.8410 -1.0516 -1.1069
  114MYC    C3422547   3.088   3.769   4.593  0.2464 -0.4433 -0.3732
  114MYC    H6222548   3.169   3.696   4.585 -0.0831 -1.0530  1.4683
  114MYC    H6322549   3.143   3.862   4.573  0.4122  0.2145  2.6286
  114MYC    C3522550   3.039   3.784   4.737  0.4818  0.2376 -0.2835
  114MYC    H6422551   2.990   3.691   4.768 -0.4599  0.8668  0.1498
  114MYC    H6522552   3.125   3.818   4.796  0.3719  0.6013 -0.3267
  114MYC    C3622553   2.931   3.886   4.769  0.0226 -0.7253 -0.5371
  114MYC    H6622554   2.831   3.849   4.744 -0.9738  0.0278  1.9917
  114MYC    H6722555   2.932   3.903   4.877 -1.7157 -0.4695 -0.5438
  114MYC    C3722556   2.938   4.020   4.701 -0.2347  0.7336  0.3500
  114MYC    H6822557   2.948   4.002   4.594 -2.9854 -1.8779  0.4230
  114MYC    H6922558   2.847   4.078   4.717 -0.8140 -0.8050  3.4686
  114MYC    C3822559   3.062   4.101   4.733 -0.0251  0.4135 -0.6846
  114MYC    H7022560   3.069   4.114   4.842  1.7690  0.5307 -0.7949
  114MYC    H7122561   3.148   4.043   4.698  1.4539  2.3048 -0.3605
  114MYC    C3922562   3.070   4.247   4.679 -0.2401  0.4380  0.0065
  114MYC    H7222563   3.077   4.244   4.570  2.2758 -3.3128  0.0885
  114MYC    H7322564   2.978   4.303   4.699 -0.8261 -0.1292 -0.9872
  114MYC    C4022565   3.193   4.326   4.726 -0.2277  0.3214  0.0487
  114MYC    H7422566   3.178   4.336   4.834  0.8068 -0.6023  0.2882
  114MYC    H7522567   3.281   4.262   4.714 -0.5800  0.1780 -2.1449
  114MYC    C4122568   3.228   4.458   4.659 -0.0703 -0.1516  0.4370
  114MYC    H7622569   3.188   4.467   4.557  2.3544 -0.7410 -0.6183
  114MYC    H7722570   3.186   4.545   4.712  1.3116  0.0410  1.2526
  114MYC    C4222571   3.381   4.483   4.641 -0.7932 -0.2614 -0.2627
  114MYC    H7822572   3.431   4.480   4.739 -0.0739  1.4457 -0.5486
  114MYC    H7922573   3.425   4.402   4.582 -2.2688 -1.7434  0.5857
  114MYC    C4322574   3.422   4.618   4.573  0.2523  0.1827  0.4582
  114MYC    H8022575   3.414   4.616   4.464  3.5497 -2.1984  0.0942
  114MYC    H8122576   3.529   4.640   4.590  0.5749 -0.9525 -0.0354
  114MYC    H8222577   3.358   4.701   4.605  0.3342  0.5629 -0.3293
  115MYC   HH1522578   1.622   3.706   5.245 -0.5989 -1.2720  0.4470
  115MYC    C8022579   1.615   3.651   5.150  0.8321 -0.0163 -0.4331
  115MYC   H10022580   1.628   3.549   5.186  2.5493  0.6486  0.9771
  115MYC   H10122581   1.523   3.674   5.096  0.5541  2.4503  0.9187
  115MYC    C7922582   1.726   3.706   5.064  0.7180  0.1681  0.0213
  115MYC   H10222583   1.824   3.677   5.103  0.4440  0.5416  1.0108
  115MYC   H10322584   1.726   3.816   5.056  0.7069  0.3823  2.3859
  115MYC    C7822585   1.725   3.642   4.927  0.0506 -0.6140 -0.4224
  115MYC   HH1422586   1.641   3.681   4.867  0.0125 -1.5228 -0.9646
  115MYC   H10422587   1.721   3.533   4.928  0.1653 -0.6438 -1.5172
  115MYC    C7722588   1.852   3.684   4.849  0.3426 -0.9268 -0.2752
  115MYC   H10622589   1.942   3.689   4.912 -0.7933  1.4351  1.2936
  115MYC   H10722590   1.839   3.790   4.824  0.6824 -0.4225  1.5531
  115MYC    C7622591   1.882   3.614   4.719  0.1407 -0.0893  0.1823
  115MYC   H10822592   1.790   3.589   4.665  2.4588 -2.5649 -3.0496
  115MYC   H10922593   1.921   3.514   4.740  1.4509  0.6218  1.3079
  115MYC    C7522594   1.991   3.682   4.633  0.0183  0.2329  0.0211
  115MYC   H11022595   2.085   3.710   4.682  1.8358  0.0815 -3.0730
  115MYC   H11122596   1.925   3.768   4.613 -0.5858  0.2622  2.0264
  115MYC    C7422597   2.031   3.598   4.509  0.3686 -0.0333  0.7045
  115MYC   H11222598   1.953   3.560   4.443  0.3811 -0.2297  0.8004
  115MYC   H11322599   2.079   3.505   4.543  0.7742 -0.1917 -0.2660
  115MYC    C7322600   2.131   3.664   4.424 -0.7639 -0.2537  0.3970
  115MYC   HH1322601   2.202   3.714   4.491  0.1459  0.2556 -0.9129
  115MYC   H11422602   2.084   3.747   4.371  1.7898  2.4024  1.9926
  115MYC    C7222603   2.213   3.568   4.334 -0.0671  0.2315 -0.0487
  115MYC   H11522604   2.154   3.494   4.279 -0.4660  1.0899 -0.7999
  115MYC   H11622605   2.282   3.509   4.397 -0.2025  0.3309  0.1927
  115MYC    C7122606   2.294   3.632   4.222 -0.7307  0.1152  0.7605
  115MYC   H11722607   2.217   3.677   4.158 -1.1544 -0.7410  0.6559
  115MYC   H11822608   2.349   3.559   4.161 -0.0440  1.5121 -0.3854
  115MYC    C7022609   2.402   3.732   4.268  0.4948 -1.0033 -0.9026
  115MYC   H11922610   2.460   3.680   4.345  2.2991 -1.4473 -2.4847
  115MYC   H12022611   2.353   3.823   4.302  1.9071 -0.4725 -0.2543
  115MYC    C6922612   2.508   3.769   4.158  0.2862  0.3871 -0.6621
  115MYC   H12122613   2.559   3.673   4.150  0.8077  0.7449 -1.9697
  115MYC   H12222614   2.579   3.840   4.203  2.0652 -1.8714  0.2739
  115MYC    C6822615   2.452   3.831   4.021 -0.3537 -0.0726 -0.4883
  115MYC   HH1222616   2.408   3.930   4.038 -2.4147 -1.3091  2.0097
  115MYC   H12322617   2.374   3.762   3.986 -0.0191 -0.3995 -0.5968
  115MYC    C6722618   2.561   3.844   3.909  0.3484 -0.7168 -0.1961
  115MYC   H12422619   2.601   3.743   3.895  2.5282 -0.1520  1.3963
  115MYC   H12522620   2.643   3.911   3.938 -0.7197  1.5058 -2.0113
  115MYC    C6622621   2.499   3.900   3.778  0.2593 -0.1163 -0.0881
  115MYC   H12622622   2.475   4.004   3.801  2.6569  0.0108  2.4540
  115MYC   H12722623   2.406   3.852   3.747  0.3346 -0.0133 -0.4734
  115MYC    C6522624   2.598   3.888   3.659  0.6454 -0.4200  0.2392
  115MYC   H12822625   2.648   3.791   3.672  0.3006 -0.3782  2.2945
  115MYC   H12922626   2.672   3.966   3.679  1.1631 -0.5323 -1.1483
  115MYC    C6422627   2.540   3.909   3.515 -0.2768 -0.9615  0.1217
  115MYC   H13022628   2.494   4.009   3.509 -0.5422 -1.1374 -1.0494
  115MYC   H13122629   2.463   3.832   3.502  2.3931 -3.5190 -1.6655
  115MYC    C6322630   2.655   3.895   3.410  0.5876  0.2270  0.2682
  115MYC   HH1122631   2.710   3.803   3.433  0.0879 -0.4236 -1.0535
  115MYC   H13222632   2.718   3.985   3.420  0.8650 -0.0504  1.1075
  115MYC    C6222633   2.611   3.889   3.266 -0.2779  0.7094  1.0801
  115MYC   H13322634   2.538   3.969   3.253 -1.4627 -0.3027  1.3720
  115MYC   H13422635   2.558   3.795   3.247 -0.2985  0.3366  2.8162
  115MYC    C6122636   2.718   3.921   3.169 -0.1821 -0.0880 -0.3146
  115MYC   H13522637   2.783   3.835   3.148 -1.9909 -1.1649 -1.7822
  115MYC   H13622638   2.775   4.007   3.207 -1.7416  0.9890 -0.3578
  115MYC    C6022639   2.671   3.977   3.030  0.8013  0.1587  0.5745
  115MYC   H13722640   2.622   3.896   2.977  0.0052  0.6170  0.5926
  115MYC    C5822641   2.636   4.122   3.004  0.0608  0.2974  0.8216
  115MYC   H13822642   2.643   4.179   3.097  0.8489  1.6934 -0.0543
  115MYC    C5922643   2.755   4.068   2.936 -0.2546 -0.1969  0.5117
  115MYC   H13922644   2.753   4.065   2.827  2.2830 -3.2052  0.3938
  115MYC   H14022645   2.851   4.095   2.979 -0.5315  0.3414  0.8009
  115MYC    C5722646   2.525   4.170   2.914  0.8934 -0.5660  0.0072
  115MYC   HH1022647   2.439   4.172   2.983  0.3533  0.0395 -0.6662
  115MYC   H14122648   2.507   4.102   2.830  0.5561  2.3335 -2.4337
  115MYC    C5622649   2.544   4.308   2.862 -0.4103  0.2683 -0.1712
  115MYC   H14222650   2.645   4.332   2.827 -0.0912 -0.4552  0.2390
  115MYC   H14322651   2.532   4.391   2.932 -0.6643  0.3526 -0.3127
  115MYC    C5522652   2.452   4.354   2.749 -0.2793  0.5706 -0.1761
  115MYC   H14422653   2.495   4.453   2.728  1.3780  0.0190  0.4374
  115MYC   H14522654   2.351   4.368   2.790  0.0396 -0.0052  0.8173
  115MYC    C5422655   2.450   4.264   2.624 -0.0977  0.1313  0.3990
  115MYC   H14622656   2.398   4.314   2.542 -0.1569 -0.8877 -0.2017
  115MYC   H14722657   2.395   4.172   2.643  2.0066 -1.0598  1.0870
  115MYC    C5322658   2.596   4.229   2.565 -0.0086 -0.0565 -0.2650
  115MYC   H14822659   2.647   4.170   2.642  3.3791  0.6845 -1.7350
  115MYC   H14922660   2.656   4.320   2.553 -0.3538  0.3652  1.0519
  115MYC    C5222661   2.598   4.149   2.432 -0.0954  0.7505 -0.9659
  115MYC    H9922662   2.562   4.201   2.343  0.5047  0.1119 -1.6019
  115MYC   H15022663   2.538   4.058   2.438  0.8144  0.2265  0.9261
  115MYC    C5122664   2.748   4.117   2.399  0.1923 -0.5000  0.0864
  115MYC    H9722665   2.782   4.036   2.465 -1.0547 -1.6819 -0.6580
  115MYC    H9822666   2.810   4.207   2.410  0.5391 -0.6193 -0.7942
  115MYC    C5022667   2.765   4.060   2.258  0.2979  0.1008 -0.9814
  115MYC    H9522668   2.871   4.035   2.247  1.0282  1.8098  1.4334
  115MYC    H9622669   2.747   4.144   2.190  4.5444  0.6561 -1.6686
  115MYC    C4922670   2.667   3.947   2.224  0.5584  0.1620 -0.2022
  115MYC    H9322671   2.565   3.979   2.198  0.9020  1.7803  0.3372
  115MYC    H9422672   2.657   3.870   2.301 -1.0824 -0.6785 -1.2081
  115MYC    C4822673   2.715   3.849   2.107  0.1873  1.0981  0.1134
  115MYC    H9122674   2.782   3.777   2.157 -0.4363  1.1001  0.9661
  115MYC    H9222675   2.783   3.910   2.046 -0.9110  2.0167 -0.2304
  115MYC    C4722676   2.596   3.781   2.025  0.1686  0.1512 -0.6699
  115MYC    H8922677   2.536   3.732   2.103  0.4633  1.8040  0.6638
  115MYC    H9022678   2.625   3.702   1.956 -3.1531  0.1366 -2.2321
  115MYC    C4622679   2.520   3.882   1.942 -0.1957 -0.5702 -0.0419
  115MYC    H8722680   2.593   3.950   1.897 -1.2770  0.6547  0.0010
  115MYC    H8822681   2.457   3.934   2.016  0.9664  0.7126  0.0937
  115MYC    C4522682   2.422   3.825   1.837 -0.1042 -0.3354  0.0299
  115MYC    H8522683   2.351   3.759   1.887 -0.0610 -0.5994 -0.2514
  115MYC    H8622684   2.479   3.754   1.775  0.3750 -0.3342  0.4537
  115MYC    C4422685   2.353   3.932   1.745 -0.7920 -0.2128 -0.0505
  115MYC    H8322686   2.270   3.878   1.698 -0.1903 -0.2385 -1.0937
  115MYC    H8422687   2.437   3.957   1.680 -1.3551  0.6716 -0.4539
  115MYC    C1822688   2.304   4.059   1.819 -0.5652  0.0259 -0.2887
  115MYC    H3122689   2.259   4.038   1.916 -1.3072  0.3117 -0.5605
  115MYC    C1722690   2.403   4.174   1.841 -0.7671 -0.0946  0.7098
  115MYC    H3022691   2.497   4.147   1.795 -1.7632 -0.0008 -1.4814
  115MYC    C1922692   2.286   4.187   1.753  0.2001 -0.2730  0.3433
  115MYC    H3222693   2.306   4.201   1.647  0.6686 -0.8411  0.3594
  115MYC    H3322694   2.195   4.238   1.786  0.3249  0.2880 -0.1601
  115MYC    C1622695   2.412   4.240   1.977  0.1070 -1.0616  0.1784
  115MYC    H2822696   2.503   4.200   2.021  1.1811  0.3665 -0.6502
  115MYC    H2922697   2.335   4.208   2.049  1.8719 -2.6636  1.4470
  115MYC    C1522698   2.425   4.395   1.961 -0.5675  0.2751 -0.4476
  115MYC    H2622699   2.334   4.439   1.918  0.1190  1.5134 -0.6846
  115MYC    H2722700   2.506   4.422   1.892  3.1001  1.1026  3.7762
  115MYC    C1422701   2.465   4.474   2.096 -0.2528 -0.1315  0.1622
  115MYC    H2422702   2.399   4.433   2.174  0.4104  0.3911  1.0136
  115MYC    H2522703   2.432   4.578   2.094 -4.4183 -1.2834 -0.5197
  115MYC    C1322704   2.608   4.466   2.140  0.6759  0.6065  0.0008
  115MYC    H2222705   2.676   4.494   2.059  0.5496  1.7827  0.2794
  115MYC    H2322706   2.637   4.361   2.154  0.8515  0.5212 -0.9566
  115MYC    C1222707   2.660   4.562   2.252 -0.6680 -0.0480  0.2499
  115MYC    H2022708   2.621   4.530   2.349  2.3467 -0.2851  1.4847
  115MYC    H2122709   2.641   4.667   2.230  1.3429  0.9886  2.9330
  115MYC    C1122710   2.814   4.550   2.261 -0.2741  0.3106  0.3789
  115MYC    H1822711   2.866   4.550   2.165 -0.5712  1.1334  0.2053
  115MYC    H1922712   2.840   4.451   2.299 -0.3426  0.4357  0.7531
  115MYC    C1022713   2.884   4.663   2.345 -0.1645 -0.0434 -0.3646
  115MYC    H1622714   2.830   4.758   2.340 -1.4903 -0.4978  2.8691
  115MYC    H1722715   2.981   4.691   2.302 -0.1333  0.0889 -0.2082
  115MYC     C922716   2.895   4.621   2.496  0.4545 -0.1179  0.1545
  115MYC    H1422717   2.923   4.516   2.507  1.5816  0.1936  0.3496
  115MYC    H1522718   2.790   4.626   2.529 -0.5489 -2.1697 -2.3537
  115MYC     C822719   2.981   4.708   2.588 -0.2149 -0.7071  0.0896
  115MYC    H1222720   2.956   4.813   2.609 -0.3011 -0.4216 -1.2888
  115MYC    H1322721   3.075   4.722   2.532 -1.1065  0.1122 -1.2607
  115MYC     C722722   3.011   4.649   2.726  0.9477 -0.1266 -0.5542
  115MYC    H1022723   3.053   4.550   2.704  1.1853 -0.4431  1.1615
  115MYC    H1122724   2.917   4.630   2.780  0.8530  1.0237 -0.2882
  115MYC     C622725   3.106   4.737   2.810 -0.2424  0.0373 -0.2925
  115MYC     H822726   3.063   4.837   2.818 -1.4435 -0.6356  3.2613
  115MYC     H922727   3.207   4.728   2.767  0.0491 -4.4519  0.8245
  115MYC     C522728   3.125   4.683   2.953  0.3564  0.2888  0.1871
  115MYC     H622729   3.214   4.729   2.999  3.1092 -3.9208 -0.4517
  115MYC     H722730   3.158   4.579   2.942 -0.2038  0.0979  0.2973
  115MYC     C422731   3.007   4.704   3.046  0.4024  0.5433 -0.1888
  115MYC     H422732   2.912   4.686   2.994 -0.2341  2.1840  0.3356
  115MYC     H522733   3.017   4.811   3.069 -0.2219  1.0700 -2.1744
  115MYC     C222734   3.016   4.629   3.187 -0.2212  0.0119  0.7001
  115MYC     H222735   3.113   4.653   3.232 -0.3424 -0.9025  1.4975
  115MYC     O322736   2.899   4.673   3.265  0.5053  0.1232 -0.4156
  115MYC     H322737   2.836   4.702   3.197  1.5429  0.1242 -1.4103
  115MYC     C122738   3.012   4.471   3.177 -0.0569 -0.0363 -0.9751
  115MYC     H122739   3.110   4.435   3.144 -0.2667 -1.5763 -0.0292
  115MYC    C8122740   2.916   4.421   3.062 -0.3170  0.1102  0.1037
  115MYC    O8222741   2.956   4.368   2.961 -0.1962  0.3291  0.0228
  115MYC    O8322742   2.784   4.420   3.098 -0.4159  0.4955  1.2176
  115MYC   H10522743   2.735   4.374   3.028  0.5078  0.4755  0.5642
  115MYC    C2022744   2.995   4.402   3.317 -0.2760 -0.0657  0.1601
  115MYC    H3422745   3.064   4.454   3.385  0.3812  0.2146 -0.7041
  115MYC    H3522746   2.899   4.423   3.365  1.3095 -0.2430  3.7157
  115MYC    C2122747   3.016   4.245   3.331 -0.4245 -0.9262  0.5203
  115MYC    H3622748   2.947   4.192   3.265 -0.4728 -0.7706  0.4437
  115MYC    H3722749   3.113   4.208   3.296 -0.2541  1.3816 -1.7352
  115MYC    C2222750   2.987   4.194   3.469 -0.0046  0.8383 -0.3112
  115MYC    H3822751   3.000   4.085   3.469  0.4371  0.8825 -0.8838
  115MYC    H3922752   3.065   4.237   3.532  0.2263 -0.0655  0.0332
  115MYC    C2322753   2.856   4.229   3.544 -0.4721  0.6164 -0.2259
  115MYC    H4022754   2.847   4.338   3.541  1.5799  0.8405  0.4072
  115MYC    H4122755   2.769   4.184   3.494 -1.1883 -2.1406  3.1208
  115MYC    C2422756   2.855   4.189   3.700 -0.3428  0.4779 -0.2852
  115MYC    H4222757   2.877   4.083   3.714 -0.3755  0.7205  1.7885
  115MYC    H4322758   2.940   4.240   3.746 -0.2099  0.5370 -0.5904
  115MYC    C2522759   2.723   4.220   3.779  0.4547 -0.3990  0.0445
  115MYC    H4422760   2.638   4.185   3.719  0.2330 -1.2355  0.8126
  115MYC    H4522761   2.723   4.167   3.875  0.5872 -1.2675 -0.4290
  115MYC    C2622762   2.701   4.368   3.819 -0.2115  0.7304 -0.5043
  115MYC    H4622763   2.777   4.400   3.892 -1.6784  1.0742  0.9170
  115MYC    H4722764   2.707   4.433   3.731  0.5061  1.4698  0.0721
  115MYC    C2722765   2.563   4.392   3.878  0.5536  0.7078  0.4875
  115MYC    H4822766   2.492   4.378   3.796 -1.0689  0.2569  1.9091
  115MYC    H4922767   2.530   4.307   3.939 -1.1127  0.3277 -0.8757
  115MYC    C2822768   2.537   4.533   3.955  0.4630 -0.2886  0.6166
  115MYC    H5022769   2.613   4.549   4.033 -0.7475 -1.5062  2.1181
  115MYC    H5122770   2.555   4.620   3.892  0.8462 -1.1393 -0.4899
  115MYC    C2922771   2.394   4.554   4.002  0.2354  0.2899 -0.5029
  115MYC    H5222772   2.390   4.652   4.050 -0.6014 -0.4054  0.9290
  115MYC    H5322773   2.331   4.577   3.915 -0.6767  0.4183  0.1686
  115MYC    C3022774   2.351   4.453   4.106  0.2361  0.0235 -0.8046
  115MYC    H5422775   2.406   4.361   4.083  0.5951  0.6904 -2.8021
  115MYC    H5522776   2.393   4.475   4.205  1.0668 -2.3126 -0.5937
  115MYC    C3122777   2.194   4.438   4.122  0.7050 -0.5364 -0.0485
  115MYC    H5622778   2.151   4.531   4.161 -1.4486 -0.9902 -1.2195
  115MYC    H5722779   2.137   4.415   4.032 -1.7821  0.9876  1.0320
  115MYC    C3222780   2.145   4.336   4.235  0.4527  0.6494 -0.0997
  115MYC    H5822781   2.177   4.236   4.206  0.2630  0.3289  0.7701
  115MYC    H5922782   2.205   4.358   4.324  0.0468  2.6880 -0.2837
  115MYC    C3322783   1.989   4.338   4.276 -0.5305  0.0422  0.0799
  115MYC    H6022784   1.965   4.437   4.318  0.1026 -0.5363  1.8991
  115MYC    H6122785   1.924   4.331   4.188  1.5223  1.1513 -1.6234
  115MYC    C3422786   1.968   4.226   4.379 -0.0136 -0.0521 -0.0358
  115MYC    H6222787   1.979   4.129   4.330  0.3655 -0.8907  1.6264
  115MYC    H6322788   2.032   4.234   4.468  0.5883  1.1753 -0.5579
  115MYC    C3522789   1.826   4.231   4.443  0.4936  0.6799  0.2299
  115MYC    H6422790   1.813   4.328   4.491  2.3925  1.4392 -0.6959
  115MYC    H6522791   1.752   4.230   4.362  1.2573  0.7343 -0.4874
  115MYC    C3622792   1.801   4.133   4.568 -0.1939  0.1415 -0.3171
  115MYC    H6622793   1.807   4.030   4.532  1.2610  0.2306 -0.3867
  115MYC    H6722794   1.880   4.147   4.643  0.1442 -0.0529 -0.6339
  115MYC    C3722795   1.661   4.155   4.618  0.6136  0.5048 -0.7118
  115MYC    H6822796   1.646   4.263   4.629  2.2752  0.4779  3.8602
  115MYC    H6922797   1.596   4.108   4.543 -0.4271  1.6270 -0.5433
  115MYC    C3822798   1.632   4.083   4.756 -0.4839  0.8041  0.3513
  115MYC    H7022799   1.647   3.975   4.745 -0.4821  0.6338  1.8417
  115MYC    H7122800   1.699   4.112   4.838 -1.7534  2.7027  0.7750
  115MYC    C3922801   1.488   4.108   4.821 -0.7673 -0.1102  0.3815
  115MYC    H7222802   1.478   4.216   4.830  2.3543  0.2961  0.0513
  115MYC    H7322803   1.418   4.068   4.747 -1.9975  0.4809  1.2013
  115MYC    C4022804   1.462   4.027   4.951  0.1782 -0.9394  0.1466
  115MYC    H7422805   1.493   3.925   4.926  2.8114  0.1680 -1.5676
  115MYC    H7522806   1.526   4.056   5.035  0.4314 -2.3093  0.4466
  115MYC    C4122807   1.309   4.026   4.984 -0.7620 -0.5702 -0.4762
  115MYC    H7622808   1.285   4.128   5.017  0.1193 -0.2130 -0.8824
  115MYC    H7722809   1.257   4.013   4.889  0.5790 -0.3769 -1.2652
  115MYC    C4222810   1.262   3.924   5.089 -0.0134  0.1187 -0.1990
  115MYC    H7822811   1.291   3.822   5.059 -1.2673 -0.2879 -0.0795
  115MYC    H7922812   1.325   3.944   5.176 -1.2506 -0.7896  0.9268
  115MYC    C4322813   1.115   3.921   5.117  0.2594  0.2247 -0.2127
  115MYC    H8022814   1.084   3.839   5.182  2.0966 -1.0353 -0.8372
  115MYC    H8122815   1.049   3.918   5.030 -0.0314 -2.3855  0.0179
  115MYC    H8222816   1.093   4.014   5.172 -1.3891 -0.2326 -0.0536
  116MYC   HH1522817   0.962   4.512   5.197 -0.4015  1.9039  2.0295
  116MYC    C8022818   0.881   4.442   5.221  0.5293  0.2357  0.5403
  116MYC   H10022819   0.902   4.382   5.310  2.4314  1.3220  0.8669
  116MYC   H10122820   0.797   4.506   5.252 -1.2104 -0.9174 -1.5267
  116MYC    C7922821   0.847   4.341   5.100  0.0475 -0.1506 -0.1542
  116MYC   H10222822   0.741   4.311   5.109 -0.1262  0.9956  2.5239
  116MYC   H10322823   0.919   4.263   5.125  3.6352  3.5116  2.0930
  116MYC    C7822824   0.876   4.416   4.968  0.5627  0.2378  0.1065
  116MYC   HH1422825   0.854   4.518   5.000 -0.9578 -0.4340  1.3049
  116MYC   H10422826   0.798   4.377   4.902 -0.0542 -1.0512  1.5477
  116MYC    C7722827   1.016   4.377   4.910 -0.3190 -0.7427  0.5077
  116MYC   H10622828   1.042   4.270   4.912  0.7855 -0.5469 -1.2474
  116MYC   H10722829   1.081   4.436   4.976 -0.9807  1.3191 -0.5905
  116MYC    C7622830   1.031   4.426   4.764 -0.5674  0.7477 -0.9330
  116MYC   H10822831   1.019   4.533   4.745 -0.0170  1.1439  0.7768
  116MYC   H10922832   0.961   4.366   4.705  0.4949 -1.2731 -0.2608
  116MYC    C7522833   1.172   4.392   4.717 -0.4207 -0.5881  0.2875
  116MYC   H11022834   1.176   4.283   4.705 -4.2940 -0.6632 -1.9558
  116MYC   H11122835   1.231   4.401   4.809  0.3873  0.4551 -0.3101
  116MYC    C7422836   1.229   4.468   4.590 -0.3174 -0.1169 -0.0686
  116MYC   H11222837   1.225   4.575   4.613  2.5357 -0.3384  2.0539
  116MYC   H11322838   1.161   4.447   4.506  1.1576 -0.0820 -1.3275
  116MYC    C7322839   1.377   4.435   4.552  0.0468 -0.6874  0.0644
  116MYC   HH1322840   1.383   4.327   4.537  2.8063 -0.1400 -5.2072
  116MYC   H11422841   1.432   4.468   4.641 -0.2348 -1.0090  0.3591
  116MYC    C7222842   1.433   4.515   4.428  0.4770  0.3049 -0.0891
  116MYC   H11522843   1.433   4.620   4.460  1.5389  0.9114 -1.9286
  116MYC   H11622844   1.359   4.501   4.348 -1.5021  2.1474  1.2955
  116MYC    C7122845   1.573   4.483   4.378 -0.7756 -0.0863  0.0967
  116MYC   H11722846   1.575   4.376   4.351  1.6523  0.4202 -2.1441
  116MYC   H11822847   1.647   4.493   4.459 -0.4251  0.7053 -0.3101
  116MYC    C7022848   1.632   4.569   4.265 -0.5167  0.1866 -0.4851
  116MYC   H11922849   1.556   4.582   4.187 -0.9341 -3.0615 -0.7412
  116MYC   H12022850   1.711   4.502   4.229 -0.1559 -1.3520  2.8336
  116MYC    C6922851   1.687   4.705   4.312 -0.1378 -0.3051 -0.3590
  116MYC   H12122852   1.764   4.695   4.389 -1.4243 -1.8423  0.7845
  116MYC   H12222853   1.603   4.766   4.350  1.1014  0.1997  1.7471
  116MYC    C6822854   1.749   4.798   4.209  0.4480 -0.6946  0.2772
  116MYC   HH1222855   1.796   4.884   4.258  1.4325 -1.9937  1.7261
  116MYC   H12322856   1.672   4.830   4.138  2.1659  3.0631 -0.0999
  116MYC    C6722857   1.867   4.735   4.142  0.0932 -0.1785  0.3348
  116MYC   H12422858   1.834   4.645   4.089 -1.0360  1.3155 -1.6458
  116MYC   H12522859   1.940   4.712   4.220  1.2787  1.1482 -0.3469
  116MYC    C6622860   1.942   4.829   4.034 -0.2939  0.0684 -0.2475
  116MYC   H12622861   1.954   4.931   4.073  0.9214  0.4808 -1.6311
  116MYC   H12722862   1.877   4.827   3.946  0.0481 -0.7501 -0.4810
  116MYC    C6522863   2.077   4.783   4.002  1.1350  0.5856  0.0596
  116MYC   H12822864   2.061   4.679   3.972 -0.6856  1.2745 -1.6397
  116MYC   H12922865   2.138   4.782   4.092  0.0134 -0.7016  0.8429
  116MYC    C6422866   2.155   4.856   3.889 -0.1359 -0.0953 -0.2590
  116MYC   H13022867   2.249   4.803   3.866  0.1593  0.0449  0.5925
  116MYC   H13122868   2.180   4.951   3.938  0.2150 -0.2062 -0.2190
  116MYC    C6322869   2.078   4.900   3.761 -0.3548  0.2657 -0.3316
  116MYC   HH1122870   1.994   4.968   3.782 -0.7426 -0.6435  1.2670
  116MYC   H13222871   2.031   4.809   3.722  2.0480 -0.4563 -1.7235
  116MYC    C6222872   2.172   4.964   3.655  0.8751 -0.5579 -0.1596
  116MYC   H13322873   2.238   5.032   3.710  0.0694  1.9187 -2.0540
  116MYC   H13422874   2.114   5.028   3.587 -0.9335  1.6094  3.1298
  116MYC    C6122875   2.261   4.868   3.574 -0.3073  0.3700  1.1529
  116MYC   H13522876   2.200   4.787   3.532  0.7307 -0.3465  1.0109
  116MYC   H13622877   2.339   4.823   3.637  0.4199  0.2315  0.1714
  116MYC    C6022878   2.339   4.937   3.456 -0.2853  0.4856  0.6105
  116MYC   H13722879   2.413   5.008   3.493 -0.8625  2.3346 -1.5430
  116MYC    C5822880   2.370   4.861   3.325  0.2129 -0.9776  0.3464
  116MYC   H13822881   2.322   4.764   3.321 -0.9529 -0.4075  0.1776
  116MYC    C5922882   2.278   4.975   3.326 -0.4451 -0.2121  0.0127
  116MYC   H13922883   2.313   5.069   3.284 -2.8310  0.1488 -1.3435
  116MYC   H14022884   2.174   4.961   3.296 -0.6991  1.3644  0.0640
  116MYC    C5722885   2.498   4.873   3.247  0.1080 -0.5177 -0.6479
  116MYC   HH1022886   2.577   4.816   3.298  0.9570 -0.0272 -1.3761
  116MYC   H14122887   2.537   4.975   3.242 -0.4849 -0.1822  1.0147
  116MYC    C5622888   2.497   4.822   3.099 -0.4732 -0.3730  0.2525
  116MYC   H14222889   2.411   4.861   3.042  1.5452 -0.1794 -2.9437
  116MYC   H14322890   2.481   4.713   3.104  2.0524 -1.0353 -2.6761
  116MYC    C5522891   2.629   4.842   3.023 -0.3874 -0.3037 -0.2882
  116MYC   H14422892   2.716   4.800   3.075  0.2337  0.0510 -1.0206
  116MYC   H14522893   2.653   4.948   3.016  2.8136 -1.0000 -1.6773
  116MYC    C5422894   2.635   4.780   2.878  0.2698 -0.1617 -0.2753
  116MYC   H14622895   2.535   4.769   2.836 -0.2434 -0.1535  0.9275
  116MYC   H14722896   2.668   4.676   2.891 -1.4573 -0.6412  0.5441
  116MYC    C5322897   2.724   4.852   2.774  1.1974 -0.1159 -1.6187
  116MYC   H14822898   2.745   4.772   2.701  0.8567 -1.6245 -0.1250
  116MYC   H14922899   2.823   4.875   2.816  0.3952  2.2332 -0.8618
  116MYC    C5222900   2.663   4.986   2.724 -0.1103  0.4895 -0.1019
  116MYC    H9922901   2.675   5.057   2.807  2.2167 -0.0525  0.0775
  116MYC   H15022902   2.557   4.962   2.709  0.5919 -4.1309  0.9003
  116MYC    C5122903   2.729   5.062   2.609 -0.3495  0.3869 -0.5493
  116MYC    H9722904   2.736   4.991   2.526  0.8235 -3.4189  2.4618
  116MYC    H9822905   2.829   5.087   2.646 -1.4612 -0.2907  3.4219
  116MYC    C5022906   2.662   5.196   2.576 -0.1412  0.2941 -0.1607
  116MYC    H9522907   2.721   5.258   2.508 -2.0325  0.8679 -1.3707
  116MYC    H9622908   2.651   5.256   2.667 -0.2089 -1.6077  1.1618
  116MYC    C4922909   2.527   5.184   2.508  0.4514 -0.0577 -0.2264
  116MYC    H9322910   2.483   5.283   2.495  2.6126  0.8721 -0.9493
  116MYC    H9422911   2.466   5.130   2.581  0.8871 -1.4583 -0.8473
  116MYC    C4822912   2.534   5.124   2.370 -0.0446  0.3886  0.0722
  116MYC    H9122913   2.581   5.025   2.365 -0.7509  0.0168  0.5420
  116MYC    H9222914   2.585   5.182   2.292  1.7221 -2.5451 -1.1455
  116MYC    C4722915   2.389   5.102   2.315  0.0653 -0.5793 -0.1612
  116MYC    H8922916   2.334   5.051   2.395  0.9299  0.8850  1.4278
  116MYC    H9022917   2.383   5.037   2.227  1.1702  2.1151 -2.3718
  116MYC    C4622918   2.325   5.235   2.272 -0.4629  0.3183  0.3082
  116MYC    H8722919   2.378   5.260   2.179 -0.4914 -2.9141 -0.6962
  116MYC    H8822920   2.330   5.317   2.345 -0.2172  0.4247  0.1762
  116MYC    C4522921   2.182   5.213   2.228  0.2121 -0.3091 -0.4040
  116MYC    H8522922   2.133   5.191   2.324  0.2392  3.3141  0.5758
  116MYC    H8622923   2.176   5.119   2.172  0.3356 -0.9985  0.6983
  116MYC    C4422924   2.106   5.328   2.144 -0.1575  0.4412 -0.2343
  116MYC    H8322925   1.997   5.316   2.146 -0.3789  1.8210 -2.0289
  116MYC    H8422926   2.140   5.326   2.040 -1.7860  1.9763 -0.8506
  116MYC    C1822927   2.122   5.470   2.206  0.1775  0.2395 -0.3857
  116MYC    H3122928   2.211   5.474   2.269  1.9113 -0.1193 -2.6574
  116MYC    C1722929   2.105   5.595   2.127  0.6037  0.4589  0.5191
  116MYC    H3022930   2.062   5.590   2.027 -0.3738  0.7926  0.9138
  116MYC    C1922931   2.007   5.561   2.235 -0.3032  0.5529 -0.5410
  116MYC    H3222932   1.903   5.552   2.206 -0.2619  0.7653 -0.7616
  116MYC    H3322933   2.015   5.599   2.336  0.2055 -0.0971 -0.3309
  116MYC    C1622934   2.213   5.707   2.142 -0.3785  0.7656 -0.3341
  116MYC    H2822935   2.267   5.690   2.236 -0.2198  0.4036 -0.4914
  116MYC    H2922936   2.168   5.807   2.135 -1.7227  0.1467 -0.8565
  116MYC    C1522937   2.317   5.701   2.028  0.2579 -0.2862  0.1510
  116MYC    H2622938   2.363   5.800   2.017 -1.3502  0.5448  0.6883
  116MYC    H2722939   2.262   5.663   1.941  0.9608 -0.7001 -0.1210
  116MYC    C1422940   2.432   5.601   2.063 -0.5682  0.1134 -0.2201
  116MYC    H2422941   2.478   5.571   1.968  1.2645 -3.9404  1.7356
  116MYC    H2522942   2.384   5.507   2.091  0.9731 -0.4163  0.7083
  116MYC    C1322943   2.535   5.651   2.167  0.1356 -0.5719 -0.7383
  116MYC    H2222944   2.477   5.678   2.256 -0.0017 -1.0459 -0.6796
  116MYC    H2322945   2.582   5.743   2.131 -1.1404  0.6007  0.4959
  116MYC    C1222946   2.639   5.536   2.202 -0.7678  0.0066  0.2439
  116MYC    H2022947   2.685   5.492   2.113  0.5163 -1.8572  1.7322
  116MYC    H2122948   2.573   5.459   2.244 -1.8551  0.3440 -0.8126
  116MYC    C1122949   2.754   5.577   2.307 -0.5012  0.3002 -0.1990
  116MYC    H1822950   2.830   5.646   2.268  0.8304 -1.7433 -1.4168
  116MYC    H1922951   2.826   5.496   2.322  0.4411  1.0893 -0.3985
  116MYC    C1022952   2.716   5.637   2.439  0.1337  0.1091  0.1648
  116MYC    H1622953   2.675   5.738   2.425 -0.8386 -0.3637 -0.5308
  116MYC    H1722954   2.810   5.652   2.493 -0.9527 -0.9243  2.4533
  116MYC     C922955   2.628   5.556   2.538 -0.2296  0.0090  0.6423
  116MYC    H1422956   2.687   5.479   2.591  0.5734 -1.4159 -2.1475
  116MYC    H1522957   2.551   5.502   2.482  3.2840 -1.4729 -3.2250
  116MYC     C822958   2.548   5.647   2.635  0.2483  0.4470 -0.2363
  116MYC    H1222959   2.470   5.703   2.581 -1.7233  0.0949  2.0784
  116MYC    H1322960   2.614   5.722   2.679  0.3360  1.2706 -1.7072
  116MYC     C722961   2.467   5.572   2.745 -1.2908 -0.2396  0.0223
  116MYC    H1022962   2.544   5.568   2.823 -1.1910  1.1066  0.0218
  116MYC    H1122963   2.438   5.474   2.707  1.5166 -0.5666 -1.5277
  116MYC     C622964   2.358   5.653   2.810 -0.2672 -0.0181  0.6434
  116MYC     H822965   2.325   5.603   2.902  1.0298 -0.9043  0.6598
  116MYC     H922966   2.282   5.665   2.731 -0.0584 -1.4154  0.2024
  116MYC     C522967   2.403   5.793   2.866  0.0813 -0.8254 -0.3172
  116MYC     H622968   2.441   5.849   2.780  0.0428 -0.1371  0.1062
  116MYC     H722969   2.489   5.782   2.933 -1.4374 -0.4022  1.8101
  116MYC     C422970   2.299   5.882   2.935  0.1779  0.9102 -0.0799
  116MYC     H422971   2.261   5.824   3.020  1.2703 -0.9987 -0.8370
  116MYC     H522972   2.216   5.905   2.868 -0.8434 -0.3114  0.7089
  116MYC     C222973   2.355   6.017   2.997 -0.3093  0.0708  0.2746
  116MYC     H222974   2.407   5.974   3.083  0.1406 -1.2423 -0.6160
  116MYC     O322975   2.450   6.086   2.913 -0.1019 -0.2419 -0.0903
  116MYC     H322976   2.463   6.029   2.835  1.8171  0.6389 -0.4900
  116MYC     C122977   2.242   6.104   3.057 -0.2844 -0.3096 -0.3700
  116MYC     H122978   2.197   6.033   3.128  0.7815  1.8404  2.6980
  116MYC    C8122979   2.143   6.154   2.952 -0.4723 -0.4207 -0.3139
  116MYC    O8222980   2.168   6.241   2.867  0.1333  0.1007 -0.3386
  116MYC    O8322981   2.017   6.099   2.953 -0.0936  0.0165  0.0028
  116MYC   H10522982   1.963   6.157   2.897  0.7734  0.5645 -0.2676
  116MYC    C2022983   2.306   6.224   3.151  0.1152  0.4116 -0.3163
  116MYC    H3422984   2.378   6.187   3.225 -0.9520  0.6529  0.8744
  116MYC    H3522985   2.356   6.292   3.081 -1.4406  0.6796 -1.2068
  116MYC    C2122986   2.193   6.309   3.219  0.2315  0.3525 -0.3957
  116MYC    H3622987   2.230   6.387   3.286  1.6793  0.2157 -1.0031
  116MYC    H3722988   2.158   6.367   3.133  1.9010  0.4350 -1.0681
  116MYC    C2222989   2.082   6.221   3.283 -0.1996 -0.3388  0.1147
  116MYC    H3822990   2.039   6.150   3.212 -1.5578  0.8180 -0.2697
  116MYC    H3922991   2.126   6.161   3.364 -0.3539 -1.2279 -0.4489
  116MYC    C2322992   1.964   6.307   3.341 -0.0146  0.1250 -0.5298
  116MYC    H4022993   2.012   6.374   3.413 -0.4716 -1.9579  1.8303
  116MYC    H4122994   1.908   6.366   3.268  1.1544  2.5396  0.4052
  116MYC    C2422995   1.880   6.216   3.431  0.0865 -0.5527 -0.6497
  116MYC    H4222996   1.827   6.142   3.370 -1.9042  0.5868 -0.4025
  116MYC    H4322997   1.943   6.161   3.501  1.4677  2.3348  0.5533
  116MYC    C2522998   1.765   6.286   3.521 -0.2805  0.5581  0.5176
  116MYC    H4422999   1.804   6.379   3.564  0.0540 -0.1616  1.8223
  116MYC    H4523000   1.683   6.322   3.458 -0.5289  0.1613  0.6085
  116MYC    C2623001   1.714   6.196   3.640 -0.1399 -0.2163  0.5871
  116MYC    H4623002   1.671   6.105   3.597 -1.3951  0.0522  1.2124
  116MYC    H4723003   1.800   6.184   3.707 -0.0933  0.2550  0.6181
  116MYC    C2723004   1.587   6.259   3.713  0.3405  0.1510  0.1483
  116MYC    H4823005   1.494   6.256   3.655  0.2076  1.4900  0.2617
  116MYC    H4923006   1.568   6.192   3.798 -0.1755  0.8767  0.6104
  116MYC    C2823007   1.612   6.397   3.784  0.0526  0.2529 -0.4547
  116MYC    H5023008   1.716   6.391   3.817  0.5515  0.4701 -1.9120
  116MYC    H5123009   1.608   6.477   3.710 -1.4875  0.5275 -0.1026
  116MYC    C2923010   1.507   6.428   3.896 -0.2971 -0.2517 -0.1398
  116MYC    H5223011   1.482   6.535   3.893  0.0734 -0.1815 -1.1970
  116MYC    H5323012   1.404   6.395   3.874 -1.1281  1.2183  1.3284
  116MYC    C3023013   1.544   6.395   4.037 -0.4976  1.1801 -0.1627
  116MYC    H5423014   1.553   6.287   4.050 -2.4207  1.2007  2.1566
  116MYC    H5523015   1.637   6.444   4.069  0.6498 -0.6958 -0.5334
  116MYC    C3123016   1.442   6.443   4.151 -0.2134 -0.5419  0.2200
  116MYC    H5623017   1.442   6.552   4.138 -0.8207 -0.4848  0.6864
  116MYC    H5723018   1.342   6.409   4.124 -0.3818 -0.9906  1.3653
  116MYC    C3223019   1.471   6.408   4.297 -0.6554  0.2967 -0.9631
  116MYC    H5823020   1.472   6.298   4.308 -1.4581  0.2047 -1.6523
  116MYC    H5923021   1.568   6.451   4.324 -0.0377 -1.4603 -0.2156
  116MYC    C3323022   1.384   6.463   4.407 -0.0891 -0.9162 -0.2960
  116MYC    H6023023   1.387   6.572   4.398 -1.4859 -0.8700 -0.4644
  116MYC    H6123024   1.282   6.427   4.388 -0.2329 -0.5536 -0.2103
  116MYC    C3423025   1.418   6.420   4.551 -0.2743 -0.7825  0.5719
  116MYC    H6223026   1.417   6.311   4.550  0.2689 -0.7930 -0.6420
  116MYC    H6323027   1.518   6.449   4.586 -0.3076 -0.9302  0.7956
  116MYC    C3523028   1.312   6.483   4.644 -0.3699  0.0097  0.2641
  116MYC    H6423029   1.314   6.592   4.636  0.0048 -0.0942 -1.5726
  116MYC    H6523030   1.212   6.453   4.610 -0.9065  0.5124  1.3625
  116MYC    C3623031   1.324   6.447   4.792 -0.4316  0.5258 -0.0511
  116MYC    H6623032   1.421   6.483   4.829 -1.4011  0.5661  2.6162
  116MYC    H6723033   1.252   6.511   4.844  2.1049  2.8195  0.8550
  116MYC    C3723034   1.302   6.298   4.835  0.2832 -0.0934  0.6418
  116MYC    H6823035   1.205   6.263   4.799 -0.6294  0.2958  2.5966
  116MYC    H6923036   1.373   6.233   4.782  0.3339 -0.7194  1.4640
  116MYC    C3823037   1.336   6.266   4.978  0.1172 -0.2044  0.2691
  116MYC    H7023038   1.362   6.160   4.985  1.6732 -0.0968 -2.4007
  116MYC    H7123039   1.425   6.318   5.015  0.5656 -0.1953 -0.7774
  116MYC    C3923040   1.224   6.307   5.075  0.1654 -0.0026  0.2866
  116MYC    H7223041   1.183   6.405   5.048  1.4203  0.1600 -1.2143
  116MYC    H7323042   1.145   6.233   5.060  1.6511 -1.6234  0.1327
  116MYC    C4023043   1.264   6.306   5.223 -0.2263  0.5140  0.2462
  116MYC    H7423044   1.310   6.211   5.251 -1.9041 -1.1352 -2.1717
  116MYC    H7523045   1.340   6.382   5.245 -0.7596  0.1368  4.1483
  116MYC    C4123046   1.146   6.319   5.321  0.3533 -0.5699 -0.1675
  116MYC    H7623047   1.137   6.428   5.330  2.8953 -0.3077 -0.2261
  116MYC    H7723048   1.059   6.265   5.281  1.2134 -0.8722 -1.6856
  116MYC    C4223049   1.186   6.256   5.457  0.1433 -0.2777  0.5962
  116MYC    H7823050   1.176   6.147   5.450  0.8834 -0.3211  0.0606
  116MYC    H7923051   1.292   6.267   5.482  0.0388 -1.5213  1.6907
  116MYC    C4323052   1.125   6.310   5.583  0.3364  0.6738  0.4513
  116MYC    H8023053   1.019   6.331   5.568 -0.0596 -2.3892 -1.9120
  116MYC    H8123054   1.166   6.410   5.605  1.1237  1.1389 -2.6790
  116MYC    H8223055   1.142   6.243   5.668 -0.9109  0.7599  0.7946
  117MYC   HH1523056   1.492   0.178   6.050 -1.5955  0.9631  1.4667
  117MYC    C8023057   1.475   0.242   5.962  0.0382 -0.7633 -0.2146
  117MYC   H10023058   1.388   0.304   5.986 -0.5087 -0.9842 -1.5105
  117MYC   H10123059   1.559   0.311   5.955  0.2997 -1.0667 -0.0837
  117MYC    C7923060   1.459   0.162   5.838 -0.0066 -0.2092  0.2545
  117MYC   H10223061   1.369   0.099   5.846 -0.9121  0.5143 -2.7696
  117MYC   H10323062   1.543   0.094   5.825 -1.0086 -1.5442  0.5146
  117MYC    C7823063   1.449   0.244   5.708  0.5228 -0.6706 -0.3926
  117MYC   HH1423064   1.513   0.332   5.719 -0.8253  0.5029 -1.5360
  117MYC   H10423065   1.350   0.292   5.703  0.2817 -1.2808 -2.3807
  117MYC    C7723066   1.479   0.169   5.573 -0.1355 -0.2609 -0.0496
  117MYC   H10623067   1.399   0.094   5.566 -0.2357 -0.3393  1.6019
  117MYC   H10723068   1.574   0.113   5.580 -0.0858  0.0363  3.0034
  117MYC    C7623069   1.474   0.252   5.447  0.9642  1.0037  0.3924
  117MYC   H10823070   1.526   0.348   5.458 -0.9904  2.4562 -1.9332
  117MYC   H10923071   1.369   0.281   5.431 -0.0586 -1.0691  2.6682
  117MYC    C7523072   1.544   0.187   5.326  0.2835 -0.6133  0.0781
  117MYC   H11023073   1.504   0.091   5.294 -2.0226  0.7605 -1.4044
  117MYC   H11123074   1.649   0.167   5.354  0.6610  1.3681  0.2419
  117MYC    C7423075   1.534   0.271   5.202 -0.4357 -0.2981  0.1648
  117MYC   H11223076   1.601   0.357   5.221 -1.0992 -0.2040  2.3606
  117MYC   H11323077   1.430   0.304   5.194 -0.2713  0.6836  1.5853
  117MYC    C7323078   1.581   0.203   5.075  0.0482 -0.9627 -0.0012
  117MYC   HH1323079   1.513   0.126   5.036 -2.1723  0.3662  1.1092
  117MYC   H11423080   1.673   0.147   5.096  0.7728  0.7390  1.6669
  117MYC    C7223081   1.607   0.300   4.961  0.4147 -0.9427  0.4665
  117MYC   H11523082   1.667   0.384   4.996  1.0028  0.1757 -2.8626
  117MYC   H11623083   1.518   0.353   4.926  1.6409  0.3826 -0.7482
  117MYC    C7123084   1.686   0.220   4.854 -0.4299 -0.1050 -0.2579
  117MYC   H11723085   1.642   0.120   4.845  2.0248 -1.4201  1.1642
  117MYC   H11823086   1.786   0.202   4.895 -1.1208 -2.0626  0.7036
  117MYC    C7023087   1.687   0.307   4.722 -0.3331  0.3679 -0.1771
  117MYC   H11923088   1.750   0.396   4.735  0.0633 -0.1800  1.9026
  117MYC   H12023089   1.584   0.342   4.712 -0.2074  1.3537  1.5887
  117MYC    C6923090   1.742   0.231   4.604  0.3567 -0.0878  0.1693
  117MYC   H12123091   1.696   0.132   4.596 -0.3585  0.3731 -2.0734
  117MYC   H12223092   1.850   0.216   4.618  0.6554 -2.4680 -3.4096
  117MYC    C6823093   1.714   0.309   4.473  0.3066 -0.0314  0.5157
  117MYC   HH1223094   1.760   0.408   4.475  1.7558 -0.6823  0.6431
  117MYC   H12323095   1.605   0.317   4.460  0.6308  1.2280 -2.3639
  117MYC    C6723096   1.774   0.235   4.348  0.9197  0.4049  0.2785
  117MYC   H12423097   1.742   0.130   4.354  0.9072  0.2505 -1.7238
  117MYC   H12523098   1.883   0.228   4.363  0.6332  1.6367  3.9854
  117MYC    C6623099   1.741   0.310   4.218  0.7616  0.3196 -0.9777
  117MYC   H12623100   1.768   0.415   4.230  1.9792 -0.2016  1.5763
  117MYC   H12723101   1.633   0.308   4.199  0.7088  0.2981 -0.6827
  117MYC    C6523102   1.821   0.264   4.092 -0.0098  1.2136 -1.2155
  117MYC   H12823103   1.812   0.158   4.067  3.3902  0.7394 -0.8934
  117MYC   H12923104   1.925   0.293   4.111 -0.2986  1.3019  0.3588
  117MYC    C6423105   1.772   0.343   3.969  0.3343 -0.1804 -0.3638
  117MYC   H13023106   1.815   0.443   3.967 -0.0865  0.0048 -0.3696
  117MYC   H13123107   1.663   0.355   3.970  0.2425 -0.9375  0.1188
  117MYC    C6323108   1.820   0.281   3.845  0.2597 -0.0809 -0.8550
  117MYC   HH1123109   1.756   0.192   3.837  2.0826 -1.6819  1.2701
  117MYC   H13223110   1.927   0.257   3.853  0.1420 -0.0075  1.4732
  117MYC    C6223111   1.805   0.365   3.721 -0.1426  0.2782  0.0101
  117MYC   H13323112   1.856   0.460   3.737 -1.3608  0.6548  1.9171
  117MYC   H13423113   1.702   0.400   3.720 -0.6249 -1.0520  0.8402
  117MYC    C6123114   1.838   0.289   3.595 -0.2712 -0.1642  0.0625
  117MYC   H13523115   1.751   0.223   3.586 -0.5429  0.3607 -1.2767
  117MYC   H13623116   1.927   0.228   3.614 -0.5538 -0.6176 -0.0514
  117MYC    C6023117   1.866   0.374   3.471  0.8313  0.4980  0.1486
  117MYC   H13723118   1.820   0.472   3.475 -1.3185 -0.2783 -2.7353
  117MYC    C5823119   1.979   0.341   3.375  1.1073  0.4244  0.1015
  117MYC   H13823120   2.042   0.259   3.410 -1.0568 -1.4989 -0.2789
  117MYC    C5923121   1.835   0.302   3.338 -0.0780 -0.3875 -0.3039
  117MYC   H13923122   1.791   0.362   3.259  2.1411  0.1085 -1.2564
  117MYC   H14023123   1.803   0.199   3.352 -0.0194 -0.2039  1.3319
  117MYC    C5723124   2.040   0.448   3.278 -0.0117 -0.4590 -0.2069
  117MYC   HH1023125   2.131   0.490   3.323  0.0973 -2.5554  1.6747
  117MYC   H14123126   1.974   0.532   3.254 -0.2093 -0.6312 -0.2731
  117MYC    C5623127   2.085   0.390   3.138  0.2804  0.9171 -0.0075
  117MYC   H14223128   2.104   0.481   3.080 -2.5175  1.6212  0.0172
  117MYC   H14323129   1.995   0.347   3.092 -0.7053  2.3419  0.5123
  117MYC    C5523130   2.200   0.289   3.127  0.7386 -0.2881  0.2169
  117MYC   H14423131   2.172   0.214   3.202  1.0472  2.8051  3.7118
  117MYC   H14523132   2.294   0.328   3.167  1.2666 -2.1786  0.9289
  117MYC    C5423133   2.230   0.234   2.981  0.3567 -0.4611  0.4996
  117MYC   H14623134   2.249   0.315   2.910 -1.7923 -1.1554 -0.9715
  117MYC   H14723135   2.147   0.173   2.943 -1.0690  2.2627 -1.0067
  117MYC    C5323136   2.358   0.155   2.976  0.0383  0.4143 -0.1662
  117MYC   H14823137   2.359   0.099   3.070 -1.0092 -1.9275 -1.4516
  117MYC   H14923138   2.426   0.240   2.987 -1.6916  1.7939  0.3338
  117MYC    C5223139   2.390   0.086   2.838  0.1321 -0.2872 -0.6926
  117MYC    H9923140   2.395   0.163   2.760 -0.5397 -0.0911 -0.5426
  117MYC   H15023141   2.314   0.013   2.811  1.0260 -1.3899 -0.2899
  117MYC    C5123142   2.537   0.032   2.839  0.2306  0.2892  0.4167
  117MYC    H9723143   2.549  -0.037   2.924  0.9987 -1.3904 -0.9854
  117MYC    H9823144   2.601   0.113   2.874  1.5740 -1.1749  1.5065
  117MYC    C5023145   2.580  -0.045   2.710 -0.1496 -0.5770  0.2579
  117MYC    H9523146   2.484  -0.079   2.670 -0.3212 -0.0708  0.2350
  117MYC    H9623147   2.648  -0.125   2.739  0.9045  0.6174  1.1730
  117MYC    C4923148   2.635   0.041   2.603 -0.4399 -0.6458  0.5829
  117MYC    H9323149   2.698   0.108   2.662  0.4551 -0.3936 -0.6174
  117MYC    H9423150   2.556   0.103   2.558  1.5039 -0.0862 -2.3483
  117MYC    C4823151   2.711  -0.031   2.490  0.1448 -0.6034 -0.2081
  117MYC    H9123152   2.648  -0.107   2.440  0.7758 -1.2952  0.0311
  117MYC    H9223153   2.796  -0.084   2.534  0.2600  1.7298  2.6730
  117MYC    C4723154   2.768   0.081   2.392 -1.2525  0.1482  0.2121
  117MYC    H8923155   2.843   0.139   2.448 -1.2260 -0.4775  0.8335
  117MYC    H9023156   2.696   0.160   2.369  0.6902  1.6769 -0.9392
  117MYC    C4623157   2.829   0.025   2.260 -0.4912 -0.2623  0.1290
  117MYC    H8723158   2.751  -0.031   2.207 -0.2305  0.6265 -1.2424
  117MYC    H8823159   2.909  -0.048   2.276  0.3475  0.3134 -1.2585
  117MYC    C4523160   2.902   0.138   2.168 -0.1603 -0.3981 -0.1862
  117MYC    H8523161   2.975   0.179   2.239 -0.9172 -1.7873  1.4732
  117MYC    H8623162   2.849   0.228   2.133  0.3288  0.1915  0.5472
  117MYC    C4423163   2.990   0.068   2.063 -0.3362 -0.1911  0.4816
  117MYC    H8323164   3.043  -0.012   2.116  0.3441 -0.5486 -0.7225
  117MYC    H8423165   3.059   0.141   2.019  0.0562  0.1755  1.6536
  117MYC    C1823166   2.909  -0.000   1.956 -0.7787 -0.1145  0.1607
  117MYC    H3123167   2.840  -0.077   1.991 -0.4555 -1.3375 -1.7445
  117MYC    C1723168   2.849   0.090   1.850  0.3158  0.4189  0.8076
  117MYC    H3023169   2.877   0.195   1.852 -0.6380  0.7124 -0.4459
  117MYC    C1923170   2.960  -0.010   1.815 -0.6441 -0.3359 -0.3024
  117MYC    H3223171   3.064   0.020   1.816  0.0078 -2.3876 -1.5387
  117MYC    H3323172   2.946  -0.104   1.764  0.5073 -1.4019  1.2531
  117MYC    C1623173   2.714   0.063   1.785  0.2657  0.1298  0.1471
  117MYC    H2823174   2.672  -0.039   1.793 -2.1911  1.0142 -0.5919
  117MYC    H2923175   2.735   0.087   1.680 -0.1415  2.9267  0.6454
  117MYC    C1523176   2.611   0.155   1.837 -0.2956 -0.0464  0.2698
  117MYC    H2623177   2.524   0.122   1.780 -0.2104  0.4040 -0.1257
  117MYC    H2723178   2.615   0.262   1.814 -2.6442  0.4199  1.7222
  117MYC    C1423179   2.571   0.129   1.983  0.2729 -0.5445 -0.5411
  117MYC    H2423180   2.645   0.178   2.047  1.5774  0.7728 -2.8813
  117MYC    H2523181   2.571   0.020   1.994  0.5358 -0.7193 -1.9669
  117MYC    C1323182   2.428   0.185   2.015  0.1079 -0.0721  0.2573
  117MYC    H2223183   2.357   0.155   1.937  2.8154 -0.5164 -2.2159
  117MYC    H2323184   2.441   0.294   2.013  3.9728 -0.3089  1.9393
  117MYC    C1223185   2.368   0.143   2.150 -0.3971  0.1597  0.0835
  117MYC    H2023186   2.435   0.160   2.235 -0.7515 -0.7295  0.5497
  117MYC    H2123187   2.351   0.035   2.143  2.2778 -0.2899 -0.2401
  117MYC    C1123188   2.240   0.203   2.182  0.5434 -0.2357  0.5373
  117MYC    H1823189   2.184   0.241   2.095  0.2006  1.2648  1.3681
  117MYC    H1923190   2.260   0.290   2.245  1.5828 -0.5031  0.5919
  117MYC    C1023191   2.146   0.101   2.258  0.3050  0.2362  0.3082
  117MYC    H1623192   2.102   0.025   2.192 -0.4474 -0.5742  1.7038
  117MYC    H1723193   2.056   0.155   2.291  0.2654  0.9167 -0.8472
  117MYC     C923194   2.221   0.034   2.379 -0.3372 -0.4250  0.6545
  117MYC    H1423195   2.276   0.116   2.426  0.4240  1.0046 -2.5060
  117MYC    H1523196   2.298  -0.039   2.351 -1.2730 -0.6666 -1.5284
  117MYC     C823197   2.136  -0.041   2.490  0.3800  0.1061  0.7567
  117MYC    H1223198   2.205  -0.087   2.561  2.3422  1.9702  0.1737
  117MYC    H1323199   2.091  -0.132   2.449 -0.5977  0.0648  1.8710
  117MYC     C723200   2.042   0.051   2.560  0.1909 -0.1109  0.5290
  117MYC    H1023201   1.977   0.111   2.495 -1.5613 -0.5416  1.8094
  117MYC    H1123202   2.102   0.113   2.627 -0.4058  0.3093  0.6849
  117MYC     C623203   1.953  -0.036   2.649 -0.3974 -0.8561 -0.1529
  117MYC     H823204   2.000  -0.117   2.707  2.5092 -0.5174 -1.7856
  117MYC     H923205   1.867  -0.082   2.600 -0.8438  0.0078 -0.1923
  117MYC     C523206   1.884   0.056   2.749 -0.2615  0.2077  0.3660
  117MYC     H623207   1.821   0.131   2.700 -0.8274  1.0520  2.2830
  117MYC     H723208   1.958   0.110   2.809  0.4244 -0.3519  0.0341
  117MYC     C423209   1.797  -0.021   2.855 -0.1010 -0.4431 -0.1382
  117MYC     H423210   1.869  -0.084   2.908 -0.2723 -0.0340  0.5866
  117MYC     H523211   1.735  -0.094   2.802  0.9762 -0.8278 -0.9141
  117MYC     C223212   1.725   0.069   2.957 -0.0160  0.2541 -0.1943
  117MYC     H223213   1.677  -0.002   3.025  2.4779 -1.3943 -0.0210
  117MYC     O323214   1.821   0.145   3.035 -0.1964  0.7498  0.5041
  117MYC     H323215   1.828   0.237   3.005  2.3056  0.5538  0.2741
  117MYC     C123216   1.604   0.154   2.895  0.5210  0.6277  0.2397
  117MYC     H123217   1.578   0.099   2.804 -1.1042 -0.9799  1.5745
  117MYC    C8123218   1.647   0.290   2.842 -0.6257  0.3109 -0.2477
  117MYC    O8223219   1.701   0.385   2.900  0.3165 -0.7646 -0.3823
  117MYC    O8323220   1.598   0.324   2.723 -0.3560  0.5984 -0.6626
  117MYC   H10523221   1.626   0.417   2.714 -0.7598  0.7617 -0.2526
  117MYC    C2023222   1.484   0.165   2.988 -0.3175  0.0642 -0.6987
  117MYC    H3423223   1.397   0.216   2.943 -0.1605 -0.8780 -2.1279
  117MYC    H3523224   1.435   0.070   3.009 -1.4035  0.5391 -0.9800
  117MYC    C2123225   1.523   0.234   3.113  0.1975 -0.0232 -0.1025
  117MYC    H3623226   1.589   0.157   3.155 -0.0036 -0.2994 -0.2870
  117MYC    H3723227   1.570   0.329   3.088 -0.0777 -0.1411 -1.0960
  117MYC    C2223228   1.415   0.251   3.220 -0.1281  0.3118  0.1048
  117MYC    H3823229   1.327   0.296   3.172 -0.6505 -0.9742 -0.1792
  117MYC    H3923230   1.386   0.152   3.255  1.0278 -0.3767 -0.8230
  117MYC    C2323231   1.463   0.338   3.328 -0.5524 -0.3136  0.5379
  117MYC    H4023232   1.551   0.288   3.369 -1.3081 -2.1133  0.1228
  117MYC    H4123233   1.478   0.438   3.287 -2.4086 -0.1178  0.2529
  117MYC    C2423234   1.358   0.341   3.442  0.1276  0.4700 -0.3102
  117MYC    H4223235   1.279   0.408   3.407  0.0868  0.2672 -0.6087
  117MYC    H4323236   1.315   0.241   3.453 -2.6062  1.5561 -0.4730
  117MYC    C2523237   1.407   0.397   3.572  0.1812  0.5542  0.2118
  117MYC    H4423238   1.497   0.342   3.601 -1.1662 -1.3534  0.9987
  117MYC    H4523239   1.427   0.503   3.551  0.3907  0.5131  0.2052
  117MYC    C2623240   1.316   0.370   3.694  0.3554  0.6012  0.3059
  117MYC    H4623241   1.217   0.411   3.673  0.0142 -0.1576  0.4296
  117MYC    H4723242   1.286   0.265   3.701 -2.1837  1.1993 -0.4947
  117MYC    C2723243   1.371   0.413   3.823  0.1509 -0.8361  0.3701
  117MYC    H4823244   1.469   0.370   3.843  0.5708  0.0223  0.2208
  117MYC    H4923245   1.400   0.519   3.814  1.7190 -1.3421 -1.0491
  117MYC    C2823246   1.274   0.383   3.941  0.5091 -0.8943  0.0911
  117MYC    H5023247   1.175   0.424   3.915  0.7927 -2.1826 -3.5481
  117MYC    H5123248   1.251   0.277   3.955 -0.2865 -0.5509  1.7411
  117MYC    C2923249   1.332   0.421   4.069  0.8145 -0.6553 -1.0014
  117MYC    H5223250   1.431   0.375   4.080  1.3372  0.7353  0.6257
  117MYC    H5323251   1.341   0.531   4.074  0.0789 -0.6530  2.8997
  117MYC    C3023252   1.235   0.383   4.181 -0.0996 -0.1849  0.7228
  117MYC    H5423253   1.139   0.433   4.161  1.4478  1.9331 -2.1125
  117MYC    H5523254   1.224   0.274   4.181 -2.2890 -0.0408  1.9485
  117MYC    C3123255   1.278   0.429   4.313 -0.7208  0.2358  0.1201
  117MYC    H5623256   1.374   0.391   4.351 -0.0834 -0.2223 -1.8601
  117MYC    H5723257   1.287   0.538   4.304  1.5530  0.1435  0.5125
  117MYC    C3223258   1.181   0.401   4.426  0.2621 -0.5404  0.5274
  117MYC    H5823259   1.078   0.431   4.405  0.7157  2.0518  1.6220
  117MYC    H5923260   1.176   0.291   4.423 -0.3421 -0.4908 -1.2976
  117MYC    C3323261   1.228   0.435   4.569  0.1128  0.5056 -0.0305
  117MYC    H6023262   1.326   0.391   4.593  0.1209 -0.1302 -1.1809
  117MYC    H6123263   1.243   0.543   4.570  1.7031  0.4331 -3.1659
  117MYC    C3423264   1.126   0.379   4.672 -0.5696  0.4582 -0.2677
  117MYC    H6223265   1.034   0.440   4.668 -1.2228 -0.2469  2.0579
  117MYC    H6323266   1.099   0.276   4.647  1.7012 -0.1367 -0.4362
  117MYC    C3523267   1.184   0.388   4.818  0.2166  0.2205 -0.3127
  117MYC    H6423268   1.273   0.324   4.828  0.6536  0.8216 -0.2983
  117MYC    H6523269   1.218   0.488   4.845  1.0324 -0.4471  1.3152
  117MYC    C3623270   1.078   0.344   4.924  0.0610  0.8224  0.4276
  117MYC    H6623271   0.981   0.394   4.909 -0.9825 -1.6380 -1.7981
  117MYC    H6723272   1.069   0.237   4.904  2.0376  0.5935  0.5851
  117MYC    C3723273   1.138   0.363   5.067  0.4362 -0.0425  0.1530
  117MYC    H6823274   1.224   0.296   5.079  1.5516  1.5527  1.5800
  117MYC    H6923275   1.180   0.464   5.075 -1.2010  0.8219 -1.4188
  117MYC    C3823276   1.040   0.333   5.174  0.3569 -0.0793 -0.0379
  117MYC    H7023277   0.955   0.401   5.183  0.5885  0.7035 -2.9577
  117MYC    H7123278   0.995   0.238   5.145  0.2958  0.0294 -0.2978
  117MYC    C3923279   1.105   0.312   5.314  0.0227  0.1384  0.2954
  117MYC    H7223280   1.172   0.226   5.321 -0.6530 -0.3496  1.0525
  117MYC    H7323281   1.163   0.402   5.336  1.7911 -0.6478 -0.9239
  117MYC    C4023282   1.003   0.303   5.423 -0.7375  0.6099 -0.4031
  117MYC    H7423283   0.933   0.388   5.424 -0.0606  1.2309 -1.7155
  117MYC    H7523284   0.943   0.213   5.404 -1.3131  1.2334 -1.6727
  117MYC    C4123285   1.066   0.294   5.562 -0.2603  0.6361  0.1166
  117MYC    H7623286   1.147   0.220   5.559 -0.7692 -0.0537  1.9793
  117MYC    H7723287   1.120   0.388   5.575  2.0869  0.0718 -3.9402
  117MYC    C4223288   0.970   0.261   5.677  0.2586 -0.4199  0.1135
  117MYC    H7823289   0.881   0.325   5.673  0.4251 -0.2317 -0.9966
  117MYC    H7923290   0.933   0.158   5.672  0.9435 -0.6230 -1.2972
  117MYC    C4323291   1.039   0.272   5.818 -0.2279  0.3895  0.2378
  117MYC    H8023292   0.970   0.246   5.900  0.7041  0.9672  1.2387
  117MYC    H8123293   1.086   0.367   5.848  1.7933 -0.9496  1.5628
  117MYC    H8223294   1.118   0.197   5.827  1.1785  1.8140  0.1781
  118MYC   HH1523295   1.587   1.342   5.311 -1.2471  0.3583 -2.4596
  118MYC    C8023296   1.678   1.300   5.266 -0.2334 -0.0469 -0.1848
  118MYC   H10023297   1.764   1.337   5.323  0.0083  0.9650 -1.1860
  118MYC   H10123298   1.662   1.191   5.271 -1.5587  0.1689  2.5027
  118MYC    C7923299   1.679   1.352   5.126 -0.0557 -0.3407  0.4164
  118MYC   H10223300   1.739   1.444   5.131  0.2309 -0.5023 -0.0312
  118MYC   H10323301   1.579   1.376   5.089 -0.5804 -2.3281  0.4700
  118MYC    C7823302   1.751   1.264   5.031 -0.3727  0.3434  0.0810
  118MYC   HH1423303   1.687   1.174   5.032 -1.7659  1.2592  3.1186
  118MYC   H10423304   1.855   1.259   5.065 -0.2152  3.3449  0.2369
  118MYC    C7723305   1.742   1.328   4.888 -0.7842  0.5512  0.4973
  118MYC   H10623306   1.785   1.429   4.894  0.1471  0.1710  0.4420
  118MYC   H10723307   1.640   1.342   4.849 -0.5005  0.1188 -0.4190
  118MYC    C7623308   1.810   1.237   4.785  0.6267 -0.3873 -0.3019
  118MYC   H10823309   1.785   1.131   4.796 -0.6867 -0.0143  0.5616
  118MYC   H10923310   1.919   1.239   4.800  0.8425 -0.2189 -1.7157
  118MYC    C7523311   1.785   1.281   4.638 -0.5195  0.1260 -0.0330
  118MYC   H11023312   1.821   1.384   4.630 -0.0794  0.0479  0.9067
  118MYC   H11123313   1.678   1.281   4.611 -0.6126  4.1912 -0.3775
  118MYC    C7423314   1.858   1.196   4.532  0.3758 -0.6509 -0.9272
  118MYC   H11223315   1.807   1.099   4.537  1.2954 -1.2103 -1.9100
  118MYC   H11323316   1.964   1.183   4.558 -0.0853 -3.7383 -0.2824
  118MYC    C7323317   1.837   1.253   4.392 -0.3428 -0.1454  0.5531
  118MYC   HH1323318   1.891   1.348   4.376  2.3889 -1.2789  2.3219
  118MYC   H11423319   1.729   1.266   4.378  0.1158  1.9070 -1.9292
  118MYC    C7223320   1.871   1.151   4.285  0.0918  0.1558  0.4478
  118MYC   H11523321   1.806   1.064   4.294  0.2868  0.0493  0.8509
  118MYC   H11623322   1.978   1.132   4.301  0.7201  1.2778 -1.9351
  118MYC    C7123323   1.849   1.190   4.140 -0.1313 -0.7023  0.0965
  118MYC   H11723324   1.921   1.270   4.117  0.0811 -1.5209 -2.5012
  118MYC   H11823325   1.744   1.218   4.124 -0.8201 -2.5177  1.2392
  118MYC    C7023326   1.894   1.072   4.049 -0.4294  0.3755  0.6519
  118MYC   H11923327   1.823   0.990   4.066 -3.6063  2.6826 -0.6059
  118MYC   H12023328   1.992   1.047   4.091  0.4482  1.3731 -0.6922
  118MYC    C6923329   1.922   1.103   3.905  0.8560 -0.1305  0.4840
  118MYC   H12123330   1.978   1.197   3.893 -1.6431  1.8770  3.1594
  118MYC   H12223331   1.822   1.126   3.867  0.6276 -1.1139  0.4693
  118MYC    C6823332   1.985   0.992   3.836  0.1384  0.2341 -0.0477
  118MYC   HH1223333   1.935   0.895   3.847 -0.3560  0.4998  0.0468
  118MYC   H12323334   2.080   0.992   3.892  0.1874 -0.6190 -0.1091
  118MYC    C6723335   2.019   1.012   3.683 -0.2750  0.4335  0.6149
  118MYC   H12423336   2.066   1.111   3.674  0.3927  0.1428  0.8922
  118MYC   H12523337   1.933   1.001   3.616  0.1919 -1.5442  0.2871
  118MYC    C6623338   2.121   0.917   3.636 -1.0638  0.3721 -0.4295
  118MYC   H12623339   2.087   0.816   3.662  2.2247 -0.8656 -0.4125
  118MYC   H12723340   2.200   0.927   3.711 -1.0675  0.1928 -0.3996
  118MYC    C6523341   2.154   0.934   3.488 -0.5016 -0.2504 -0.5318
  118MYC   H12823342   2.187   1.036   3.469  1.5633 -0.7805 -0.0632
  118MYC   H12923343   2.067   0.917   3.423  0.5788 -0.0382 -2.1077
  118MYC    C6423344   2.262   0.838   3.433  0.3882  0.3963  0.6721
  118MYC   H13023345   2.246   0.736   3.469  0.8235  0.3606  0.7741
  118MYC   H13123346   2.363   0.876   3.454 -0.1705  1.8748  0.7898
  118MYC    C6323347   2.246   0.830   3.276  0.5205 -0.3218 -0.2326
  118MYC   HH1123348   2.254   0.932   3.237 -0.3067 -0.1059  0.1461
  118MYC   H13223349   2.141   0.808   3.256  0.1616 -0.1988  1.4026
  118MYC    C6223350   2.346   0.729   3.216 -0.2108  0.3371 -1.2091
  118MYC   H13323351   2.330   0.627   3.252 -2.1961  1.0407  0.0273
  118MYC   H13423352   2.448   0.754   3.250 -0.2401 -0.6424 -0.3841
  118MYC    C6123353   2.343   0.720   3.063  0.2612  0.9585  0.0565
  118MYC   H13523354   2.359   0.820   3.023  1.1285  0.4335 -0.9643
  118MYC   H13623355   2.241   0.682   3.046 -0.1605  1.7592  0.7066
  118MYC    C6023356   2.441   0.620   3.007  0.8159  0.0040 -0.4854
  118MYC   H13723357   2.421   0.516   3.033  0.2898  0.0101 -0.8522
  118MYC    C5823358   2.494   0.641   2.866 -0.9145  0.0097 -0.8316
  118MYC   H13823359   2.466   0.730   2.810  1.2295  1.0768 -0.3120
  118MYC    C5923360   2.576   0.663   2.989 -0.4761  0.0203  0.6969
  118MYC   H13923361   2.651   0.587   3.008 -0.2054 -0.0143 -0.4261
  118MYC   H14023362   2.598   0.764   3.024 -0.9970  0.7721 -1.0047
  118MYC    C5723363   2.524   0.534   2.768  0.4576 -0.7123  0.1070
  118MYC   HH1023364   2.428   0.494   2.731  0.7758  0.7827 -2.5777
  118MYC   H14123365   2.569   0.447   2.817  0.9032  0.4303  1.8107
  118MYC    C5623366   2.621   0.581   2.652 -0.4504  0.6850 -0.2040
  118MYC   H14223367   2.698   0.644   2.698 -2.3691  2.1248  1.2113
  118MYC   H14323368   2.565   0.640   2.579  0.7055  0.1952 -1.5329
  118MYC    C5523369   2.681   0.464   2.561 -0.5019  0.7104  0.3281
  118MYC   H14423370   2.603   0.432   2.490  0.5874 -0.8219 -0.2532
  118MYC   H14523371   2.702   0.376   2.623  0.4928  1.2689  0.8027
  118MYC    C5423372   2.806   0.512   2.489  0.2106  1.0637 -0.7288
  118MYC   H14623373   2.794   0.611   2.444  0.4700  1.5693  0.2735
  118MYC   H14723374   2.824   0.440   2.409  1.4520 -0.6706  1.0120
  118MYC    C5323375   2.940   0.521   2.567  0.1317  0.2503 -0.7763
  118MYC   H14823376   2.957   0.420   2.607  1.7743  0.1082 -1.7552
  118MYC   H14923377   2.938   0.591   2.651  1.9115 -0.2624 -0.2521
  118MYC    C5223378   3.064   0.564   2.482 -0.2727  0.3400  0.7239
  118MYC    H9923379   3.155   0.575   2.543 -0.9126  1.2253  1.5584
  118MYC   H15023380   3.059   0.664   2.436 -0.9013  0.4277  0.9768
  118MYC    C5123381   3.092   0.466   2.364 -0.4303 -0.7776 -0.2053
  118MYC    H9723382   3.040   0.492   2.271  0.7700 -0.1517 -0.7277
  118MYC    H9823383   3.060   0.364   2.390 -0.6681 -0.7908 -0.5380
  118MYC    C5023384   3.239   0.457   2.315 -0.6419  0.8189  0.1143
  118MYC    H9523385   3.301   0.417   2.397  0.6914 -2.6280 -2.3322
  118MYC    H9623386   3.268   0.557   2.280 -2.8142  1.2998 -0.4339
  118MYC    C4923387   3.249   0.345   2.202  0.3674 -0.1964 -0.2257
  118MYC    H9323388   3.186   0.363   2.114  0.6718 -1.4387 -0.7119
  118MYC    H9423389   3.208   0.254   2.247 -1.1994  0.7095  0.2952
  118MYC    C4823390   3.400   0.330   2.171 -0.0482  0.4417 -0.1181
  118MYC    H9123391   3.444   0.281   2.258  0.9866 -0.1320 -0.9471
  118MYC    H9223392   3.456   0.422   2.151 -0.7218  0.8846 -0.0368
  118MYC    C4723393   3.432   0.234   2.051  0.6623  0.1713  0.4385
  118MYC    H8923394   3.363   0.149   2.051  0.6160  0.2043  1.0296
  118MYC    H9023395   3.529   0.190   2.074  0.7636  0.5287  0.7099
  118MYC    C4623396   3.447   0.299   1.915  0.3235 -0.0260 -0.6071
  118MYC    H8723397   3.551   0.332   1.911  0.3111  0.2889  1.1222
  118MYC    H8823398   3.376   0.383   1.911 -1.0417 -1.1688 -1.1848
  118MYC    C4523399   3.419   0.201   1.800 -0.5949  0.4073 -0.0073
  118MYC    H8523400   3.405   0.252   1.704  0.1824 -0.3589 -0.5417
  118MYC    H8623401   3.323   0.153   1.824  0.6744 -2.0897  0.4949
  118MYC    C4423402   3.536   0.088   1.795  0.1887  0.0588  0.0872
  118MYC    H8323403   3.496   0.015   1.724  0.9557 -0.4953  0.2146
  118MYC    H8423404   3.550   0.036   1.890 -1.4532  1.0022  0.8952
  118MYC    C1823405   3.666   0.135   1.731  0.3803  0.5513 -1.0027
  118MYC    H3123406   3.664   0.221   1.664  1.0404 -0.1799 -2.0001
  118MYC    C1723407   3.801   0.111   1.808  0.1073  0.8458  0.2215
  118MYC    H3023408   3.787   0.055   1.900  0.8269 -0.2464 -0.3018
  118MYC    C1923409   3.768   0.031   1.682  0.1137  0.0037  0.3422
  118MYC    H3223410   3.753  -0.072   1.711 -0.9912  0.2792  0.8087
  118MYC    H3323411   3.823   0.055   1.591 -0.6173 -0.0592 -0.1336
  118MYC    C1623412   3.911   0.218   1.819  0.4742  0.4350 -0.2491
  118MYC    H2823413   3.870   0.307   1.770 -2.1537 -0.3084  0.4730
  118MYC    H2923414   3.992   0.171   1.761  1.5927 -0.4639  1.9080
  118MYC    C1523415   3.951   0.246   1.964 -0.4886  0.6628 -0.4306
  118MYC    H2623416   4.027   0.325   1.959  2.1342 -1.5817  0.6372
  118MYC    H2723417   4.001   0.158   2.006  0.0913  1.7496  1.2325
  118MYC    C1423418   3.833   0.290   2.055 -0.4290 -0.5176  0.2968
  118MYC    H2423419   3.755   0.214   2.042 -1.2034  0.5696 -2.0602
  118MYC    H2523420   3.785   0.376   2.006  1.4564  0.6783  0.4650
  118MYC    C1323421   3.870   0.320   2.209  0.9148 -0.0175 -0.0075
  118MYC    H2223422   3.938   0.406   2.215  1.0433 -0.1247  0.0630
  118MYC    H2323423   3.925   0.230   2.238 -0.6751 -1.0147  0.0264
  118MYC    C1223424   3.749   0.338   2.312 -0.3007 -0.4937  0.0684
  118MYC    H2023425   3.661   0.277   2.287 -0.5851  0.8158 -2.4746
  118MYC    H2123426   3.702   0.436   2.298 -1.1019 -0.8128  0.4256
  118MYC    C1123427   3.780   0.302   2.466  0.1226  0.2899 -0.2872
  118MYC    H1823428   3.838   0.383   2.512 -1.8190  1.0106  1.0230
  118MYC    H1923429   3.837   0.209   2.470  1.4208  1.0281 -0.9408
  118MYC    C1023430   3.640   0.304   2.545 -0.5092 -0.8673  0.0184
  118MYC    H1623431   3.633   0.222   2.617  1.6295  0.3210  1.6872
  118MYC    H1723432   3.557   0.291   2.474 -1.8634  3.3017  0.5889
  118MYC     C923433   3.617   0.429   2.620 -0.3249  0.5440  0.1663
  118MYC    H1423434   3.699   0.441   2.692  1.3014 -1.4100 -1.2228
  118MYC    H1523435   3.522   0.410   2.672 -0.5040 -0.3632 -0.4700
  118MYC     C823436   3.607   0.562   2.537  0.7065 -1.0794  0.4430
  118MYC    H1223437   3.526   0.554   2.463 -0.6816 -1.3681  1.9197
  118MYC    H1323438   3.704   0.587   2.493  0.4068  3.2948  1.7973
  118MYC     C723439   3.582   0.679   2.629 -0.0537 -0.5645 -0.2895
  118MYC    H1023440   3.586   0.773   2.572 -1.7654  0.8654  1.7716
  118MYC    H1123441   3.648   0.685   2.716 -1.2123  0.0260  0.5702
  118MYC     C623442   3.445   0.678   2.701  0.2565 -0.2136  0.0519
  118MYC     H823443   3.450   0.594   2.770  1.2141  0.0394  0.3044
  118MYC     H923444   3.356   0.665   2.638  1.4377  2.3783 -2.4546
  118MYC     C523445   3.416   0.805   2.774  0.5701  0.0978 -0.2159
  118MYC     H623446   3.437   0.892   2.711  0.2044  0.5963  0.3475
  118MYC     H723447   3.488   0.811   2.856 -0.9237 -0.9866  1.2261
  118MYC     C423448   3.275   0.802   2.839 -0.3182  0.6373  0.2376
  118MYC     H423449   3.274   0.710   2.898  2.2545 -0.4919 -1.3399
  118MYC     H523450   3.202   0.789   2.759 -0.1954  1.6990 -0.0634
  118MYC     C223451   3.231   0.923   2.914  0.0919 -1.1917  0.3285
  118MYC     H223452   3.305   0.934   2.993 -1.2201 -0.7352  1.5461
  118MYC     O323453   3.232   1.045   2.831  0.5210 -0.0685 -0.1618
  118MYC     H323454   3.172   1.024   2.757 -0.6349  0.6658  0.5332
  118MYC     C123455   3.100   0.898   2.996 -0.3455  0.5699  0.2622
  118MYC     H123456   3.120   0.806   3.052  0.8895 -0.4375 -1.7130
  118MYC    C8123457   2.989   0.872   2.894 -0.4275  1.5131  0.0620
  118MYC    O8223458   2.954   0.757   2.868  0.8302  0.3106 -0.3044
  118MYC    O8323459   2.952   0.976   2.818 -0.0914  0.0745 -0.7096
  118MYC   H10523460   2.863   0.957   2.786 -0.0385 -2.8310  0.6099
  118MYC    C2023461   3.065   1.001   3.109  0.5956 -0.3951  0.2585
  118MYC    H3423462   3.152   1.013   3.175 -0.5972  1.8548  1.5664
  118MYC    H3523463   3.056   1.101   3.064 -2.9284 -1.1351 -0.9873
  118MYC    C2123464   2.941   0.971   3.204 -0.6598 -0.8300 -0.4180
  118MYC    H3623465   2.948   0.862   3.218  1.7051 -0.8763 -1.3664
  118MYC    H3723466   2.950   1.034   3.293 -1.6159  0.3498 -1.1268
  118MYC    C2223467   2.815   1.015   3.138  0.3332 -0.1917  0.1507
  118MYC    H3823468   2.809   1.117   3.097  0.0845  0.9498  2.8450
  118MYC    H3923469   2.785   0.948   3.056  2.0333 -1.4334  0.4713
  118MYC    C2323470   2.690   1.002   3.226  0.4268 -0.1456  0.5520
  118MYC    H4023471   2.603   1.007   3.159  1.4113 -1.9396 -0.9687
  118MYC    H4123472   2.683   0.902   3.270 -3.0218 -0.0444  0.4795
  118MYC    C2423473   2.681   1.090   3.347  0.6090 -0.7656 -0.1798
  118MYC    H4223474   2.752   1.061   3.426  1.0440  0.3655 -0.1433
  118MYC    H4323475   2.727   1.186   3.321  2.8172 -1.3410  1.2476
  118MYC    C2523476   2.536   1.124   3.404  1.1096  0.1174  0.1566
  118MYC    H4423477   2.469   1.163   3.326  0.0035 -0.3880  0.8293
  118MYC    H4523478   2.489   1.033   3.442 -2.2213  1.9144  0.7313
  118MYC    C2623479   2.546   1.223   3.518  0.8314  0.1538 -0.6494
  118MYC    H4623480   2.614   1.186   3.596  0.1982  1.3676  0.5169
  118MYC    H4723481   2.592   1.313   3.476  3.1848 -0.4477  0.4541
  118MYC    C2723482   2.410   1.263   3.588 -0.6727  0.2536  0.1675
  118MYC    H4823483   2.352   1.339   3.536 -1.5493  1.0942  2.2965
  118MYC    H4923484   2.355   1.168   3.591  1.2912 -0.9658 -0.3024
  118MYC    C2823485   2.430   1.302   3.730 -0.1818  0.3648  0.1684
  118MYC    H5023486   2.497   1.225   3.770 -3.8686 -3.0462  0.4070
  118MYC    H5123487   2.481   1.399   3.726  1.8932 -0.6134  1.4169
  118MYC    C2923488   2.305   1.305   3.821 -1.0659 -0.5368  0.5991
  118MYC    H5223489   2.239   1.375   3.768  0.5955  0.3562 -0.3432
  118MYC    H5323490   2.262   1.205   3.838  0.3128 -0.8178  2.7299
  118MYC    C3023491   2.341   1.360   3.957 -0.0380  0.1419 -0.6323
  118MYC    H5423492   2.410   1.287   4.002  0.6101 -0.1652 -2.0812
  118MYC    H5523493   2.386   1.459   3.968 -2.2019  0.9149  2.6721
  118MYC    C3123494   2.217   1.377   4.044  0.0281 -0.4117 -0.3627
  118MYC    H5623495   2.140   1.448   4.013  1.0404  0.8797 -0.0135
  118MYC    H5723496   2.166   1.283   4.070  0.8594 -0.4467  1.2625
  118MYC    C3223497   2.266   1.437   4.179  0.8725  0.1496 -0.0629
  118MYC    H5823498   2.350   1.375   4.213 -0.3903 -2.0633 -0.7862
  118MYC    H5923499   2.307   1.537   4.163  1.8633  0.1423  2.0828
  118MYC    C3323500   2.158   1.435   4.288 -0.0631 -0.2416 -0.9076
  118MYC    H6023501   2.076   1.503   4.264  0.5221  0.6291 -0.5079
  118MYC    H6123502   2.108   1.338   4.285 -1.4401  0.4605 -3.2496
  118MYC    C3423503   2.214   1.481   4.422  0.3315 -0.0303  0.1260
  118MYC    H6223504   2.295   1.414   4.452 -0.7397 -1.9228 -0.9894
  118MYC    H6323505   2.248   1.584   4.405  0.2391 -0.1349 -0.7567
  118MYC    C3523506   2.110   1.480   4.538  0.0545 -0.2083 -0.0938
  118MYC    H6423507   2.018   1.523   4.496  0.7051  1.0458 -0.2772
  118MYC    H6523508   2.099   1.375   4.565  1.7487 -1.0119 -2.2729
  118MYC    C3623509   2.160   1.553   4.668 -0.1414 -0.4725  0.1550
  118MYC    H6623510   2.260   1.519   4.697  0.5617 -0.9257 -2.5328
  118MYC    H6723511   2.177   1.659   4.647 -2.5132 -0.0765 -0.1212
  118MYC    C3723512   2.059   1.519   4.782 -0.4171  0.1661 -0.5198
  118MYC    H6823513   1.956   1.535   4.748 -0.4851 -0.3735 -0.5667
  118MYC    H6923514   2.062   1.411   4.798  0.5158  0.3366  0.5524
  118MYC    C3823515   2.107   1.583   4.919  0.1758  0.2872 -0.4325
  118MYC    H7023516   2.206   1.548   4.949  0.5825  0.2135 -1.8146
  118MYC    H7123517   2.105   1.691   4.900 -2.4941 -0.0305 -2.5087
  118MYC    C3923518   2.015   1.548   5.037 -0.1487  0.1312 -0.4978
  118MYC    H7223519   1.910   1.571   5.015 -0.1661  1.3512  0.7151
  118MYC    H7323520   2.017   1.440   5.057 -0.3955 -0.2947 -2.5472
  118MYC    C4023521   2.060   1.608   5.173 -0.2807  0.3962 -0.9030
  118MYC    H7423522   2.169   1.596   5.179 -0.6305 -3.4078  0.3913
  118MYC    H7523523   2.049   1.717   5.167  0.2631  0.4303 -1.4729
  118MYC    C4123524   1.968   1.557   5.286 -0.2473 -0.1966  0.1787
  118MYC    H7623525   1.862   1.580   5.269 -0.0861  0.8342  0.4806
  118MYC    H7723526   1.969   1.448   5.296  0.5678 -0.4078 -1.7014
  118MYC    C4223527   2.017   1.620   5.420  0.1279  0.4497  0.1896
  118MYC    H7823528   2.126   1.629   5.420  0.4242 -2.3132 -0.0809
  118MYC    H7923529   1.974   1.719   5.437 -0.4554  0.1398  0.5670
  118MYC    C4323530   1.962   1.526   5.530 -0.1736 -0.1753 -0.5155
  118MYC    H8023531   2.025   1.543   5.618  0.1934  0.3092 -0.8684
  118MYC    H8123532   1.959   1.421   5.501  0.1288  0.2517 -2.1552
  118MYC    H8223533   1.859   1.561   5.545 -1.1350 -2.9951  0.1231
  119MYC   HH1523534   2.411   2.037   5.494  0.2354  1.1520 -1.3753
  119MYC    C8023535   2.352   1.951   5.460  0.6409  0.4245 -0.2912
  119MYC   H10023536   2.407   1.857   5.475  1.4414  0.4268 -2.7693
  119MYC   H10123537   2.264   1.950   5.525  0.8798  1.9396  0.0963
  119MYC    C7923538   2.299   1.958   5.310 -0.0185 -0.7166 -0.5126
  119MYC   H10223539   2.242   2.050   5.294 -1.5671 -1.6411 -0.5253
  119MYC   H10323540   2.231   1.875   5.289 -3.1062  1.2478  1.0651
  119MYC    C7823541   2.421   1.943   5.217  0.3597  0.2343  0.4994
  119MYC   HH1423542   2.495   1.869   5.249  0.3585  0.3249  0.7155
  119MYC   H10423543   2.476   2.036   5.233  1.5842 -0.3717 -0.1377
  119MYC    C7723544   2.380   1.926   5.069  0.3203 -0.8155  0.3449
  119MYC   H10623545   2.312   2.010   5.047 -0.0337 -1.2695 -0.3155
  119MYC   H10723546   2.313   1.840   5.054 -0.0846 -0.2233 -1.5333
  119MYC    C7623547   2.483   1.927   4.955  0.0757  0.0877  0.9096
  119MYC   H10823548   2.554   1.846   4.974  0.9125  0.5199 -0.2741
  119MYC   H10923549   2.535   2.024   4.963 -0.8462  0.4778  2.6549
  119MYC    C7523550   2.419   1.915   4.816  0.0742  0.2199  0.5810
  119MYC   H11023551   2.367   2.008   4.792  0.4607  0.5866  1.1460
  119MYC   H11123552   2.354   1.827   4.815  1.8977 -1.2075 -0.0437
  119MYC    C7423553   2.523   1.903   4.699  0.1896 -0.4492 -0.6397
  119MYC   H11223554   2.606   1.840   4.733  2.7229  2.1976 -1.5214
  119MYC   H11323555   2.580   1.996   4.696  2.7938 -1.7937  1.9130
  119MYC    C7323556   2.465   1.874   4.567  0.5832  0.1130  1.0719
  119MYC   HH1323557   2.402   1.954   4.525  0.9112  0.1937  0.7248
  119MYC   H11423558   2.401   1.785   4.577 -2.1099  1.7865 -0.0321
  119MYC    C7223559   2.579   1.840   4.473 -0.0892 -0.0491 -0.0405
  119MYC   H11523560   2.626   1.747   4.505  0.4958  0.7320  1.4737
  119MYC   H11623561   2.654   1.919   4.476 -0.4192  0.2549  0.2753
  119MYC    C7123562   2.521   1.811   4.338 -0.5305 -0.1744  0.0336
  119MYC   H11723563   2.469   1.905   4.314  2.3975  1.0627 -2.2001
  119MYC   H11823564   2.464   1.718   4.347  1.3389 -1.5173 -1.2998
  119MYC    C7023565   2.627   1.796   4.230  0.3847  0.3055  0.2788
  119MYC   H11923566   2.693   1.712   4.255 -0.5321 -0.7864 -0.8177
  119MYC   H12023567   2.691   1.884   4.219 -1.3954  1.7791  1.2131
  119MYC    C6923568   2.540   1.784   4.096 -0.1245 -0.2700 -0.5018
  119MYC   H12123569   2.479   1.871   4.069 -1.3885 -0.8096  0.5008
  119MYC   H12223570   2.471   1.699   4.105  1.9886 -2.2809 -2.1254
  119MYC    C6823571   2.640   1.746   3.981  0.0613  0.2480  1.0038
  119MYC   HH1223572   2.698   1.655   4.003 -1.1901 -1.0196 -0.5895
  119MYC   H12323573   2.718   1.822   3.978 -0.5133  0.8684  1.6395
  119MYC    C6723574   2.579   1.724   3.844  0.4750 -0.4123  0.4518
  119MYC   H12423575   2.505   1.800   3.818  1.5384  0.3008 -0.5845
  119MYC   H12523576   2.519   1.632   3.843 -1.3613  0.6691  2.2677
  119MYC    C6623577   2.688   1.727   3.735  0.7470  0.3619 -0.8043
  119MYC   H12623578   2.754   1.643   3.759  1.4718  1.4988  1.4894
  119MYC   H12723579   2.745   1.820   3.733  1.2175  0.1691  1.1459
  119MYC    C6523580   2.636   1.701   3.592 -0.2411 -0.4669  0.0073
  119MYC   H12823581   2.565   1.772   3.547  0.6346 -0.2812 -1.1376
  119MYC   H12923582   2.580   1.608   3.599  0.4316 -0.8815 -0.0392
  119MYC    C6423583   2.743   1.683   3.474 -0.2958 -0.3798  0.2889
  119MYC   H13023584   2.840   1.647   3.510 -0.5567 -0.5564  0.8298
  119MYC   H13123585   2.766   1.782   3.433  1.5135 -0.5843  0.7371
  119MYC    C6323586   2.691   1.610   3.350  0.2783 -1.3026 -0.7710
  119MYC   HH1123587   2.609   1.666   3.304  1.3716 -1.7034 -3.3383
  119MYC   H13223588   2.643   1.522   3.394 -3.2616  1.1604  0.8092
  119MYC    C6223589   2.799   1.598   3.240  0.3270  0.8149  0.7011
  119MYC   H13323590   2.898   1.574   3.281  0.7142  0.0165 -0.6090
  119MYC   H13423591   2.808   1.699   3.198 -3.0365  0.2321 -1.8283
  119MYC    C6123592   2.756   1.499   3.127  0.0145 -0.4682  0.5559
  119MYC   H13523593   2.655   1.537   3.108  0.8075  2.3427  1.4751
  119MYC   H13623594   2.749   1.399   3.170 -0.6176  0.5603  3.0499
  119MYC    C6023595   2.850   1.491   3.011 -0.6687 -0.0446  0.5744
  119MYC   H13723596   2.950   1.471   3.047 -0.8128  1.8897  2.2219
  119MYC    C5823597   2.825   1.453   2.867 -0.0443  0.6756 -0.7016
  119MYC   H13823598   2.722   1.429   2.842 -0.8810  0.4096  2.6007
  119MYC    C5923599   2.855   1.596   2.904  0.9947  0.4284 -0.2838
  119MYC   H13923600   2.952   1.642   2.886  0.5873  0.9081 -1.3535
  119MYC   H14023601   2.771   1.665   2.911  0.8586  0.1358  1.4899
  119MYC    C5723602   2.930   1.371   2.789 -0.3204 -0.4677 -0.3823
  119MYC   HH1023603   2.896   1.269   2.813 -3.7604  0.4005 -1.0274
  119MYC   H14123604   3.032   1.384   2.829 -0.5285 -1.2992  0.4734
  119MYC    C5623605   2.916   1.390   2.639  0.9549 -0.3511  0.0422
  119MYC   H14223606   2.916   1.499   2.627 -0.6483 -0.3933 -0.6199
  119MYC   H14323607   2.824   1.335   2.615  1.3583 -0.6173 -0.9226
  119MYC    C5523608   3.028   1.324   2.559 -0.4859  0.3274 -0.3422
  119MYC   H14423609   2.998   1.336   2.454 -2.0755  1.7557  0.2323
  119MYC   H14523610   3.026   1.215   2.571 -2.9223  0.0878 -2.1531
  119MYC    C5423611   3.164   1.386   2.600 -0.0717 -0.1761 -0.3566
  119MYC   H14623612   3.185   1.342   2.698  3.0498 -0.3814 -1.0187
  119MYC   H14723613   3.147   1.493   2.617 -1.0472 -0.6714  2.3389
  119MYC    C5323614   3.292   1.357   2.525  0.3808 -0.5781  0.5853
  119MYC   H14823615   3.358   1.435   2.565  3.2577 -1.5216 -1.8956
  119MYC   H14923616   3.294   1.384   2.419 -0.7504  0.7261  0.8806
  119MYC    C5223617   3.353   1.218   2.544  0.6384 -0.5767 -0.7778
  119MYC    H9923618   3.277   1.140   2.532 -1.1158  0.7122  1.2265
  119MYC   H15023619   3.376   1.201   2.650  0.1237  1.4830 -0.2949
  119MYC    C5123620   3.467   1.177   2.443 -0.1544 -0.0451 -0.0599
  119MYC    H9723621   3.566   1.183   2.490 -0.6112  0.4354  0.8751
  119MYC    H9823622   3.469   1.254   2.365  1.3396 -0.2312 -0.2370
  119MYC    C5023623   3.454   1.038   2.379  0.3795  0.3146  0.0993
  119MYC    H9523624   3.367   1.032   2.313  1.1246  0.4055 -0.9151
  119MYC    H9623625   3.442   0.961   2.456  2.3275 -1.7285 -1.4888
  119MYC    C4923626   3.579   1.000   2.286 -0.5355 -1.5024  0.7599
  119MYC    H9323627   3.665   1.011   2.353  0.9387 -2.0659 -0.9765
  119MYC    H9423628   3.590   1.074   2.207 -0.0691 -0.9144  1.3664
  119MYC    C4823629   3.579   0.868   2.204  0.4306 -0.3421  0.6416
  119MYC    H9123630   3.558   0.784   2.271 -0.2931 -0.1767  0.6298
  119MYC    H9223631   3.678   0.855   2.158 -0.7076 -0.8221 -1.8311
  119MYC    C4723632   3.465   0.853   2.099  0.2833 -0.1612  0.1438
  119MYC    H8923633   3.474   0.928   2.020 -1.2420  0.5988  0.6537
  119MYC    H9023634   3.369   0.867   2.150 -0.1118 -0.3325 -0.5434
  119MYC    C4623635   3.457   0.709   2.038 -0.0126 -0.4785  0.3100
  119MYC    H8723636   3.362   0.700   1.984  0.0640 -0.1286  0.1166
  119MYC    H8823637   3.464   0.645   2.127 -0.5056  2.8376  2.9729
  119MYC    C4523638   3.569   0.663   1.946 -0.1616  0.2195  0.2104
  119MYC    H8523639   3.547   0.569   1.895 -0.0993 -0.0188  0.6148
  119MYC    H8623640   3.658   0.651   2.010 -0.7319  0.0927  0.9948
  119MYC    C4423641   3.610   0.757   1.825 -0.0516 -0.5466 -0.0708
  119MYC    H8323642   3.680   0.709   1.757  0.0295  0.6982 -0.8909
  119MYC    H8423643   3.656   0.852   1.854  0.7250 -0.3146 -1.9441
  119MYC    C1823644   3.498   0.783   1.731  0.1366 -0.0893  0.2950
  119MYC    H3123645   3.430   0.857   1.770 -0.2900 -0.3491  0.0567
  119MYC    C1723646   3.537   0.822   1.583 -0.7223  0.3746 -0.0032
  119MYC    H3023647   3.640   0.801   1.554 -0.4198  0.6286  0.8767
  119MYC    C1923648   3.459   0.697   1.614 -0.3329  0.1629 -0.6182
  119MYC    H3223649   3.511   0.602   1.621 -0.9365 -0.0690  1.4845
  119MYC    H3323650   3.353   0.692   1.590 -0.5330  2.6644 -0.5588
  119MYC    C1623651   3.471   0.929   1.500 -0.2141 -0.1250 -0.3860
  119MYC    H2823652   3.370   0.958   1.530  0.2912  1.7450 -0.3233
  119MYC    H2923653   3.468   0.896   1.395  1.9587 -2.2196  0.1111
  119MYC    C1523654   3.563   1.054   1.508 -0.2139  0.1502  0.2765
  119MYC    H2623655   3.522   1.134   1.446 -0.8871  0.0101  0.5327
  119MYC    H2723656   3.654   1.024   1.454 -0.3225  1.7733 -0.8561
  119MYC    C1423657   3.601   1.125   1.640  0.0619 -0.6149 -0.6699
  119MYC    H2423658   3.655   1.215   1.609 -0.5048 -0.4445 -1.1789
  119MYC    H2523659   3.681   1.076   1.698 -0.0146 -1.3711 -1.1879
  119MYC    C1323660   3.483   1.161   1.736 -0.6245 -0.1255  1.0767
  119MYC    H2223661   3.438   1.069   1.775 -1.3991 -0.2017  0.0546
  119MYC    H2323662   3.413   1.203   1.662 -0.8144 -1.8463  0.2181
  119MYC    C1223663   3.532   1.253   1.850  0.6204 -0.7487 -0.0216
  119MYC    H2023664   3.566   1.350   1.811 -0.6136 -0.6003 -0.7826
  119MYC    H2123665   3.611   1.201   1.903  1.3968  0.1202 -0.2984
  119MYC    C1123666   3.411   1.281   1.950 -0.5677  0.4353  0.5285
  119MYC    H1823667   3.374   1.192   2.004 -0.9332  1.0211  1.2587
  119MYC    H1923668   3.333   1.329   1.891  0.8672 -0.1184 -1.9456
  119MYC    C1023669   3.439   1.384   2.065 -0.1231 -0.1814 -0.2412
  119MYC    H1623670   3.530   1.441   2.046 -1.1445  0.9502 -2.0534
  119MYC    H1723671   3.478   1.338   2.156  1.3050 -0.7360 -1.0976
  119MYC     C923672   3.323   1.473   2.103  0.2214  0.8356  0.0622
  119MYC    H1423673   3.233   1.430   2.149 -0.7219  1.6931 -0.9287
  119MYC    H1523674   3.276   1.516   2.014 -1.2597 -0.5732  0.1220
  119MYC     C823675   3.378   1.584   2.195 -0.0253 -0.0714  0.0805
  119MYC    H1223676   3.441   1.648   2.132  0.0182 -1.3995 -1.2868
  119MYC    H1323677   3.448   1.551   2.272  0.2087  0.0685 -0.0749
  119MYC     C723678   3.266   1.675   2.252 -0.9879  0.6302  0.1720
  119MYC    H1023679   3.195   1.612   2.307  0.8480  0.2877  2.3361
  119MYC    H1123680   3.207   1.712   2.168 -0.4581 -1.5997 -1.2698
  119MYC     C623681   3.313   1.800   2.346  0.2022  1.0411 -0.0587
  119MYC     H823682   3.401   1.840   2.296  1.9914 -2.5287 -0.1158
  119MYC     H923683   3.341   1.764   2.446 -2.0776  2.3736  1.1580
  119MYC     C523684   3.201   1.911   2.362 -0.0282 -0.0081 -0.4438
  119MYC     H623685   3.182   1.952   2.262 -1.3085  0.6514  0.0420
  119MYC     H723686   3.256   1.985   2.422  0.5075 -0.1626 -0.7424
  119MYC     C423687   3.066   1.870   2.430  0.0078  0.3564  0.1363
  119MYC     H423688   3.081   1.792   2.506 -3.7328 -2.1097 -1.3853
  119MYC     H523689   3.019   1.822   2.343 -2.1782  2.0525  0.3031
  119MYC     C223690   2.974   1.984   2.479  0.8907  0.2839  0.0358
  119MYC     H223691   3.044   2.053   2.528 -0.2088  0.0780  1.9785
  119MYC     O323692   2.915   2.047   2.365  0.2878  0.1593  0.3553
  119MYC     H323693   2.859   1.982   2.318  2.1077 -0.9496 -0.3744
  119MYC     C123694   2.863   1.953   2.589 -0.0910 -0.0818  0.7570
  119MYC     H123695   2.917   1.919   2.678  2.8268  1.2736 -0.3759
  119MYC    C8123696   2.771   1.844   2.549 -0.3697 -0.5105  0.5469
  119MYC    O8223697   2.713   1.831   2.445  0.4550 -0.1830  0.3223
  119MYC    O8323698   2.759   1.746   2.637  0.2259  0.4251 -0.4501
  119MYC   H10523699   2.701   1.684   2.591 -1.0405  0.5232  0.9209
  119MYC    C2023700   2.790   2.084   2.637 -0.1626 -0.2650 -0.2592
  119MYC    H3423701   2.852   2.174   2.646  0.5193 -0.5130 -2.0575
  119MYC    H3523702   2.725   2.111   2.553 -0.5558 -2.2731 -0.6602
  119MYC    C2123703   2.694   2.064   2.752 -0.1697 -0.5791 -0.2701
  119MYC    H3623704   2.625   2.148   2.754 -0.6271 -0.9628  0.1633
  119MYC    H3723705   2.642   1.968   2.745 -2.1449  0.4257  0.0567
  119MYC    C2223706   2.761   2.072   2.893  0.2223 -0.4143  0.1744
  119MYC    H3823707   2.845   2.002   2.896  2.1793  1.8117  0.2486
  119MYC    H3923708   2.801   2.173   2.906 -1.1686  0.1490  0.2209
  119MYC    C2323709   2.658   2.042   3.002 -0.1428  0.3602 -0.0594
  119MYC    H4023710   2.579   2.117   2.985 -3.0501 -2.3716  0.4444
  119MYC    H4123711   2.606   1.947   2.987 -0.8634  0.6774  0.3282
  119MYC    C2423712   2.719   2.057   3.148  0.0565 -0.3655  0.9296
  119MYC    H4223713   2.794   1.977   3.151 -0.3499 -0.8201 -0.4051
  119MYC    H4323714   2.776   2.149   3.163 -1.4145  0.8485 -0.5805
  119MYC    C2523715   2.610   2.049   3.257 -0.9271  0.5589 -0.2237
  119MYC    H4423716   2.532   2.121   3.230 -0.0763  1.8787  0.7362
  119MYC    H4523717   2.562   1.950   3.267  1.1238 -0.8554 -3.0206
  119MYC    C2623718   2.665   2.093   3.395 -0.3366 -0.1533 -0.0044
  119MYC    H4623719   2.734   2.016   3.430 -1.0161  0.2545  2.4334
  119MYC    H4723720   2.703   2.196   3.389 -0.0885 -0.1991  0.7203
  119MYC    C2723721   2.552   2.098   3.496  0.8431 -0.2540 -1.3474
  119MYC    H4823722   2.472   2.166   3.462 -0.1517 -0.9515 -0.4521
  119MYC    H4923723   2.496   2.004   3.497 -1.5483  1.0759 -0.3313
  119MYC    C2823724   2.601   2.138   3.631  0.7204 -0.0094 -0.3661
  119MYC    H5023725   2.670   2.063   3.672  1.1423  0.8431  0.5281
  119MYC    H5123726   2.653   2.234   3.619  0.2577  0.2304 -0.5163
  119MYC    C2923727   2.482   2.169   3.735  0.1465  0.7013  0.5226
  119MYC    H5223728   2.423   2.254   3.700 -1.8304 -1.2047 -1.0490
  119MYC    H5323729   2.424   2.076   3.745 -1.1506  1.5896  1.5913
  119MYC    C3023730   2.542   2.185   3.881  0.8215 -0.4551  0.2491
  119MYC    H5423731   2.615   2.107   3.902 -0.0519 -1.3575  0.0534
  119MYC    H5523732   2.599   2.279   3.883 -0.8828  0.6823 -1.0164
  119MYC    C3123733   2.436   2.197   3.993  0.7662  0.1178  0.2309
  119MYC    H5623734   2.356   2.266   3.966 -1.4960 -2.1333  0.7849
  119MYC    H5723735   2.390   2.098   3.983  0.7601  0.2431 -1.1766
  119MYC    C3223736   2.501   2.230   4.132 -0.2182 -0.6621  0.2538
  119MYC    H5823737   2.578   2.155   4.151 -0.0658 -0.6602 -0.3587
  119MYC    H5923738   2.547   2.325   4.103 -1.6144 -0.3259 -1.0411
  119MYC    C3323739   2.405   2.226   4.245 -0.3928 -0.2294 -0.7316
  119MYC    H6023740   2.316   2.288   4.230 -0.0415  0.0074 -1.9587
  119MYC    H6123741   2.363   2.124   4.250 -0.1871 -0.3294 -1.0279
  119MYC    C3423742   2.472   2.277   4.373 -0.3578  0.6794  0.2847
  119MYC    H6223743   2.549   2.202   4.396  1.0115  2.4067  1.5948
  119MYC    H6323744   2.529   2.368   4.348 -2.1115  1.3855 -1.3968
  119MYC    C3523745   2.369   2.276   4.486 -0.4344  0.3163  0.1921
  119MYC    H6423746   2.293   2.354   4.479 -0.6749  0.3639  2.5461
  119MYC    H6523747   2.317   2.179   4.476  0.2804 -0.0350 -0.2274
  119MYC    C3623748   2.425   2.294   4.633 -0.1994 -0.5080  0.7855
  119MYC    H6623749   2.487   2.206   4.655  2.3687  1.5140  2.3473
  119MYC    H6723750   2.491   2.382   4.634  0.2570 -0.8480  1.6618
  119MYC    C3723751   2.326   2.310   4.754  0.5272 -0.1062  0.0201
  119MYC    H6823752   2.257   2.393   4.742  2.1386  1.3895  0.6589
  119MYC    H6923753   2.263   2.220   4.757  0.3385  0.0315  0.1475
  119MYC    C3823754   2.392   2.328   4.893  0.7772  0.2224  0.0642
  119MYC    H7023755   2.459   2.243   4.909 -0.3602 -0.7739 -0.2605
  119MYC    H7123756   2.464   2.410   4.893  0.8470  0.1874  1.7610
  119MYC    C3923757   2.289   2.345   5.013  0.3353 -0.1683 -0.1866
  119MYC    H7223758   2.250   2.441   4.978  2.3190  0.3127 -1.2644
  119MYC    H7323759   2.217   2.263   5.008  1.0214 -0.7674 -0.3990
  119MYC    C4023760   2.343   2.356   5.145 -0.1509  0.2308  0.0094
  119MYC    H7423761   2.387   2.256   5.154  0.9396  0.6422 -0.4879
  119MYC    H7523762   2.417   2.437   5.157 -1.6415  1.6655 -0.1898
  119MYC    C4123763   2.243   2.361   5.259 -0.0482  0.1529 -0.0942
  119MYC    H7623764   2.148   2.315   5.231  0.0860 -1.2281  1.5371
  119MYC    H7723765   2.277   2.290   5.335  2.9823  1.4830 -0.0544
  119MYC    C4223766   2.221   2.500   5.326 -0.9568  0.5195 -0.2137
  119MYC    H7823767   2.313   2.559   5.333 -0.9886  0.5712 -0.2325
  119MYC    H7923768   2.161   2.565   5.260 -0.2776  1.5600  0.1732
  119MYC    C4323769   2.146   2.492   5.466  0.0415  0.2612  0.4991
  119MYC    H8023770   2.212   2.447   5.541 -1.0071 -2.2697  0.0243
  119MYC    H8123771   2.061   2.423   5.464  0.6771 -0.5262  0.3139
  119MYC    H8223772   2.111   2.589   5.503 -1.0971  0.2921 -0.5731
  120MYC   HH1523773   2.226   3.714   5.341  0.0715  0.3930  0.2828
  120MYC    C8023774   2.214   3.673   5.240  0.2339 -0.0511  0.4414
  120MYC   H10023775   2.177   3.570   5.244 -0.0403  0.0420  0.3444
  120MYC   H10123776   2.146   3.731   5.177  0.2335 -0.5575 -0.0257
  120MYC    C7923777   2.361   3.677   5.193 -0.0909  0.5873  0.5322
  120MYC   H10223778   2.413   3.595   5.244  0.6557 -0.0071 -1.1032
  120MYC   H10323779   2.414   3.770   5.218  0.6625  1.4674 -3.5388
  120MYC    C7823780   2.379   3.653   5.041 -0.4080  0.1310 -0.2929
  120MYC   HH1423781   2.486   3.627   5.033 -0.8330 -1.7215 -0.5337
  120MYC   H10423782   2.369   3.739   4.975  1.4753  0.0752 -0.7066
  120MYC    C7723783   2.322   3.528   4.981  0.5982  0.1482 -0.8106
  120MYC   H10623784   2.213   3.524   4.989  0.6647 -3.1023 -0.1815
  120MYC   H10723785   2.355   3.450   5.051 -2.5065  0.5901  1.3309
  120MYC    C7623786   2.355   3.506   4.831 -0.2276  0.1737 -0.1311
  120MYC   H10823787   2.306   3.587   4.776 -0.5708  0.1863  0.1933
  120MYC   H10923788   2.306   3.412   4.805  0.6348 -0.0370 -1.0755
  120MYC    C7523789   2.502   3.505   4.782 -0.5961 -0.3138 -0.0019
  120MYC   H11023790   2.560   3.427   4.831  1.0781  0.4468 -0.6932
  120MYC   H11123791   2.560   3.596   4.800  1.3649 -2.0113  2.9942
  120MYC    C7423792   2.515   3.487   4.625  0.2488  0.1394  0.6012
  120MYC   H11223793   2.483   3.582   4.580 -0.0815 -1.3665 -2.6090
  120MYC   H11323794   2.445   3.414   4.585 -0.1237  1.2362 -0.8328
  120MYC    C7323795   2.654   3.446   4.583 -0.3986 -0.1563  0.3594
  120MYC   HH1323796   2.707   3.396   4.665  2.0212  1.1200 -0.3332
  120MYC   H11423797   2.712   3.535   4.556  0.3286 -0.9147 -0.6513
  120MYC    C7223798   2.658   3.357   4.455  0.3565 -0.2656 -0.1704
  120MYC   H11523799   2.606   3.400   4.368 -0.6031 -2.1208 -0.5578
  120MYC   H11623800   2.593   3.269   4.454  0.4911 -0.3673  0.0238
  120MYC    C7123801   2.794   3.316   4.399 -0.2279  0.5481 -0.1243
  120MYC   H11723802   2.837   3.237   4.462  1.2526 -0.8339 -2.6991
  120MYC   H11823803   2.870   3.394   4.390  3.9468 -3.1709 -0.5523
  120MYC    C7023804   2.785   3.248   4.260 -0.6180  0.6365  0.1012
  120MYC   H11923805   2.740   3.321   4.192  1.8156  1.3800 -0.8405
  120MYC   H12023806   2.720   3.160   4.255  0.6520 -0.2804 -1.6165
  120MYC    C6923807   2.918   3.204   4.197 -0.2022 -0.0192 -0.3401
  120MYC   H12123808   2.955   3.118   4.254 -1.4961 -1.1746 -1.1688
  120MYC   H12223809   2.989   3.285   4.219  0.8208 -0.6110 -1.3860
  120MYC    C6823810   2.898   3.172   4.047  0.0035 -0.3706  0.6485
  120MYC   HH1223811   2.862   3.257   3.987  0.4285 -1.7335 -1.6851
  120MYC   H12323812   2.823   3.092   4.046 -0.3381 -0.0525  0.0814
  120MYC    C6723813   3.030   3.123   3.983 -0.1810  0.3879  0.0672
  120MYC   H12423814   3.068   3.046   4.051  0.3156  2.4953  2.3000
  120MYC   H12523815   3.109   3.198   3.981  0.1175  0.1455 -3.2805
  120MYC    C6623816   3.029   3.068   3.842  0.4690 -0.4207  0.3363
  120MYC   H12623817   2.988   3.140   3.771 -0.5933 -1.0230  0.3196
  120MYC   H12723818   2.948   2.995   3.846 -1.9371  2.1006  1.4376
  120MYC    C6523819   3.161   3.002   3.784 -0.7973  0.3748 -0.6590
  120MYC   H12823820   3.173   2.902   3.829  1.9501 -0.0754 -2.2050
  120MYC   H12923821   3.243   3.074   3.793 -0.2365 -0.0004 -2.3444
  120MYC    C6423822   3.149   2.967   3.636  0.0816  0.6171  0.3221
  120MYC   H13023823   3.118   3.049   3.570  2.9296  2.0267  0.5882
  120MYC   H13123824   3.069   2.892   3.639  1.3446 -0.8176 -0.5570
  120MYC    C6323825   3.281   2.907   3.586 -0.1537  0.1113 -0.4577
  120MYC   HH1123826   3.308   2.825   3.653 -1.1263 -2.5295 -3.0947
  120MYC   H13223827   3.362   2.978   3.609  2.3848 -1.9079 -2.5549
  120MYC    C6223828   3.273   2.865   3.440 -0.0256 -0.1592  0.2514
  120MYC   H13323829   3.269   2.961   3.386 -0.3709  0.7264  1.7974
  120MYC   H13423830   3.179   2.810   3.424 -0.4592  0.4476  0.6685
  120MYC    C6123831   3.387   2.776   3.386 -0.2170 -0.7270 -0.4630
  120MYC   H13523832   3.376   2.680   3.437 -2.0158  0.0284  0.6291
  120MYC   H13623833   3.486   2.816   3.411  1.4053 -4.1531 -0.7602
  120MYC    C6023834   3.377   2.757   3.232  0.0748 -0.0868 -0.3414
  120MYC   H13723835   3.374   2.854   3.183  0.1500  1.2734  2.1843
  120MYC    C5823836   3.437   2.640   3.157 -0.0207 -0.3821  0.0956
  120MYC   H13823837   3.483   2.555   3.208 -0.1177 -1.1928 -1.1228
  120MYC    C5923838   3.289   2.652   3.174 -0.2405  0.3364  0.1376
  120MYC   H13923839   3.226   2.676   3.089  0.1606  0.2086 -0.1980
  120MYC   H14023840   3.235   2.598   3.252 -1.5701  3.4480  1.5528
  120MYC    C5723841   3.510   2.676   3.029 -1.2656  0.3121  0.3563
  120MYC   HH1023842   3.610   2.714   3.054 -0.2843 -2.3106  0.7023
  120MYC   H14123843   3.447   2.748   2.975 -1.5564 -0.5187 -0.4471
  120MYC    C5623844   3.513   2.555   2.938  0.1551  0.8463  0.4302
  120MYC   H14223845   3.411   2.527   2.909  1.5544 -1.6581 -2.7878
  120MYC   H14323846   3.556   2.469   2.991 -0.3255  0.9408  0.9765
  120MYC    C5523847   3.576   2.575   2.795 -0.2855 -0.1831  0.1297
  120MYC   H14423848   3.657   2.649   2.791 -1.1057  0.8132  1.3549
  120MYC   H14523849   3.505   2.623   2.728  0.7011 -1.5664 -2.0001
  120MYC    C5423850   3.623   2.447   2.723 -0.4926 -0.5713 -0.1674
  120MYC   H14623851   3.537   2.378   2.717 -0.2275 -1.1611  1.9446
  120MYC   H14723852   3.686   2.388   2.791  1.3236  1.9821  0.5242
  120MYC    C5323853   3.706   2.476   2.594 -1.5717 -0.1520  0.6646
  120MYC   H14823854   3.786   2.550   2.604 -1.9437  0.6257 -1.5436
  120MYC   H14923855   3.639   2.528   2.525  0.6428 -0.9325 -2.2586
  120MYC    C5223856   3.762   2.347   2.522  0.0990  0.2220  0.2242
  120MYC    H9923857   3.804   2.284   2.601 -0.8347 -1.0468 -0.2468
  120MYC   H15023858   3.850   2.367   2.461  0.9130  1.0038  1.6091
  120MYC    C5123859   3.654   2.263   2.449  0.0535 -0.2570 -0.4752
  120MYC    H9723860   3.583   2.327   2.395  1.0442  1.8325  0.5586
  120MYC    H9823861   3.588   2.217   2.523  1.9328 -1.4814  0.5275
  120MYC    C5023862   3.706   2.146   2.366 -0.1067  0.4905  0.6000
  120MYC    H9523863   3.724   2.066   2.438 -0.0057 -0.2141 -0.1916
  120MYC    H9623864   3.796   2.170   2.308 -1.2452 -0.9099 -1.8989
  120MYC    C4923865   3.607   2.095   2.254 -0.6225  0.4072 -0.3240
  120MYC    H9323866   3.613   2.164   2.169  1.6647  2.5004  1.4130
  120MYC    H9423867   3.505   2.096   2.293 -1.7956 -1.8858 -2.9301
  120MYC    C4823868   3.655   1.956   2.196 -0.6022 -0.6525  0.1230
  120MYC    H9123869   3.584   1.908   2.128 -0.3553  0.2884 -0.8284
  120MYC    H9223870   3.675   1.890   2.281  4.1283  0.5266  0.2319
  120MYC    C4723871   3.790   1.975   2.115 -0.0329 -0.0191 -0.6215
  120MYC    H8923872   3.862   2.042   2.162 -0.3864  0.6225 -0.9675
  120MYC    H9023873   3.780   2.022   2.016 -0.0590 -0.2374 -0.7227
  120MYC    C4623874   3.863   1.841   2.106  0.4122 -0.2706  0.0802
  120MYC    H8723875   3.793   1.758   2.091 -1.0288  0.8139  0.6414
  120MYC    H8823876   3.917   1.820   2.200 -1.3682 -2.1046  0.7709
  120MYC    C4523877   3.975   1.854   2.006  0.6376 -0.6036  0.1623
  120MYC    H8523878   4.041   1.939   2.029 -0.1562  1.8054 -4.9600
  120MYC    H8623879   3.938   1.901   1.914 -0.5766 -0.1078  0.8934
  120MYC    C4423880   4.070   1.736   1.974 -0.6998 -0.5728 -0.3567
  120MYC    H8323881   4.118   1.702   2.066  2.0814  0.4244 -1.3403
  120MYC    H8423882   4.153   1.770   1.912 -0.4161  0.0464  0.3539
  120MYC    C1823883   3.999   1.611   1.922 -0.1596 -0.1513 -0.5322
  120MYC    H3123884   3.922   1.577   1.992  0.3197 -1.1220 -0.4554
  120MYC    C1723885   3.974   1.582   1.775 -0.1469  0.4759  0.5367
  120MYC    H3023886   3.991   1.667   1.708  1.2862 -0.9865 -1.0704
  120MYC    C1923887   4.095   1.520   1.843  0.6118  0.8418  0.4711
  120MYC    H3223888   4.184   1.563   1.798  0.3745 -0.7822 -1.7486
  120MYC    H3323889   4.084   1.414   1.864 -2.8505  1.4914  2.7469
  120MYC    C1623890   3.865   1.489   1.719 -0.0631  0.6513 -0.8509
  120MYC    H2823891   3.848   1.404   1.786 -0.7344  1.1463 -0.3692
  120MYC    H2923892   3.895   1.439   1.627 -1.4288 -0.8507 -0.5356
  120MYC    C1523893   3.733   1.553   1.697  0.1021 -0.1884  0.1784
  120MYC    H2623894   3.669   1.478   1.647  3.1593 -0.4189 -3.8726
  120MYC    H2723895   3.752   1.624   1.616  0.4980 -1.9095 -1.3233
  120MYC    C1423896   3.671   1.615   1.830 -0.4030 -0.2062  0.7840
  120MYC    H2423897   3.732   1.694   1.875  0.6584 -1.2827  1.3285
  120MYC    H2523898   3.687   1.539   1.908  1.3972 -1.4001 -0.6271
  120MYC    C1323899   3.528   1.662   1.804  0.0074 -0.2518 -0.0925
  120MYC    H2223900   3.463   1.589   1.854 -0.6416  0.1695 -0.3036
  120MYC    H2323901   3.511   1.669   1.696 -0.0516 -0.6163 -0.1071
  120MYC    C1223902   3.489   1.799   1.870 -0.3289  0.2383 -0.2015
  120MYC    H2023903   3.556   1.879   1.836 -0.1204 -0.9957 -2.9744
  120MYC    H2123904   3.496   1.782   1.978 -0.3347 -1.0272 -0.3885
  120MYC    C1123905   3.339   1.835   1.846 -0.2492  0.1787  1.0030
  120MYC    H1823906   3.278   1.745   1.831 -0.6424  0.7860 -1.5110
  120MYC    H1923907   3.330   1.875   1.745  0.9618 -0.7731  0.4907
  120MYC    C1023908   3.279   1.919   1.954 -0.1195  0.0263 -0.1034
  120MYC    H1623909   3.310   1.874   2.049  1.2677  0.2647 -0.4254
  120MYC    H1723910   3.170   1.926   1.950 -0.1900 -1.1658 -0.8802
  120MYC     C923911   3.332   2.067   1.938 -0.7657  0.0868 -0.0427
  120MYC    H1423912   3.304   2.087   1.834  0.7438  0.7784 -0.3326
  120MYC    H1523913   3.441   2.079   1.939 -0.8309  1.2976  3.3142
  120MYC     C823914   3.268   2.152   2.057 -0.1344  0.1278  0.4755
  120MYC    H1223915   3.281   2.097   2.151  1.1920  0.1247  0.2974
  120MYC    H1323916   3.160   2.167   2.046 -0.2391 -1.4665 -1.0398
  120MYC     C723917   3.319   2.295   2.074  0.2348  0.1182 -0.1706
  120MYC    H1023918   3.297   2.353   1.983 -1.5086 -0.2831 -0.0321
  120MYC    H1123919   3.429   2.292   2.081  0.2758 -2.9388 -0.7482
  120MYC     C623920   3.257   2.364   2.194  0.3814  0.1124 -0.4198
  120MYC     H823921   3.277   2.314   2.290  0.8284 -0.1532 -0.6441
  120MYC     H923922   3.150   2.360   2.170  0.5767  0.8663 -1.4990
  120MYC     C523923   3.292   2.513   2.223 -0.0619 -0.3151 -0.1506
  120MYC     H623924   3.265   2.571   2.134 -0.9912  2.1573  1.6147
  120MYC     H723925   3.397   2.533   2.244 -0.3631  2.4375 -0.8659
  120MYC     C423926   3.200   2.567   2.329  0.4777 -0.4884 -0.3424
  120MYC     H423927   3.099   2.575   2.289  0.4090 -0.7914 -0.2317
  120MYC     H523928   3.231   2.671   2.343 -2.3433  0.2185  1.4897
  120MYC     C223929   3.200   2.503   2.472 -0.1862  1.1398 -0.5734
  120MYC     H223930   3.154   2.405   2.455  3.0250 -0.6509  0.3139
  120MYC     O323931   3.329   2.474   2.522  0.1004 -0.3099 -0.2783
  120MYC     H323932   3.382   2.555   2.533  0.6389 -0.4180 -1.8650
  120MYC     C123933   3.120   2.588   2.577  0.9200  0.4415 -0.9024
  120MYC     H123934   3.024   2.590   2.524  1.6179  1.9370 -2.1786
  120MYC    C8123935   3.167   2.732   2.583  0.5345 -0.1797 -0.3177
  120MYC    O8223936   3.281   2.770   2.603 -0.1101  0.0824  0.3852
  120MYC    O8323937   3.066   2.820   2.566 -0.3341  0.2307 -0.8270
  120MYC   H10523938   3.111   2.906   2.567 -1.2139  0.7349 -2.2649
  120MYC    C2023939   3.106   2.529   2.718  0.0406 -0.3734 -0.2524
  120MYC    H3423940   3.191   2.554   2.782 -1.5043  1.2379  1.2715
  120MYC    H3523941   3.024   2.581   2.768  1.1311  1.6276 -0.4415
  120MYC    C2123942   3.088   2.375   2.721  0.2410 -0.9692 -0.2204
  120MYC    H3623943   3.021   2.349   2.638  1.6873  1.0962 -2.1803
  120MYC    H3723944   3.187   2.330   2.706 -0.5430 -2.3774 -1.3229
  120MYC    C2223945   3.033   2.323   2.853  0.4135  0.5728  0.6971
  120MYC    H3823946   2.945   2.382   2.880  1.5884  1.9873  1.5616
  120MYC    H3923947   3.003   2.219   2.834 -1.3020  1.3928 -1.6994
  120MYC    C2323948   3.134   2.341   2.974  0.0549  0.0593  0.0771
  120MYC    H4023949   3.223   2.283   2.945  1.1793  0.0637  3.1672
  120MYC    H4123950   3.168   2.444   2.991  0.2775 -0.2425  1.5297
  120MYC    C2423951   3.071   2.294   3.104  0.4209  0.0452 -0.3458
  120MYC    H4223952   3.008   2.206   3.089 -1.2876  0.6371  2.5755
  120MYC    H4323953   3.149   2.263   3.175 -0.6138  0.9987  1.2878
  120MYC    C2523954   2.982   2.392   3.182  0.1214  0.3031  0.2775
  120MYC    H4423955   3.035   2.488   3.184  2.3342 -0.7496 -2.0405
  120MYC    H4523956   2.895   2.415   3.120  0.4936  0.7837 -0.0678
  120MYC    C2623957   2.947   2.339   3.328  0.8565  0.1591  0.3550
  120MYC    H4623958   2.893   2.244   3.324 -0.6599  0.8777  2.2100
  120MYC    H4723959   3.036   2.318   3.389 -0.5115 -1.8475  1.7662
  120MYC    C2723960   2.856   2.440   3.403  0.2951 -0.7169 -0.6031
  120MYC    H4823961   2.785   2.479   3.329  0.5543  2.4259  0.6887
  120MYC    H4923962   2.798   2.386   3.478 -1.3655  1.7464 -0.0112
  120MYC    C2823963   2.928   2.550   3.484 -0.6042  0.1903 -0.2812
  120MYC    H5023964   2.996   2.505   3.557 -1.8400 -0.3015  0.6002
  120MYC    H5123965   2.990   2.605   3.412  1.6170 -1.0930  0.5465
  120MYC    C2923966   2.829   2.639   3.568  0.0444 -0.4370 -0.2086
  120MYC    H5223967   2.886   2.721   3.613 -3.7151  1.8032  0.8674
  120MYC    H5323968   2.755   2.693   3.509  0.3705 -2.0859 -2.2570
  120MYC    C3023969   2.759   2.569   3.683  0.9550 -0.2362 -0.4882
  120MYC    H5423970   2.683   2.506   3.635  1.8319 -1.1437 -0.7111
  120MYC    H5523971   2.822   2.496   3.734  1.4917  0.4691 -0.1123
  120MYC    C3123972   2.664   2.662   3.772 -0.3371  0.0377  0.4072
  120MYC    H5623973   2.739   2.738   3.796  0.0600  0.6105 -2.3475
  120MYC    H5723974   2.589   2.710   3.708  1.0170  0.6857 -0.7475
  120MYC    C3223975   2.609   2.599   3.899  0.2203  0.0611  0.0839
  120MYC    H5823976   2.532   2.522   3.888 -1.7457  1.6355  1.9084
  120MYC    H5923977   2.695   2.567   3.959  1.8748  2.6909 -0.7048
  120MYC    C3323978   2.548   2.700   3.993  0.6697  0.3482  0.0368
  120MYC    H6023979   2.618   2.782   4.013  1.1495 -0.5389  2.2516
  120MYC    H6123980   2.469   2.753   3.939  0.5093  0.2559  0.1797
  120MYC    C3423981   2.489   2.640   4.121  0.3319 -0.2210 -0.1217
  120MYC    H6223982   2.403   2.578   4.093 -0.5765  0.5040  0.9589
  120MYC    H6323983   2.565   2.572   4.158  1.9878  1.0431 -1.0551
  120MYC    C3523984   2.439   2.745   4.221 -0.7578  0.0442 -0.2730
  120MYC    H6423985   2.521   2.816   4.238  0.3946 -1.2703 -0.1433
  120MYC    H6523986   2.350   2.793   4.177 -1.6244 -0.2396  1.1123
  120MYC    C3623987   2.410   2.685   4.354 -0.4656 -0.3200 -0.6343
  120MYC    H6623988   2.341   2.605   4.325 -2.6579  0.6243  1.6205
  120MYC    H6723989   2.505   2.655   4.398 -1.2083 -0.8276  0.6788
  120MYC    C3723990   2.338   2.770   4.456  0.6914 -0.7088 -0.6350
  120MYC    H6823991   2.373   2.874   4.458 -0.0063 -0.4704  1.1795
  120MYC    H6923992   2.235   2.788   4.420  0.5926 -2.2977 -1.2344
  120MYC    C3823993   2.327   2.715   4.600  0.7935 -0.2086 -0.1679
  120MYC    H7023994   2.282   2.616   4.589 -0.4156  0.2351  0.5489
  120MYC    H7123995   2.429   2.706   4.639  0.0778  1.9832  2.4821
  120MYC    C3923996   2.250   2.803   4.702 -0.1181  0.3078  0.1137
  120MYC    H7223997   2.285   2.907   4.701 -1.4844  0.7933 -0.4144
  120MYC    H7323998   2.143   2.805   4.677 -1.0199 -1.0773  3.3209
  120MYC    C4023999   2.257   2.734   4.849 -0.2024  0.1663  0.6205
  120MYC    H7424000   2.231   2.627   4.846  0.6338 -0.0325  0.3313
  120MYC    H7524001   2.361   2.749   4.877 -0.3339  1.7654  0.3645
  120MYC    C4124002   2.161   2.811   4.942 -0.3273 -0.1672 -0.4247
  120MYC    H7624003   2.186   2.917   4.947 -2.2323  0.3883 -1.7063
  120MYC    H7724004   2.068   2.812   4.884 -2.0116  2.2809  2.1049
  120MYC    C4224005   2.151   2.757   5.083  0.3588  0.6011  0.0754
  120MYC    H7824006   2.103   2.658   5.077  3.4364 -1.0176  0.0133
  120MYC    H7924007   2.252   2.746   5.124  0.5868  1.4501 -0.2229
  120MYC    C4324008   2.073   2.854   5.177 -0.3527 -0.1716 -0.6140
  120MYC    H8024009   2.123   2.951   5.183  0.7105 -0.6425 -1.4915
  120MYC    H8124010   2.070   2.811   5.277  0.8568  0.7351 -0.1705
  120MYC    H8224011   1.973   2.864   5.131 -0.5241  2.5033  0.1536
  121MYC   HH1524012   3.361   3.850   5.578  0.6991 -1.1837  1.1974
  121MYC    C8024013   3.333   3.746   5.561 -1.0290 -0.6679  0.6167
  121MYC   H10024014   3.330   3.696   5.658  2.4277 -2.8708 -0.2398
  121MYC   H10124015   3.231   3.758   5.524 -1.2369  0.8898  1.6481
  121MYC    C7924016   3.431   3.679   5.464 -0.1119  0.1924  0.1168
  121MYC   H10224017   3.514   3.632   5.517  1.9374  1.0964 -2.0879
  121MYC   H10324018   3.477   3.758   5.404 -0.2728 -0.2339 -0.5780
  121MYC    C7824019   3.365   3.590   5.359  0.4093  0.4547  0.7157
  121MYC   HH1424020   3.280   3.645   5.318  1.2685  0.4327 -1.2514
  121MYC   H10424021   3.330   3.497   5.405  1.0132 -0.5324 -0.7472
  121MYC    C7724022   3.454   3.564   5.232 -0.0763  0.0047 -0.6680
  121MYC   H10624023   3.541   3.517   5.280 -0.7412  1.3151  2.0582
  121MYC   H10724024   3.480   3.661   5.189 -1.8232  1.0727  0.5423
  121MYC    C7624025   3.398   3.468   5.126 -0.4167 -0.1157  0.5920
  121MYC   H10824026   3.326   3.522   5.062 -0.8630 -0.3547  0.8864
  121MYC   H10924027   3.346   3.381   5.167  0.4136 -0.5746  0.6704
  121MYC    C7524028   3.506   3.419   5.024 -0.8291  0.2206 -0.2752
  121MYC   H11024029   3.579   3.368   5.087 -0.4286  1.0056 -0.0956
  121MYC   H11124030   3.556   3.503   4.975  2.3665 -0.8251  0.9253
  121MYC    C7424031   3.460   3.324   4.916  0.2464  0.5617 -0.2416
  121MYC   H11224032   3.408   3.389   4.845 -0.7223  0.1715  0.0939
  121MYC   H11324033   3.377   3.257   4.942 -0.4507  1.2775 -0.5412
  121MYC    C7324034   3.578   3.269   4.836  0.4600  0.0563 -0.5978
  121MYC   HH1324035   3.581   3.162   4.813  4.3972  0.3314 -2.1538
  121MYC   H11424036   3.666   3.268   4.901 -0.3609  0.3713  0.5608
  121MYC    C7224037   3.606   3.337   4.697 -0.6580 -0.6079  0.8093
  121MYC   H11524038   3.622   3.444   4.709 -0.5520 -0.5837  0.4614
  121MYC   H11624039   3.512   3.349   4.642  0.9080  0.8368 -1.7567
  121MYC    C7124040   3.722   3.277   4.613 -0.3512 -0.6239  0.0726
  121MYC   H11724041   3.679   3.181   4.585 -1.2566  0.4513 -2.5022
  121MYC   H11824042   3.817   3.271   4.669 -0.0638 -0.5074 -0.3969
  121MYC    C7024043   3.739   3.365   4.486 -0.2983 -0.5279  0.0417
  121MYC   H11924044   3.803   3.450   4.512 -0.5676 -0.8716  1.9779
  121MYC   H12024045   3.638   3.395   4.457 -0.2832 -0.9812 -0.4978
  121MYC    C6924046   3.810   3.287   4.366  0.9199  0.8294 -0.1970
  121MYC   H12124047   3.773   3.184   4.358  1.6583  0.5203  0.2496
  121MYC   H12224048   3.916   3.271   4.389  1.0251  2.0354  0.2464
  121MYC    C6824049   3.805   3.366   4.233  0.2513 -0.4828 -1.0510
  121MYC   HH1224050   3.844   3.466   4.253 -0.3103 -0.3742 -0.4430
  121MYC   H12324051   3.701   3.367   4.199 -0.5805 -1.7192  1.2071
  121MYC    C6724052   3.899   3.299   4.124  0.1480  0.1737 -0.5230
  121MYC   H12424053   3.853   3.203   4.096  2.2346 -1.1486  0.3869
  121MYC   H12524054   3.998   3.280   4.166  0.9814  2.5494 -1.2282
  121MYC    C6624055   3.902   3.386   3.996  0.3284  0.4716 -0.0861
  121MYC   H12624056   3.930   3.487   4.026  1.0484  0.6842 -1.4018
  121MYC   H12724057   3.805   3.403   3.949  0.7887  4.1055  0.0013
  121MYC    C6524058   4.009   3.329   3.894 -0.0529  0.0592  0.0449
  121MYC   H12824059   3.990   3.221   3.886  1.1510 -0.2114  0.6324
  121MYC   H12924060   4.115   3.341   3.922 -0.1503 -2.0145  1.4852
  121MYC    C6424061   3.996   3.395   3.758 -0.1000  0.2044 -0.7803
  121MYC   H13024062   4.043   3.493   3.771 -0.8396  0.2655  2.1044
  121MYC   H13124063   3.889   3.411   3.738 -0.5203 -0.8818  0.4368
  121MYC    C6324064   4.081   3.323   3.652  0.5093 -0.6284  0.3609
  121MYC   HH1124065   4.039   3.224   3.634  2.1789 -1.1409 -0.9434
  121MYC   H13224066   4.186   3.305   3.678 -0.0506 -2.8101  1.3245
  121MYC    C6224067   4.066   3.399   3.517  0.1691  0.1526 -0.2778
  121MYC   H13324068   4.109   3.500   3.527 -1.9421  0.8815  4.1450
  121MYC   H13424069   3.957   3.403   3.500  0.1063  2.4254  0.2659
  121MYC    C6124070   4.129   3.308   3.405  0.3609  0.7325 -0.2903
  121MYC   H13524071   4.068   3.217   3.402  1.1361  0.2027 -0.4280
  121MYC   H13624072   4.236   3.292   3.422 -0.2608 -0.8865  2.8591
  121MYC    C6024073   4.117   3.370   3.268  0.5028  0.0319  0.6207
  121MYC   H13724074   4.174   3.462   3.259  1.1331 -0.1096  2.6433
  121MYC    C5824075   4.094   3.284   3.140 -0.2428  0.2664 -0.2748
  121MYC   H13824076   4.066   3.180   3.147  0.1920  0.2599  2.8215
  121MYC    C5924077   3.986   3.376   3.193 -0.1834 -0.8056 -0.0730
  121MYC   H13924078   3.961   3.460   3.130  1.9852  0.9836  1.2676
  121MYC   H14024079   3.899   3.336   3.244 -0.8781  0.9006  0.1536
  121MYC    C5724080   4.177   3.320   3.019  0.1992  0.0055 -0.9681
  121MYC   HH1024081   4.268   3.261   3.032 -0.6103 -1.0177  0.3306
  121MYC   H14124082   4.202   3.427   3.016  0.2432 -0.0080 -1.0918
  121MYC    C5624083   4.099   3.286   2.893 -0.5653 -0.3173 -0.4947
  121MYC   H14224084   3.999   3.330   2.901 -0.6231 -0.2140 -1.5435
  121MYC   H14324085   4.085   3.177   2.884  1.9311 -0.6899 -0.4853
  121MYC    C5524086   4.165   3.339   2.766 -0.8254 -0.2779  0.1595
  121MYC   H14424087   4.274   3.343   2.764 -0.8197 -0.0222 -2.4635
  121MYC   H14524088   4.138   3.445   2.753 -1.2712 -0.4580 -0.4085
  121MYC    C5424089   4.108   3.267   2.640  0.1112 -0.5674  0.2378
  121MYC   H14624090   4.004   3.300   2.633  0.5857  1.2330  1.1559
  121MYC   H14724091   4.114   3.157   2.638 -0.9201 -0.6453 -1.9605
  121MYC    C5324092   4.165   3.331   2.507 -0.6811  0.1233 -0.1685
  121MYC   H14824093   4.267   3.367   2.523 -1.0689  1.1426  0.1128
  121MYC   H14924094   4.112   3.422   2.478 -0.4698  0.2582 -0.1340
  121MYC    C5224095   4.160   3.247   2.383 -1.2109  0.3604  0.1176
  121MYC    H9924096   4.200   3.148   2.408 -0.6252  0.9962  1.8802
  121MYC   H15024097   4.222   3.300   2.310  2.0089 -1.4245  1.3186
  121MYC    C5124098   4.026   3.229   2.318 -0.0148  0.2410 -0.5859
  121MYC    H9724099   3.956   3.311   2.339 -1.6995 -1.3659  0.3249
  121MYC    H9824100   3.989   3.133   2.355  1.0599 -0.4876 -1.3388
  121MYC    C5024101   4.031   3.214   2.170 -0.0239  0.6701  0.2560
  121MYC    H9524102   4.087   3.120   2.165 -1.7494 -0.5752  2.4510
  121MYC    H9624103   4.087   3.296   2.124  0.7783  0.8873  1.5796
  121MYC    C4924104   3.894   3.199   2.108 -0.1251  0.5230  0.3258
  121MYC    H9324105   3.856   3.301   2.121  2.5187  1.8327 -1.2725
  121MYC    H9424106   3.833   3.121   2.154 -0.8978 -0.8254 -2.7190
  121MYC    C4824107   3.902   3.179   1.957  0.1515  0.0402 -0.3903
  121MYC    H9124108   3.962   3.254   1.906 -0.3284  1.3504  0.9008
  121MYC    H9224109   3.798   3.191   1.923  0.6008  1.4498 -1.3464
  121MYC    C4724110   3.960   3.036   1.929  0.0086  0.2183 -0.0667
  121MYC    H8924111   3.883   2.962   1.954  0.4372 -1.0246 -2.2453
  121MYC    H9024112   4.051   3.022   1.988 -0.8713 -2.0558  0.8498
  121MYC    C4624113   3.995   3.014   1.778  0.4389 -0.6167  0.9697
  121MYC    H8724114   4.010   2.908   1.754  0.6978 -0.1992 -0.8474
  121MYC    H8824115   4.090   3.067   1.763  0.7865 -0.8614  2.2090
  121MYC    C4524116   3.884   3.054   1.679  0.1191  0.0214  0.4832
  121MYC    H8524117   3.916   3.038   1.576  0.5716 -0.4678  0.6932
  121MYC    H8624118   3.855   3.159   1.684  0.1613  0.0591 -0.0464
  121MYC    C4424119   3.750   2.971   1.703 -0.0135 -0.1110 -0.0243
  121MYC    H8324120   3.729   2.981   1.810 -0.2072  0.5960 -0.1247
  121MYC    H8424121   3.770   2.865   1.684  1.4518  0.3216 -0.9987
  121MYC    C1824122   3.622   3.023   1.642 -0.2059  0.0142  0.2181
  121MYC    H3124123   3.621   2.992   1.538  0.2367 -0.4422  0.3479
  121MYC    C1724124   3.485   3.039   1.702  0.4722  0.0782 -0.0741
  121MYC    H3024125   3.479   3.001   1.804  0.6480  1.1809  0.3548
  121MYC    C1924126   3.565   3.161   1.671 -0.7979 -0.4419  0.5363
  121MYC    H3224127   3.605   3.216   1.755 -1.6622  3.0438 -1.1598
  121MYC    H3324128   3.557   3.216   1.577 -0.2028 -0.3460  0.5377
  121MYC    C1624129   3.356   3.006   1.635  0.3587 -0.2827  0.3770
  121MYC    H2824130   3.304   2.919   1.676 -0.4648 -0.2996 -0.6503
  121MYC    H2924131   3.390   2.973   1.536  0.0097  0.3278  0.0464
  121MYC    C1524132   3.257   3.125   1.628  0.3186  0.3242 -0.5136
  121MYC    H2624133   3.175   3.081   1.571 -2.8685  0.6221  3.4357
  121MYC    H2724134   3.291   3.214   1.573 -0.4195  0.5629 -0.5903
  121MYC    C1424135   3.204   3.162   1.766 -0.7821 -0.3909 -0.1003
  121MYC    H2424136   3.134   3.244   1.750  0.3663  0.3502 -1.5468
  121MYC    H2524137   3.277   3.207   1.834 -2.5847  0.5275  1.3115
  121MYC    C1324138   3.141   3.047   1.848 -0.5484  0.1578 -0.7760
  121MYC    H2224139   3.196   2.952   1.857  1.3276  1.2804  0.0502
  121MYC    H2324140   3.045   3.020   1.801 -0.5564 -0.6205 -0.3339
  121MYC    C1224141   3.100   3.081   1.996  0.0103 -0.4149  0.3577
  121MYC    H2024142   3.034   3.168   1.995  0.3119 -0.1684 -1.3185
  121MYC    H2124143   3.192   3.105   2.050 -0.0732 -1.3242  0.9287
  121MYC    C1124144   3.021   2.973   2.074  0.0287  0.4180 -0.0725
  121MYC    H1824145   3.079   2.880   2.068  0.6766  0.6273  2.1689
  121MYC    H1924146   2.925   2.951   2.027  0.8160 -2.3909 -0.5657
  121MYC    C1024147   2.978   3.020   2.213  0.5440  0.3566  0.5628
  121MYC    H1624148   2.918   2.942   2.263 -0.7036  0.1934 -1.0937
  121MYC    H1724149   2.914   3.104   2.184  0.0858 -0.8841 -2.3651
  121MYC     C924150   3.101   3.063   2.298  0.3196  0.3474  0.2711
  121MYC    H1424151   3.179   3.124   2.253  1.1780 -2.0725 -1.7668
  121MYC    H1524152   3.158   2.975   2.330  0.2781  0.1038 -0.3113
  121MYC     C824153   3.057   3.136   2.427 -0.2980 -0.4843  0.7622
  121MYC    H1224154   2.983   3.077   2.483  0.1166 -0.5600  1.2368
  121MYC    H1324155   3.008   3.230   2.400  1.5046  0.7676  1.6652
  121MYC     C724156   3.181   3.176   2.512 -0.8859 -0.3819  0.1899
  121MYC    H1024157   3.252   3.239   2.456 -2.4292 -0.9317 -2.6013
  121MYC    H1124158   3.250   3.096   2.541 -0.5740  0.1267  0.8745
  121MYC     C624159   3.138   3.266   2.629 -1.1627 -0.0017 -0.7564
  121MYC     H824160   3.088   3.358   2.594 -1.2677  0.2719  0.0815
  121MYC     H924161   3.225   3.300   2.686 -1.6732 -2.3649  1.6542
  121MYC     C524162   3.057   3.199   2.736  0.7310  0.1245  0.2529
  121MYC     H624163   3.096   3.097   2.740  0.0139 -0.1126  3.1097
  121MYC     H724164   2.956   3.184   2.695  0.6659  0.9142  0.0960
  121MYC     C424165   3.055   3.253   2.877 -0.7108 -0.4444 -0.3540
  121MYC     H424166   3.015   3.355   2.881  3.1781  1.1871  2.2189
  121MYC     H524167   3.158   3.276   2.906 -0.9188  1.5534 -1.0026
  121MYC     C224168   2.972   3.182   2.989  0.1933  0.4181  0.6932
  121MYC     H224169   2.972   3.254   3.071 -0.5340 -0.4464  1.4836
  121MYC     O324170   2.837   3.159   2.941 -0.1745 -0.0565 -0.0701
  121MYC     H324171   2.842   3.080   2.885 -0.4791 -0.3889  0.3615
  121MYC     C124172   3.031   3.041   3.045  0.1360  0.4463  0.0493
  121MYC     H124173   3.125   3.065   3.096 -0.2064  0.9628  0.4419
  121MYC    C8124174   3.068   2.948   2.928  0.0285 -0.0548 -0.7324
  121MYC    O8224175   2.988   2.884   2.861  0.1236 -0.0422  0.0494
  121MYC    O8324176   3.196   2.931   2.903  0.4391 -0.0217  0.3538
  121MYC   H10524177   3.193   2.891   2.815  0.2519 -1.5329  1.0018
  121MYC    C2024178   2.940   2.971   3.150 -0.1572  0.1379 -0.1796
  121MYC    H3424179   2.852   2.924   3.105 -0.7256  0.8317  0.1875
  121MYC    H3524180   2.997   2.885   3.189 -0.5996 -0.8241 -1.5949
  121MYC    C2124181   2.901   3.062   3.263  0.4502  0.2916 -0.1587
  121MYC    H3624182   2.988   3.109   3.310 -0.5341  1.3185  0.6831
  121MYC    H3724183   2.853   3.149   3.217  0.3092  0.6050  0.5773
  121MYC    C2224184   2.810   3.002   3.372 -0.0058 -0.1538 -0.6374
  121MYC    H3824185   2.719   2.959   3.330  0.9428 -2.2716 -0.6327
  121MYC    H3924186   2.860   2.918   3.423  0.7641  0.8836  0.3812
  121MYC    C2324187   2.765   3.110   3.476 -0.6926 -0.3307 -0.0201
  121MYC    H4024188   2.856   3.145   3.526 -0.7903 -1.4184  0.9534
  121MYC    H4124189   2.712   3.188   3.419 -1.4093 -0.4639  0.4490
  121MYC    C2424190   2.685   3.045   3.583  1.1978  0.9945 -0.6822
  121MYC    H4224191   2.598   2.996   3.537  0.9227  0.9920 -0.1665
  121MYC    H4324192   2.742   2.969   3.638  1.4527  0.6290 -1.4277
  121MYC    C2524193   2.643   3.145   3.699  0.0731 -1.1252  0.2326
  121MYC    H4424194   2.733   3.156   3.761 -1.0618  1.2577  1.5960
  121MYC    H4524195   2.616   3.240   3.652  1.3742 -0.5808  0.5359
  121MYC    C2624196   2.531   3.093   3.781  0.0097  1.0039  0.1154
  121MYC    H4624197   2.438   3.112   3.726  0.8100  2.0530 -0.9463
  121MYC    H4724198   2.549   2.987   3.801  0.0283  0.5460 -2.0974
  121MYC    C2724199   2.533   3.165   3.921 -0.6462  0.3685  0.3943
  121MYC    H4824200   2.609   3.126   3.989 -0.5373  0.1942  0.1730
  121MYC    H4924201   2.549   3.273   3.911 -0.5575  0.3105 -0.1266
  121MYC    C2824202   2.412   3.129   4.006  0.2942  0.4229 -0.1988
  121MYC    H5024203   2.326   3.189   3.976  0.6021 -0.5621 -3.4904
  121MYC    H5124204   2.383   3.023   3.997 -2.4328  1.1421 -0.6935
  121MYC    C2924205   2.428   3.158   4.157 -0.2146 -0.4205  0.5479
  121MYC    H5224206   2.507   3.095   4.200  0.0723  1.2918  2.6801
  121MYC    H5324207   2.471   3.258   4.166 -0.8147 -0.2178  1.2290
  121MYC    C3024208   2.295   3.144   4.231 -0.6812 -0.2401  0.1931
  121MYC    H5424209   2.237   3.226   4.189 -1.5892 -1.3256 -0.7256
  121MYC    H5524210   2.238   3.051   4.221 -0.0037 -0.9059  1.9930
  121MYC    C3124211   2.317   3.182   4.378 -0.2418 -0.2920 -0.2680
  121MYC    H5624212   2.394   3.118   4.424 -0.7977 -0.1504  0.8863
  121MYC    H5724213   2.344   3.287   4.391  1.2843 -0.7735  0.7865
  121MYC    C3224214   2.187   3.157   4.466  0.9907  0.2828  0.5379
  121MYC    H5824215   2.100   3.201   4.416  1.3317 -1.7230 -2.0423
  121MYC    H5924216   2.174   3.049   4.474  1.4720  0.0471 -1.2856
  121MYC    C3324217   2.197   3.215   4.608  0.4142  0.0102 -0.4094
  121MYC    H6024218   2.271   3.165   4.671  0.3410 -0.1807 -0.4727
  121MYC    H6124219   2.234   3.318   4.603 -1.2848  0.7140  0.5845
  121MYC    C3424220   2.065   3.203   4.682 -0.3855 -0.3209  0.5553
  121MYC    H6224221   1.989   3.248   4.618  0.9883  0.3169 -0.6907
  121MYC    H6324222   2.042   3.097   4.696 -3.5838  0.1598 -0.2503
  121MYC    C3524223   2.081   3.269   4.826  0.5735 -0.2060 -0.2425
  121MYC    H6424224   2.176   3.251   4.879  1.4744 -0.8847 -2.0120
  121MYC    H6524225   2.080   3.377   4.811 -0.1308 -0.3229 -1.0527
  121MYC    C3624226   1.955   3.238   4.912 -0.5051  0.1251  0.1135
  121MYC    H6624227   1.870   3.296   4.874 -0.6430 -0.3673 -0.3459
  121MYC    H6724228   1.926   3.133   4.904 -0.9883  0.3093 -0.7448
  121MYC    C3724229   1.982   3.281   5.061 -0.1809  0.0154  0.2951
  121MYC    H6824230   2.067   3.227   5.104  0.7280  1.0399 -0.1787
  121MYC    H6924231   2.018   3.385   5.065 -0.4157  0.0581  2.5671
  121MYC    C3824232   1.859   3.269   5.151 -0.2801  0.7007  0.1908
  121MYC    H7024233   1.767   3.306   5.105 -0.1988  0.0286 -0.5317
  121MYC    H7124234   1.845   3.166   5.186  2.4944  0.1013 -0.2613
  121MYC    C3924235   1.871   3.340   5.285 -0.2216  0.2214 -0.4534
  121MYC    H7224236   1.889   3.448   5.276 -0.4901  0.3635  0.6212
  121MYC    H7324237   1.775   3.323   5.335  0.9353 -2.7189  0.9483
  121MYC    C4024238   1.976   3.273   5.381 -0.2453  0.1639 -0.1831
  121MYC    H7424239   1.947   3.168   5.395 -5.6805  1.5451  1.1014
  121MYC    H7524240   2.071   3.277   5.326 -1.4185 -0.6813 -2.4190
  121MYC    C4124241   1.980   3.336   5.515 -1.0068 -0.1186 -0.3118
  121MYC    H7624242   1.973   3.444   5.503 -1.7055 -0.2446 -1.1930
  121MYC    H7724243   1.890   3.324   5.577 -0.1736  0.1246  0.9952
  121MYC    C4224244   2.101   3.293   5.596 -0.4270 -0.6555  0.5137
  121MYC    H7824245   2.081   3.327   5.699  1.4177  1.0267  0.3590
  121MYC    H7924246   2.106   3.183   5.598  0.8636 -0.6487 -0.9945
  121MYC    C4324247   2.234   3.347   5.541 -0.7914 -0.7888 -0.0852
  121MYC    H8024248   2.219   3.425   5.465 -1.3222 -1.7340 -0.9812
  121MYC    H8124249   2.284   3.266   5.485 -0.7774 -0.3963 -0.6532
  121MYC    H8224250   2.314   3.384   5.606 -0.3966 -1.2751 -0.2810
  122MYC   HH1524251   3.819   3.957   6.226 -0.1180 -0.7334  1.0482
  122MYC    C8024252   3.753   3.870   6.234 -0.3921 -0.6469 -0.1173
  122MYC   H10024253   3.812   3.787   6.274 -0.6448  0.0098  1.7148
  122MYC   H10124254   3.664   3.893   6.294 -0.1303 -0.3432  0.1579
  122MYC    C7924255   3.716   3.819   6.087  0.0680  0.6294 -0.3309
  122MYC   H10224256   3.620   3.859   6.053 -0.3609  0.9475  1.1937
  122MYC   H10324257   3.714   3.709   6.086  2.6110  0.4792  1.0732
  122MYC    C7824258   3.814   3.867   5.985 -0.1494  0.2106  0.4807
  122MYC   HH1424259   3.917   3.856   6.021 -0.3411 -2.3701  0.4390
  122MYC   H10424260   3.803   3.976   5.978  1.5606  0.4138  0.3855
  122MYC    C7724261   3.780   3.818   5.844 -0.4172 -0.1919 -0.3224
  122MYC   H10624262   3.676   3.837   5.814 -0.2868  0.0536 -0.6185
  122MYC   H10724263   3.789   3.709   5.838  1.5547 -0.1581  1.0952
  122MYC    C7624264   3.871   3.883   5.730 -0.1193  0.0666 -0.1324
  122MYC   H10824265   3.965   3.829   5.716 -1.4633 -1.9617 -1.8262
  122MYC   H10924266   3.916   3.980   5.757  1.1763 -0.8588  1.1481
  122MYC    C7524267   3.805   3.883   5.593  0.5442 -0.3333  0.2546
  122MYC   H11024268   3.721   3.953   5.600  0.4583 -0.2021 -1.7306
  122MYC   H11124269   3.744   3.792   5.586 -0.5492  0.4267 -0.3371
  122MYC    C7424270   3.889   3.919   5.469  0.1396 -0.6339 -0.0583
  122MYC   H11224271   3.965   3.840   5.475  1.3037  0.4772  0.3953
  122MYC   H11324272   3.953   4.007   5.484 -0.9170  0.2780 -0.7893
  122MYC    C7324273   3.820   3.930   5.336  0.4450  0.8563  0.3963
  122MYC   HH1324274   3.749   4.012   5.326  1.8185  2.1138  0.5319
  122MYC   H11424275   3.766   3.835   5.343  2.1397 -0.2296 -0.3576
  122MYC    C7224276   3.931   3.934   5.214  0.7975 -0.8838 -0.9770
  122MYC   H11524277   4.007   3.855   5.219  1.4874 -0.2120 -0.7311
  122MYC   H11624278   3.989   4.026   5.224 -0.3570 -0.3553  2.0539
  122MYC    C7124279   3.864   3.933   5.080  0.3265 -0.4850  0.3264
  122MYC   H11724280   3.784   4.007   5.072  0.0443 -0.3311  3.4095
  122MYC   H11824281   3.808   3.840   5.070 -2.1396  0.9459  0.0652
  122MYC    C7024282   3.961   3.934   4.955  0.2128 -0.1810 -0.5516
  122MYC   H11924283   4.033   3.854   4.972  0.5435 -0.1460 -1.7237
  122MYC   H12024284   4.011   4.032   4.951 -0.4242  0.3160  1.7803
  122MYC    C6924285   3.886   3.915   4.821  0.2437 -0.1082 -0.4300
  122MYC   H12124286   3.796   3.974   4.801  1.3004  1.3404 -1.0251
  122MYC   H12224287   3.859   3.809   4.817  0.1112 -0.0900 -0.0326
  122MYC    C6824288   3.975   3.954   4.700 -0.3979 -0.0559 -0.0819
  122MYC   HH1224289   4.065   3.892   4.697  0.4389  1.1445 -0.4263
  122MYC   H12324290   4.013   4.056   4.715  2.5387 -1.0412 -0.2618
  122MYC    C6724291   3.888   3.940   4.572  0.3647  0.3092 -0.1538
  122MYC   H12424292   3.797   3.999   4.557  1.5543  1.4715 -3.9042
  122MYC   H12524293   3.854   3.836   4.571 -1.6915  0.9133  1.4388
  122MYC    C6624294   3.965   3.965   4.439 -0.5809  0.2418 -0.2315
  122MYC   H12624295   4.058   3.908   4.453 -0.5855  0.6681  1.7853
  122MYC   H12724296   4.000   4.069   4.442  0.9312 -0.2338 -0.3765
  122MYC    C6524297   3.884   3.931   4.308 -0.0085  0.2668 -0.1996
  122MYC   H12824298   3.793   3.991   4.303  0.6353  1.2126 -1.0232
  122MYC   H12924299   3.843   3.830   4.315 -2.0731  0.9285 -1.6885
  122MYC    C6424300   3.961   3.970   4.175 -0.5290 -0.4393  0.1326
  122MYC   H13024301   4.055   3.914   4.169  0.7971  1.6417  0.5269
  122MYC   H13124302   3.989   4.075   4.183  0.4179 -0.6651 -0.0859
  122MYC    C6324303   3.881   3.947   4.049 -0.2184  0.0288 -0.1377
  122MYC   HH1124304   3.776   3.977   4.058  0.7694  3.5527  1.1682
  122MYC   H13224305   3.873   3.840   4.030 -2.8841 -0.2282  1.7763
  122MYC    C6224306   3.949   4.017   3.924  0.1204 -0.2909  0.1833
  122MYC   H13324307   4.040   3.960   3.904  0.2504  0.0920 -0.3372
  122MYC   H13424308   3.973   4.119   3.954 -0.3780  0.1988 -1.0286
  122MYC    C6124309   3.859   4.013   3.792  0.2168  0.6840 -0.2101
  122MYC   H13524310   3.916   4.088   3.736  3.4116 -0.4384  1.3135
  122MYC   H13624311   3.757   4.052   3.808  0.0129 -0.3776  1.2098
  122MYC    C6024312   3.842   3.874   3.723 -0.8179  0.2486 -0.3307
  122MYC   H13724313   3.806   3.806   3.800 -0.5463  1.3337  0.7770
  122MYC    C5824314   3.821   3.846   3.575  0.1925  0.5180  1.0761
  122MYC   H13824315   3.813   3.934   3.512  0.7198  0.1663  0.4984
  122MYC    C5924316   3.958   3.826   3.639  0.7808  0.1573  0.0343
  122MYC   H13924317   3.989   3.723   3.632  1.8586  0.4633  0.1273
  122MYC   H14024318   4.035   3.895   3.605  0.2113  1.8404  1.9139
  122MYC    C5724319   3.751   3.722   3.509  0.4819 -0.4359 -0.0144
  122MYC   HH1024320   3.643   3.720   3.492  0.2778 -0.7772  1.2308
  122MYC   H14124321   3.772   3.639   3.578 -0.8019 -0.0259  0.9088
  122MYC    C5624322   3.805   3.683   3.370 -0.6051  0.5741  0.0345
  122MYC   H14224323   3.764   3.586   3.342  1.9262 -0.2222 -1.2312
  122MYC   H14324324   3.914   3.683   3.382 -0.5445  3.8723  0.3749
  122MYC    C5524325   3.778   3.791   3.270 -0.3141  0.6980  0.4887
  122MYC   H14424326   3.843   3.876   3.295  1.3938  0.0041 -1.3025
  122MYC   H14524327   3.672   3.816   3.267 -0.2626  0.8591 -1.1121
  122MYC    C5424328   3.815   3.747   3.122  0.1568 -0.0143  0.2141
  122MYC   H14624329   3.751   3.670   3.075  1.5541 -1.0537 -0.0505
  122MYC   H14724330   3.917   3.707   3.120  0.9394  1.8793 -1.2912
  122MYC    C5324331   3.798   3.867   3.024 -0.0233  0.3399  0.9068
  122MYC   H14824332   3.844   3.952   3.075 -0.9969  2.8210 -2.0943
  122MYC   H14924333   3.695   3.870   2.987  0.4504 -0.4624 -0.5558
  122MYC    C5224334   3.884   3.848   2.900  0.5126 -0.3585 -0.1016
  122MYC    H9924335   3.987   3.831   2.936  0.1977 -0.7430  0.6434
  122MYC   H15024336   3.896   3.945   2.851 -1.9710 -0.3611 -0.8223
  122MYC    C5124337   3.851   3.735   2.798  0.6087 -0.0560  0.9898
  122MYC    H9724338   3.747   3.749   2.767  1.0072  1.7520  0.3503
  122MYC    H9824339   3.861   3.637   2.847  0.5032 -0.2214  0.6774
  122MYC    C5024340   3.930   3.728   2.669  0.1027 -0.3604  0.5180
  122MYC    H9524341   3.894   3.805   2.600  0.7008 -1.8665 -1.6103
  122MYC    H9624342   3.911   3.629   2.626  1.8046 -1.5407  2.3257
  122MYC    C4924343   4.083   3.746   2.687 -0.4492 -0.2851 -0.2461
  122MYC    H9324344   4.121   3.695   2.776 -1.8843 -0.0407  0.5355
  122MYC    H9424345   4.107   3.852   2.701 -0.0692 -0.3125 -0.6800
  122MYC    C4824346   4.161   3.706   2.567  0.6893 -0.3036  0.4356
  122MYC    H9124347   4.094   3.671   2.488  2.4619  0.4419 -1.5094
  122MYC    H9224348   4.229   3.628   2.603  0.8119  0.4741  2.0123
  122MYC    C4724349   4.259   3.815   2.503  0.2729  0.2987 -0.2331
  122MYC    H8924350   4.347   3.823   2.568  0.7219 -2.7631 -0.2992
  122MYC    H9024351   4.207   3.911   2.501 -2.4837 -1.0454  0.9180
  122MYC    C4624352   4.290   3.772   2.365  0.4706  0.6405 -0.1089
  122MYC    H8724353   4.337   3.851   2.305  1.4390  0.4073  0.3239
  122MYC    H8824354   4.195   3.746   2.317 -0.3769 -0.0717  1.8326
  122MYC    C4524355   4.390   3.659   2.366 -0.0834  0.2006  0.8007
  122MYC    H8524356   4.345   3.581   2.429 -0.7803 -1.6173 -1.8009
  122MYC    H8624357   4.480   3.693   2.419  0.1028 -2.0818  2.0822
  122MYC    C4424358   4.423   3.599   2.227  0.4611  0.2505  0.2022
  122MYC    H8324359   4.473   3.504   2.249 -0.3509  0.1512  1.7315
  122MYC    H8424360   4.491   3.671   2.179 -1.1091  1.4146 -0.3476
  122MYC    C1824361   4.306   3.559   2.141 -0.4966 -0.7122  0.1425
  122MYC    H3124362   4.247   3.488   2.198  2.4835 -2.7816  0.9313
  122MYC    C1724363   4.229   3.653   2.037  0.6013  0.1404  0.5365
  122MYC    H3024364   4.254   3.758   2.051 -2.9869  1.2516 -0.3722
  122MYC    C1924365   4.328   3.544   1.995  0.6385 -0.4569 -0.3555
  122MYC    H3224366   4.428   3.568   1.960  1.1719 -1.6294  0.2930
  122MYC    H3324367   4.289   3.453   1.948 -1.2068  0.7274 -1.2311
  122MYC    C1624368   4.076   3.642   2.008 -1.0195  0.6718 -0.0027
  122MYC    H2824369   4.058   3.544   1.963  0.7179 -0.4090  1.5108
  122MYC    H2924370   4.050   3.716   1.931 -0.6034  2.8812  1.8760
  122MYC    C1524371   3.981   3.663   2.124 -0.1318  0.3406  0.6456
  122MYC    H2624372   3.993   3.766   2.158  1.3191  1.0379 -1.7667
  122MYC    H2724373   4.006   3.592   2.204 -0.6222  1.0322  1.4313
  122MYC    C1424374   3.835   3.647   2.082  0.0301  0.1579 -0.2288
  122MYC    H2424375   3.819   3.557   2.022 -0.2057  1.8500 -2.8763
  122MYC    H2524376   3.816   3.732   2.016  3.1348 -0.7451 -2.4948
  122MYC    C1324377   3.728   3.645   2.201  0.1721  0.1442 -0.5550
  122MYC    H2224378   3.632   3.668   2.152 -0.5336  2.5681  1.7405
  122MYC    H2324379   3.754   3.734   2.259  0.0087  1.1976 -2.0317
  122MYC    C1224380   3.721   3.510   2.279  0.0988 -0.0136  0.4783
  122MYC    H2024381   3.818   3.479   2.319 -0.6358  0.1622  2.4852
  122MYC    H2124382   3.698   3.433   2.205  0.0873  0.8360 -0.4276
  122MYC    C1124383   3.613   3.517   2.390  0.2862  0.4449 -0.0334
  122MYC    H1824384   3.510   3.525   2.351 -0.7653  0.7195  2.5857
  122MYC    H1924385   3.632   3.606   2.450 -0.4905  0.2052  0.5820
  122MYC    C1024386   3.627   3.396   2.475  0.0597 -0.5022  0.1192
  122MYC    H1624387   3.731   3.378   2.503 -0.3330 -1.9588  0.7690
  122MYC    H1724388   3.603   3.303   2.421 -1.4381 -0.6530  0.9797
  122MYC     C924389   3.526   3.402   2.589  0.1260 -0.1775  0.6930
  122MYC    H1424390   3.426   3.428   2.554  0.7953 -0.2608 -1.4190
  122MYC    H1524391   3.538   3.492   2.649  0.6036  0.9947 -1.0830
  122MYC     C824392   3.533   3.270   2.679  0.0823 -0.1150  0.1625
  122MYC    H1224393   3.631   3.229   2.652 -0.0454  0.5017 -1.3450
  122MYC    H1324394   3.454   3.204   2.641 -2.9517  2.5769  1.2427
  122MYC     C724395   3.511   3.285   2.835 -0.5419  0.9026  0.0450
  122MYC    H1024396   3.519   3.184   2.877 -1.5723  0.7354 -0.1253
  122MYC    H1124397   3.412   3.325   2.862 -0.3934  0.9254  0.5763
  122MYC     C624398   3.618   3.362   2.903  0.3218  0.2427 -0.4141
  122MYC     H824399   3.617   3.464   2.864  0.1961  0.9579  1.3941
  122MYC     H924400   3.708   3.306   2.876 -0.7495  0.0914 -4.2785
  122MYC     C524401   3.589   3.376   3.059 -0.5479  0.1133  0.5942
  122MYC     H624402   3.685   3.403   3.105  0.6291 -2.1324 -0.3642
  122MYC     H724403   3.566   3.281   3.107  0.2502  0.3553  1.4790
  122MYC     C424404   3.481   3.478   3.100  0.3264 -0.5094 -0.4148
  122MYC     H424405   3.390   3.457   3.042  0.1615 -1.4183  0.1590
  122MYC     H524406   3.517   3.576   3.067  0.7530 -0.5781 -0.1709
  122MYC     C224407   3.460   3.482   3.253 -0.0405  0.0446 -0.3510
  122MYC     H224408   3.548   3.514   3.310 -0.5754 -1.2216  1.2670
  122MYC     O324409   3.357   3.581   3.285 -0.8654  0.2414  0.0715
  122MYC     H324410   3.272   3.550   3.251 -0.5023  0.0234 -0.6776
  122MYC     C124411   3.427   3.342   3.324 -1.1154  0.2186  0.7662
  122MYC     H124412   3.525   3.298   3.344 -0.2451  1.3672 -0.8068
  122MYC    C8124413   3.332   3.250   3.246 -0.3803  0.5087  0.0668
  122MYC    O8224414   3.222   3.274   3.195  0.4228  0.3392 -0.2701
  122MYC    O8324415   3.394   3.132   3.207  0.1080 -0.8563 -0.4259
  122MYC   H10524416   3.321   3.073   3.181 -1.8667  0.8978  0.8186
  122MYC    C2024417   3.353   3.363   3.463  0.6745  0.3839 -0.6536
  122MYC    H3424418   3.255   3.411   3.457  0.3445 -0.4013 -1.8340
  122MYC    H3524419   3.325   3.261   3.490 -0.0220  0.9963  1.1078
  122MYC    C2124420   3.442   3.423   3.575  0.0598  0.1274  0.3504
  122MYC    H3624421   3.533   3.363   3.591  0.9052  0.9491 -1.1349
  122MYC    H3724422   3.494   3.516   3.551 -0.0621  0.2983  0.7346
  122MYC    C2224423   3.369   3.444   3.714 -0.8940 -0.6552 -0.1725
  122MYC    H3824424   3.282   3.509   3.707 -0.2098  0.2835 -0.1040
  122MYC    H3924425   3.345   3.348   3.762  2.1422 -0.4020  2.1824
  122MYC    C2324426   3.466   3.500   3.821  0.6589 -0.7115 -0.0258
  122MYC    H4024427   3.530   3.415   3.849  1.8706 -0.3231 -1.4698
  122MYC    H4124428   3.525   3.580   3.774  1.3839 -0.8579  0.6073
  122MYC    C2424429   3.391   3.559   3.950 -0.2700 -0.1865 -0.5390
  122MYC    H4224430   3.334   3.647   3.920  2.6705  2.2254  0.4154
  122MYC    H4324431   3.330   3.473   3.980 -0.3206  0.6448  1.9857
  122MYC    C2524432   3.483   3.589   4.066 -0.3626  0.3484 -0.1773
  122MYC    H4424433   3.555   3.508   4.082 -0.4836  0.4105  0.7135
  122MYC    H4524434   3.546   3.674   4.040 -1.1950  0.6941 -1.1288
  122MYC    C2624435   3.407   3.607   4.196 -0.3767 -0.5244 -0.4641
  122MYC    H4624436   3.343   3.696   4.195 -1.4330 -1.2037  1.7447
  122MYC    H4724437   3.338   3.523   4.205 -2.6580  1.4256  1.5459
  122MYC    C2724438   3.503   3.641   4.312 -0.1984 -0.1288  0.6001
  122MYC    H4824439   3.585   3.569   4.308 -1.1636 -1.2884  0.8241
  122MYC    H4924440   3.548   3.736   4.282  0.3904 -0.1411  1.4074
  122MYC    C2824441   3.454   3.653   4.455 -0.4455 -0.4613  0.4865
  122MYC    H5024442   3.373   3.727   4.445  0.2968  0.2147 -0.9049
  122MYC    H5124443   3.414   3.557   4.489 -0.3884 -1.4837 -2.0831
  122MYC    C2924444   3.570   3.710   4.540  0.0771 -0.5662  0.1258
  122MYC    H5224445   3.657   3.644   4.529 -0.5981 -1.5927  0.7356
  122MYC    H5324446   3.599   3.809   4.503  0.9200  0.1229  2.4458
  122MYC    C3024447   3.546   3.712   4.693 -0.1014  0.2217 -0.0670
  122MYC    H5424448   3.490   3.619   4.713  1.0098 -0.6618 -0.9363
  122MYC    H5524449   3.650   3.701   4.729  0.8666  1.4585 -2.3119
  122MYC    C3124450   3.467   3.832   4.745  0.5564 -0.0885 -0.5683
  122MYC    H5624451   3.520   3.920   4.708 -0.0465 -0.5354 -2.6735
  122MYC    H5724452   3.362   3.822   4.712  0.0649 -0.0573  0.9145
  122MYC    C3224453   3.466   3.836   4.905 -0.1569  0.4822  0.9488
  122MYC    H5824454   3.400   3.755   4.937 -0.0881 -0.7336 -1.6685
  122MYC    H5924455   3.568   3.820   4.943 -0.2786  0.2786  1.1925
  122MYC    C3324456   3.423   3.965   4.960  0.4244  0.3097 -0.1515
  122MYC    H6024457   3.487   4.043   4.916  0.9405 -0.4974 -0.8621
  122MYC    H6124458   3.323   4.000   4.933 -1.0627 -3.1372  0.4564
  122MYC    C3424459   3.428   3.983   5.114 -0.3327  0.2514  0.6875
  122MYC    H6224460   3.377   3.907   5.173  1.5506 -0.8607  0.9638
  122MYC    H6324461   3.532   3.976   5.147 -0.9919  0.4148  2.9535
  122MYC    C3524462   3.378   4.125   5.164 -0.6924  0.8019 -0.2350
  122MYC    H6424463   3.450   4.198   5.124  1.2570 -0.1778  1.2739
  122MYC    H6524464   3.279   4.131   5.118 -0.5828 -4.2103 -1.7796
  122MYC    C3624465   3.369   4.153   5.315 -0.1579  0.9941 -0.3560
  122MYC    H6624466   3.312   4.245   5.334 -2.7533 -0.7549  1.0820
  122MYC    H6724467   3.304   4.086   5.372 -2.7728  3.3409 -0.3547
  122MYC    C3724468   3.506   4.165   5.381  0.7459  0.5251 -0.3414
  122MYC    H6824469   3.553   4.067   5.396  1.5123  0.7023 -1.4318
  122MYC    H6924470   3.569   4.230   5.319  0.3834 -0.1192 -1.4175
  122MYC    C3824471   3.503   4.239   5.523 -0.1196  0.6770  0.1399
  122MYC    H7024472   3.607   4.238   5.557 -0.1910 -1.2669  0.4049
  122MYC    H7124473   3.457   4.338   5.516  0.2335  0.8011 -0.4793
  122MYC    C3924474   3.431   4.158   5.626  0.2652  0.8283  0.4960
  122MYC    H7224475   3.337   4.122   5.583  0.3625 -0.5024  1.3334
  122MYC    H7324476   3.486   4.065   5.645 -2.1395 -0.6802  0.6272
  122MYC    C4024477   3.417   4.229   5.766  0.1271  0.6388 -0.4817
  122MYC    H7424478   3.519   4.239   5.806  0.1099 -0.6712 -0.0768
  122MYC    H7524479   3.364   4.325   5.755 -1.6855 -0.2261  0.2903
  122MYC    C4124480   3.355   4.147   5.880  0.3452 -0.0666 -0.4065
  122MYC    H7624481   3.268   4.090   5.845  0.3420 -0.1369 -0.2822
  122MYC    H7724482   3.440   4.085   5.912 -1.3082 -2.5849 -0.6313
  122MYC    C4224483   3.304   4.229   6.001 -0.4902 -0.6893 -0.1864
  122MYC    H7824484   3.285   4.333   5.972 -0.0285 -0.5576 -0.0219
  122MYC    H7924485   3.210   4.179   6.029 -0.5527 -0.7745 -0.5446
  122MYC    C4324486   3.414   4.237   6.116  0.1175  0.1233  0.9386
  122MYC    H8024487   3.382   4.304   6.197  1.8259  1.1967  0.7639
  122MYC    H8124488   3.511   4.276   6.083 -0.4032 -1.1553 -2.4921
  122MYC    H8224489   3.421   4.137   6.162 -3.6237  1.0638  4.0921
  123MYC   HH1524490   3.934   4.145   6.030  1.0180  0.1973 -0.2802
  123MYC    C8024491   3.865   4.229   6.047  0.6081 -0.3162  0.6665
  123MYC   H10024492   3.767   4.182   6.059  1.2381 -2.8430 -2.4702
  123MYC   H10124493   3.902   4.282   6.135 -0.6887  0.0625  0.9913
  123MYC    C7924494   3.849   4.337   5.937  0.5578  0.3389  0.6507
  123MYC   H10224495   3.932   4.408   5.947  1.9770 -1.3431  1.4127
  123MYC   H10324496   3.765   4.404   5.960  0.8929  1.6026 -1.4618
  123MYC    C7824497   3.843   4.271   5.794 -0.2997  0.4558 -0.0372
  123MYC   HH1424498   3.758   4.202   5.787  0.0492 -0.0710  0.7974
  123MYC   H10424499   3.930   4.206   5.796 -1.2860 -0.8869  1.3420
  123MYC    C7724500   3.851   4.374   5.679  0.0370  0.0228  0.4075
  123MYC   H10624501   3.926   4.443   5.717 -0.9507  1.3755 -0.0359
  123MYC   H10724502   3.758   4.430   5.664  0.4724 -0.0126 -3.1601
  123MYC    C7624503   3.881   4.305   5.540 -0.1539  0.2553  0.4001
  123MYC   H10824504   3.812   4.223   5.516 -2.2882  2.2581 -0.6922
  123MYC   H10924505   3.982   4.262   5.546 -0.2327 -0.0412 -0.3327
  123MYC    C7524506   3.870   4.400   5.414 -0.2712 -0.3056  0.2556
  123MYC   H11024507   3.950   4.474   5.425 -0.0533 -0.7691  2.0531
  123MYC   H11124508   3.777   4.457   5.411  2.0471  3.8818 -0.5675
  123MYC    C7424509   3.903   4.323   5.285 -0.6531  0.0512 -0.0587
  123MYC   H11224510   3.866   4.220   5.295  2.7863 -1.2144  1.2350
  123MYC   H11324511   4.012   4.308   5.284 -0.2309  2.0740 -4.3840
  123MYC    C7324512   3.860   4.409   5.164 -0.8513 -0.3334  0.4019
  123MYC   HH1324513   3.913   4.505   5.163 -3.2993  1.1778 -3.1601
  123MYC   H11424514   3.759   4.447   5.182  0.5648  2.8210  2.8074
  123MYC    C7224515   3.875   4.343   5.029  0.6570  0.0186 -1.2967
  123MYC   H11524516   3.802   4.262   5.033 -0.3735  0.9730 -0.2111
  123MYC   H11624517   3.973   4.293   5.023  0.1427 -1.6464  2.0136
  123MYC    C7124518   3.849   4.428   4.903 -0.2369  0.5756 -0.0499
  123MYC   H11724519   3.912   4.518   4.910 -1.0411  1.2543 -1.2442
  123MYC   H11824520   3.749   4.470   4.919  0.5572  2.9225 -0.7285
  123MYC    C7024521   3.864   4.345   4.780  0.1186 -0.0019  0.1787
  123MYC   H11924522   3.796   4.258   4.783 -0.1830  0.0628 -2.3708
  123MYC   H12024523   3.968   4.315   4.767 -0.0333  0.0595 -1.3598
  123MYC    C6924524   3.823   4.427   4.656  0.2732  0.3594 -0.1400
  123MYC   H12124525   3.890   4.512   4.643 -0.6089  1.4905  2.2381
  123MYC   H12224526   3.730   4.479   4.680 -0.1054 -0.4779  0.2421
  123MYC    C6824527   3.799   4.344   4.527 -0.2600 -0.3000 -0.1767
  123MYC   HH1224528   3.755   4.247   4.549  1.6600 -1.2185 -0.1783
  123MYC   H12324529   3.896   4.331   4.477 -0.9644 -1.6948 -1.2551
  123MYC    C6724530   3.719   4.430   4.428 -1.2512 -0.3501  0.5833
  123MYC   H12424531   3.778   4.522   4.420  2.9317 -2.8743 -0.9741
  123MYC   H12524532   3.621   4.461   4.467 -1.4548  1.4496 -1.1891
  123MYC    C6624533   3.694   4.372   4.287 -0.5451 -0.6474  0.1202
  123MYC   H12624534   3.639   4.444   4.226 -0.3265  0.0744  0.7557
  123MYC   H12724535   3.635   4.282   4.309 -3.1152  0.3097 -2.2868
  123MYC    C6524536   3.813   4.316   4.211  0.3198 -1.0434 -0.4527
  123MYC   H12824537   3.778   4.260   4.124 -0.1570  0.0002 -0.9505
  123MYC   H12924538   3.868   4.240   4.267  2.4293  0.4331 -0.3993
  123MYC    C6424539   3.914   4.430   4.165 -0.1295 -0.0039  0.2601
  123MYC   H13024540   4.000   4.387   4.113 -0.1107  0.9404 -0.4875
  123MYC   H13124541   3.952   4.494   4.245  4.6592  0.2470 -1.8954
  123MYC    C6324542   3.846   4.510   4.050  0.1094 -0.0547 -0.4378
  123MYC   HH1124543   3.919   4.591   4.038  1.0457 -0.7947  0.2301
  123MYC   H13224544   3.772   4.577   4.096  1.3047  0.5256  0.7137
  123MYC    C6224545   3.795   4.439   3.923  0.5217 -0.4952 -0.6730
  123MYC   H13324546   3.692   4.407   3.939 -0.2905  2.0495 -0.4320
  123MYC   H13424547   3.861   4.352   3.908  1.1076 -0.3273  0.7500
  123MYC    C6124548   3.818   4.526   3.798  0.1269  0.2071  0.1962
  123MYC   H13524549   3.916   4.575   3.809  0.4128  0.2539 -2.0879
  123MYC   H13624550   3.738   4.599   3.812 -0.2673 -0.0331 -0.7426
  123MYC    C6024551   3.803   4.460   3.661 -0.5985  0.0282 -0.0345
  123MYC   H13724552   3.707   4.410   3.645  0.1341 -0.9768 -1.4467
  123MYC    C5824553   3.881   4.499   3.540  0.7688 -0.2028  0.5754
  123MYC   H13824554   3.957   4.577   3.541 -1.7601  2.6882 -3.0542
  123MYC    C5924555   3.925   4.379   3.613  0.1155 -0.1063 -0.3610
  123MYC   H13924556   3.904   4.278   3.577  0.7054  0.0961 -1.2962
  123MYC   H14024557   4.014   4.381   3.676  0.5711  2.8758 -0.9787
  123MYC    C5724558   3.799   4.498   3.404  0.5000  0.1450 -0.0636
  123MYC   HH1024559   3.735   4.586   3.406 -1.4799 -1.2361  1.8992
  123MYC   H14124560   3.735   4.409   3.400 -0.1554  0.6583 -1.6512
  123MYC    C5624561   3.885   4.497   3.274 -0.7897 -0.1620 -0.0335
  123MYC   H14224562   3.982   4.536   3.306 -1.6143  1.0561  1.1101
  123MYC   H14324563   3.844   4.576   3.210  0.3573  0.1782 -0.3582
  123MYC    C5524564   3.901   4.367   3.196 -0.0324  0.2368 -0.5026
  123MYC   H14424565   3.805   4.328   3.158 -0.2231  1.6000 -1.5239
  123MYC   H14524566   3.927   4.292   3.272 -0.2808 -0.3201 -0.9580
  123MYC    C5424567   4.013   4.369   3.084  0.4149  1.1209 -0.1053
  123MYC   H14624568   4.041   4.271   3.043  2.4544  1.7337 -0.3099
  123MYC   H14724569   4.109   4.405   3.124  1.9757 -2.0358 -0.7262
  123MYC    C5324570   3.979   4.463   2.964  0.1678  0.0660  0.9506
  123MYC   H14824571   3.968   4.564   3.003 -0.8681  0.3148  0.0900
  123MYC   H14924572   3.883   4.423   2.926  0.5080 -0.6758  0.8471
  123MYC    C5224573   4.089   4.477   2.855 -0.2043  0.1564  0.5007
  123MYC    H9924574   4.179   4.515   2.906  0.0970  1.3007 -0.8247
  123MYC   H15024575   4.066   4.563   2.791  0.9442  0.3880  0.3602
  123MYC    C5124576   4.093   4.356   2.758 -0.7506  0.5510  0.0712
  123MYC    H9724577   3.999   4.333   2.707  0.9246 -0.7368 -2.7283
  123MYC    H9824578   4.108   4.264   2.815 -1.0058 -0.0292 -0.7719
  123MYC    C5024579   4.199   4.374   2.642  0.7004  0.7499 -0.3263
  123MYC    H9524580   4.292   4.352   2.696 -0.4176  1.4347  2.0149
  123MYC    H9624581   4.204   4.479   2.608  2.2628 -0.1206 -3.1503
  123MYC    C4924582   4.189   4.275   2.521  0.4263  0.0148  0.2503
  123MYC    H9324583   4.110   4.310   2.453  1.2539  3.8305  1.0220
  123MYC    H9424584   4.149   4.178   2.551 -1.4616  0.2221 -1.3721
  123MYC    C4824585   4.320   4.266   2.437  0.5015 -0.3981 -0.0879
  123MYC    H9124586   4.383   4.211   2.508  0.4274  0.6569  0.8260
  123MYC    H9224587   4.360   4.364   2.410 -1.3586  0.3832 -0.1385
  123MYC    C4724588   4.293   4.173   2.311 -0.2840 -0.0163  0.5184
  123MYC    H8924589   4.233   4.229   2.238 -0.1735 -0.9362 -0.2912
  123MYC    H9024590   4.232   4.086   2.338 -0.0887  0.2265  1.7657
  123MYC    C4624591   4.424   4.120   2.250 -0.9706  0.6384 -0.5488
  123MYC    H8724592   4.458   4.041   2.319 -1.5566  0.9470  0.1083
  123MYC    H8824593   4.494   4.204   2.242  2.0526 -1.7157 -0.6786
  123MYC    C4524594   4.393   4.041   2.109  0.6116 -0.3845  0.5358
  123MYC    H8524595   4.337   4.110   2.046 -1.0462 -1.5655  0.6522
  123MYC    H8624596   4.338   3.948   2.128  0.6538 -1.2567 -2.9226
  123MYC    C4424597   4.529   4.008   2.044 -0.4349  0.2893 -1.2133
  123MYC    H8324598   4.583   3.944   2.115 -0.2852 -0.4316 -1.9571
  123MYC    H8424599   4.584   4.101   2.025 -0.5875  0.6110 -0.1498
  123MYC    C1824600   4.510   3.927   1.919  0.0918  0.3411 -0.0315
  123MYC    H3124601   4.474   3.825   1.931  1.2716 -0.3457 -1.9403
  123MYC    C1724602   4.474   3.993   1.787 -0.7684 -0.3265  0.1883
  123MYC    H3024603   4.454   4.099   1.775 -1.3935 -0.3472  0.9274
  123MYC    C1924604   4.616   3.945   1.814 -0.3214  0.0565 -1.1155
  123MYC    H3224605   4.692   4.022   1.821  0.9822 -1.2749  0.4710
  123MYC    H3324606   4.647   3.860   1.753 -1.2256 -0.7314 -0.5078
  123MYC    C1624607   4.382   3.916   1.692 -0.6242 -0.7494 -0.8817
  123MYC    H2824608   4.361   3.815   1.731 -0.2272  0.0008  1.4539
  123MYC    H2924609   4.439   3.911   1.599  0.5051  0.4970 -0.2722
  123MYC    C1524610   4.251   3.978   1.666  0.0286  0.0031  0.1018
  123MYC    H2624611   4.183   3.923   1.599  0.0339 -0.8825  0.8033
  123MYC    H2724612   4.260   4.081   1.630 -1.2542  0.2968  0.5556
  123MYC    C1424613   4.174   4.000   1.801  0.1476  0.3573  0.2664
  123MYC    H2424614   4.205   4.097   1.842  0.2135  0.2777  0.4042
  123MYC    H2524615   4.192   3.920   1.874 -1.9175 -0.5626 -0.1544
  123MYC    C1324616   4.018   4.031   1.776  0.1470 -0.6110 -0.3935
  123MYC    H2224617   3.972   3.934   1.757 -0.1675 -0.6127  0.3245
  123MYC    H2324618   4.006   4.105   1.696 -0.9375  1.4278  1.5454
  123MYC    C1224619   3.948   4.099   1.893 -0.4686  0.5137  1.1821
  123MYC    H2024620   3.846   4.115   1.856 -0.8840 -0.7064  1.7382
  123MYC    H2124621   4.004   4.192   1.899  2.2445 -0.7044 -2.2427
  123MYC    C1124622   3.951   4.013   2.022 -0.1713  0.2034 -0.1064
  123MYC    H1824623   4.055   3.988   2.047  0.8110  2.6882 -1.3357
  123MYC    H1924624   3.896   3.922   1.995 -2.1004  2.0876 -3.0368
  123MYC    C1024625   3.877   4.072   2.144 -0.0827 -0.2620  0.8628
  123MYC    H1624626   3.876   4.181   2.147 -2.1710 -0.2535  1.2931
  123MYC    H1724627   3.897   4.030   2.243 -2.3694 -1.4644  0.8859
  123MYC     C924628   3.725   4.054   2.114  0.0491 -0.3330  0.1282
  123MYC    H1424629   3.722   3.946   2.093  2.6014 -0.2113 -1.1925
  123MYC    H1524630   3.693   4.090   2.015  0.2438 -0.7465 -0.0879
  123MYC     C824631   3.626   4.099   2.231 -0.1328  0.1988  0.5681
  123MYC    H1224632   3.525   4.065   2.204 -0.1962 -0.2616  1.3347
  123MYC    H1324633   3.630   4.208   2.221  0.7850  0.1912  0.7500
  123MYC     C724634   3.650   4.049   2.374  0.6555  0.2006  0.2317
  123MYC    H1024635   3.756   4.059   2.403  0.7743 -0.2223 -0.0540
  123MYC    H1124636   3.624   3.943   2.381 -1.7697  0.5833 -1.6693
  123MYC     C624637   3.557   4.127   2.469 -0.1427  0.4135  0.4597
  123MYC     H824638   3.454   4.091   2.455  0.1890 -0.9195  1.2288
  123MYC     H924639   3.558   4.235   2.454 -1.3056  0.0483 -3.6685
  123MYC     C524640   3.584   4.083   2.616 -0.1854  0.0647  0.0098
  123MYC     H624641   3.691   4.099   2.638 -0.2021 -1.6785  1.5771
  123MYC     H724642   3.563   3.977   2.627  0.8340 -0.0794  0.8106
  123MYC     C424643   3.487   4.149   2.723 -0.5346 -0.2562 -0.0949
  123MYC     H424644   3.381   4.122   2.716 -1.0454  1.4103  0.6953
  123MYC     H524645   3.499   4.258   2.719  0.3759 -0.3765 -1.0232
  123MYC     C224646   3.531   4.102   2.863 -0.1548 -0.0971 -0.5339
  123MYC     H224647   3.560   3.996   2.860  2.0698  0.2400  2.9948
  123MYC     O324648   3.646   4.173   2.895  0.2818 -0.5992 -0.5056
  123MYC     H324649   3.677   4.144   2.982 -2.2128 -0.0506  0.6563
  123MYC     C124650   3.423   4.120   2.975  0.4652 -0.3129  0.3907
  123MYC     H124651   3.326   4.079   2.945 -1.4016  2.3052  2.3387
  123MYC    C8124652   3.384   4.269   3.008 -0.6303 -0.7145 -0.4523
  123MYC    O8224653   3.273   4.322   2.990  0.5869  0.4734 -0.0033
  123MYC    O8324654   3.490   4.351   3.051 -0.2484  0.5301 -0.1731
  123MYC   H10524655   3.458   4.443   3.044 -3.0404 -0.5002 -3.0343
  123MYC    C2024656   3.474   4.045   3.106  0.4789 -0.2571  0.3572
  123MYC    H3424657   3.491   3.937   3.090  3.2429 -0.1570  1.9960
  123MYC    H3524658   3.578   4.075   3.125  0.0724  3.0302 -1.7902
  123MYC    C2124659   3.384   4.085   3.228 -0.6872  0.0558 -0.6506
  123MYC    H3624660   3.399   4.187   3.264  0.1883 -0.1096 -0.5232
  123MYC    H3724661   3.282   4.060   3.198 -0.9538 -0.1724  0.3871
  123MYC    C2224662   3.424   4.003   3.355 -0.6965  1.4146  0.4724
  123MYC    H3824663   3.443   3.900   3.323 -0.0755  1.4060  0.8643
  123MYC    H3924664   3.512   4.057   3.392 -0.2921  3.2301 -2.7912
  123MYC    C2324665   3.317   4.000   3.464  0.0405  0.3412 -0.2568
  123MYC    H4024666   3.286   4.099   3.501 -0.9558  0.2273 -0.7452
  123MYC    H4124667   3.234   3.955   3.409  0.6093 -0.2012 -0.6859
  123MYC    C2424668   3.352   3.908   3.581 -0.5557  0.1695 -0.1345
  123MYC    H4224669   3.386   3.813   3.538  0.2281 -0.0247  0.8738
  123MYC    H4324670   3.443   3.933   3.637 -0.4321 -2.0717  0.7888
  123MYC    C2524671   3.240   3.881   3.677 -0.1326 -0.0433 -0.3555
  123MYC    H4424672   3.146   3.859   3.624 -0.0974  1.0515 -0.8966
  123MYC    H4524673   3.264   3.795   3.740 -1.1269  1.0886  1.7018
  123MYC    C2624674   3.229   4.004   3.770  0.0055  0.0217 -0.4453
  123MYC    H4624675   3.328   4.021   3.813 -0.4009 -2.2941  1.7109
  123MYC    H4724676   3.184   4.087   3.715 -0.0053  0.3664  0.0709
  123MYC    C2724677   3.136   3.973   3.894 -0.2413 -0.2772  0.2523
  123MYC    H4824678   3.038   3.941   3.856  0.5447 -0.4052 -1.7867
  123MYC    H4924679   3.163   3.879   3.943 -1.5044 -0.9017 -0.1978
  123MYC    C2824680   3.130   4.086   4.000  0.2789  0.1399  0.6325
  123MYC    H5024681   3.224   4.088   4.057  1.0239  1.3345 -0.5768
  123MYC    H5124682   3.123   4.189   3.961 -0.0718  1.0312  2.8764
  123MYC    C2924683   3.009   4.067   4.108 -0.5513  0.3921 -0.4283
  123MYC    H5224684   2.918   4.056   4.047 -0.4801  2.2070 -0.9195
  123MYC    H5324685   3.025   3.970   4.157 -1.4053  0.8593  0.7925
  123MYC    C3024686   2.990   4.184   4.214  0.2229  0.1802 -0.0125
  123MYC    H5424687   3.082   4.216   4.266 -0.2644  3.6261 -1.0251
  123MYC    H5524688   2.971   4.270   4.149 -0.4541 -0.8848 -1.2610
  123MYC    C3124689   2.874   4.170   4.310 -0.1461 -0.2333 -0.4367
  123MYC    H5624690   2.880   4.076   4.366  0.7888  0.6788  1.0656
  123MYC    H5724691   2.869   4.248   4.387 -2.2640  0.4948 -1.2397
  123MYC    C3224692   2.737   4.179   4.238 -0.5819 -0.4424 -0.1373
  123MYC    H5824693   2.718   4.285   4.214  0.7367 -0.7668 -3.0796
  123MYC    H5924694   2.731   4.125   4.143  0.7839  1.7134 -1.5593
  123MYC    C3324695   2.628   4.114   4.319 -0.1000 -0.3067 -0.8496
  123MYC    H6024696   2.542   4.103   4.253  0.4869 -1.5640 -1.4456
  123MYC    H6124697   2.660   4.009   4.328  2.0435  0.3708  0.1211
  123MYC    C3424698   2.587   4.193   4.440 -0.3846  0.4958  0.1056
  123MYC    H6224699   2.663   4.182   4.518  0.0153  2.2874  0.0069
  123MYC    H6324700   2.568   4.298   4.413 -2.2362  0.3999  0.8911
  123MYC    C3524701   2.454   4.153   4.500 -0.2177  0.9944 -0.4681
  123MYC    H6424702   2.422   4.232   4.569  0.4930 -0.0286  1.0632
  123MYC    H6524703   2.377   4.146   4.422  1.4966 -0.7886 -2.0971
  123MYC    C3624704   2.456   4.015   4.571 -0.2909  0.4556  0.2670
  123MYC    H6624705   2.492   3.938   4.502  0.8153  1.0393  0.1703
  123MYC    H6724706   2.533   4.014   4.649 -0.8213 -0.0121  0.7917
  123MYC    C3724707   2.327   3.957   4.627  0.5847 -0.7183 -0.5205
  123MYC    H6824708   2.254   3.949   4.546  1.7662 -1.0249 -1.5886
  123MYC    H6924709   2.353   3.858   4.664  1.6939  0.1983  1.3422
  123MYC    C3824710   2.275   4.050   4.742  0.6734 -0.2330  0.3498
  123MYC    H7024711   2.355   4.054   4.817  0.6857 -2.1377  0.4983
  123MYC    H7124712   2.256   4.147   4.696 -0.4946 -1.0299 -0.9383
  123MYC    C3924713   2.142   4.003   4.811  0.5906  0.6843  0.0274
  123MYC    H7224714   2.068   3.992   4.731 -0.6066  0.0562  1.1727
  123MYC    H7324715   2.160   3.906   4.858  2.3886  1.2963  0.6863
  123MYC    C4024716   2.080   4.098   4.922 -0.1807  0.4121 -0.2714
  123MYC    H7424717   2.052   4.196   4.882  2.7578  1.8735  0.9457
  123MYC    H7524718   1.987   4.043   4.941  1.5922 -2.8996 -0.3457
  123MYC    C4124719   2.155   4.098   5.055  0.4324  0.1627  0.3644
  123MYC    H7624720   2.177   3.994   5.081 -0.7714  0.1106  1.2381
  123MYC    H7724721   2.250   4.145   5.028  1.1721 -1.8505 -0.7926
  123MYC    C4224722   2.084   4.165   5.177 -1.2003 -0.3974  0.6978
  123MYC    H7824723   2.085   4.272   5.156 -3.4047 -0.4107  0.2096
  123MYC    H7924724   1.977   4.137   5.176 -2.0850  2.6389  1.0539
  123MYC    C4324725   2.143   4.141   5.318 -0.0048  0.1629 -0.0376
  123MYC    H8024726   2.132   4.035   5.341  0.1043 -0.1138 -1.2143
  123MYC    H8124727   2.092   4.207   5.389 -0.2311 -2.1067  2.0119
  123MYC    H8224728   2.249   4.169   5.313 -0.4943  2.1444 -0.3687
  124MYC   HH1524729   2.094   0.105   3.729  2.5723  0.0082 -0.1909
  124MYC    C8024730   2.082   0.013   3.788 -0.6345  0.6015  0.2451
  124MYC   H10024731   1.984  -0.002   3.834 -0.7810  0.1284 -0.2089
  124MYC   H10124732   2.107  -0.081   3.737  1.1545  1.0191  0.2819
  124MYC    C7924733   2.186   0.037   3.897  0.2007  0.1978  0.1862
  124MYC   H10224734   2.180  -0.036   3.979 -1.8802 -0.6597 -0.6558
  124MYC   H10324735   2.168   0.134   3.944 -1.8634  0.6464 -1.3918
  124MYC    C7824736   2.329   0.039   3.836 -0.0324 -0.1093 -0.1221
  124MYC   HH1424737   2.327   0.106   3.749  1.2960  0.4670  0.2635
  124MYC   H10424738   2.372  -0.060   3.818  0.6664  0.3330 -0.9614
  124MYC    C7724739   2.427   0.107   3.935 -0.2009  0.5025 -0.2717
  124MYC   H10624740   2.426   0.051   4.029 -1.9114 -0.3620 -0.7622
  124MYC   H10724741   2.391   0.208   3.956 -0.8674  0.7158 -2.2299
  124MYC    C7624742   2.586   0.127   3.894 -0.2561  1.0246 -0.0262
  124MYC   H10824743   2.613   0.021   3.881 -2.3237  0.5811 -1.0386
  124MYC   H10924744   2.642   0.154   3.984 -0.9390 -1.2013  1.1398
  124MYC    C7524745   2.613   0.228   3.783 -0.8611  0.3883  0.3040
  124MYC   H11024746   2.607   0.329   3.825  0.4221 -0.2374  2.0903
  124MYC   H11124747   2.538   0.216   3.704  1.2298 -1.3641 -1.5259
  124MYC    C7424748   2.751   0.226   3.716 -0.1957  0.0708  0.1547
  124MYC   H11224749   2.820   0.245   3.800  0.7701  0.8668 -0.7924
  124MYC   H11324750   2.754   0.309   3.644 -0.3491  1.0195  1.2058
  124MYC    C7324751   2.789   0.094   3.651 -0.2538 -0.5312 -0.1022
  124MYC   HH1324752   2.716   0.071   3.573  0.0068  0.9890 -0.8346
  124MYC   H11424753   2.783   0.015   3.727  1.1006 -0.8137 -0.2516
  124MYC    C7224754   2.934   0.099   3.600 -0.5055  0.4487  0.0929
  124MYC   H11524755   2.998   0.140   3.680  0.2163 -0.5080  0.0265
  124MYC   H11624756   2.938   0.166   3.513  0.5149  0.4043  0.0935
  124MYC    C7124757   2.993  -0.040   3.563  0.3440  0.2230  1.0272
  124MYC   H11724758   2.928  -0.099   3.497  0.4161  1.0204  0.2115
  124MYC   H11824759   2.993  -0.104   3.652 -2.4059  0.1980  1.0901
  124MYC    C7024760   3.135  -0.018   3.499 -0.0847  0.0568 -0.0878
  124MYC   H11924761   3.197   0.040   3.569  0.2917  0.7732 -0.9873
  124MYC   H12024762   3.144   0.042   3.407  0.2242 -0.8957 -0.6927
  124MYC    C6924763   3.196  -0.159   3.463  0.3399 -0.4020 -0.4419
  124MYC   H12124764   3.129  -0.221   3.401  2.4535 -2.4354 -0.8135
  124MYC   H12224765   3.208  -0.225   3.550  2.1029  2.9494  2.1059
  124MYC    C6824766   3.332  -0.141   3.394 -1.2711  0.5605  0.1414
  124MYC   HH1224767   3.392  -0.083   3.466  0.5422 -1.9858  0.8146
  124MYC   H12324768   3.312  -0.085   3.302  0.6804  1.5953  0.2934
  124MYC    C6724769   3.406  -0.277   3.368 -0.5464  0.8498 -0.3616
  124MYC   H12424770   3.332  -0.335   3.310  0.3733  1.4388 -2.2223
  124MYC   H12524771   3.413  -0.339   3.458 -0.9045 -0.4301 -1.1761
  124MYC    C6624772   3.541  -0.267   3.282 -0.1788 -0.7485  0.7057
  124MYC   H12624773   3.616  -0.207   3.336  0.6307  0.2635 -1.4397
  124MYC   H12724774   3.518  -0.213   3.190 -0.2145  1.2435  1.8232
  124MYC    C6524775   3.616  -0.400   3.246  0.0807  0.0534  0.1381
  124MYC   H12824776   3.622  -0.447   3.345 -1.2814  1.2801  0.8608
  124MYC   H12924777   3.715  -0.380   3.204  0.5832 -1.2450  0.6556
  124MYC    C6424778   3.535  -0.501   3.150 -0.2023  0.3154 -0.6289
  124MYC   H13024779   3.504  -0.450   3.058 -1.2651  0.0462 -0.4325
  124MYC   H13124780   3.444  -0.515   3.208  0.4281  1.4265  0.6756
  124MYC    C6324781   3.608  -0.633   3.128 -0.4055 -0.0618 -0.9977
  124MYC   HH1124782   3.530  -0.709   3.114  0.0533 -1.4342  2.6131
  124MYC   H13224783   3.657  -0.649   3.225  0.6410 -3.5532 -1.9554
  124MYC    C6224784   3.710  -0.643   3.011  0.5007 -0.2129 -0.2571
  124MYC   H13324785   3.783  -0.564   3.033 -0.3192  0.2466  0.9011
  124MYC   H13424786   3.654  -0.614   2.921  0.4064  2.4237  0.5736
  124MYC    C6124787   3.764  -0.781   2.990 -0.5268  0.1944 -0.1990
  124MYC   H13524788   3.679  -0.850   2.984  0.2476 -0.7243 -0.8991
  124MYC   H13624789   3.823  -0.812   3.077 -0.7692 -1.0553 -0.4560
  124MYC    C6024790   3.846  -0.790   2.854 -0.1161  0.4493 -0.0375
  124MYC   H13724791   3.920  -0.711   2.857 -1.9570  2.2219  0.8813
  124MYC    C5824792   3.887  -0.928   2.802 -0.0428  0.3880  0.4717
  124MYC   H13824793   3.842  -1.015   2.848 -0.2667 -0.2141 -0.8426
  124MYC    C5924794   3.790  -0.843   2.721  0.6520 -0.4366  0.2998
  124MYC   H13924795   3.807  -0.777   2.637 -2.1533 -0.9118 -0.7549
  124MYC   H14024796   3.689  -0.883   2.724  0.2531  0.5104 -0.1264
  124MYC    C5724797   4.022  -0.956   2.731 -0.1707  0.3110  0.1617
  124MYC   HH1024798   4.087  -1.024   2.787 -1.0557  0.7560  1.8074
  124MYC   H14124799   4.079  -0.864   2.715 -2.4886  1.4512 -2.4113
  124MYC    C5624800   3.998  -1.007   2.587  0.4100 -0.8477  0.1355
  124MYC   H14224801   3.922  -0.946   2.538  0.5448 -2.0163 -1.6122
  124MYC   H14324802   3.958  -1.109   2.588 -1.8227 -0.0420 -0.7482
  124MYC    C5524803   4.119  -0.984   2.495 -0.0101  0.1113  0.0148
  124MYC   H14424804   4.206  -1.025   2.548  1.3450  0.9640 -1.4610
  124MYC   H14524805   4.147  -0.880   2.474  1.6312 -0.6105 -1.5361
  124MYC    C5424806   4.105  -1.062   2.359 -0.0835  0.2933  0.3095
  124MYC   H14624807   4.010  -1.029   2.314 -0.5132 -0.7848  0.3848
  124MYC   H14724808   4.100  -1.171   2.370  0.8913  0.1195 -0.7717
  124MYC    C5324809   4.220  -1.021   2.253  0.8857 -0.2407  0.4842
  124MYC   H14824810   4.224  -1.103   2.180  0.6845  0.2275 -0.0499
  124MYC   H14924811   4.323  -1.019   2.291  0.4970  1.1723  1.5311
  124MYC    C5224812   4.179  -0.895   2.173  0.0004 -0.1407 -0.5479
  124MYC    H9924813   4.158  -0.803   2.228 -0.7041 -1.1326  0.9079
  124MYC   H15024814   4.086  -0.918   2.119  0.5336  0.0199 -1.5495
  124MYC    C5124815   4.284  -0.854   2.070  0.0994  0.2270 -0.5041
  124MYC    H9724816   4.300  -0.939   2.003  3.4145  0.0880  0.3112
  124MYC    H9824817   4.384  -0.836   2.111 -0.9135  1.5571  1.5592
  124MYC    C5024818   4.247  -0.726   1.991 -0.2317  0.1639  0.4900
  124MYC    H9524819   4.335  -0.721   1.925  0.5590 -3.7280  0.9708
  124MYC    H9624820   4.245  -0.645   2.064 -1.1181 -1.1692  2.0245
  124MYC    C4924821   4.124  -0.740   1.907  0.7053  0.4550  0.5153
  124MYC    H9324822   4.036  -0.760   1.970  0.2708  2.0013  0.4489
  124MYC    H9424823   4.146  -0.819   1.835  0.8521  0.9768 -0.0277
  124MYC    C4824824   4.091  -0.612   1.826 -0.6574 -0.7615  0.3398
  124MYC    H9124825   4.005  -0.633   1.761  0.7757  0.9748 -2.2773
  124MYC    H9224826   4.168  -0.586   1.754  0.0820  0.5208  1.5513
  124MYC    C4724827   4.075  -0.485   1.915 -0.8684 -0.1192  0.2738
  124MYC    H8924828   4.167  -0.458   1.969 -1.4015  0.4491  0.9242
  124MYC    H9024829   4.001  -0.508   1.993  1.4139 -0.9119  2.3310
  124MYC    C4624830   4.023  -0.367   1.845  0.0529 -0.3364  0.7542
  124MYC    H8724831   3.936  -0.401   1.788  0.8337 -2.0711  0.5441
  124MYC    H8824832   4.097  -0.354   1.765 -0.3587 -1.3166  0.1977
  124MYC    C4524833   3.993  -0.236   1.922  0.2715 -0.3922 -0.1991
  124MYC    H8524834   3.970  -0.161   1.845 -0.2996  1.4656  1.6855
  124MYC    H8624835   4.076  -0.192   1.979 -0.8890  0.5869  0.8061
  124MYC    C4424836   3.876  -0.232   2.037 -0.6503 -0.0634  0.0023
  124MYC    H8324837   3.871  -0.126   2.065 -0.8884 -0.2781  0.7909
  124MYC    H8424838   3.917  -0.288   2.122  2.0951  1.0469 -0.4998
  124MYC    C1824839   3.740  -0.270   1.995 -0.3490  0.0188 -0.0333
  124MYC    H3124840   3.712  -0.219   1.903  0.5238 -1.6718 -1.2955
  124MYC    C1724841   3.692  -0.408   2.000 -0.6677 -0.0279  0.1627
  124MYC    H3024842   3.749  -0.493   2.038 -2.4753 -2.1641 -1.6075
  124MYC    C1924843   3.638  -0.313   2.105 -0.0190  0.5239 -0.3775
  124MYC    H3224844   3.665  -0.345   2.206  0.9021  2.2213 -0.0411
  124MYC    H3324845   3.541  -0.265   2.097 -0.6621 -0.5402  0.6641
  124MYC    C1624846   3.614  -0.462   1.891  0.0451 -0.6369 -0.1080
  124MYC    H2824847   3.679  -0.531   1.836 -0.0885 -1.2318  0.4595
  124MYC    H2924848   3.585  -0.380   1.824  0.0107  0.5648  1.3364
  124MYC    C1524849   3.494  -0.551   1.919  0.0424  0.3965 -0.1995
  124MYC    H2624850   3.456  -0.581   1.820  0.2576  1.4336 -0.6055
  124MYC    H2724851   3.426  -0.487   1.976  1.0156  1.8131 -0.5940
  124MYC    C1424852   3.523  -0.685   1.987  0.0403 -0.2518 -0.5143
  124MYC    H2424853   3.621  -0.718   1.950  0.4912  2.0727 -1.6142
  124MYC    H2524854   3.444  -0.754   1.954 -1.6197  1.0492  0.5606
  124MYC    C1324855   3.497  -0.681   2.145 -0.5273  0.7485 -1.0506
  124MYC    H2224856   3.413  -0.750   2.161  0.6814 -0.8206 -1.1869
  124MYC    H2324857   3.475  -0.576   2.167 -1.8430  0.6423 -1.7312
  124MYC    C1224858   3.613  -0.731   2.242 -0.5217 -0.5528 -0.1123
  124MYC    H2024859   3.585  -0.727   2.348  1.1136  2.6560  0.3142
  124MYC    H2124860   3.701  -0.666   2.243 -0.0522 -1.1871  0.4219
  124MYC    C1124861   3.659  -0.882   2.219  0.6786  0.1120 -0.3077
  124MYC    H1824862   3.764  -0.886   2.253  0.4082  0.0467  0.5563
  124MYC    H1924863   3.666  -0.906   2.113 -0.3525 -2.7007  0.1598
  124MYC    C1024864   3.575  -0.995   2.297  0.2503  0.9286  0.4621
  124MYC    H1624865   3.471  -1.011   2.265  0.9510 -0.5348 -1.2900
  124MYC    H1724866   3.584  -0.970   2.403 -0.0177  0.3701  0.6156
  124MYC     C924867   3.639  -1.131   2.273 -0.3723 -0.3484 -0.2051
  124MYC    H1424868   3.741  -1.123   2.312 -0.8489  0.9540  0.8658
  124MYC    H1524869   3.644  -1.153   2.166  0.7172  0.2815 -0.3018
  124MYC     C824870   3.554  -1.246   2.338 -0.0558  0.8566  0.3994
  124MYC    H1224871   3.449  -1.256   2.308 -0.1614 -1.1986  1.2463
  124MYC    H1324872   3.556  -1.237   2.447 -1.1769  0.0254  0.5122
  124MYC     C724873   3.604  -1.393   2.300  0.2403 -0.5855 -0.2507
  124MYC    H1024874   3.712  -1.399   2.318  0.3995 -1.7176 -1.4247
  124MYC    H1124875   3.589  -1.396   2.191  2.1224  0.5492 -0.5968
  124MYC     C624876   3.535  -1.506   2.373  0.6646  0.5998 -0.3057
  124MYC     H824877   3.427  -1.494   2.358  0.0539 -1.4507  1.8929
  124MYC     H924878   3.554  -1.479   2.477  1.8993 -0.1122 -0.3256
  124MYC     C524879   3.594  -1.645   2.342 -0.3024 -1.1654  0.5640
  124MYC     H624880   3.696  -1.634   2.381  0.4711  2.1976 -1.8952
  124MYC     H724881   3.606  -1.657   2.234  3.3787  1.7441  0.4296
  124MYC     C424882   3.519  -1.765   2.391  0.1439 -0.0793 -0.0114
  124MYC     H424883   3.573  -1.860   2.376 -0.6886 -1.0565  2.5778
  124MYC     H524884   3.425  -1.778   2.337  0.5938 -0.0383 -0.8145
  124MYC     C224885   3.485  -1.762   2.545  0.2196  0.2026 -0.5474
  124MYC     H224886   3.404  -1.688   2.556 -3.0364 -2.9823 -1.2199
  124MYC     O324887   3.416  -1.888   2.575 -0.2953 -0.0132 -0.1365
  124MYC     H324888   3.465  -1.924   2.651 -0.3024  0.8444  0.2805
  124MYC     C124889   3.603  -1.739   2.648  0.2467  0.5161 -0.4914
  124MYC     H124890   3.666  -1.654   2.617 -0.2911  0.9383 -0.4399
  124MYC    C8124891   3.700  -1.863   2.644  0.3943  0.5980 -0.0182
  124MYC    O8224892   3.674  -1.979   2.655 -0.4305 -0.6835 -0.9031
  124MYC    O8324893   3.827  -1.821   2.624  0.0063  0.5381  0.3727
  124MYC   H10524894   3.866  -1.910   2.624 -3.8864 -1.4057  1.2138
  124MYC    C2024895   3.556  -1.711   2.796 -0.4641  0.3202  0.2555
  124MYC    H3424896   3.499  -1.618   2.790 -0.5305  0.3621  1.3488
  124MYC    H3524897   3.496  -1.798   2.825 -0.3641 -0.6051 -2.1398
  124MYC    C2124898   3.667  -1.707   2.900 -0.2582 -0.8436 -0.3106
  124MYC    H3624899   3.722  -1.799   2.922 -2.2736 -1.7877  1.1922
  124MYC    H3724900   3.737  -1.633   2.863  0.5137 -1.5461 -0.2820
  124MYC    C2224901   3.620  -1.666   3.039 -0.1863 -0.0894  0.3711
  124MYC    H3824902   3.714  -1.646   3.091 -0.0048  2.2299 -0.7157
  124MYC    H3924903   3.554  -1.577   3.038 -1.8975 -1.3088 -0.2874
  124MYC    C2324904   3.545  -1.784   3.106  0.4575  0.4265 -0.7063
  124MYC    H4024905   3.460  -1.807   3.042 -2.1453  3.0672  1.4946
  124MYC    H4124906   3.622  -1.862   3.112  1.4892  1.4136 -0.7746
  124MYC    C2424907   3.487  -1.762   3.253 -0.2228  1.0122  0.0948
  124MYC    H4224908   3.561  -1.718   3.322  2.4408  0.3839 -2.1584
  124MYC    H4324909   3.400  -1.697   3.242 -1.3702 -0.3191  1.0167
  124MYC    C2524910   3.443  -1.901   3.309  0.2910  0.6262 -0.1612
  124MYC    H4424911   3.362  -1.949   3.253  2.3595 -1.7631 -1.3356
  124MYC    H4524912   3.525  -1.974   3.309 -1.3961 -1.3786  1.2437
  124MYC    C2624913   3.400  -1.901   3.450  0.3153  0.4581 -0.2165
  124MYC    H4624914   3.484  -1.861   3.508  0.4702 -0.4439  0.2094
  124MYC    H4724915   3.315  -1.834   3.465  0.7080  0.7506  0.7839
  124MYC    C2724916   3.362  -2.036   3.512  0.9372 -0.0255 -0.3168
  124MYC    H4824917   3.286  -2.084   3.449 -1.3062  1.4175  1.1544
  124MYC    H4924918   3.447  -2.105   3.514  0.3912 -0.6911  0.1910
  124MYC    C2824919   3.295  -2.022   3.652  0.7642 -0.3298  0.2054
  124MYC    H5024920   3.220  -1.943   3.657  1.5994  0.4265  1.7882
  124MYC    H5124921   3.245  -2.114   3.683  0.5603  0.3156  1.9146
  124MYC    C2924922   3.402  -1.994   3.751  0.1288  0.5034 -0.1738
  124MYC    H5224923   3.484  -2.065   3.732  1.3112  1.7970 -0.0252
  124MYC    H5324924   3.441  -1.893   3.739 -0.9319  1.0857  1.0007
  124MYC    C3024925   3.356  -2.012   3.904  0.1799  0.7160 -0.3149
  124MYC    H5424926   3.324  -2.116   3.919  2.5081 -0.3089 -1.8996
  124MYC    H5524927   3.439  -1.984   3.970 -0.5104 -0.4088  1.0752
  124MYC    C3124928   3.248  -1.907   3.936 -1.1573  0.3056 -0.7624
  124MYC    H5624929   3.300  -1.811   3.933  0.1879 -0.3413  0.5672
  124MYC    H5724930   3.161  -1.914   3.870 -1.9984  2.0626  0.0992
  124MYC    C3224931   3.202  -1.929   4.081  0.3237 -0.2753 -0.5319
  124MYC    H5824932   3.170  -2.034   4.074 -0.1265 -0.0429 -3.7350
  124MYC    H5924933   3.283  -1.905   4.150 -0.5850  2.5307 -0.3006
  124MYC    C3324934   3.078  -1.836   4.121 -0.4349  0.1086 -0.7181
  124MYC    H6024935   3.121  -1.736   4.110 -1.6339  0.6247 -0.9639
  124MYC    H6124936   2.996  -1.850   4.048 -1.6208 -0.5087  0.6841
  124MYC    C3424937   3.027  -1.878   4.264 -0.5384  0.8191  0.3883
  124MYC    H6224938   3.017  -1.987   4.264 -2.5255  0.9796 -0.2510
  124MYC    H6324939   3.092  -1.847   4.347 -1.5401 -1.3247  2.0863
  124MYC    C3524940   2.897  -1.814   4.288 -0.1305  0.0143  0.5781
  124MYC    H6424941   2.912  -1.705   4.297 -0.0716  0.1614 -1.0842
  124MYC    H6524942   2.826  -1.828   4.205  1.5539 -2.3522 -0.5738
  124MYC    C3624943   2.826  -1.873   4.415 -0.1125  0.1813  0.4050
  124MYC    H6624944   2.786  -1.973   4.393 -1.1919  0.2921  1.7348
  124MYC    H6724945   2.899  -1.891   4.495  2.5521 -0.3475 -1.9625
  124MYC    C3724946   2.700  -1.795   4.467 -0.7680  0.0429 -0.6853
  124MYC    H6824947   2.676  -1.827   4.569  0.6311  0.1043 -0.3221
  124MYC    H6924948   2.726  -1.689   4.481  0.1041 -0.1054 -1.1191
  124MYC    C3824949   2.573  -1.812   4.393 -0.2660 -1.2774 -0.2676
  124MYC    H7024950   2.588  -1.768   4.294  0.6134 -2.9074 -0.8897
  124MYC    H7124951   2.554  -1.919   4.381 -1.1309 -0.9343 -2.2914
  124MYC    C3924952   2.448  -1.741   4.465 -0.0808  0.5595 -0.0801
  124MYC    H7224953   2.451  -1.756   4.574  0.0292 -0.5440 -0.2212
  124MYC    H7324954   2.467  -1.633   4.460 -0.4976  0.7491  1.7487
  124MYC    C4024955   2.314  -1.776   4.391  0.2749 -0.3704 -0.3397
  124MYC    H7424956   2.317  -1.746   4.286 -1.4058  1.5752  0.1111
  124MYC    H7524957   2.289  -1.881   4.409 -0.3454  0.0688  1.6799
  124MYC    C4124958   2.201  -1.690   4.443  0.2781  0.2438  0.2982
  124MYC    H7624959   2.230  -1.588   4.415 -1.5462  0.4660 -0.9539
  124MYC    H7724960   2.116  -1.722   4.382 -0.7843  0.0004  1.8506
  124MYC    C4224961   2.165  -1.715   4.592  0.6209  0.5197 -0.4215
  124MYC    H7824962   2.257  -1.685   4.642 -0.5247 -0.2932  2.3463
  124MYC    H7924963   2.079  -1.657   4.626 -0.2362 -0.3431 -1.0694
  124MYC    C4324964   2.124  -1.870   4.621  0.1484 -0.2402  0.1550
  124MYC    H8024965   2.204  -1.937   4.589 -0.7429 -0.5993 -1.4300
  124MYC    H8124966   2.029  -1.892   4.572  0.4542  0.2636 -0.6753
  124MYC    H8224967   2.120  -1.887   4.730 -3.0069  0.4187  0.2526
  125MYC   HH1524968   2.364   1.170   4.987 -1.3193 -0.6395  2.2121
  125MYC    C8024969   2.263   1.206   4.964 -0.7735 -0.3362  0.0944
  125MYC   H10024970   2.196   1.188   5.049 -0.2248  0.5915  0.7286
  125MYC   H10124971   2.260   1.314   4.944  3.4739 -0.2353 -0.8768
  125MYC    C7924972   2.211   1.137   4.841 -0.2461 -0.0308  0.8006
  125MYC   H10224973   2.117   1.181   4.806 -0.2512 -0.0924  0.7345
  125MYC   H10324974   2.192   1.030   4.858 -1.5481 -0.2418 -1.5134
  125MYC    C7824975   2.306   1.146   4.723 -0.1706  0.3705 -0.3432
  125MYC   HH1424976   2.400   1.099   4.756 -1.4171 -2.9700 -1.1907
  125MYC   H10424977   2.334   1.251   4.710  2.0042  0.0133  0.9412
  125MYC    C7724978   2.253   1.073   4.593  0.2958  0.0819 -0.2998
  125MYC   H10624979   2.159   1.127   4.577 -0.5188 -1.0300  0.5377
  125MYC   H10724980   2.233   0.966   4.609 -1.2296  0.3663 -0.0945
  125MYC    C7624981   2.345   1.092   4.470  0.0801  0.1149  0.5720
  125MYC   H10824982   2.435   1.050   4.517 -0.5343 -2.2753 -0.2590
  125MYC   H10924983   2.356   1.196   4.439  1.0471 -0.5851 -1.6098
  125MYC    C7524984   2.314   1.006   4.347  0.5382 -0.3468  0.1716
  125MYC   H11024985   2.220   1.037   4.300  1.9797  0.5591 -2.3407
  125MYC   H11124986   2.310   0.900   4.373  1.4856 -0.2821  0.6098
  125MYC    C7424987   2.423   1.040   4.242  0.6120  0.7233  0.2745
  125MYC   H11224988   2.518   1.013   4.291  1.9146  1.0077 -1.9788
  125MYC   H11324989   2.424   1.147   4.219 -0.9742  0.6223 -0.3907
  125MYC    C7324990   2.398   0.961   4.111 -0.8463  0.5498  0.2776
  125MYC   HH1324991   2.306   0.997   4.064 -0.7111 -0.3464 -0.7022
  125MYC   H11424992   2.381   0.857   4.141 -1.0890  1.1919  2.5827
  125MYC    C7224993   2.518   0.960   4.015 -0.7035 -0.5516  0.2257
  125MYC   H11524994   2.610   0.947   4.072 -1.3886  1.0392  1.7892
  125MYC   H11624995   2.525   1.057   3.964  2.7637  1.0927  3.3615
  125MYC    C7124996   2.504   0.850   3.905  0.1539 -0.1270 -0.3016
  125MYC   H11724997   2.415   0.865   3.844  0.8722 -0.1154 -1.3763
  125MYC   H11824998   2.507   0.750   3.950 -0.1541 -1.1248 -2.3955
  125MYC    C7024999   2.621   0.851   3.805  0.6355 -0.4399 -0.0253
  125MYC   H11925000   2.703   0.821   3.872 -0.1592 -2.6819  0.0215
  125MYC   H12025001   2.638   0.948   3.756 -0.1661 -0.6722 -0.7774
  125MYC    C6925002   2.594   0.755   3.693 -0.1249 -0.4524  0.1435
  125MYC   H12125003   2.508   0.783   3.631 -0.8667 -3.0946 -0.1349
  125MYC   H12225004   2.577   0.654   3.731 -2.1632 -0.2752 -0.2159
  125MYC    C6825005   2.722   0.741   3.602  0.3183 -0.0009 -0.6009
  125MYC   HH1225006   2.802   0.703   3.667  1.9167  1.4462 -1.6441
  125MYC   H12325007   2.753   0.840   3.566  0.3627 -0.6470 -2.4821
  125MYC    C6725008   2.709   0.644   3.483 -0.4052  0.0127  0.9469
  125MYC   H12425009   2.638   0.686   3.411 -1.3321 -2.8879  0.0018
  125MYC   H12525010   2.660   0.549   3.508 -1.2670  0.7546  2.1796
  125MYC    C6625011   2.845   0.612   3.417 -0.7621  0.1267  0.2585
  125MYC   H12625012   2.901   0.553   3.491 -1.1907  0.7406  1.0811
  125MYC   H12725013   2.898   0.704   3.392  0.5888 -1.1028 -1.6857
  125MYC    C6525014   2.820   0.534   3.293  0.3349  1.1771 -0.0529
  125MYC   H12825015   2.762   0.588   3.218 -1.4283 -0.4950  0.0370
  125MYC   H12925016   2.759   0.446   3.317  1.7752  0.0308 -0.3841
  125MYC    C6425017   2.954   0.489   3.219  0.6044 -0.4192 -1.0692
  125MYC   H13025018   3.013   0.422   3.283 -0.1585 -1.9399 -1.8990
  125MYC   H13125019   3.009   0.575   3.178 -0.1945 -0.1258 -1.5391
  125MYC    C6325020   2.934   0.413   3.082  0.1403  0.0180 -0.5210
  125MYC   HH1125021   2.894   0.487   3.011  4.8941  1.4427 -2.0335
  125MYC   H13225022   2.865   0.331   3.108  1.1507 -0.1801  1.7899
  125MYC    C6225023   3.063   0.348   3.025  0.5522  0.0859 -0.0444
  125MYC   H13325024   3.121   0.292   3.099 -1.8810  0.3779  2.2278
  125MYC   H13425025   3.128   0.426   2.985  0.5583  1.1668  1.9415
  125MYC    C6125026   3.032   0.249   2.916 -0.2169 -0.0867  0.1290
  125MYC   H13525027   2.962   0.286   2.840 -0.0321  2.2017  0.9888
  125MYC   H13625028   2.980   0.161   2.955 -2.3996  0.5695 -1.1429
  125MYC    C6025029   3.158   0.198   2.846  0.2153 -0.5392  0.2567
  125MYC   H13725030   3.229   0.158   2.918  1.5807  2.2850  0.6038
  125MYC    C5825031   3.154   0.147   2.704  0.3038 -0.4020  0.8831
  125MYC   H13825032   3.059   0.161   2.655  0.7960 -1.4930 -0.4561
  125MYC    C5925033   3.224   0.278   2.733  0.0490 -0.4310  0.6876
  125MYC   H13925034   3.328   0.285   2.705 -0.5164  1.7234 -1.2432
  125MYC   H14025035   3.171   0.368   2.704 -0.2614 -0.2781  1.6677
  125MYC    C5725036   3.232   0.014   2.663  0.1012  0.3085 -0.4554
  125MYC   HH1025037   3.173  -0.078   2.667  0.4037  0.1517  1.2656
  125MYC   H14125038   3.318  -0.006   2.728  0.2763 -0.0460 -0.7900
  125MYC    C5625039   3.286   0.027   2.518  0.5648 -0.5046  0.7003
  125MYC   H14225040   3.336   0.123   2.498  0.8055 -0.7690  0.0182
  125MYC   H14325041   3.194   0.034   2.459 -0.0303  2.2864  1.7705
  125MYC    C5525042   3.381  -0.087   2.469  0.3299  0.5734  0.2048
  125MYC   H14425043   3.325  -0.180   2.486 -1.4328  1.7856  1.3152
  125MYC   H14525044   3.467  -0.086   2.537  2.2889 -0.0986 -2.1218
  125MYC    C5425045   3.440  -0.080   2.318 -0.1204  0.5560 -0.2985
  125MYC   H14625046   3.525  -0.148   2.308 -0.5140  0.2517 -1.9079
  125MYC   H14725047   3.480   0.021   2.310  0.7570  0.4778  2.2417
  125MYC    C5325048   3.332  -0.098   2.201 -0.6854 -0.0227  0.0597
  125MYC   H14825049   3.388  -0.079   2.108 -0.7357  3.5817  0.6168
  125MYC   H14925050   3.263  -0.013   2.209  0.4864  0.9096  0.4881
  125MYC    C5225051   3.267  -0.239   2.203 -0.3129 -0.6747 -0.1256
  125MYC    H9925052   3.217  -0.242   2.300 -1.1385  1.1319 -0.4501
  125MYC   H15025053   3.339  -0.320   2.215  0.0368 -0.1805  1.2944
  125MYC    C5125054   3.175  -0.288   2.082  0.2662 -0.4427 -0.4689
  125MYC    H9725055   3.226  -0.274   1.986  1.5481 -1.0344  0.0938
  125MYC    H9825056   3.084  -0.229   2.065 -0.7137 -1.7381  0.0891
  125MYC    C5025057   3.127  -0.435   2.088 -0.4334 -0.5393  0.0657
  125MYC    H9525058   3.081  -0.468   2.182 -0.7550  1.0296  0.4875
  125MYC    H9625059   3.210  -0.506   2.081  0.6818  0.7722 -0.6989
  125MYC    C4925060   3.032  -0.458   1.970  0.2985  0.7667  0.2061
  125MYC    H9325061   3.076  -0.455   1.869 -0.0794 -0.3816 -0.0135
  125MYC    H9425062   2.957  -0.379   1.964  0.5812  1.2371  2.3007
  125MYC    C4825063   2.951  -0.593   1.970  0.1405 -0.3384 -0.5571
  125MYC    H9125064   2.900  -0.599   1.873  0.3455 -0.5404 -0.6547
  125MYC    H9225065   2.870  -0.589   2.043  1.6756 -1.2279  1.2916
  125MYC    C4725066   3.045  -0.715   1.986 -0.5693 -0.4895 -0.9229
  125MYC    H8925067   3.097  -0.697   2.081 -1.9644  0.0458 -0.2390
  125MYC    H9025068   3.133  -0.705   1.922 -0.6152  1.8889 -0.7211
  125MYC    C4625069   2.996  -0.858   1.986  0.4362 -1.1257 -0.1536
  125MYC    H8725070   2.942  -0.876   1.892 -1.4532  0.8001  0.4982
  125MYC    H8825071   2.914  -0.868   2.057  0.1576  0.3530 -0.2446
  125MYC    C4525072   3.106  -0.959   2.023  0.2489  0.3932 -0.1156
  125MYC    H8525073   3.136  -0.926   2.123 -0.1667 -0.1278  0.1842
  125MYC    H8625074   3.187  -0.956   1.950 -1.6308  0.4359 -2.3328
  125MYC    C4425075   3.055  -1.106   2.038 -0.5460 -0.1998  0.3156
  125MYC    H8325076   3.009  -1.133   1.942  0.1743  1.3423 -0.4963
  125MYC    H8425077   2.971  -1.110   2.108  0.7753 -1.1034  1.9105
  125MYC    C1825078   3.158  -1.207   2.091 -0.0933  0.5024  1.1073
  125MYC    H3125079   3.235  -1.167   2.156 -1.2302 -0.3229  3.0132
  125MYC    C1725080   3.105  -1.337   2.146 -0.4519  0.0093  0.8666
  125MYC    H3025081   3.002  -1.368   2.127 -0.3941 -1.5711  2.8059
  125MYC    C1925082   3.187  -1.336   2.023 -0.4100  0.4331  0.4077
  125MYC    H3225083   3.137  -1.358   1.930  0.4282 -2.3575  0.5129
  125MYC    H3325084   3.287  -1.378   2.033  0.3585  1.7764 -1.1607
  125MYC    C1625085   3.151  -1.387   2.278  0.3915 -0.1580 -0.9313
  125MYC    H2825086   3.251  -1.348   2.296  1.1312 -2.0958 -0.5601
  125MYC    H2925087   3.157  -1.496   2.262 -1.9968 -0.2192 -1.8628
  125MYC    C1525088   3.046  -1.352   2.396  0.0153  0.3901  0.8112
  125MYC    H2625089   3.062  -1.421   2.479  0.3771 -1.8872 -1.0546
  125MYC    H2725090   2.940  -1.362   2.372 -0.0685  1.2668  0.7794
  125MYC    C1425091   3.053  -1.200   2.433 -0.2049 -0.1926 -0.9130
  125MYC    H2425092   2.960  -1.181   2.487  1.2039  0.6612  1.3369
  125MYC    H2525093   3.049  -1.138   2.343 -1.8497  0.8087 -0.1981
  125MYC    C1325094   3.165  -1.164   2.538 -0.3673 -0.4775  0.3506
  125MYC    H2225095   3.260  -1.188   2.490 -0.6595 -1.3578  0.1783
  125MYC    H2325096   3.169  -1.236   2.621  1.1537 -1.6063 -0.6497
  125MYC    C1225097   3.149  -1.024   2.603 -0.1453  0.5128 -0.1662
  125MYC    H2025098   3.220  -0.990   2.679 -1.8944 -0.3977  1.9937
  125MYC    H2125099   3.061  -1.034   2.669  0.7886  1.7551  1.3441
  125MYC    C1125100   3.141  -0.914   2.493 -0.3946 -0.6249 -0.5286
  125MYC    H1825101   3.043  -0.913   2.442 -0.7673  1.0999  0.1591
  125MYC    H1925102   3.215  -0.932   2.414  0.6366 -0.4829  0.3888
  125MYC    C1025103   3.185  -0.780   2.548 -0.2112 -0.1251 -0.3321
  125MYC    H1625104   3.289  -0.775   2.584 -1.0431 -0.3396  2.3059
  125MYC    H1725105   3.133  -0.752   2.641 -0.7143  1.1103 -0.9627
  125MYC     C925106   3.172  -0.670   2.436  0.1783  0.0528  0.1306
  125MYC    H1425107   3.069  -0.674   2.398  0.8394  1.4084 -1.9774
  125MYC    H1525108   3.247  -0.701   2.363  0.4315  0.1576  0.3442
  125MYC     C825109   3.208  -0.527   2.480 -0.5197 -0.3861  0.8893
  125MYC    H1225110   3.182  -0.455   2.401  1.0477 -0.6411  0.0951
  125MYC    H1325111   3.317  -0.520   2.476 -0.5010 -1.0429 -2.7847
  125MYC     C725112   3.143  -0.473   2.600 -0.3169 -0.5437 -0.3683
  125MYC    H1025113   3.175  -0.369   2.599  0.3123 -0.6580  2.0282
  125MYC    H1125114   3.177  -0.525   2.690  0.8833 -1.6251 -1.4066
  125MYC     C625115   2.984  -0.469   2.589 -0.1453 -0.1332  0.8208
  125MYC     H825116   2.946  -0.572   2.592  1.1245 -0.8625 -3.1755
  125MYC     H925117   2.951  -0.425   2.494  0.0093  0.7434  1.1600
  125MYC     C525118   2.919  -0.394   2.703  0.0571 -0.2206 -0.1799
  125MYC     H625119   2.812  -0.412   2.690 -1.1197  3.7660  2.0487
  125MYC     H725120   2.939  -0.287   2.689  0.1130 -0.1569  0.3874
  125MYC     C425121   2.937  -0.450   2.846 -0.3014 -0.1210 -0.9409
  125MYC     H425122   3.039  -0.430   2.881 -0.7446 -0.0622  0.3891
  125MYC     H525123   2.915  -0.557   2.854 -1.9159  0.3087  2.7972
  125MYC     C225124   2.843  -0.390   2.950  0.4442 -0.9460 -0.0129
  125MYC     H225125   2.743  -0.385   2.903  1.4626 -0.8917 -2.3202
  125MYC     O325126   2.843  -0.477   3.064 -0.2305  0.1388  0.1524
  125MYC     H325127   2.928  -0.462   3.110  0.5365  0.0443 -1.1724
  125MYC     C125128   2.874  -0.234   2.985 -0.4600  0.9986  0.2211
  125MYC     H125129   2.877  -0.171   2.895  1.2108 -0.1962 -0.6075
  125MYC    C8125130   3.015  -0.211   3.045  0.3247 -0.6528 -1.0212
  125MYC    O8225131   3.063  -0.295   3.118 -0.6593  0.8293 -0.0550
  125MYC    O8325132   3.085  -0.096   3.013 -0.0299  0.5138 -0.4608
  125MYC   H10525133   3.167  -0.103   3.065 -1.8612 -2.0292  2.4687
  125MYC    C2025134   2.760  -0.182   3.077 -0.2433  0.6895  0.2689
  125MYC    H3425135   2.669  -0.198   3.018  0.7807 -0.9247 -0.9786
  125MYC    H3525136   2.740  -0.240   3.167 -2.8795  0.9027 -0.1198
  125MYC    C2125137   2.775  -0.034   3.121  0.7192 -0.2296  0.0441
  125MYC    H3625138   2.874  -0.007   3.159  1.5951 -1.0755 -1.5692
  125MYC    H3725139   2.761   0.036   3.038  1.1630  1.1335  1.0880
  125MYC    C2225140   2.656   0.005   3.215  0.6056  0.3765 -0.0758
  125MYC    H3825141   2.557  -0.021   3.175 -0.1966 -0.0989  2.0465
  125MYC    H3925142   2.659  -0.053   3.308 -0.1435  2.1278  1.0932
  125MYC    C2325143   2.641   0.153   3.258 -0.2555 -0.0430  0.1551
  125MYC    H4025144   2.727   0.175   3.322  0.2240 -0.6271 -0.2678
  125MYC    H4125145   2.637   0.212   3.166  1.8951 -0.3517 -0.1926
  125MYC    C2425146   2.512   0.165   3.343  0.2610  0.2922 -0.3786
  125MYC    H4225147   2.430   0.133   3.278  0.0028 -0.5960  0.3753
  125MYC    H4325148   2.511   0.089   3.422 -2.5097  0.2506 -0.3673
  125MYC    C2525149   2.482   0.311   3.396 -0.2678  0.1570 -0.3808
  125MYC    H4425150   2.564   0.342   3.461  0.1443 -2.8013  0.6531
  125MYC    H4525151   2.471   0.384   3.314 -0.5640  1.0019  0.3863
  125MYC    C2625152   2.346   0.328   3.471 -0.0841 -0.2381  0.7444
  125MYC    H4625153   2.273   0.319   3.390  2.2608 -0.0616 -1.5023
  125MYC    H4725154   2.335   0.240   3.535 -0.6863 -0.6736  0.0588
  125MYC    C2725155   2.345   0.455   3.562  0.6357 -0.1479  0.1907
  125MYC    H4825156   2.424   0.444   3.638  1.1705  3.4263  0.3220
  125MYC    H4925157   2.374   0.543   3.504 -1.4821 -0.3391 -1.2681
  125MYC    C2825158   2.217   0.479   3.647 -0.2498  0.6402 -0.4616
  125MYC    H5025159   2.132   0.521   3.592 -0.4583  0.5144 -0.2376
  125MYC    H5125160   2.192   0.383   3.695 -1.0175  1.9810  1.9868
  125MYC    C2925161   2.252   0.588   3.761  0.6751  0.1802  0.2201
  125MYC    H5225162   2.359   0.580   3.783  0.9624  2.2244 -0.1972
  125MYC    H5325163   2.237   0.685   3.712 -3.3946  0.1774  1.0857
  125MYC    C3025164   2.150   0.584   3.873 -0.5566  0.9307 -0.6345
  125MYC    H5425165   2.047   0.584   3.835 -0.0547  1.4116 -2.0314
  125MYC    H5525166   2.165   0.489   3.925 -0.8559  1.2280  0.0129
  125MYC    C3125167   2.169   0.698   3.975  0.3824  0.6578 -0.3254
  125MYC    H5625168   2.263   0.686   4.031  0.4993 -0.0335 -0.6550
  125MYC    H5725169   2.176   0.788   3.913 -0.8444  0.7186 -0.4058
  125MYC    C3225170   2.050   0.697   4.081 -0.2779  0.3635  0.4968
  125MYC    H5825171   1.961   0.734   4.029 -0.0460 -1.3118 -1.1787
  125MYC    H5925172   2.024   0.591   4.096 -2.3778  0.1627 -3.3203
  125MYC    C3325173   2.078   0.774   4.203  0.1230  0.8652 -0.0436
  125MYC    H6025174   2.175   0.743   4.243  0.1945  0.6676 -0.3639
  125MYC    H6125175   2.072   0.877   4.168  0.4135  0.5269 -1.1480
  125MYC    C3425176   1.976   0.748   4.312 -0.3358  0.0721 -0.8260
  125MYC    H6225177   1.880   0.798   4.295 -0.2573  1.3974  2.0539
  125MYC    H6325178   1.946   0.643   4.312  0.9441 -0.3342  0.7306
  125MYC    C3525179   2.036   0.786   4.454  0.4392  0.4037  0.1386
  125MYC    H6425180   2.113   0.713   4.481  1.7237  1.8296  0.4120
  125MYC    H6525181   2.085   0.884   4.448  0.5522  0.2861 -1.3773
  125MYC    C3625182   1.927   0.799   4.568 -0.2531 -0.0917  0.0659
  125MYC    H6625183   1.851   0.867   4.528 -2.3435 -1.3758  1.6160
  125MYC    H6725184   1.882   0.699   4.564 -1.3182  0.4254 -2.2504
  125MYC    C3725185   1.974   0.841   4.706 -0.1938 -0.4203 -0.1597
  125MYC    H6825186   2.061   0.782   4.740 -1.5741 -1.5050  1.6630
  125MYC    H6925187   2.008   0.945   4.698  2.9468 -1.4481 -2.4063
  125MYC    C3825188   1.874   0.819   4.824  0.0406  0.0628 -0.4088
  125MYC    H7025189   1.787   0.884   4.812  0.6934  1.1418  0.5656
  125MYC    H7125190   1.847   0.713   4.829 -0.0079  0.1408  3.3211
  125MYC    C3925191   1.935   0.870   4.960  0.4928  0.0747 -0.3666
  125MYC    H7225192   2.031   0.824   4.985 -1.1689 -1.6605  3.7178
  125MYC    H7325193   1.960   0.976   4.947  1.6492 -0.3306 -1.8003
  125MYC    C4025194   1.833   0.845   5.080 -0.2534  0.1073 -0.0071
  125MYC    H7425195   1.733   0.885   5.058 -1.4637 -3.9562 -3.1014
  125MYC    H7525196   1.822   0.736   5.078 -2.5369  0.2035  2.0459
  125MYC    C4125197   1.884   0.900   5.214  0.1256 -0.7789  0.2874
  125MYC    H7625198   1.987   0.869   5.236  1.1243  2.9817  1.6408
  125MYC    H7725199   1.902   1.007   5.199 -1.8729 -0.4413 -0.0661
  125MYC    C4225200   1.790   0.876   5.335 -0.0113 -0.5101 -0.0473
  125MYC    H7825201   1.688   0.907   5.308 -0.3529 -1.8533 -0.3760
  125MYC    H7925202   1.779   0.768   5.346  1.2035 -0.6042  0.4019
  125MYC    C4325203   1.819   0.964   5.456  0.2558 -0.0714 -0.1666
  125MYC    H8025204   1.928   0.958   5.472  0.3017  1.7847  0.3699
  125MYC    H8125205   1.767   0.930   5.546  0.8219 -0.0281  0.1864
  125MYC    H8225206   1.805   1.069   5.429 -0.0039  0.0722  0.5047
  126MYC   HH1525207   2.410   1.294   5.383 -0.7280  0.0271  0.5453
  126MYC    C8025208   2.395   1.383   5.320  0.7767 -0.2476 -0.2365
  126MYC   H10025209   2.292   1.381   5.282  0.8122 -3.2674 -0.4073
  126MYC   H10125210   2.401   1.471   5.385 -0.0902  0.8890 -1.6374
  126MYC    C7925211   2.485   1.394   5.197  1.0960 -0.0100  0.4419
  126MYC   H10225212   2.471   1.319   5.118  0.6772  0.2920  0.2273
  126MYC   H10325213   2.584   1.372   5.239  1.2291 -0.2175  0.0326
  126MYC    C7825214   2.485   1.526   5.125  0.2287 -0.4099 -0.5760
  126MYC   HH1425215   2.505   1.609   5.194 -1.0311  0.6713 -1.4463
  126MYC   H10425216   2.383   1.558   5.099 -0.6623 -0.6551  2.2539
  126MYC    C7725217   2.578   1.529   5.003 -0.3253  0.4818 -0.0858
  126MYC   H10625218   2.655   1.453   5.021 -1.3113 -0.8337 -1.2321
  126MYC   H10725219   2.644   1.616   4.999 -1.3849  1.3855  1.3130
  126MYC    C7625220   2.520   1.496   4.868  0.1103 -0.3770 -0.4357
  126MYC   H10825221   2.439   1.568   4.855 -0.4887 -1.1141 -0.8409
  126MYC   H10925222   2.479   1.395   4.867  1.4410 -0.9357 -0.3328
  126MYC    C7525223   2.630   1.505   4.758 -0.5739  0.2714 -0.7101
  126MYC   H11025224   2.712   1.439   4.788 -1.1862 -0.1407  0.0649
  126MYC   H11125225   2.643   1.613   4.747 -2.5326  0.4570 -1.5352
  126MYC    C7425226   2.593   1.446   4.617  0.0760  0.5755  0.1422
  126MYC   H11225227   2.505   1.501   4.583 -0.2631  1.0151  1.6534
  126MYC   H11325228   2.561   1.342   4.633 -1.3082  1.1956  1.7401
  126MYC    C7325229   2.710   1.438   4.514 -0.4505 -0.2606 -0.0807
  126MYC   HH1325230   2.784   1.362   4.543  0.2393 -0.3876 -2.0342
  126MYC   H11425231   2.758   1.536   4.508 -1.2905  0.2142  0.6959
  126MYC    C7225232   2.659   1.405   4.372  0.4043 -0.1838 -0.1329
  126MYC   H11525233   2.585   1.481   4.343 -0.7310  0.5664  4.0935
  126MYC   H11625234   2.599   1.314   4.382  0.9073 -0.4626  0.4485
  126MYC    C7125235   2.782   1.406   4.275 -0.3129  0.0859 -0.3885
  126MYC   H11725236   2.848   1.325   4.308  0.4552  0.2481 -1.4618
  126MYC   H11825237   2.838   1.499   4.291  1.0011 -0.7050 -0.2586
  126MYC    C7025238   2.740   1.384   4.128  0.1316 -0.6197  0.3110
  126MYC   H11925239   2.645   1.439   4.119 -0.8064 -2.0945  0.7519
  126MYC   H12025240   2.698   1.284   4.113  0.4586 -0.8593  0.9544
  126MYC    C6925241   2.861   1.414   4.032  0.1525 -0.6701  0.5830
  126MYC   H12125242   2.947   1.360   4.073  0.1751 -0.5544  0.6883
  126MYC   H12225243   2.886   1.521   4.036 -0.5111 -0.4876  0.0048
  126MYC    C6825244   2.833   1.376   3.882  0.4542  0.0553  0.0247
  126MYC   HH1225245   2.738   1.419   3.849 -0.5002 -0.0379  2.4542
  126MYC   H12325246   2.828   1.267   3.876  0.1353  0.1092 -0.9047
  126MYC    C6725247   2.944   1.428   3.788 -0.4143  0.0603  0.3624
  126MYC   H12425248   3.044   1.402   3.823  0.1411 -1.3043 -2.0308
  126MYC   H12525249   2.944   1.537   3.776  0.3995 -0.2135 -3.2838
  126MYC    C6625250   2.920   1.367   3.645  0.4056  0.1450 -0.4458
  126MYC   H12625251   2.825   1.402   3.604 -1.0504 -1.9032  0.9811
  126MYC   H12725252   2.899   1.259   3.643  0.5088  0.1239 -1.8790
  126MYC    C6525253   3.032   1.404   3.546 -0.7559  0.1955 -0.3407
  126MYC   H12825254   3.131   1.388   3.590  0.3597  1.7982 -2.1290
  126MYC   H12925255   3.030   1.507   3.508  1.1751  0.9818  1.5058
  126MYC    C6425256   3.041   1.298   3.423  0.0300 -0.3570 -0.6029
  126MYC   H13025257   2.969   1.326   3.345 -0.2202 -0.5700 -0.4534
  126MYC   H13125258   3.008   1.202   3.464 -1.4860  0.2700 -0.2942
  126MYC    C6325259   3.182   1.271   3.362 -0.2504 -0.1772  0.6322
  126MYC   HH1125260   3.174   1.203   3.276  1.4123  0.9951 -0.4988
  126MYC   H13225261   3.248   1.224   3.436  0.2709 -0.5549 -0.0573
  126MYC    C6225262   3.238   1.404   3.292 -0.1500  0.0728 -0.3096
  126MYC   H13325263   3.233   1.487   3.364  0.7739  0.6265 -0.8655
  126MYC   H13425264   3.177   1.423   3.203 -0.2834 -3.2360 -1.0465
  126MYC    C6125265   3.386   1.397   3.250 -0.2641 -0.2738  0.1411
  126MYC   H13525266   3.435   1.381   3.346 -0.9634 -0.9251  0.4049
  126MYC   H13625267   3.415   1.492   3.203 -0.7889  0.2588  0.8646
  126MYC    C6025268   3.402   1.285   3.148  0.5956 -0.5322  0.2359
  126MYC   H13725269   3.316   1.272   3.084  1.1896 -0.2345 -0.6390
  126MYC    C5825270   3.549   1.244   3.108 -0.4660  0.2530 -0.6967
  126MYC   H13825271   3.625   1.309   3.151  0.0979 -2.2098  2.3930
  126MYC    C5925272   3.459   1.155   3.200 -0.9657  0.3632 -0.0525
  126MYC   H13925273   3.435   1.055   3.165  0.7702  0.1566 -0.7792
  126MYC   H14025274   3.473   1.156   3.307 -4.2475  1.8193  0.4836
  126MYC    C5725275   3.566   1.212   2.967  0.5590 -0.6350  0.4289
  126MYC   HH1025276   3.579   1.305   2.912  1.3321 -1.3189 -0.5913
  126MYC   H14125277   3.480   1.162   2.922 -1.5665  2.0487  1.2179
  126MYC    C5625278   3.694   1.132   2.940  0.4423  0.1715 -0.3477
  126MYC   H14225279   3.688   1.040   2.998 -3.2542  0.3766 -0.1331
  126MYC   H14325280   3.773   1.192   2.987 -0.6732 -0.9188  3.1868
  126MYC    C5525281   3.714   1.110   2.788 -0.0844 -0.0015 -0.0179
  126MYC   H14425282   3.730   1.200   2.727 -3.5038  0.0677 -1.0419
  126MYC   H14525283   3.629   1.053   2.748 -0.7391  1.5619 -0.9441
  126MYC    C5425284   3.834   1.021   2.761  0.2507 -0.1210 -0.1378
  126MYC   H14625285   3.807   0.923   2.805  0.5801  0.2499  0.9151
  126MYC   H14725286   3.920   1.059   2.817 -1.5036  2.6920  0.8571
  126MYC    C5325287   3.866   0.979   2.617 -0.0694 -0.9557 -0.2826
  126MYC   H14825288   3.900   1.072   2.568  0.3739  1.6375  4.3904
  126MYC   H14925289   3.774   0.941   2.571  0.2454 -2.9349  0.6406
  126MYC    C5225290   3.960   0.855   2.616  0.1256 -0.9928 -0.1582
  126MYC    H9925291   3.903   0.767   2.649  0.2760 -0.7636  0.7222
  126MYC   H15025292   4.040   0.878   2.686 -0.5757 -0.8585  0.6163
  126MYC    C5125293   4.031   0.824   2.483 -0.0556  0.2312 -0.2454
  126MYC    H9725294   4.091   0.735   2.506  0.0914 -0.1327 -1.8921
  126MYC    H9825295   4.107   0.899   2.457  0.3957 -0.1973 -0.1951
  126MYC    C5025296   3.946   0.797   2.360 -0.0076  0.5011  0.7214
  126MYC    H9525297   3.898   0.890   2.328  0.7094  1.4971  2.3919
  126MYC    H9625298   3.864   0.734   2.396  2.0106 -2.1196  1.0503
  126MYC    C4925299   4.024   0.734   2.241  0.8707 -0.9732 -0.2987
  126MYC    H9325300   4.057   0.636   2.278 -0.3528 -2.3579 -2.6436
  126MYC    H9425301   4.114   0.791   2.215  0.9960 -1.0316  0.0069
  126MYC    C4825302   3.943   0.715   2.113 -0.0877  0.1437 -0.1407
  126MYC    H9125303   3.898   0.812   2.087  1.1732  0.8856  0.3799
  126MYC    H9225304   3.857   0.650   2.135 -0.0982  0.1333 -0.2108
  126MYC    C4725305   4.029   0.649   1.998 -0.3271 -0.5256 -0.1489
  126MYC    H8925306   4.043   0.544   2.026 -0.0073 -0.1828  1.0582
  126MYC    H9025307   4.128   0.695   2.001 -0.2872 -0.6237  2.3204
  126MYC    C4625308   3.962   0.661   1.857  0.6331 -0.3038 -0.0418
  126MYC    H8725309   3.921   0.761   1.842  4.4306  1.5208  0.5248
  126MYC    H8825310   3.886   0.585   1.837 -0.4111  0.8596 -0.6376
  126MYC    C4525311   4.061   0.647   1.745  1.0981 -0.1279  0.1862
  126MYC    H8525312   4.138   0.724   1.755  0.3348  0.9572 -1.7732
  126MYC    H8625313   4.026   0.669   1.644 -0.5137 -1.3715  0.4299
  126MYC    C4425314   4.127   0.508   1.735 -0.1423 -0.5126 -0.2485
  126MYC    H8325315   4.055   0.427   1.726  1.0120 -1.5393 -0.4360
  126MYC    H8425316   4.179   0.487   1.829 -1.0245 -0.5008  0.2557
  126MYC    C1825317   4.209   0.516   1.603  0.5115 -0.1112 -0.0427
  126MYC    H3125318   4.288   0.590   1.610  0.2737  0.1303  0.1307
  126MYC    C1725319   4.240   0.394   1.519  0.5555 -0.3493  0.2581
  126MYC    H3025320   4.195   0.300   1.549 -1.2313 -0.0554 -1.2730
  126MYC    C1925321   4.140   0.498   1.468 -0.4488  0.2174 -0.4271
  126MYC    H3225322   4.036   0.466   1.469 -0.5250  0.4545 -0.5053
  126MYC    H3325323   4.172   0.557   1.383 -1.1076  4.5291  2.0436
  126MYC    C1625324   4.372   0.381   1.438 -0.1440 -0.2485  0.5435
  126MYC    H2825325   4.437   0.467   1.455  0.6310 -1.3328  3.7137
  126MYC    H2925326   4.345   0.386   1.332  2.8159 -2.3778 -0.4086
  126MYC    C1525327   4.454   0.253   1.455 -0.2129  0.5077  0.3808
  126MYC    H2625328   4.545   0.271   1.397 -0.7334  1.7663 -0.0662
  126MYC    H2725329   4.413   0.162   1.409  1.3716 -0.0906  0.0752
  126MYC    C1425330   4.506   0.211   1.599  0.2885  0.2670 -0.6252
  126MYC    H2425331   4.569   0.297   1.626  0.7478  0.3274 -1.8178
  126MYC    H2525332   4.564   0.118   1.598 -0.9714 -0.5350 -1.4318
  126MYC    C1325333   4.384   0.184   1.696 -0.2310  0.3640 -0.4946
  126MYC    H2225334   4.305   0.121   1.652 -0.3181  2.3020 -3.4069
  126MYC    H2325335   4.329   0.278   1.711 -0.7855  0.1563 -1.1804
  126MYC    C1225336   4.421   0.121   1.833 -0.0858  0.4189  0.1787
  126MYC    H2025337   4.500   0.180   1.880 -0.8662  1.1991  0.5268
  126MYC    H2125338   4.447   0.014   1.835  0.8901  0.6537  0.6939
  126MYC    C1125339   4.306   0.130   1.937 -0.4505  0.6254 -0.3026
  126MYC    H1825340   4.220   0.068   1.906  0.0538  1.1537 -3.0094
  126MYC    H1925341   4.274   0.235   1.942 -1.1656  0.5576 -2.4023
  126MYC    C1025342   4.348   0.086   2.084 -0.4783  0.7267  0.0894
  126MYC    H1625343   4.433   0.135   2.131  0.1082 -0.6553  0.5110
  126MYC    H1725344   4.375  -0.020   2.082  0.7779  1.0362  0.1284
  126MYC     C925345   4.230   0.100   2.190 -0.3112  0.2135  0.2432
  126MYC    H1425346   4.145   0.039   2.159  0.5237 -1.4689  1.0939
  126MYC    H1525347   4.187   0.201   2.190 -0.8867 -0.0070 -0.9804
  126MYC     C825348   4.262   0.064   2.337  0.9303 -0.2702 -0.1840
  126MYC    H1225349   4.339   0.135   2.370 -0.2169  0.6829  0.5414
  126MYC    H1325350   4.297  -0.038   2.355  1.4856  0.3266  2.7885
  126MYC     C725351   4.139   0.081   2.430  0.4455 -0.1021  0.4272
  126MYC    H1025352   4.058   0.013   2.399 -1.0507  1.5068  0.6764
  126MYC    H1125353   4.105   0.184   2.421 -0.0505 -0.4016 -1.3979
  126MYC     C625354   4.172   0.044   2.579  0.3675 -0.4030 -0.4668
  126MYC     H825355   4.275   0.077   2.601 -0.1668  1.5299 -0.6275
  126MYC     H925356   4.174  -0.065   2.587  1.7332 -0.4009 -0.4927
  126MYC     C525357   4.076   0.107   2.682 -0.2634  0.2672 -0.0668
  126MYC     H625358   4.098   0.074   2.785 -1.1235  1.7247  0.6149
  126MYC     H725359   3.976   0.062   2.673  0.1199 -0.4258 -1.1508
  126MYC     C425360   4.078   0.260   2.682  0.6988 -0.3379  0.0508
  126MYC     H425361   4.041   0.303   2.588 -0.0734  0.8918  0.8872
  126MYC     H525362   4.180   0.300   2.679  0.7841 -0.5547  0.0214
  126MYC     C225363   3.995   0.321   2.804 -0.2676 -0.0290  0.0521
  126MYC     H225364   3.891   0.294   2.778  0.2060 -2.3359  0.3199
  126MYC     O325365   4.046   0.259   2.923 -0.0690  0.5752  0.2350
  126MYC     H325366   4.127   0.303   2.954 -0.0322  1.6827 -1.2809
  126MYC     C125367   4.001   0.476   2.815  0.4342 -0.4683  0.1452
  126MYC     H125368   3.948   0.506   2.723 -0.1363 -0.4388  0.4810
  126MYC    C8125369   4.150   0.523   2.806 -0.3531 -0.6709  0.0043
  126MYC    O8225370   4.231   0.503   2.891  0.2271 -0.1100 -0.5568
  126MYC    O8325371   4.181   0.591   2.694 -0.3562  0.0176 -0.1039
  126MYC   H10525372   4.273   0.622   2.692 -0.1706 -0.5578 -0.9013
  126MYC    C2025373   3.943   0.525   2.951 -0.5585  0.7666  0.3557
  126MYC    H3425374   3.849   0.471   2.970  0.2672 -1.4216 -1.2817
  126MYC    H3525375   4.012   0.496   3.031  1.4544  2.0595 -0.8272
  126MYC    C2125376   3.913   0.677   2.961  0.0116  0.5513 -0.4075
  126MYC    H3625377   4.011   0.727   2.956  0.2921  0.1566  0.7444
  126MYC    H3725378   3.865   0.699   2.865  0.6454 -1.2267 -1.1671
  126MYC    C2225379   3.838   0.723   3.088 -0.2164  0.2617  0.4233
  126MYC    H3825380   3.893   0.695   3.179 -2.0562 -3.9643  0.4517
  126MYC    H3925381   3.829   0.832   3.097 -1.3900  0.1184  1.2357
  126MYC    C2325382   3.693   0.677   3.089 -0.1833  0.5586 -0.4579
  126MYC    H4025383   3.646   0.681   2.990  0.9741 -2.4393 -1.2445
  126MYC    H4125384   3.696   0.571   3.118 -1.9099  0.4111 -0.7303
  126MYC    C2425385   3.593   0.738   3.182  0.0898  0.6079  0.4867
  126MYC    H4225386   3.640   0.749   3.280 -0.8918  2.0485  0.8165
  126MYC    H4325387   3.562   0.835   3.141 -0.2059  0.5173  0.4936
  126MYC    C2525388   3.463   0.658   3.208  0.3009  0.0209  0.4450
  126MYC    H4425389   3.422   0.645   3.107  2.6950  1.0957 -0.7785
  126MYC    H4525390   3.483   0.562   3.255 -3.1031 -1.3703 -0.6613
  126MYC    C2625391   3.358   0.733   3.296 -0.3072  0.0054  0.5614
  126MYC    H4625392   3.336   0.821   3.235 -1.5084 -1.3771 -1.0829
  126MYC    H4725393   3.272   0.667   3.308 -1.0638  1.0260  0.9659
  126MYC    C2725394   3.406   0.774   3.433  0.1358 -0.6573 -0.1933
  126MYC    H4825395   3.406   0.684   3.495  0.9921 -0.8963 -0.5318
  126MYC    H4925396   3.506   0.818   3.436  0.2497 -0.7655 -1.7681
  126MYC    C2825397   3.302   0.884   3.495  0.2854  0.7889  0.2773
  126MYC    H5025398   3.343   0.912   3.593  0.4758 -0.2233  0.5012
  126MYC    H5125399   3.296   0.969   3.426 -0.8895  1.2127  0.8765
  126MYC    C2925400   3.171   0.819   3.531  0.3570 -0.2916  0.2612
  126MYC    H5225401   3.127   0.779   3.438  1.0128 -0.7309  0.1342
  126MYC    H5325402   3.194   0.732   3.594  1.4322  0.5384  1.0340
  126MYC    C3025403   3.069   0.913   3.600 -0.0591 -0.2225  0.5108
  126MYC    H5425404   3.069   1.012   3.552 -2.7116 -0.1490  0.5188
  126MYC    H5525405   2.972   0.864   3.596  0.3579 -1.1041  0.9273
  126MYC    C3125406   3.108   0.935   3.749  0.0823  0.3460  0.2660
  126MYC    H5625407   3.115   0.840   3.804  1.6184 -0.5705 -1.4234
  126MYC    H5725408   3.205   0.987   3.750  0.1695  0.2165  1.8550
  126MYC    C3225409   2.996   1.005   3.824  0.3649 -1.2896  0.4450
  126MYC    H5825410   2.971   1.099   3.775  0.6251 -1.5282 -0.1580
  126MYC    H5925411   2.906   0.942   3.822 -0.1120 -0.6375 -2.0969
  126MYC    C3325412   3.026   1.029   3.979 -0.2709  0.2374  0.0173
  126MYC    H6025413   3.094   0.952   4.019 -0.6162  0.7979  1.7471
  126MYC    H6125414   3.070   1.128   3.988 -2.4340  1.1612  1.1043
  126MYC    C3425415   2.901   1.005   4.071  0.6499  0.0703 -0.0910
  126MYC    H6225416   2.826   1.078   4.040  3.5224  2.5945 -1.7290
  126MYC    H6325417   2.860   0.904   4.060  1.6026 -0.4722  1.1101
  126MYC    C3525418   2.936   1.020   4.226  0.5082  0.2911  1.0241
  126MYC    H6425419   3.024   0.959   4.249  1.1129  0.9797  0.5860
  126MYC    H6525420   2.965   1.124   4.245  0.7281 -0.0829  2.9221
  126MYC    C3625421   2.824   0.986   4.328  0.0980  0.6557 -0.1801
  126MYC    H6625422   2.736   1.043   4.298 -0.4359  0.7650  1.4902
  126MYC    H6725423   2.812   0.878   4.319  2.1245  0.3435  0.1843
  126MYC    C3725424   2.859   1.026   4.466 -0.9114  0.0788 -0.1489
  126MYC    H6825425   2.960   0.992   4.490 -0.6413  0.7159 -0.3680
  126MYC    H6925426   2.875   1.134   4.469  0.1422  0.0420 -2.2357
  126MYC    C3825427   2.757   0.994   4.580  0.0976  0.1774  0.1178
  126MYC    H7025428   2.806   1.016   4.676 -2.0701 -0.1345  1.3780
  126MYC    H7125429   2.669   1.059   4.569  0.1079  0.2262  0.3133
  126MYC    C3925430   2.701   0.852   4.577  0.2255  0.2328  0.1822
  126MYC    H7225431   2.644   0.838   4.485  0.1108 -0.9930  0.4191
  126MYC    H7325432   2.779   0.775   4.584  1.7006  1.6958  0.4136
  126MYC    C4025433   2.598   0.835   4.689  0.0673  0.5304  0.1102
  126MYC    H7425434   2.642   0.888   4.775 -1.3206  1.5475  0.2329
  126MYC    H7525435   2.512   0.892   4.652 -0.3481  0.9922  1.7262
  126MYC    C4125436   2.557   0.689   4.729  0.2914  1.1673 -0.0273
  126MYC    H7625437   2.492   0.661   4.645  0.8265  0.2283 -0.1305
  126MYC    H7725438   2.638   0.616   4.720 -1.6018 -1.3662  1.8707
  126MYC    C4225439   2.498   0.679   4.868  0.0644  0.0643 -0.1652
  126MYC    H7825440   2.469   0.574   4.877 -1.0894  0.4483  0.8495
  126MYC    H7925441   2.572   0.691   4.948 -2.2671 -0.7871  2.2763
  126MYC    C4325442   2.368   0.762   4.898 -0.3305 -0.4573  0.4444
  126MYC    H8025443   2.393   0.867   4.876 -0.6787 -0.5445 -0.4058
  126MYC    H8125444   2.324   0.741   4.996 -1.5880  0.1420  0.0325
  126MYC    H8225445   2.297   0.737   4.818  1.1207 -1.3345 -0.6120
  127MYC   HH1525446   2.724   2.398   5.391  1.8922  0.5339 -0.4732
  127MYC    C8025447   2.685   2.334   5.312  1.0364 -0.5275  0.7729
  127MYC   H10025448   2.632   2.247   5.353  0.9581 -0.4319  0.8761
  127MYC   H10125449   2.609   2.398   5.266  1.5035  2.2144  3.5274
  127MYC    C7925450   2.794   2.279   5.218  0.1104 -0.0718  0.2644
  127MYC   H10225451   2.875   2.227   5.272  0.1178 -1.5861 -1.1294
  127MYC   H10325452   2.838   2.369   5.174  0.7387 -0.9134 -0.8800
  127MYC    C7825453   2.748   2.186   5.095 -0.5115 -0.2417  0.0686
  127MYC   HH1425454   2.656   2.216   5.044  0.2904 -1.7060 -2.4547
  127MYC   H10425455   2.725   2.085   5.131  0.0994  0.6507  3.3059
  127MYC    C7725456   2.858   2.176   4.988 -0.5950  0.3403  0.7923
  127MYC   H10625457   2.946   2.129   5.034 -1.4662 -0.0746  2.0809
  127MYC   H10725458   2.892   2.276   4.960  1.4763 -0.5959 -0.2926
  127MYC    C7625459   2.817   2.101   4.857  0.1229  0.6971 -1.0778
  127MYC   H10825460   2.736   2.155   4.805 -0.6625  0.0603 -0.5513
  127MYC   H10925461   2.776   2.004   4.887  0.0416  0.9305 -0.3945
  127MYC    C7525462   2.935   2.081   4.758 -0.1492 -0.1267 -0.2693
  127MYC   H11025463   3.024   2.032   4.800  2.1897  3.3077 -0.7991
  127MYC   H11125464   2.961   2.180   4.719  1.4119 -0.2542  0.3729
  127MYC    C7425465   2.890   2.004   4.630 -0.6150 -0.2846  0.5168
  127MYC   H11225466   2.812   2.062   4.578  0.1286  0.1470 -0.1483
  127MYC   H11325467   2.844   1.911   4.665 -1.4780 -0.5819 -1.2833
  127MYC    C7325468   3.010   1.976   4.529  0.0300 -0.2220 -0.3896
  127MYC   HH1325469   3.102   1.950   4.583  0.2564 -0.2402 -0.7816
  127MYC   H11425470   3.034   2.074   4.486  0.5706  0.1814  0.7952
  127MYC    C7225471   2.973   1.880   4.413  0.1250  0.0162  0.0163
  127MYC   H11525472   2.880   1.920   4.371  1.2099  0.5850 -1.9814
  127MYC   H11625473   2.947   1.779   4.449  1.9227 -1.3784 -2.2718
  127MYC    C7125474   3.081   1.853   4.309  0.2291  0.2069 -0.1691
  127MYC   H11725475   3.140   1.769   4.348 -1.3715 -0.1808  1.5538
  127MYC   H11825476   3.145   1.942   4.306  0.6824 -0.1390 -1.4567
  127MYC    C7025477   3.021   1.815   4.174 -0.1929  0.7356 -0.4813
  127MYC   H11925478   2.975   1.907   4.136  0.7265  1.2546 -0.3607
  127MYC   H12025479   2.940   1.745   4.195  1.7119 -1.4907 -0.1049
  127MYC    C6925480   3.117   1.743   4.069  0.2109 -0.1932 -0.1661
  127MYC   H12125481   3.056   1.729   3.979 -0.7376 -1.2732  0.6138
  127MYC   H12225482   3.142   1.641   4.099  1.2594  0.0692 -0.1142
  127MYC    C6825483   3.239   1.823   4.022 -0.1737 -0.3839  0.1705
  127MYC   HH1225484   3.310   1.832   4.105 -0.8860  0.0059  0.7515
  127MYC   H12325485   3.204   1.924   3.995 -0.4474 -0.3792  0.5321
  127MYC    C6725486   3.296   1.757   3.894 -0.1999 -0.0663 -0.1246
  127MYC   H12425487   3.216   1.743   3.821  2.2550  0.9797 -3.2530
  127MYC   H12525488   3.335   1.660   3.927 -1.9359 -1.2171 -1.3246
  127MYC    C6625489   3.404   1.853   3.830  0.0290  0.2251 -0.4944
  127MYC   H12625490   3.479   1.888   3.902 -0.6133 -2.4439  1.6941
  127MYC   H12725491   3.345   1.937   3.793  0.2584  1.4352  1.7184
  127MYC    C6525492   3.476   1.795   3.702 -0.1029  0.5409 -0.1979
  127MYC   H12825493   3.546   1.874   3.673  1.2184 -0.2046  0.8773
  127MYC   H12925494   3.399   1.777   3.625  1.2809 -0.7958 -1.3221
  127MYC    C6425495   3.553   1.669   3.734 -0.1755  0.4324  0.7600
  127MYC   H13025496   3.483   1.586   3.716  1.7250 -0.7627 -1.7414
  127MYC   H13125497   3.589   1.667   3.837  0.9720  0.6332  0.3716
  127MYC    C6325498   3.679   1.656   3.651  0.0387  0.7003 -0.0871
  127MYC   HH1125499   3.751   1.579   3.682 -0.4204  0.7174  1.0839
  127MYC   H13225500   3.734   1.750   3.664  0.3917  0.5829 -0.7098
  127MYC    C6225501   3.648   1.640   3.501  0.1047 -0.4168  0.3234
  127MYC   H13325502   3.564   1.703   3.470  0.1639 -0.7951 -0.6555
  127MYC   H13425503   3.614   1.539   3.474 -1.4456 -0.1614  1.2273
  127MYC    C6125504   3.765   1.671   3.405  0.6512  0.0832  0.5499
  127MYC   H13525505   3.797   1.772   3.431  0.7867  0.4233 -0.8395
  127MYC   H13625506   3.731   1.684   3.301 -0.6557 -1.0497  0.7986
  127MYC    C6025507   3.881   1.583   3.404 -0.4604  0.3983 -0.7079
  127MYC   H13725508   3.859   1.478   3.386  0.6212  0.1125 -0.4570
  127MYC    C5825509   4.020   1.633   3.353 -0.5232 -0.3099 -0.0890
  127MYC   H13825510   4.004   1.736   3.323  0.4940  1.0985  3.6840
  127MYC    C5925511   4.004   1.609   3.497 -0.3810 -0.1610 -0.3743
  127MYC   H13925512   4.058   1.520   3.531  0.2390  0.4561  0.2919
  127MYC   H14025513   4.022   1.698   3.556  1.2659 -0.0517 -0.9856
  127MYC    C5725514   4.128   1.554   3.277 -0.1418  0.0131  0.2428
  127MYC   HH1025515   4.129   1.450   3.310 -1.7604 -0.2785 -0.5323
  127MYC   H14125516   4.224   1.600   3.304 -1.3484  1.1445  2.9812
  127MYC    C5625517   4.122   1.565   3.125 -0.5815  0.5529 -0.0581
  127MYC   H14225518   4.111   1.668   3.090 -1.0528  1.4132  2.4800
  127MYC   H14325519   4.034   1.508   3.094 -0.2670  0.4660 -0.8146
  127MYC    C5525520   4.238   1.518   3.045  0.4597 -0.5098 -0.3243
  127MYC   H14425521   4.265   1.422   3.092 -0.2243 -1.1907 -1.2872
  127MYC   H14525522   4.323   1.586   3.060 -1.0984  1.1230  1.7031
  127MYC    C5425523   4.237   1.486   2.896  1.1231  0.8972 -0.3220
  127MYC   H14625524   4.330   1.433   2.872  1.3491  2.1554 -2.5428
  127MYC   H14725525   4.237   1.578   2.836  1.6835 -0.1787 -2.0595
  127MYC    C5325526   4.130   1.399   2.846  0.0132 -0.3206  0.4629
  127MYC   H14825527   4.030   1.440   2.869  1.0888  2.6209  0.3905
  127MYC   H14925528   4.129   1.303   2.899 -0.5230 -1.2917 -1.2400
  127MYC    C5225529   4.124   1.375   2.688 -0.3712  0.5872 -0.2195
  127MYC    H9925530   4.107   1.470   2.635  0.9587  0.4992 -0.8319
  127MYC   H15025531   4.031   1.320   2.670  0.2865 -0.1309 -1.5814
  127MYC    C5125532   4.241   1.289   2.641 -0.3165  0.0476  0.8389
  127MYC    H9725533   4.257   1.207   2.712 -0.3620  1.2131  2.2591
  127MYC    H9825534   4.335   1.346   2.642  0.3733 -1.0709  1.1087
  127MYC    C5025535   4.218   1.224   2.504 -0.1655 -0.3434  0.0715
  127MYC    H9525536   4.197   1.294   2.423 -0.1352 -0.8428 -0.3735
  127MYC    H9625537   4.126   1.165   2.514  0.2464 -0.9210  0.5288
  127MYC    C4925538   4.339   1.141   2.446 -0.4684  0.5504  0.3214
  127MYC    H9325539   4.385   1.074   2.519  0.9796  1.2875  0.1390
  127MYC    H9425540   4.417   1.214   2.419  1.2028 -0.7779  1.3045
  127MYC    C4825541   4.298   1.077   2.313 -0.2205  0.2135  0.1195
  127MYC    H9125542   4.266   1.153   2.241  2.1193 -1.3856 -2.8679
  127MYC    H9225543   4.219   1.002   2.321  0.6591 -0.7337  0.2242
  127MYC    C4725544   4.424   1.009   2.235  0.4933  0.5447  0.3530
  127MYC    H8925545   4.456   0.920   2.291  0.5419  0.3613  0.0346
  127MYC    H9025546   4.508   1.079   2.234  0.0452  1.1402 -1.8220
  127MYC    C4625547   4.387   0.958   2.094  0.0901 -0.6079 -0.8578
  127MYC    H8725548   4.289   0.911   2.099 -0.6530  0.7032 -2.2129
  127MYC    H8825549   4.449   0.872   2.064  0.5706 -0.4875 -0.2363
  127MYC    C4525550   4.384   1.069   1.987 -0.0948 -0.5646 -0.0247
  127MYC    H8525551   4.485   1.112   1.978 -0.2377  0.1605  1.4540
  127MYC    H8625552   4.316   1.143   2.031  1.4466  0.6102  0.5019
  127MYC    C4425553   4.323   1.021   1.854 -0.0837 -0.8122 -0.3824
  127MYC    H8325554   4.393   0.952   1.805 -1.2348 -2.5283  0.2733
  127MYC    H8425555   4.336   1.115   1.800  0.3182  0.5054  1.8565
  127MYC    C1825556   4.173   0.980   1.842  0.7789 -0.4954  0.0985
  127MYC    H3125557   4.141   0.889   1.893 -0.8078 -0.6332 -1.0702
  127MYC    C1725558   4.066   1.083   1.802 -0.8067  0.3276 -0.7325
  127MYC    H3025559   4.103   1.186   1.804 -0.9781  0.4977  3.3171
  127MYC    C1925560   4.117   0.986   1.699  0.0336  0.1931  0.1505
  127MYC    H3225561   4.159   1.035   1.612 -0.9970 -0.2673 -0.6264
  127MYC    H3325562   4.046   0.907   1.674  0.2465 -0.1783  0.7007
  127MYC    C1625563   3.922   1.070   1.854  0.0135  0.1002 -0.0829
  127MYC    H2825564   3.874   0.976   1.825  1.9613 -1.4763  1.5588
  127MYC    H2925565   3.875   1.154   1.800  2.2980 -0.2765 -2.9537
  127MYC    C1525566   3.903   1.081   2.007 -0.1553 -0.6393 -0.1691
  127MYC    H2625567   3.982   1.025   2.058 -1.0505 -3.1864 -1.3823
  127MYC    H2725568   3.809   1.033   2.036  1.7928 -3.3712  2.2237
  127MYC    C1425569   3.906   1.229   2.055 -0.0278  0.1760 -0.1908
  127MYC    H2425570   3.825   1.288   2.010 -0.3589  0.8926  1.2947
  127MYC    H2525571   3.998   1.279   2.023 -0.7004  1.0575 -0.7925
  127MYC    C1325572   3.877   1.244   2.206  0.4876  0.0970  0.3644
  127MYC    H2225573   3.953   1.191   2.265  0.9513  0.9419  0.5541
  127MYC    H2325574   3.780   1.201   2.233  0.5166  1.7018  3.4636
  127MYC    C1225575   3.881   1.401   2.241  0.8242 -0.1011 -0.2889
  127MYC    H2025576   3.826   1.464   2.170  1.1467 -0.3256 -0.7421
  127MYC    H2125577   3.985   1.435   2.235  0.0475  2.3493 -0.9362
  127MYC    C1125578   3.811   1.442   2.371 -0.5394 -0.2819 -0.1099
  127MYC    H1825579   3.860   1.393   2.456 -0.9884 -1.8784 -0.7258
  127MYC    H1925580   3.713   1.393   2.371 -0.1667 -1.0785  1.5204
  127MYC    C1025581   3.792   1.594   2.391  0.1620  0.3839  0.6838
  127MYC    H1625582   3.737   1.638   2.307  1.4736 -0.9700 -0.9623
  127MYC    H1725583   3.891   1.639   2.406  0.2931 -0.0582  1.1727
  127MYC     C925584   3.714   1.630   2.518 -0.0986 -0.1248 -0.0943
  127MYC    H1425585   3.784   1.615   2.602  0.8810 -1.6090 -1.1341
  127MYC    H1525586   3.630   1.562   2.536 -1.3674  1.5533  0.6042
  127MYC     C825587   3.654   1.773   2.520 -0.2549  0.1197  0.6313
  127MYC    H1225588   3.592   1.769   2.430  0.8337  2.4370 -0.3105
  127MYC    H1325589   3.734   1.847   2.503 -1.1149  0.8081 -0.5526
  127MYC     C725590   3.579   1.803   2.644  0.4316 -0.6514  0.1145
  127MYC    H1025591   3.640   1.781   2.732 -0.6733  0.1155  1.1004
  127MYC    H1125592   3.496   1.732   2.640  1.3932 -1.8268  0.2110
  127MYC     C625593   3.526   1.949   2.645  0.3551 -0.1330 -0.0301
  127MYC     H825594   3.471   1.963   2.551  0.7437  0.1837 -0.2083
  127MYC     H925595   3.613   2.015   2.637  0.3644 -0.3837 -2.8443
  127MYC     C525596   3.441   1.985   2.775  0.1006  0.2704  0.0690
  127MYC     H625597   3.435   2.095   2.779  1.8165  0.4288 -0.9124
  127MYC     H725598   3.507   1.954   2.857 -1.4553  0.2123  1.3635
  127MYC     C425599   3.297   1.920   2.790 -0.0216 -0.7402  0.2834
  127MYC     H425600   3.295   1.810   2.780 -3.0739 -0.8827  1.4854
  127MYC     H525601   3.240   1.961   2.705 -0.5892  1.6364  1.7235
  127MYC     C225602   3.206   1.954   2.912 -0.1001 -0.1760  0.5119
  127MYC     H225603   3.166   2.056   2.913 -2.6898 -1.1274  0.8622
  127MYC     O325604   3.090   1.877   2.897  0.3244  0.2446 -0.2472
  127MYC     H325605   3.106   1.781   2.893 -2.9117 -0.3781 -3.5028
  127MYC     C125606   3.264   1.916   3.055 -0.6565  0.5768 -0.2518
  127MYC     H125607   3.330   2.003   3.066  0.7030 -0.6466  1.9043
  127MYC    C8125608   3.354   1.793   3.049 -0.0463 -0.4692 -0.3418
  127MYC    O8225609   3.311   1.681   3.021  0.4713 -0.3577  0.2252
  127MYC    O8325610   3.464   1.804   3.128  0.3048 -0.1298  0.6296
  127MYC   H10525611   3.519   1.727   3.105  0.2688  0.0961 -0.2711
  127MYC    C2025612   3.160   1.908   3.169 -0.2438  0.4408  0.4534
  127MYC    H3425613   3.108   2.003   3.154 -0.9799 -0.2532 -1.6860
  127MYC    H3525614   3.086   1.828   3.159 -0.7564  0.7290  1.7843
  127MYC    C2125615   3.207   1.892   3.314 -0.3722  0.1397  0.0798
  127MYC    H3625616   3.243   1.791   3.335  0.9770  1.0344  2.5620
  127MYC    H3725617   3.290   1.961   3.331  0.5975 -1.0411  0.2804
  127MYC    C2225618   3.099   1.926   3.420  0.2313  0.5438 -0.1561
  127MYC    H3825619   3.088   2.035   3.418  0.7233  0.6406  1.1550
  127MYC    H3925620   3.001   1.882   3.401  0.8475 -0.9030 -0.1037
  127MYC    C2325621   3.144   1.884   3.558  0.2666 -0.9952 -0.7985
  127MYC    H4025622   3.172   1.778   3.562  0.3194 -0.9465  0.8570
  127MYC    H4125623   3.241   1.934   3.576  0.7229 -1.5718 -1.5852
  127MYC    C2425624   3.037   1.910   3.663  0.0037  0.4186 -0.1743
  127MYC    H4225625   2.940   1.866   3.637  0.4632 -1.4570  1.0737
  127MYC    H4325626   3.059   1.876   3.765 -2.4652  0.1421  0.3297
  127MYC    C2525627   3.020   2.063   3.689  0.1637 -0.4566  0.4068
  127MYC    H4425628   3.122   2.102   3.679  0.2440 -0.0705  2.3737
  127MYC    H4525629   2.957   2.113   3.614 -0.1651 -0.9650  0.3360
  127MYC    C2625630   2.976   2.091   3.837  0.4840  0.0714  0.8564
  127MYC    H4625631   2.902   2.013   3.860 -1.9842  2.0183 -0.0465
  127MYC    H4725632   3.061   2.070   3.903  0.9605 -0.2275  0.1674
  127MYC    C2725633   2.908   2.235   3.852  0.5026  0.2299 -0.9724
  127MYC    H4825634   2.987   2.311   3.850 -0.1472  0.9184 -1.1037
  127MYC    H4925635   2.836   2.251   3.771  0.5127  2.6118 -0.5797
  127MYC    C2825636   2.845   2.243   3.989  0.4037 -0.1613 -0.1409
  127MYC    H5025637   2.788   2.334   4.014  0.8583 -0.4801  2.3293
  127MYC    H5125638   2.778   2.162   4.018 -1.4915  0.1412 -3.1708
  127MYC    C2925639   2.954   2.279   4.091  0.2540  0.2307 -0.2924
  127MYC    H5225640   3.038   2.210   4.080  0.4722  0.4272  0.1150
  127MYC    H5325641   2.991   2.379   4.063 -0.6034  0.8286  0.6453
  127MYC    C3025642   2.909   2.293   4.236  0.3681 -0.2287 -0.0102
  127MYC    H5425643   2.833   2.370   4.218 -0.2444 -1.1608 -1.6603
  127MYC    H5525644   2.871   2.196   4.271  3.4205 -1.0903  1.2210
  127MYC    C3125645   3.011   2.353   4.339  0.4918  0.1281  0.4578
  127MYC    H5625646   3.094   2.281   4.344 -0.3865 -1.0124 -0.7109
  127MYC    H5725647   3.041   2.452   4.303  0.4473 -0.2175 -0.5863
  127MYC    C3225648   2.946   2.388   4.473  0.0582  0.4316  0.3019
  127MYC    H5825649   2.915   2.289   4.507 -0.4465  0.2883 -0.5560
  127MYC    H5925650   3.028   2.428   4.534 -0.2109  0.9522  0.3255
  127MYC    C3325651   2.819   2.468   4.469  0.4642  0.2873  0.5004
  127MYC    H6025652   2.846   2.570   4.438 -0.9703  0.6240  0.2883
  127MYC    H6125653   2.742   2.436   4.397 -0.5217  0.1757  1.5781
  127MYC    C3425654   2.739   2.474   4.599  0.0450 -0.2616 -0.5077
  127MYC    H6225655   2.648   2.532   4.580  1.1604  1.2804 -1.3608
  127MYC    H6325656   2.710   2.375   4.637 -0.6648  0.3259  0.5273
  127MYC    C3525657   2.811   2.547   4.719 -0.6197 -0.2687 -0.0934
  127MYC    H6425658   2.900   2.496   4.756 -0.4981  0.3095  0.4233
  127MYC    H6525659   2.842   2.650   4.701 -1.0469 -0.1459 -0.1431
  127MYC    C3625660   2.718   2.565   4.844  0.2467 -0.5416 -0.1294
  127MYC    H6625661   2.632   2.625   4.814  1.2880  1.3859  0.5552
  127MYC    H6725662   2.680   2.469   4.882  0.0553 -0.4927 -0.1986
  127MYC    C3725663   2.789   2.631   4.962  0.0170  0.3997  0.1911
  127MYC    H6825664   2.869   2.575   5.011  0.5182  1.6500  0.8554
  127MYC    H6925665   2.854   2.710   4.923  0.1588 -1.3712 -3.6936
  127MYC    C3825666   2.691   2.687   5.066 -0.3046  0.1108 -0.5415
  127MYC    H7025667   2.654   2.781   5.025  1.1280  0.8805 -0.1519
  127MYC    H7125668   2.599   2.628   5.066 -1.3260  1.6489 -1.2866
  127MYC    C3925669   2.758   2.715   5.207 -0.5781  0.1826  0.1113
  127MYC    H7225670   2.795   2.629   5.264 -0.7734  1.1752  1.8070
  127MYC    H7325671   2.857   2.761   5.205 -0.0918 -0.8359 -1.5582
  127MYC    C4025672   2.668   2.806   5.296  0.2412  0.7164  0.2104
  127MYC    H7425673   2.717   2.840   5.388  3.1360 -2.5958  0.1192
  127MYC    H7525674   2.650   2.895   5.235 -0.4232  1.4178  1.3890
  127MYC    C4125675   2.532   2.755   5.347  0.6199 -0.0139 -0.1282
  127MYC    H7625676   2.463   2.729   5.265  0.1360  0.2180  0.2015
  127MYC    H7725677   2.559   2.667   5.407 -0.3730  0.4539  1.0199
  127MYC    C4225678   2.454   2.869   5.430 -0.4290  0.3592  0.2165
  127MYC    H7825679   2.492   2.966   5.395 -2.9966  1.3488 -0.0847
  127MYC    H7925680   2.344   2.874   5.428 -0.4410  1.4775  1.5815
  127MYC    C4325681   2.493   2.878   5.572 -0.4604  0.4673 -0.7340
  127MYC    H8025682   2.498   2.784   5.628 -2.3071  1.0889  0.5835
  127MYC    H8125683   2.434   2.943   5.637  1.1613  0.8342  0.4485
  127MYC    H8225684   2.596   2.917   5.577 -0.7728  1.5708 -2.2063
  128MYC   HH1525685   2.320   3.181   5.049  0.9843  1.0327  2.6542
  128MYC    C8025686   2.425   3.156   5.026  0.0669 -0.1942 -0.8604
  128MYC   H10025687   2.478   3.243   5.067 -1.1455 -0.1931  0.8115
  128MYC   H10125688   2.450   3.066   5.083 -2.4737 -0.9893 -0.8722
  128MYC    C7925689   2.447   3.137   4.875  0.3139 -0.4446 -0.3062
  128MYC   H10225690   2.443   3.232   4.821  1.9446  0.0836  0.4398
  128MYC   H10325691   2.362   3.076   4.841  0.4640 -1.0706  0.4050
  128MYC    C7825692   2.577   3.075   4.840  0.5153  0.1463 -0.3713
  128MYC   HH1425693   2.591   2.984   4.899  0.9157  1.2197  1.2461
  128MYC   H10425694   2.656   3.143   4.873  0.7676 -0.8942  1.2736
  128MYC    C7725695   2.586   3.055   4.686 -0.2607  0.1226 -0.5524
  128MYC   H10625696   2.608   3.148   4.632 -2.8533  0.3961 -1.2745
  128MYC   H10725697   2.504   3.006   4.633  0.4966  0.1567 -1.7930
  128MYC    C7625698   2.710   2.968   4.652 -0.0231  0.9475  0.4254
  128MYC   H10825699   2.737   2.881   4.713 -1.3202 -0.4326 -0.8759
  128MYC   H10925700   2.795   3.037   4.657  1.1597 -0.3832 -0.4612
  128MYC    C7525701   2.707   2.922   4.499  1.0284 -0.2914 -0.3584
  128MYC   H11025702   2.656   3.000   4.442 -3.7089 -0.5884  2.9058
  128MYC   H11125703   2.633   2.841   4.498  0.3234  0.3461 -1.2458
  128MYC    C7425704   2.849   2.878   4.436  0.4600 -0.2610  0.7108
  128MYC   H11225705   2.881   2.795   4.500  2.0145 -0.7172 -0.6173
  128MYC   H11325706   2.913   2.967   4.435  1.7220 -1.1280 -1.5985
  128MYC    C7325707   2.843   2.829   4.284  0.1692  0.1314 -0.1313
  128MYC   HH1325708   2.800   2.903   4.216  1.3508 -2.7873 -4.4673
  128MYC   H11425709   2.773   2.745   4.280 -0.1562  0.3488  0.7464
  128MYC    C7225710   2.978   2.782   4.232 -0.3200  0.6330  1.0242
  128MYC   H11525711   3.019   2.703   4.296  2.4785 -0.4278 -1.7709
  128MYC   H11625712   3.044   2.870   4.234  0.0237  0.4987 -1.3188
  128MYC    C7125713   2.969   2.735   4.081 -0.2627  0.2279  0.7808
  128MYC   H11725714   2.935   2.807   4.006  0.2313 -3.7356 -3.7537
  128MYC   H11825715   2.888   2.663   4.065  0.9909 -0.8379 -1.1242
  128MYC    C7025716   3.098   2.670   4.023  0.4686  0.4882 -0.1649
  128MYC   H11925717   3.135   2.592   4.089 -0.3767  0.4221  0.2495
  128MYC   H12025718   3.163   2.758   4.029  0.5610  0.4175 -0.1443
  128MYC    C6925719   3.085   2.604   3.886 -1.0471  0.2905 -0.4499
  128MYC   H12125720   3.057   2.681   3.814  0.2090  1.0995 -0.0918
  128MYC   H12225721   3.016   2.521   3.864  1.1836 -2.0830  0.8972
  128MYC    C6825722   3.226   2.555   3.842 -0.0102  0.4435  0.1040
  128MYC   HH1225723   3.266   2.487   3.918  0.1342  0.7137  0.2729
  128MYC   H12325724   3.289   2.645   3.851 -0.4281  0.7590 -0.0725
  128MYC    C6725725   3.219   2.496   3.708 -0.2978  0.4339  0.4698
  128MYC   H12425726   3.170   2.561   3.633 -1.5892 -2.5553 -1.4849
  128MYC   H12525727   3.150   2.412   3.721 -2.1144  1.7514 -0.0853
  128MYC    C6625728   3.355   2.451   3.657 -0.5295 -0.4489 -1.0122
  128MYC   H12625729   3.413   2.399   3.735 -0.7579 -2.3197 -2.0216
  128MYC   H12725730   3.399   2.546   3.627  0.1574 -0.5547 -0.3841
  128MYC    C6525731   3.353   2.358   3.535  1.0603 -0.5022 -0.2142
  128MYC   H12825732   3.277   2.395   3.466  2.1409  3.6657  0.5554
  128MYC   H12925733   3.329   2.254   3.560  0.8697 -0.8153 -1.6257
  128MYC    C6425734   3.482   2.355   3.460 -0.5278  0.2284  0.4445
  128MYC   H13025735   3.560   2.328   3.532  0.2755  2.4928  0.4907
  128MYC   H13125736   3.506   2.457   3.428  0.6509  0.4586  1.9698
  128MYC    C6325737   3.464   2.249   3.341  0.1914 -0.5824 -1.0172
  128MYC   HH1125738   3.380   2.272   3.274  1.3019  1.5215 -1.7698
  128MYC   H13225739   3.459   2.154   3.396  1.5003  0.1809  0.5274
  128MYC    C6225740   3.591   2.244   3.258 -0.2749 -0.0539  0.4255
  128MYC   H13325741   3.679   2.251   3.323 -0.9015 -0.3621  1.3269
  128MYC   H13425742   3.608   2.329   3.191 -1.0579  1.6416  2.2817
  128MYC    C6125743   3.606   2.119   3.170 -0.3409 -0.3358  0.4783
  128MYC   H13525744   3.534   2.125   3.087  1.0076  3.8075 -0.6154
  128MYC   H13625745   3.601   2.028   3.231  1.3324  0.3813  1.7554
  128MYC    C6025746   3.751   2.108   3.117 -0.2853  0.1650  0.1346
  128MYC   H13725747   3.824   2.108   3.198  0.8740 -3.3338 -0.7317
  128MYC    C5825748   3.788   2.034   2.989 -0.5787  1.2108 -0.9817
  128MYC   H13825749   3.703   2.004   2.929  0.5321 -0.6934 -1.6837
  128MYC    C5925750   3.817   2.182   3.001  0.1524 -0.0415  0.3590
  128MYC   H13925751   3.920   2.217   3.009  0.8888 -1.6131 -1.4264
  128MYC   H14025752   3.755   2.236   2.931  2.2737  1.9431 -0.1191
  128MYC    C5725753   3.907   1.928   2.987 -0.1818  0.2146  0.0248
  128MYC   HH1025754   3.872   1.839   3.041 -2.3113  0.3337 -1.0688
  128MYC   H14125755   4.002   1.958   3.034  2.1249 -1.6687 -3.0246
  128MYC    C5625756   3.957   1.887   2.849  0.0462  0.3373  0.9342
  128MYC   H14225757   3.876   1.844   2.788  0.7141  1.6309 -0.9475
  128MYC   H14325758   4.037   1.812   2.850 -1.3859 -1.2631  2.5396
  128MYC    C5525759   4.025   2.003   2.774 -0.5915 -0.6596  0.4567
  128MYC   H14425760   4.133   1.993   2.795 -0.3731  0.4888 -0.0583
  128MYC   H14525761   4.010   2.105   2.811  1.0629  0.4332 -1.6732
  128MYC    C5425762   4.007   2.004   2.621 -0.2291  0.0682  0.6782
  128MYC   H14625763   4.069   2.083   2.576 -0.3304 -0.1769  0.0963
  128MYC   H14725764   3.906   2.041   2.601 -0.2675 -0.5133 -0.2976
  128MYC    C5325765   4.026   1.880   2.530  0.0716  0.1524  0.0432
  128MYC   H14825766   3.987   1.895   2.429 -0.2672  0.5600  0.2354
  128MYC   H14925767   3.979   1.791   2.572 -0.2947  0.5405  0.4648
  128MYC    C5225768   4.178   1.840   2.516  1.3451 -0.2663  0.3596
  128MYC    H9925769   4.211   1.811   2.616 -0.1287 -0.9223  0.6878
  128MYC   H15025770   4.241   1.927   2.494  0.7592 -0.0346 -0.4781
  128MYC    C5125771   4.221   1.726   2.409  0.5513 -0.4621 -0.5902
  128MYC    H9725772   4.170   1.730   2.313  0.8845  0.2419 -0.7467
  128MYC    H9825773   4.179   1.637   2.456 -2.0726  0.7697 -0.4150
  128MYC    C5025774   4.369   1.714   2.385 -0.5724 -0.9661  0.2933
  128MYC    H9525775   4.422   1.693   2.478  0.6166  1.9525  0.3784
  128MYC    H9625776   4.405   1.817   2.372  0.5373 -1.2631  0.9122
  128MYC    C4925777   4.406   1.646   2.255 -0.7395 -0.5506  0.3928
  128MYC    H9325778   4.504   1.685   2.226 -0.2113 -2.1759 -0.1276
  128MYC    H9425779   4.330   1.674   2.181 -1.9014 -1.2558  1.2769
  128MYC    C4825780   4.415   1.493   2.260  1.1361 -0.0779  0.0439
  128MYC    H9125781   4.321   1.456   2.302  1.6281 -0.4150  0.8759
  128MYC    H9225782   4.497   1.462   2.324 -0.1449 -0.2349  1.6646
  128MYC    C4725783   4.425   1.427   2.118 -0.0522  0.3065  0.2671
  128MYC    H8925784   4.321   1.398   2.097 -0.3642  1.5691 -0.0517
  128MYC    H9025785   4.473   1.329   2.121 -2.8123 -1.1868 -1.0341
  128MYC    C4625786   4.484   1.519   2.007  0.0096  0.3768 -0.6401
  128MYC    H8725787   4.580   1.554   2.047 -2.3222  5.4199  1.3698
  128MYC    H8825788   4.421   1.608   1.999 -0.6777 -0.2217 -2.3913
  128MYC    C4525789   4.510   1.451   1.870  0.4969  0.1844 -0.6182
  128MYC    H8525790   4.413   1.416   1.833  0.6452 -0.3275 -0.5395
  128MYC    H8625791   4.564   1.357   1.885  1.1453  0.5234 -0.7740
  128MYC    C4425792   4.585   1.548   1.778  0.0666 -0.6603  0.1746
  128MYC    H8325793   4.616   1.494   1.688  0.1549 -1.4038  0.6530
  128MYC    H8425794   4.680   1.576   1.825  0.6617 -0.9574 -0.8135
  128MYC    C1825795   4.514   1.681   1.734 -0.3147  1.1830  0.3851
  128MYC    H3125796   4.407   1.664   1.739 -0.1600 -0.4365 -0.9614
  128MYC    C1725797   4.546   1.824   1.752 -0.7985 -0.5874 -0.0191
  128MYC    H3025798   4.637   1.853   1.803 -1.6837  3.1395 -0.2559
  128MYC    C1925799   4.566   1.757   1.613  0.0974  0.1460  0.1437
  128MYC    H3225800   4.669   1.738   1.585  0.2777  1.7078 -0.3519
  128MYC    H3325801   4.499   1.796   1.536 -0.3323  1.2232  1.0426
  128MYC    C1625802   4.438   1.930   1.788  0.6863  0.3553  0.3256
  128MYC    H2825803   4.342   1.902   1.742 -0.3396  2.5752  0.9723
  128MYC    H2925804   4.469   2.021   1.735  0.9265 -0.5255 -1.1123
  128MYC    C1525805   4.419   1.945   1.940 -0.1275 -0.2302 -0.6146
  128MYC    H2625806   4.433   1.852   1.996 -0.7995  1.0858  1.9049
  128MYC    H2725807   4.326   2.003   1.948  0.3785  0.4963  0.2295
  128MYC    C1425808   4.530   2.045   2.004  0.1686  0.4427  0.4409
  128MYC    H2425809   4.507   2.140   1.954 -1.6195 -0.4579 -0.5692
  128MYC    H2525810   4.632   2.009   1.988  0.4870  0.6573  1.8713
  128MYC    C1325811   4.515   2.069   2.153 -0.1249 -0.4085  0.0174
  128MYC    H2225812   4.511   1.970   2.200 -1.2694  0.2703  1.4212
  128MYC    H2325813   4.415   2.111   2.167 -0.0811 -0.2486 -0.1387
  128MYC    C1225814   4.616   2.168   2.220  0.9389  0.5078  0.5770
  128MYC    H2025815   4.598   2.262   2.166 -4.4288 -0.3765  0.3565
  128MYC    H2125816   4.716   2.131   2.194  0.1759 -0.7025 -0.7561
  128MYC    C1125817   4.591   2.192   2.371  0.5347  0.2865  0.1857
  128MYC    H1825818   4.653   2.272   2.413 -1.3519  1.0609  1.6632
  128MYC    H1925819   4.629   2.108   2.430  0.2724 -0.2386 -0.3862
  128MYC    C1025820   4.442   2.232   2.407 -0.2835 -0.4803  0.3500
  128MYC    H1625821   4.377   2.144   2.398 -0.3521 -0.3804 -0.1900
  128MYC    H1725822   4.406   2.311   2.340  1.0030 -0.1401  0.0316
  128MYC     C925823   4.421   2.284   2.548 -0.6857 -0.1600 -0.2398
  128MYC    H1425824   4.315   2.311   2.554 -0.4667  1.8158 -3.3393
  128MYC    H1525825   4.468   2.383   2.554 -0.5486 -0.2332 -0.0804
  128MYC     C825826   4.454   2.184   2.663 -0.3134  0.4335 -0.0750
  128MYC    H1225827   4.542   2.119   2.661 -1.0372 -0.6252  1.1717
  128MYC    H1325828   4.370   2.114   2.647 -2.5151  2.8287  0.2969
  128MYC     C725829   4.450   2.248   2.803  0.9072 -0.3452  0.2079
  128MYC    H1025830   4.505   2.343   2.797  0.8178 -0.3786 -2.9391
  128MYC    H1125831   4.506   2.187   2.874 -0.3502  1.9692  3.4241
  128MYC     C625832   4.314   2.273   2.859  0.3021 -0.2237  0.6040
  128MYC     H825833   4.272   2.172   2.861  1.6207 -0.9557 -2.1706
  128MYC     H925834   4.244   2.328   2.795  2.0618  0.2643 -1.0213
  128MYC     C525835   4.310   2.331   2.996  0.0419 -0.4804  0.9771
  128MYC     H625836   4.374   2.420   2.993 -0.2393 -0.3017 -1.0880
  128MYC     H725837   4.360   2.259   3.061  1.2300  0.0971  0.7270
  128MYC     C425838   4.170   2.364   3.041  0.9141  0.3914 -0.3099
  128MYC     H425839   4.114   2.275   3.010  1.8231  0.1277 -1.3020
  128MYC     H525840   4.140   2.439   2.966  0.8099 -0.2940 -0.9688
  128MYC     C225841   4.150   2.416   3.193 -0.4380 -0.1164  0.8950
  128MYC     H225842   4.178   2.332   3.258 -0.5408 -1.9248 -1.2621
  128MYC     O325843   4.250   2.522   3.216 -0.0785 -0.4040  0.3237
  128MYC     H325844   4.216   2.606   3.180  3.7364  0.9570 -0.5668
  128MYC     C125845   4.008   2.452   3.243  0.1027  0.6322 -0.2563
  128MYC     H125846   3.940   2.367   3.226 -1.3001  1.7348 -0.3508
  128MYC    C8125847   3.947   2.563   3.161 -0.3020 -0.4837 -0.0068
  128MYC    O8225848   3.994   2.672   3.141  0.1083  0.1096  0.0009
  128MYC    O8325849   3.850   2.525   3.078 -0.1545 -0.2392 -0.3543
  128MYC   H10525850   3.862   2.596   3.013 -0.2107 -0.8351 -1.0325
  128MYC    C2025851   3.999   2.464   3.397 -0.5061 -0.2373  0.1253
  128MYC    H3425852   4.038   2.376   3.449  1.7112  1.6367  1.8319
  128MYC    H3525853   4.073   2.542   3.418  0.0105 -0.3231 -1.2350
  128MYC    C2125854   3.873   2.487   3.469 -0.0982 -0.5019 -0.1753
  128MYC    H3625855   3.808   2.557   3.415 -1.2141 -0.8763  0.6256
  128MYC    H3725856   3.818   2.392   3.468 -0.1620 -0.5041 -2.5913
  128MYC    C2225857   3.883   2.551   3.614 -0.2949  0.2444 -0.2550
  128MYC    H3825858   3.947   2.486   3.675  0.2249  1.3629  0.4252
  128MYC    H3925859   3.946   2.639   3.594  3.1109 -2.0035 -0.1641
  128MYC    C2325860   3.757   2.587   3.689 -0.0366 -0.1104 -0.4404
  128MYC    H4025861   3.713   2.665   3.625 -0.2938  0.0115 -0.1186
  128MYC    H4125862   3.690   2.500   3.680 -2.5859  1.9425 -3.9842
  128MYC    C2425863   3.760   2.629   3.840 -0.5471 -0.5002 -0.4965
  128MYC    H4225864   3.795   2.542   3.898 -1.4558 -0.7723 -0.3306
  128MYC    H4325865   3.822   2.717   3.860 -2.2948  0.8214 -0.6113
  128MYC    C2525866   3.617   2.645   3.895  0.0480  0.1175  0.7314
  128MYC    H4425867   3.566   2.718   3.831 -1.5827 -0.9049  0.8150
  128MYC    H4525868   3.557   2.554   3.894  0.2106 -0.0453 -2.4035
  128MYC    C2625869   3.612   2.698   4.042 -0.9649 -0.0464 -0.5962
  128MYC    H4625870   3.671   2.633   4.108 -1.3968 -0.7741 -0.9099
  128MYC    H4725871   3.658   2.796   4.054 -0.0134 -0.4005 -1.1900
  128MYC    C2725872   3.475   2.713   4.104  0.2270  0.4453 -0.1678
  128MYC    H4825873   3.395   2.735   4.032  0.0231 -0.2033 -0.1477
  128MYC    H4925874   3.437   2.617   4.142 -0.6817  0.6066 -0.6339
  128MYC    C2825875   3.455   2.819   4.214 -0.4575 -0.0068 -0.8614
  128MYC    H5025876   3.543   2.804   4.278 -0.0736 -0.5985 -1.5150
  128MYC    H5125877   3.479   2.920   4.181  1.8813 -0.3405 -0.3065
  128MYC    C2925878   3.320   2.799   4.290  0.0748 -0.3563 -0.8707
  128MYC    H5225879   3.261   2.889   4.271  0.7482 -0.3655 -3.4816
  128MYC    H5325880   3.258   2.718   4.249  1.0533 -1.8998  0.5683
  128MYC    C3025881   3.348   2.781   4.448  0.0296 -1.3957 -0.7417
  128MYC    H5425882   3.385   2.678   4.462  2.7315 -0.7339 -2.3635
  128MYC    H5525883   3.415   2.857   4.489 -1.4866  0.3903 -1.4239
  128MYC    C3125884   3.221   2.814   4.517  0.0712  0.2750 -0.4943
  128MYC    H5625885   3.177   2.907   4.479  0.8786  0.3509 -1.2881
  128MYC    H5725886   3.150   2.733   4.497 -1.6100  1.0452  1.9497
  128MYC    C3225887   3.241   2.838   4.672  0.7719 -0.0175 -0.7297
  128MYC    H5825888   3.292   2.749   4.709 -0.1964 -0.3632 -0.1871
  128MYC    H5925889   3.297   2.932   4.684 -1.0922  1.0963 -0.3247
  128MYC    C3325890   3.111   2.842   4.740  0.0753  0.1296 -0.2911
  128MYC    H6025891   3.046   2.903   4.676  1.9113  1.4838 -0.9405
  128MYC    H6125892   3.077   2.738   4.751 -1.3804  0.4808 -1.1519
  128MYC    C3425893   3.120   2.895   4.885  0.1374  0.0550 -0.1648
  128MYC    H6225894   3.110   2.807   4.950 -1.5197 -0.3274 -0.8852
  128MYC    H6325895   3.214   2.944   4.912  0.3779  0.5039 -1.6867
  128MYC    C3525896   2.997   2.979   4.918 -0.4432  0.2153  0.0598
  128MYC    H6425897   2.982   3.050   4.837  0.8233 -0.0559 -0.4264
  128MYC    H6525898   2.908   2.915   4.922 -1.4618  1.6124  0.6014
  128MYC    C3625899   3.015   3.048   5.057 -0.4861  0.0371  0.2709
  128MYC    H6625900   3.042   2.971   5.130  2.2022 -0.0822 -0.7343
  128MYC    H6725901   3.105   3.111   5.053 -0.6348  0.2453 -3.4629
  128MYC    C3725902   2.887   3.117   5.107 -0.3695 -0.4051 -0.6679
  128MYC    H6825903   2.852   3.184   5.027  1.0090  0.7863 -0.3272
  128MYC    H6925904   2.806   3.044   5.117  0.9380 -1.9459 -1.0340
  128MYC    C3825905   2.905   3.176   5.253  0.6843  0.3337 -0.4230
  128MYC    H7025906   2.948   3.097   5.316  0.8899  0.7852  0.0070
  128MYC    H7125907   2.983   3.252   5.243 -0.5442  1.6659 -0.0766
  128MYC    C3925908   2.785   3.223   5.328  0.1316  0.1791 -0.1880
  128MYC    H7225909   2.773   3.329   5.302  0.5685  0.2604 -0.0655
  128MYC    H7325910   2.695   3.173   5.291  0.1703  1.6096 -2.4144
  128MYC    C4025911   2.788   3.207   5.487  0.0345  0.0505  0.3260
  128MYC    H7425912   2.793   3.099   5.503  1.4557 -0.2416 -1.6524
  128MYC    H7525913   2.886   3.250   5.513  0.8635 -2.4440  1.6910
  128MYC    C4125914   2.660   3.259   5.555  0.1957  0.0882 -0.2489
  128MYC    H7625915   2.655   3.362   5.518  0.5257 -0.2244 -1.1891
  128MYC    H7725916   2.573   3.215   5.506  0.8168 -1.6615  0.1282
  128MYC    C4225917   2.651   3.237   5.711  0.6285 -0.4147  0.1500
  128MYC    H7825918   2.555   3.281   5.740 -0.3135 -1.2869 -1.4842
  128MYC    H7925919   2.644   3.134   5.746  0.0765 -0.3958  0.1011
  128MYC    C4325920   2.761   3.317   5.781  0.1163 -0.2945  0.7593
  128MYC    H8025921   2.785   3.414   5.737 -0.2351 -0.6034 -0.1310
  128MYC    H8125922   2.856   3.263   5.773 -0.8714 -1.8987 -0.8467
  128MYC    H8225923   2.756   3.327   5.890  1.1495  0.1149  0.7768
  129MYC   HH1525924   2.655   3.742   5.377 -1.2255 -0.5382  0.0098
  129MYC    C8025925   2.711   3.836   5.368 -0.6603 -0.8853 -0.1439
  129MYC   H10025926   2.662   3.903   5.296  1.5816  0.1278 -0.8088
  129MYC   H10125927   2.715   3.883   5.466 -0.3152 -0.7248 -0.2326
  129MYC    C7925928   2.855   3.805   5.321  0.4495  0.0250 -0.0514
  129MYC   H10225929   2.914   3.736   5.382  1.2055 -1.8906 -2.7173
  129MYC   H10325930   2.922   3.891   5.327 -0.9309  1.0887  0.5066
  129MYC    C7825931   2.863   3.742   5.178  1.0714  0.3414  0.0842
  129MYC   HH1425932   2.965   3.744   5.140  1.1130  2.1943  0.1914
  129MYC   H10425933   2.796   3.805   5.118 -0.3692 -0.7207  0.5069
  129MYC    C7725934   2.806   3.596   5.168  0.3489  0.1796 -0.9461
  129MYC   H10625935   2.703   3.596   5.206 -0.2721  2.9443 -2.3635
  129MYC   H10725936   2.867   3.528   5.228  0.4358  0.9029 -0.1974
  129MYC    C7625937   2.816   3.526   5.021  0.2510  0.6053 -0.2538
  129MYC   H10825938   2.780   3.584   4.936 -0.4644 -0.6040 -0.7993
  129MYC   H10925939   2.760   3.432   5.034  0.7537  0.0970 -1.5585
  129MYC    C7525940   2.950   3.469   4.983 -0.2011  0.3607  0.3494
  129MYC   H11025941   2.980   3.396   5.058  0.8118  2.6724  2.3363
  129MYC   H11125942   3.020   3.552   5.000  0.2459 -0.1586  1.0795
  129MYC    C7425943   2.944   3.413   4.837  0.0373 -0.6570 -0.0297
  129MYC   H11225944   2.908   3.493   4.770 -1.0406 -1.9003 -0.9942
  129MYC   H11325945   2.882   3.323   4.834 -1.5346  0.3250  1.3841
  129MYC    C7325946   3.087   3.375   4.781 -0.3022  0.1082 -0.7706
  129MYC   HH1325947   3.136   3.297   4.841 -2.2856 -0.2795  0.4526
  129MYC   H11425948   3.150   3.465   4.788 -0.1721 -0.0874  1.2317
  129MYC    C7225949   3.080   3.329   4.638  0.4770  0.7706 -0.1941
  129MYC   H11525950   3.032   3.416   4.590  1.4019  0.4808 -1.6970
  129MYC   H11625951   3.018   3.239   4.626  0.5951  0.6657 -0.0070
  129MYC    C7125952   3.223   3.306   4.584  0.2175 -0.2599 -0.2247
  129MYC   H11725953   3.266   3.220   4.637  1.2725  0.3387 -0.0998
  129MYC   H11825954   3.278   3.399   4.600 -1.6235  0.8486 -0.0854
  129MYC    C7025955   3.209   3.261   4.438 -0.7847 -0.6864 -0.4518
  129MYC   H11925956   3.144   3.331   4.384  1.5217  1.8872 -0.1395
  129MYC   H12025957   3.167   3.161   4.429 -0.9946 -0.8149  1.4071
  129MYC    C6925958   3.340   3.245   4.362  0.1494  0.1440 -0.4454
  129MYC   H12125959   3.402   3.173   4.416 -1.0849 -0.2678  0.4558
  129MYC   H12225960   3.397   3.338   4.373 -2.5520  1.8493  0.3013
  129MYC    C6825961   3.341   3.201   4.211  0.5157 -0.6015  0.1488
  129MYC   HH1225962   3.281   3.272   4.153  1.3538  0.0207  0.0181
  129MYC   H12325963   3.283   3.109   4.208 -0.0397 -0.2857  0.7531
  129MYC    C6725964   3.482   3.192   4.146  0.0713  0.0608 -0.7820
  129MYC   H12425965   3.555   3.136   4.205 -0.7890 -0.2858 -0.0075
  129MYC   H12525966   3.518   3.295   4.145 -1.5324  0.6698 -2.4148
  129MYC    C6625967   3.474   3.131   4.003  0.4291 -0.1329  0.2690
  129MYC   H12625968   3.409   3.194   3.941  2.9691  1.5011 -0.9299
  129MYC   H12725969   3.424   3.034   4.003 -0.5249  0.3188 -1.3090
  129MYC    C6525970   3.608   3.130   3.933  0.1907  0.7087  0.5652
  129MYC   H12825971   3.678   3.058   3.977 -1.1002 -0.8430  0.1842
  129MYC   H12925972   3.658   3.227   3.930  1.1332  0.2629 -3.2155
  129MYC    C6425973   3.589   3.085   3.781  0.1919  0.1207  0.1801
  129MYC   H13025974   3.520   3.159   3.739 -1.3506  1.3102  4.3762
  129MYC   H13125975   3.554   2.982   3.765  2.7072 -0.6627 -0.6759
  129MYC    C6325976   3.718   3.093   3.696  0.6307  0.4837 -0.1630
  129MYC   HH1125977   3.799   3.029   3.731  0.9199  1.2988  0.7107
  129MYC   H13225978   3.758   3.193   3.675  3.2211 -0.1558  1.3376
  129MYC    C6225979   3.675   3.037   3.558 -0.4656 -0.3254  0.3256
  129MYC   H13325980   3.590   3.096   3.521 -0.6045 -0.9149 -0.3312
  129MYC   H13425981   3.647   2.932   3.568 -1.7304  0.1336  2.1483
  129MYC    C6125982   3.776   3.049   3.443 -0.2341 -0.7232 -1.0735
  129MYC   H13525983   3.868   3.002   3.479 -1.3184 -2.2503 -0.1745
  129MYC   H13625984   3.805   3.154   3.435 -0.0122 -0.7434 -0.5774
  129MYC    C6025985   3.736   2.993   3.310  0.0930 -0.0689 -0.0620
  129MYC   H13725986   3.634   3.022   3.286  0.2216  2.9191  2.3541
  129MYC    C5825987   3.830   2.975   3.190  0.0821 -0.5223 -0.2697
  129MYC   H13825988   3.931   3.012   3.209 -0.9444  3.5990 -1.8419
  129MYC    C5925989   3.786   2.856   3.263 -0.2753  0.2768 -0.2775
  129MYC   H13925990   3.719   2.788   3.210 -0.6184 -0.7861  1.4571
  129MYC   H14025991   3.858   2.802   3.324 -0.2543  2.5846  1.9072
  129MYC    C5725992   3.783   3.011   3.049  0.5688 -0.8834 -0.8043
  129MYC   HH1025993   3.806   3.117   3.037  1.6922 -0.8519  1.2027
  129MYC   H14125994   3.675   2.993   3.038  0.3414  0.2551 -0.6146
  129MYC    C5625995   3.852   2.926   2.943 -0.6326  0.3596  0.4289
  129MYC   H14225996   3.853   2.819   2.963 -2.3899 -0.0566 -1.4094
  129MYC   H14325997   3.957   2.956   2.936 -0.2621 -0.9660  0.0431
  129MYC    C5525998   3.789   2.950   2.803  0.5746 -0.6517  0.5093
  129MYC   H14425999   3.799   3.057   2.782  0.3636 -0.8458 -0.6478
  129MYC   H14526000   3.683   2.923   2.809  0.3219  0.3759  0.7763
  129MYC    C5426001   3.857   2.884   2.685 -0.4750  0.1978 -0.4443
  129MYC   H14626002   3.836   2.776   2.683 -0.8024  0.2736 -1.8592
  129MYC   H14726003   3.964   2.906   2.690 -0.8027  1.5864  1.1979
  129MYC    C5326004   3.797   2.937   2.557  0.0358  0.1778  0.0181
  129MYC   H14826005   3.859   2.912   2.470  1.6556  1.1721  0.8314
  129MYC   H14926006   3.806   3.047   2.559  3.6320  0.0104  1.5342
  129MYC    C5226007   3.653   2.888   2.532 -0.5062  0.9128  0.0053
  129MYC    H9926008   3.595   2.867   2.622 -0.6532  2.1016  0.2060
  129MYC   H15026009   3.664   2.793   2.478 -0.4962  1.6162 -1.2784
  129MYC    C5126010   3.571   2.987   2.440 -0.2601 -0.2157  0.2530
  129MYC    H9726011   3.571   3.090   2.477 -2.3733  0.0985 -0.4828
  129MYC    H9826012   3.467   2.950   2.441  0.8400 -3.7385  0.3672
  129MYC    C5026013   3.608   2.999   2.288  0.1860 -0.1456  0.0318
  129MYC    H9526014   3.717   3.003   2.286  0.2761  0.0747 -4.4461
  129MYC    H9626015   3.561   3.087   2.242 -1.2504 -2.1390 -2.5291
  129MYC    C4926016   3.572   2.868   2.221  0.0592 -0.2194 -0.4223
  129MYC    H9326017   3.465   2.845   2.217 -0.1743  0.7686 -0.1040
  129MYC    H9426018   3.630   2.791   2.273  1.6722  2.7056  2.4712
  129MYC    C4826019   3.629   2.856   2.077  0.6419 -0.9970  0.1551
  129MYC    H9126020   3.736   2.843   2.094  0.5004 -0.6691  1.3960
  129MYC    H9226021   3.604   2.951   2.029  0.4277 -0.0099  2.1386
  129MYC    C4726022   3.581   2.735   1.996  0.4572 -0.0191 -0.3633
  129MYC    H8926023   3.590   2.761   1.890 -0.6626  0.6253 -0.3157
  129MYC    H9026024   3.473   2.724   2.007  0.6807 -2.6934 -0.2503
  129MYC    C4626025   3.634   2.594   2.034  0.5822  0.7346 -0.3214
  129MYC    H8726026   3.584   2.520   1.969 -1.7131  1.5742  0.3749
  129MYC    H8826027   3.608   2.580   2.139 -0.4412 -0.0902 -0.6673
  129MYC    C4526028   3.784   2.578   2.017 -0.3893  0.1824  0.1791
  129MYC    H8526029   3.844   2.654   2.068  0.3176  0.5791 -1.2060
  129MYC    H8626030   3.814   2.577   1.912  2.5533  0.2879  0.9190
  129MYC    C4426031   3.826   2.444   2.075  0.3387  0.4734 -0.5121
  129MYC    H8326032   3.765   2.364   2.032 -0.2861 -0.5202  2.0102
  129MYC    H8426033   3.799   2.451   2.181 -1.3575  3.4106 -1.0418
  129MYC    C1826034   3.979   2.406   2.058  0.2607 -1.0193 -0.2088
  129MYC    H3126035   4.007   2.396   1.954 -3.6661  1.5951 -1.7476
  129MYC    C1726036   4.076   2.491   2.144  0.0192 -0.4086  0.2909
  129MYC    H3026037   4.032   2.562   2.214  2.1913  1.3265  0.0266
  129MYC    C1926038   4.051   2.337   2.166 -0.4624 -0.0313  0.1391
  129MYC    H3226039   3.995   2.313   2.256 -0.7152 -1.4637 -0.3676
  129MYC    H3326040   4.131   2.266   2.150  0.3788 -0.2261  4.1389
  129MYC    C1626041   4.216   2.536   2.094  0.3153 -0.1053  0.0139
  129MYC    H2826042   4.240   2.463   2.015 -0.4294 -0.9319  0.5314
  129MYC    H2926043   4.291   2.534   2.174 -0.6838  1.5183  1.0339
  129MYC    C1526044   4.214   2.679   2.022  0.4369 -1.0221 -0.2629
  129MYC    H2626045   4.144   2.742   2.079  2.8928  0.2977  1.5041
  129MYC    H2726046   4.170   2.672   1.922 -0.8311  0.3982  0.1485
  129MYC    C1426047   4.346   2.754   2.001  0.0663  0.6106  0.5377
  129MYC    H2426048   4.417   2.690   1.946  0.1815  1.4447 -0.3095
  129MYC    H2526049   4.396   2.763   2.098  0.7864  0.4461  0.1915
  129MYC    C1326050   4.320   2.890   1.935 -0.2694 -0.5353 -0.1396
  129MYC    H2226051   4.243   2.943   1.992  2.2075  0.0614  2.9032
  129MYC    H2326052   4.257   2.880   1.845 -1.1647  1.7694  0.1636
  129MYC    C1226053   4.424   2.985   1.896 -0.3566 -0.2972  0.9193
  129MYC    H2026054   4.377   3.061   1.832 -0.3065  0.8655  2.2311
  129MYC    H2126055   4.493   2.938   1.824 -1.1379  1.9586 -1.4583
  129MYC    C1126056   4.526   3.041   2.000  0.1753  0.5660  1.0476
  129MYC    H1826057   4.582   3.123   1.953  1.9302 -0.9255  0.3849
  129MYC    H1926058   4.591   2.962   2.040 -0.5954 -0.7517 -0.2088
  129MYC    C1026059   4.450   3.096   2.131 -0.2242  0.0657  0.3247
  129MYC    H1626060   4.396   3.011   2.174 -0.0642  0.4765  1.3845
  129MYC    H1726061   4.368   3.163   2.103  0.8098  2.0909  1.8573
  129MYC     C926062   4.532   3.175   2.232  0.4533 -0.3562  0.2931
  129MYC    H1426063   4.460   3.226   2.296  1.9783  1.8855  0.3490
  129MYC    H1526064   4.585   3.244   2.165 -1.1706 -1.2699 -2.0731
  129MYC     C826065   4.636   3.089   2.314  0.6500 -0.4446  0.1340
  129MYC    H1226066   4.735   3.135   2.313  2.0977 -3.3296  0.7743
  129MYC    H1326067   4.652   2.987   2.277  0.1213 -1.7933  3.3352
  129MYC     C726068   4.585   3.075   2.453  0.6953  0.0260  0.0577
  129MYC    H1026069   4.557   3.172   2.494 -0.0912  1.0959 -2.7879
  129MYC    H1126070   4.669   3.034   2.510 -0.2364 -0.4075  1.1723
  129MYC     C626071   4.465   2.976   2.466  0.5867 -0.8036  0.7700
  129MYC     H826072   4.501   2.873   2.463 -0.2501 -1.1303  1.6960
  129MYC     H926073   4.393   3.000   2.387  1.2182 -0.0756  0.3967
  129MYC     C526074   4.366   3.003   2.583 -0.2699 -1.3502 -0.3754
  129MYC     H626075   4.281   2.936   2.565 -1.1020  0.0839 -2.0086
  129MYC     H726076   4.334   3.108   2.580 -2.9121 -1.9123  2.7916
  129MYC     C426077   4.433   2.970   2.724  1.5014 -0.4167  0.7038
  129MYC     H426078   4.505   3.050   2.744  1.6613 -0.2640 -0.4117
  129MYC     H526079   4.473   2.870   2.707 -0.2777 -1.3454  1.6313
  129MYC     C226080   4.321   2.965   2.834  0.1802 -0.2374 -0.3458
  129MYC     H226081   4.268   3.060   2.818 -0.1974 -0.6046 -1.3628
  129MYC     O326082   4.228   2.853   2.810  0.6282 -0.1420  0.2239
  129MYC     H326083   4.269   2.765   2.821 -0.6549 -0.8112 -0.0250
  129MYC     C126084   4.379   2.953   2.975  0.0315 -0.2820  0.2462
  129MYC     H126085   4.431   3.050   2.987 -1.9279  0.8829 -0.2622
  129MYC    C8126086   4.481   2.835   2.980 -0.4579  0.5574 -0.6954
  129MYC    O8226087   4.603   2.849   2.987  0.3657 -0.3139  0.5566
  129MYC    O8326088   4.428   2.709   2.958 -0.2597  0.5480  0.0588
  129MYC   H10526089   4.506   2.652   2.963  0.7770  1.5262 -3.0311
  129MYC    C2026090   4.268   2.949   3.084 -0.0614 -0.4319  0.2758
  129MYC    H3426091   4.183   3.011   3.053 -0.9331 -2.1362 -0.9187
  129MYC    H3526092   4.227   2.848   3.073 -3.1146  0.7612 -0.3200
  129MYC    C2126093   4.311   2.986   3.230  0.3053  0.2882 -0.1883
  129MYC    H3626094   4.400   2.923   3.238 -0.4471 -0.7835 -0.0825
  129MYC    H3726095   4.329   3.092   3.252 -0.8883  0.1225  1.7563
  129MYC    C2226096   4.216   2.942   3.350 -0.3945 -0.2309  0.5245
  129MYC    H3826097   4.125   3.002   3.336 -0.1552 -0.2451 -1.3128
  129MYC    H3926098   4.185   2.838   3.337 -0.7634 -0.0616 -0.0080
  129MYC    C2326099   4.269   2.969   3.497 -0.0653 -0.2472  0.1926
  129MYC    H4026100   4.354   2.905   3.520 -0.3705  0.0126  2.2554
  129MYC    H4126101   4.293   3.074   3.516  0.5063 -0.2627 -0.3941
  129MYC    C2426102   4.152   2.930   3.599  0.0949  0.4717 -0.4931
  129MYC    H4226103   4.069   3.002   3.596  0.0442  0.4228 -0.2913
  129MYC    H4326104   4.118   2.830   3.568  0.5334 -0.0681  0.6915
  129MYC    C2526105   4.192   2.939   3.747  0.2440 -0.6190  0.2840
  129MYC    H4426106   4.282   2.879   3.761  1.5951  1.0177 -0.8990
  129MYC    H4526107   4.228   3.037   3.782 -0.7697  0.1135 -0.6516
  129MYC    C2626108   4.083   2.889   3.841  0.1631  0.1143 -0.7763
  129MYC    H4626109   3.994   2.949   3.818  0.7666  2.4140  2.2548
  129MYC    H4726110   4.063   2.782   3.831  0.6189  0.0203 -0.6640
  129MYC    C2726111   4.121   2.931   3.988  0.5768  0.3180  0.1014
  129MYC    H4826112   4.216   2.891   4.022  0.8473  0.8929  0.0359
  129MYC    H4926113   4.123   3.041   3.992 -0.7471  0.4442 -1.5360
  129MYC    C2826114   4.015   2.887   4.087 -0.3240  0.2107  0.2830
  129MYC    H5026115   3.924   2.943   4.060 -1.7661 -2.5920 -1.0992
  129MYC    H5126116   3.997   2.779   4.075 -1.1212  0.1008  2.1191
  129MYC    C2926117   4.043   2.917   4.234  0.8317 -0.0528  0.3793
  129MYC    H5226118   4.139   2.874   4.264 -0.5748 -1.6491  2.9634
  129MYC    H5326119   4.039   3.024   4.258 -2.4136  0.1717 -0.6810
  129MYC    C3026120   3.928   2.857   4.322  0.2907 -0.1629  0.6142
  129MYC    H5426121   3.833   2.901   4.290 -0.0741 -1.4476 -0.1391
  129MYC    H5526122   3.924   2.748   4.307  1.7480 -0.2506  0.7089
  129MYC    C3126123   3.956   2.876   4.473  0.4670 -0.1064 -0.0742
  129MYC    H5626124   4.065   2.866   4.476  0.5936  0.7105 -1.2204
  129MYC    H5726125   3.944   2.983   4.492  1.4093  0.2166 -1.1734
  129MYC    C3226126   3.868   2.791   4.568  0.6006 -0.1995 -0.7610
  129MYC    H5826127   3.860   2.688   4.529  1.0157 -0.2312 -0.7629
  129MYC    H5926128   3.922   2.798   4.662 -2.0418 -1.1623  0.9652
  129MYC    C3326129   3.726   2.852   4.601  0.3504 -0.3198 -1.0415
  129MYC    H6026130   3.737   2.961   4.608  0.5419 -0.2723 -1.9934
  129MYC    H6126131   3.657   2.843   4.517 -1.0787  0.3000  0.0278
  129MYC    C3426132   3.652   2.792   4.729 -0.6397  0.4309  0.1073
  129MYC    H6226133   3.720   2.804   4.815 -1.2991  0.9036  0.5676
  129MYC    H6326134   3.566   2.858   4.742 -0.5440  0.5568  0.1084
  129MYC    C3526135   3.617   2.648   4.712 -0.6127  0.1611  0.6422
  129MYC    H6426136   3.526   2.648   4.651 -0.1867  1.9932 -0.0498
  129MYC    H6526137   3.691   2.589   4.656 -0.5489  0.5047  0.3611
  129MYC    C3626138   3.597   2.579   4.839  0.0907  0.1557 -0.5616
  129MYC    H6626139   3.569   2.475   4.817 -1.6397  0.9625 -2.5706
  129MYC    H6726140   3.696   2.571   4.885 -0.6465  0.1363  1.0739
  129MYC    C3726141   3.486   2.638   4.935 -0.2162 -0.1356 -0.0600
  129MYC    H6826142   3.391   2.658   4.883 -0.3399 -1.3163 -0.3264
  129MYC    H6926143   3.456   2.568   5.013 -0.5526 -2.4789 -2.1726
  129MYC    C3826144   3.531   2.764   5.013  0.5838  0.3085  0.8154
  129MYC    H7026145   3.629   2.745   5.059  0.6724  3.3360  2.1628
  129MYC    H7126146   3.539   2.851   4.947 -0.6912 -0.4527 -0.3973
  129MYC    C3926147   3.424   2.798   5.117  0.2662 -0.6961 -0.0689
  129MYC    H7226148   3.323   2.790   5.075  1.3021 -2.2148 -2.5246
  129MYC    H7326149   3.429   2.725   5.198 -1.8826 -0.0411  0.7030
  129MYC    C4026150   3.436   2.943   5.175 -0.1537 -0.1245 -0.3301
  129MYC    H7426151   3.536   2.964   5.215 -0.7757  1.5496  0.4692
  129MYC    H7526152   3.407   3.030   5.115 -0.3826  1.6468  2.1526
  129MYC    C4126153   3.348   2.948   5.298 -0.3209 -0.1025  0.3274
  129MYC    H7626154   3.243   2.928   5.274 -0.2754  0.8095 -0.7157
  129MYC    H7726155   3.374   2.870   5.370 -0.8446  0.6691  1.3783
  129MYC    C4226156   3.341   3.087   5.371 -0.3112 -0.6714 -0.5120
  129MYC    H7826157   3.312   3.164   5.299 -0.1724  0.8279  0.9944
  129MYC    H7926158   3.264   3.071   5.447 -0.6259  0.5072 -0.5689
  129MYC    C4326159   3.473   3.130   5.442  0.2513  0.0546  0.0812
  129MYC    H8026160   3.554   3.108   5.372 -1.6094  0.2770 -2.2825
  129MYC    H8126161   3.483   3.072   5.535 -2.9597 -0.2750  0.3611
  129MYC    H8226162   3.454   3.236   5.463 -0.5212  0.3614 -1.9286
  130MYC   HH1526163   3.804   3.192   5.834 -2.0573  0.5403  0.3471
  130MYC    C8026164   3.807   3.175   5.725 -0.2668 -0.0720  0.4678
  130MYC   H10026165   3.915   3.178   5.706 -0.3760 -0.2377 -0.2056
  130MYC   H10126166   3.760   3.077   5.713 -0.5089 -0.0408  1.1339
  130MYC    C7926167   3.742   3.285   5.639 -0.3189 -0.7617 -0.4852
  130MYC   H10226168   3.645   3.312   5.681 -0.6851 -1.6945 -0.7227
  130MYC   H10326169   3.736   3.244   5.538  0.7516  0.7382 -1.2002
  130MYC    C7826170   3.829   3.422   5.637  0.0466  0.3268 -0.3032
  130MYC   HH1426171   3.934   3.397   5.655 -0.4767 -0.8408  1.5016
  130MYC   H10426172   3.803   3.474   5.730  1.5278  1.1355 -0.3123
  130MYC    C7726173   3.827   3.517   5.519 -0.2883 -0.5899  0.2301
  130MYC   H10626174   3.878   3.610   5.546  1.3927 -1.6505  0.8694
  130MYC   H10726175   3.721   3.536   5.500  0.2082  0.6378 -1.6350
  130MYC    C7626176   3.888   3.458   5.393  0.1895 -0.2175  0.3878
  130MYC   H10826177   3.858   3.353   5.382  1.1525 -0.8793  3.2812
  130MYC   H10926178   3.994   3.441   5.413  0.3927  0.8880  0.3050
  130MYC    C7526179   3.878   3.540   5.263  0.2852  0.3953  0.1069
  130MYC   H11026180   3.937   3.632   5.270 -1.3715  1.3648  3.3449
  130MYC   H11126181   3.773   3.561   5.240 -0.2028  0.0817  1.8870
  130MYC    C7426182   3.937   3.468   5.140 -0.2856  0.2368 -0.1170
  130MYC   H11226183   3.901   3.365   5.129 -0.9110  0.7034 -3.3533
  130MYC   H11326184   4.042   3.468   5.172 -0.5337  0.4129  0.7251
  130MYC    C7326185   3.933   3.537   5.003 -0.0047  0.5737  0.1808
  130MYC   HH1326186   3.974   3.639   5.006  0.9221  0.2623 -1.0662
  130MYC   H11426187   3.832   3.552   4.965  0.4183 -1.2678 -1.8646
  130MYC    C7226188   4.007   3.460   4.888  0.3024  0.1941  0.2782
  130MYC   H11526189   3.942   3.376   4.861 -2.2552  2.6880 -1.8630
  130MYC   H11626190   4.104   3.434   4.934  0.9124  0.2067 -0.9518
  130MYC    C7126191   4.012   3.558   4.761 -0.0234 -0.2090 -0.1558
  130MYC   H11726192   4.053   3.657   4.784  0.6981 -0.9475  1.8772
  130MYC   H11826193   3.911   3.572   4.719  0.0150 -1.1777 -0.5984
  130MYC    C7026194   4.112   3.503   4.654 -0.3792 -0.5127 -0.7983
  130MYC   H11926195   4.071   3.411   4.611 -0.6943  0.8862 -3.7231
  130MYC   H12026196   4.206   3.481   4.706 -2.1386 -1.3269  2.3296
  130MYC    C6926197   4.121   3.603   4.536  0.4467  0.1517  0.1095
  130MYC   H12126198   4.174   3.693   4.568  2.2441 -0.8362  0.0487
  130MYC   H12226199   4.021   3.634   4.504  0.2667  0.8688  1.3012
  130MYC    C6826200   4.184   3.531   4.414  0.5018  0.7943  0.2418
  130MYC   HH1226201   4.152   3.427   4.406  2.6624 -0.5103  4.9128
  130MYC   H12326202   4.293   3.527   4.430  0.3420 -0.4612  1.1578
  130MYC    C6726203   4.158   3.612   4.282  0.0376 -0.5478  0.2618
  130MYC   H12426204   4.172   3.721   4.280  3.3384 -0.8777 -1.9914
  130MYC   H12526205   4.060   3.582   4.244  1.3375 -2.4392 -1.8760
  130MYC    C6626206   4.250   3.557   4.161  0.6334 -0.3898  0.6149
  130MYC   H12626207   4.224   3.452   4.143 -1.9711  0.4828 -1.3445
  130MYC   H12726208   4.357   3.558   4.188  0.7664 -0.9920  0.1350
  130MYC    C6526209   4.231   3.636   4.032  0.5806  0.8118  0.3339
  130MYC   H12826210   4.237   3.745   4.041 -0.6042  1.1274 -2.0113
  130MYC   H12926211   4.131   3.626   3.989  0.3587  1.5494  0.6711
  130MYC    C6426212   4.337   3.596   3.920  0.0319 -0.1275 -0.0328
  130MYC   H13026213   4.343   3.489   3.902  0.5394 -0.2036  0.5541
  130MYC   H13126214   4.437   3.616   3.960 -0.1467  0.2636  0.2287
  130MYC    C6326215   4.330   3.674   3.792 -0.5666 -0.2119 -0.0123
  130MYC   HH1126216   4.359   3.779   3.809 -1.7769  1.0288 -4.4075
  130MYC   H13226217   4.229   3.685   3.752 -0.2387  1.2192 -0.5293
  130MYC    C6226218   4.418   3.599   3.685  0.0436  0.0181 -0.6135
  130MYC   H13326219   4.421   3.489   3.680  0.9180  0.0737 -1.9740
  130MYC   H13426220   4.519   3.630   3.713 -0.3718  1.0592 -0.2441
  130MYC    C6126221   4.384   3.649   3.544  0.0757  0.2622  0.1136
  130MYC   H13526222   4.423   3.751   3.533  0.1884  0.1660 -0.4352
  130MYC   H13626223   4.277   3.653   3.523  0.3761  2.2167 -1.3878
  130MYC    C6026224   4.451   3.569   3.434 -0.2925 -0.0229  0.1190
  130MYC   H13726225   4.419   3.465   3.432  3.7901 -1.4629 -2.2315
  130MYC    C5826226   4.490   3.622   3.298 -0.5482 -0.3568 -0.4952
  130MYC   H13826227   4.458   3.725   3.281  1.0669 -0.0521 -2.0118
  130MYC    C5926228   4.596   3.590   3.403  0.6481  0.3466 -0.6195
  130MYC   H13926229   4.651   3.497   3.394  2.1745  1.3565 -2.3761
  130MYC   H14026230   4.659   3.669   3.441  1.5528 -0.6972  0.1002
  130MYC    C5726231   4.478   3.542   3.175  0.4983  0.1983 -0.0179
  130MYC   HH1026232   4.382   3.562   3.126  1.5702 -1.4066 -3.0205
  130MYC   H14126233   4.472   3.436   3.203  0.7015 -0.0955 -1.0406
  130MYC    C5626234   4.598   3.565   3.079  0.2117  0.2470 -0.0089
  130MYC   H14226235   4.695   3.529   3.115  0.7022  1.1539 -0.4171
  130MYC   H14326236   4.612   3.672   3.062  0.9167  0.5071  1.9606
  130MYC    C5526237   4.575   3.488   2.946 -0.0989 -0.1428 -0.0138
  130MYC   H14426238   4.476   3.508   2.904 -0.2672 -2.1244 -0.6626
  130MYC   H14526239   4.567   3.380   2.961  0.2471 -0.0572  0.8094
  130MYC    C5426240   4.676   3.530   2.841  0.6667 -0.3888 -0.0086
  130MYC   H14626241   4.774   3.521   2.889  0.2391 -1.8873  0.6676
  130MYC   H14726242   4.658   3.635   2.816 -0.2723 -0.7258 -0.8234
  130MYC    C5326243   4.663   3.447   2.717 -0.1035 -0.9055 -0.3755
  130MYC   H14826244   4.558   3.425   2.693 -0.8405  2.6572 -1.0814
  130MYC   H14926245   4.724   3.357   2.726  1.0733  0.0495  2.1492
  130MYC    C5226246   4.723   3.519   2.592 -0.0774 -0.2548 -0.0493
  130MYC    H9926247   4.827   3.552   2.606  0.2839 -1.2089 -0.3712
  130MYC   H15026248   4.664   3.609   2.577  0.7326  0.3655  0.3840
  130MYC    C5126249   4.726   3.432   2.464  0.5207  0.6997  0.2827
  130MYC    H9726250   4.626   3.416   2.423  1.0333 -1.2666 -0.3167
  130MYC    H9826251   4.759   3.331   2.491  1.8579  0.8720 -0.5695
  130MYC    C5026252   4.815   3.497   2.356 -0.4416 -0.2739 -0.3463
  130MYC    H9526253   4.920   3.500   2.387 -0.9990  0.4625  1.6153
  130MYC    H9626254   4.785   3.602   2.360  0.2204 -0.0657 -0.7140
  130MYC    C4926255   4.802   3.439   2.216  0.6053  0.0708 -0.2050
  130MYC    H9326256   4.698   3.446   2.183  0.0962  0.0093  1.2800
  130MYC    H9426257   4.820   3.332   2.225 -1.4438 -0.3456 -0.5176
  130MYC    C4826258   4.890   3.496   2.101 -0.2044  0.1290 -0.0986
  130MYC    H9126259   4.890   3.427   2.016  0.2792 -0.2860  0.2373
  130MYC    H9226260   4.991   3.503   2.142 -0.1259  3.9665 -0.5382
  130MYC    C4726261   4.843   3.621   2.051  0.0494  0.2176  0.4034
  130MYC    H8926262   4.819   3.688   2.133 -2.2235 -0.6200  0.4842
  130MYC    H9026263   4.747   3.609   2.000  0.4433  0.2559 -0.3673
  130MYC    C4626264   4.929   3.702   1.948 -0.3603 -0.6029 -0.2819
  130MYC    H8726265   4.871   3.780   1.898 -1.8213 -1.6852 -0.3492
  130MYC    H8826266   4.931   3.637   1.860 -3.0633  1.4293 -1.9968
  130MYC    C4526267   5.063   3.746   1.996  0.0405 -0.0351  0.5450
  130MYC    H8526268   5.118   3.803   1.920 -0.8573 -0.1212 -0.1813
  130MYC    H8626269   5.116   3.659   2.035  1.5944  1.4489  1.8858
  130MYC    C4426270   5.051   3.829   2.120 -0.4492  0.4284 -0.2769
  130MYC    H8326271   5.148   3.874   2.142  0.2301 -1.5303  1.0137
  130MYC    H8426272   5.042   3.760   2.204  0.9057  1.9654  1.1904
  130MYC    C1826273   4.950   3.940   2.124 -0.2109 -0.5182  0.1353
  130MYC    H3126274   4.847   3.914   2.145 -0.6569  0.9338 -0.1246
  130MYC    C1726275   4.988   4.081   2.170 -0.2004  0.2904  0.2384
  130MYC    H3026276   5.095   4.097   2.184  0.3226 -2.3925 -0.2114
  130MYC    C1926277   4.949   4.061   2.030 -0.9960  0.0649 -0.0728
  130MYC    H3226278   5.024   4.064   1.952 -1.0018  1.5669 -0.0520
  130MYC    H3326279   4.849   4.098   2.007 -0.3737  1.2892 -0.9126
  130MYC    C1626280   4.897   4.163   2.266 -0.0759 -0.1201  0.1715
  130MYC    H2826281   4.791   4.143   2.246  0.1128 -1.4592  0.3956
  130MYC    H2926282   4.898   4.273   2.259 -3.9000  0.2994  2.6037
  130MYC    C1526283   4.910   4.125   2.416 -0.3841 -0.2712  0.0680
  130MYC    H2626284   4.842   4.194   2.468  0.2908  0.3900  0.0782
  130MYC    H2726285   5.015   4.139   2.442 -0.5438 -0.5054  0.8760
  130MYC    C1426286   4.882   3.972   2.446  0.0537 -0.2779 -0.1405
  130MYC    H2426287   4.920   3.955   2.547 -3.1302 -0.0767  1.2228
  130MYC    H2526288   4.945   3.899   2.393  1.4114  0.6773  0.1037
  130MYC    C1326289   4.735   3.916   2.438  0.2460 -0.3688 -0.2203
  130MYC    H2226290   4.740   3.807   2.442 -1.2133 -0.4540 -0.0385
  130MYC    H2326291   4.685   3.921   2.341 -1.3698  0.9147  0.6169
  130MYC    C1226292   4.626   3.973   2.542  0.2106  0.9257 -0.3433
  130MYC    H2026293   4.546   3.899   2.560  1.0419  0.2824  0.8571
  130MYC    H2126294   4.571   4.059   2.501 -1.3124 -0.0581 -0.4391
  130MYC    C1126295   4.693   4.006   2.683  1.1329  0.5984  0.5781
  130MYC    H1826296   4.762   4.091   2.677 -0.3775  2.0225  2.2155
  130MYC    H1926297   4.736   3.914   2.724 -0.6703  0.0327  1.2751
  130MYC    C1026298   4.596   4.064   2.794 -0.1012 -0.5850  0.3313
  130MYC    H1626299   4.541   4.143   2.743 -0.9307 -2.4267 -1.7597
  130MYC    H1726300   4.663   4.098   2.874 -0.0930  1.8321 -0.6384
  130MYC     C926301   4.491   3.959   2.850 -0.6757 -0.3099  0.4126
  130MYC    H1426302   4.553   3.889   2.907 -0.2918 -0.2875  0.0329
  130MYC    H1526303   4.442   3.904   2.768 -0.1295 -1.0815  0.5998
  130MYC     C826304   4.381   4.026   2.935 -0.6634 -0.3103  0.2350
  130MYC    H1226305   4.301   4.053   2.865  0.2667  0.0973 -0.6993
  130MYC    H1326306   4.414   4.124   2.971 -2.1102  0.8010 -1.2911
  130MYC     C726307   4.318   3.919   3.036  0.2212 -0.6217 -0.1732
  130MYC    H1026308   4.395   3.881   3.103  1.1237 -0.5901 -1.1805
  130MYC    H1126309   4.297   3.828   2.979  3.3577 -1.4919 -0.0777
  130MYC     C626310   4.192   3.967   3.106 -0.1375 -0.1415  0.2201
  130MYC     H826311   4.100   3.951   3.048 -1.0949  0.0585  1.6314
  130MYC     H926312   4.208   4.074   3.125  1.0671 -0.1775 -0.4673
  130MYC     C526313   4.173   3.902   3.248 -0.4997  0.1625 -0.3199
  130MYC     H626314   4.183   3.794   3.233 -0.3036  0.3031 -1.2732
  130MYC     H726315   4.069   3.915   3.281 -0.6697  0.8509 -1.0935
  130MYC     C426316   4.269   3.959   3.366 -0.2374  0.7143 -0.0843
  130MYC     H426317   4.373   3.935   3.340 -0.3947  1.9559 -2.1081
  130MYC     H526318   4.260   3.894   3.453  1.3799 -0.8850 -1.0369
  130MYC     C226319   4.246   4.106   3.401  0.8170 -0.4904  0.3487
  130MYC     H226320   4.263   4.168   3.313  0.7257 -0.3217  0.4486
  130MYC     O326321   4.103   4.111   3.439 -0.3241 -0.5560  0.1625
  130MYC     H326322   4.062   4.023   3.442  1.3358 -1.3834 -0.2907
  130MYC     C126323   4.336   4.183   3.502 -0.2306  0.2599 -0.3053
  130MYC     H126324   4.299   4.286   3.505 -1.7079 -0.2088 -1.4803
  130MYC    C8126325   4.476   4.190   3.447  1.0369 -0.7610 -0.3008
  130MYC    O8226326   4.555   4.102   3.453  0.2053  0.9739 -0.5272
  130MYC    O8326327   4.496   4.301   3.372  0.3663  0.1116 -0.0322
  130MYC   H10526328   4.581   4.275   3.332 -0.9852 -0.5434 -2.6933
  130MYC    C2026329   4.315   4.134   3.648  0.4916 -0.3973  0.7743
  130MYC    H3426330   4.210   4.130   3.677  0.3164  0.6357  0.3291
  130MYC    H3526331   4.348   4.029   3.650 -1.2819 -1.0064  0.3062
  130MYC    C2126332   4.400   4.216   3.757 -0.1247  0.5983  1.0777
  130MYC    H3626333   4.502   4.220   3.718 -0.9687 -0.1773 -1.3893
  130MYC    H3726334   4.355   4.315   3.753 -0.6540  0.3509  0.7767
  130MYC    C2226335   4.406   4.149   3.896 -0.2916  0.3314  0.6689
  130MYC    H3826336   4.398   4.040   3.889  1.7662  0.1826  0.1779
  130MYC    H3926337   4.499   4.182   3.942  0.1496  1.0050 -0.6456
  130MYC    C2326338   4.293   4.205   3.977  0.4416 -0.1551 -0.2341
  130MYC    H4026339   4.307   4.313   3.973 -1.1767  0.0969  0.3040
  130MYC    H4126340   4.198   4.208   3.923  0.5988  0.5796 -0.4776
  130MYC    C2426341   4.247   4.150   4.107  0.3667 -0.0398  0.1627
  130MYC    H4226342   4.166   4.215   4.142  1.9726  2.3404 -0.3474
  130MYC    H4326343   4.222   4.043   4.100  0.7359 -0.1287  0.1960
  130MYC    C2526344   4.362   4.170   4.213  1.3241  0.3618 -0.0760
  130MYC    H4426345   4.445   4.108   4.177  0.9003 -0.3747  0.1973
  130MYC    H4526346   4.401   4.272   4.223 -0.3093  0.9060  1.0965
  130MYC    C2626347   4.298   4.137   4.353  0.6007  0.5519 -0.0975
  130MYC    H4626348   4.221   4.212   4.375  1.5736  0.7773  3.0586
  130MYC    H4726349   4.253   4.038   4.353  0.5372  0.5637  1.2295
  130MYC    C2726350   4.386   4.134   4.478  0.6880 -0.1921 -0.0543
  130MYC    H4826351   4.471   4.069   4.460  0.6999  0.3793 -2.3240
  130MYC    H4926352   4.433   4.232   4.494 -1.0777  1.2338 -2.7239
  130MYC    C2826353   4.304   4.109   4.605  0.6015 -0.4902 -0.4475
  130MYC    H5026354   4.215   4.172   4.611  0.0490 -1.0530 -2.2247
  130MYC    H5126355   4.256   4.011   4.595  1.8345 -1.0615 -0.9572
  130MYC    C2926356   4.378   4.114   4.746  0.6756 -0.5105  0.7254
  130MYC    H5226357   4.471   4.055   4.743  1.2118  0.2870  1.3558
  130MYC    H5326358   4.403   4.220   4.744  1.1226 -0.6139  0.6971
  130MYC    C3026359   4.293   4.104   4.874  0.4094 -0.1248 -0.4134
  130MYC    H5426360   4.216   4.182   4.879  0.7209  0.1478  0.1838
  130MYC    H5526361   4.245   4.005   4.874 -2.4156  1.1565 -1.0387
  130MYC    C3126362   4.375   4.108   5.010  0.3818  0.9151 -0.4939
  130MYC    H5626363   4.457   4.034   5.009  0.7624  1.2352  1.6023
  130MYC    H5726364   4.420   4.208   5.014  1.1794  0.5606 -0.3193
  130MYC    C3226365   4.275   4.105   5.137  0.2522  0.3375  0.4570
  130MYC    H5826366   4.205   4.189   5.141 -0.7571 -0.4318 -0.3737
  130MYC    H5926367   4.210   4.020   5.112 -2.6966  2.4519  0.3527
  130MYC    C3326368   4.341   4.087   5.284  0.0683  0.7932 -0.2033
  130MYC    H6026369   4.425   4.016   5.287  0.3436  1.1444  0.6273
  130MYC    H6126370   4.395   4.181   5.300  1.3392  0.1372 -0.4397
  130MYC    C3426371   4.241   4.049   5.400 -1.0615  0.3427  0.3733
  130MYC    H6226372   4.163   4.126   5.405 -1.7968 -0.3495 -0.2770
  130MYC    H6326373   4.180   3.960   5.386 -0.6733 -0.4831  3.3948
  130MYC    C3526374   4.316   4.031   5.536  0.3181  0.0781  0.4333
  130MYC    H6426375   4.356   3.929   5.545 -0.5565 -0.0786  3.5515
  130MYC    H6526376   4.392   4.109   5.542  0.2255  0.2325 -0.2278
  130MYC    C3626377   4.223   4.043   5.656 -0.2348 -0.0239  0.3672
  130MYC    H6626378   4.166   4.136   5.652  1.0801  0.8025 -0.0026
  130MYC    H6726379   4.154   3.959   5.644 -0.4247  0.2776 -0.7595
  130MYC    C3726380   4.281   4.035   5.792  0.0656 -0.1911 -0.2128
  130MYC    H6826381   4.332   3.943   5.821 -0.7478  0.3097  3.3848
  130MYC    H6926382   4.357   4.112   5.815  0.4222 -0.7901  0.6604
  130MYC    C3826383   4.174   4.052   5.907  0.1340 -0.3037  0.5131
  130MYC    H7026384   4.130   4.152   5.895 -1.5923 -1.0485  0.3681
  130MYC    H7126385   4.095   3.980   5.885 -0.0459  0.0292  0.0639
  130MYC    C3926386   4.205   4.032   6.055  0.2715  0.0235 -0.3985
  130MYC    H7226387   4.129   4.066   6.127  1.9760  0.7206  1.1632
  130MYC    H7326388   4.204   3.923   6.069 -0.4453  0.0535 -0.1519
  130MYC    C4026389   4.347   4.092   6.097 -0.1468  0.0496  0.7468
  130MYC    H7426390   4.433   4.050   6.043  0.2525  0.8780  0.7264
  130MYC    H7526391   4.336   4.196   6.066  1.5859 -0.3644 -1.4940
  130MYC    C4126392   4.365   4.089   6.252 -0.2309 -0.2866 -0.0162
  130MYC    H7626393   4.278   4.116   6.312  0.1982  1.3319 -0.0722
  130MYC    H7726394   4.386   3.982   6.266  0.3731 -0.2470 -0.5514
  130MYC    C4226395   4.481   4.171   6.296  0.6885  0.0184  0.8387
  130MYC    H7826396   4.560   4.166   6.220 -2.1497 -1.6246 -2.2802
  130MYC    H7926397   4.447   4.274   6.309  2.1937  0.6699 -0.1226
  130MYC    C4326398   4.523   4.127   6.434  0.8263  0.0019 -0.1664
  130MYC    H8026399   4.440   4.129   6.506  1.8340  0.1677  1.0236
  130MYC    H8126400   4.601   4.196   6.470 -0.2682  1.1888 -0.0004
  130MYC    H8226401   4.571   4.030   6.421  0.4453 -0.1532 -0.4273
  131MYC   HH1526402   4.836   4.118   6.193 -0.5668 -0.9876 -0.2284
  131MYC    C8026403   4.907   4.171   6.129 -0.3784 -0.1517  0.6337
  131MYC   H10026404   4.929   4.263   6.184 -0.1152 -0.3639  0.8877
  131MYC   H10126405   4.997   4.110   6.112 -1.3822 -1.6331  0.4062
  131MYC    C7926406   4.825   4.205   6.003  0.0426 -0.7918 -0.2377
  131MYC   H10226407   4.879   4.284   5.949 -1.6987  1.4996  1.1909
  131MYC   H10326408   4.726   4.243   6.033 -0.6321 -1.5190 -1.4614
  131MYC    C7826409   4.783   4.089   5.915 -0.4622  0.0999  0.3107
  131MYC   HH1426410   4.721   4.024   5.978 -2.1888  0.9209 -0.5012
  131MYC   H10426411   4.871   4.036   5.876  0.1709  0.9896  0.4953
  131MYC    C7726412   4.706   4.124   5.791  0.0229 -0.1599  0.1474
  131MYC   H10626413   4.623   4.191   5.818 -0.9336 -0.8394 -1.0067
  131MYC   H10726414   4.652   4.038   5.750 -1.5929 -0.7537  3.2235
  131MYC    C7626415   4.793   4.194   5.676  0.1766 -0.2899  0.1313
  131MYC   H10826416   4.869   4.121   5.647  0.6238  0.1715  0.1215
  131MYC   H10926417   4.845   4.284   5.712 -0.5259 -0.2820  1.1708
  131MYC    C7526418   4.710   4.215   5.543 -0.4219 -0.6305 -0.5726
  131MYC   H11026419   4.625   4.280   5.565 -0.1457 -1.1007  2.2587
  131MYC   H11126420   4.678   4.117   5.504  2.0441 -1.2793 -1.1319
  131MYC    C7426421   4.805   4.269   5.431  0.1188 -0.1306 -0.0231
  131MYC   H11226422   4.893   4.204   5.421  0.4178 -0.0305  1.6580
  131MYC   H11326423   4.830   4.371   5.462 -1.5126  0.2938 -0.0234
  131MYC    C7326424   4.728   4.277   5.295 -0.3560  0.4612 -0.3540
  131MYC   HH1326425   4.632   4.318   5.327 -0.7148  0.0827 -0.9191
  131MYC   H11426426   4.704   4.179   5.251 -1.3527  0.9838 -1.0095
  131MYC    C7226427   4.792   4.370   5.189 -0.3316  0.4648 -0.8421
  131MYC   H11526428   4.891   4.335   5.159  0.6230  1.3792  1.0338
  131MYC   H11626429   4.821   4.466   5.233 -1.0579  0.4381 -0.2820
  131MYC    C7126430   4.707   4.376   5.062 -0.1631  0.1705  0.2526
  131MYC   H11726431   4.618   4.439   5.071 -1.0679 -0.9375 -0.6765
  131MYC   H11826432   4.677   4.272   5.043 -0.8876  0.4320 -0.0680
  131MYC    C7026433   4.777   4.421   4.933 -0.0669 -0.1064  0.0857
  131MYC   H11926434   4.879   4.382   4.926  0.6498  1.5116  1.0421
  131MYC   H12026435   4.783   4.531   4.940  1.3314  0.1592 -3.2052
  131MYC    C6926436   4.697   4.378   4.802  0.3486 -0.1918  0.1841
  131MYC   H12126437   4.591   4.403   4.803  0.5905  0.8767  1.0267
  131MYC   H12226438   4.701   4.269   4.793  0.8089 -0.2443  0.9529
  131MYC    C6826439   4.765   4.436   4.679  0.2449  0.8551 -0.4458
  131MYC   HH1226440   4.866   4.396   4.670  0.7065  2.0424 -0.7888
  131MYC   H12326441   4.766   4.546   4.687 -1.3702  0.7696  1.7418
  131MYC    C6726442   4.706   4.385   4.547 -0.3225  0.0637  0.0346
  131MYC   H12426443   4.596   4.394   4.543 -0.5819 -1.5963  1.7896
  131MYC   H12526444   4.725   4.278   4.535  0.4227  0.0699  1.0826
  131MYC    C6626445   4.769   4.438   4.416  0.0311 -0.2754 -0.4836
  131MYC   H12626446   4.874   4.407   4.410 -0.4636 -2.1381 -0.1633
  131MYC   H12726447   4.762   4.547   4.411 -0.1361 -0.2762 -0.2794
  131MYC    C6526448   4.710   4.391   4.287  0.3453 -0.3566  0.7517
  131MYC   H12826449   4.607   4.427   4.288  0.5933  0.5204 -0.9320
  131MYC   H12926450   4.706   4.282   4.271 -2.2491 -0.0496 -1.2028
  131MYC    C6426451   4.771   4.455   4.160  0.5836 -0.0104  0.0280
  131MYC   H13026452   4.878   4.430   4.153  0.3517 -0.6121 -2.3896
  131MYC   H13126453   4.772   4.564   4.169 -1.6064 -0.0543  1.8739
  131MYC    C6326454   4.712   4.414   4.028 -0.0427  0.0711 -0.3511
  131MYC   HH1126455   4.605   4.435   4.025 -0.4472 -1.9813 -1.6726
  131MYC   H13226456   4.725   4.309   4.001  1.0888  0.4392 -1.3772
  131MYC    C6226457   4.782   4.486   3.919  0.0496  0.6371 -0.8199
  131MYC   H13326458   4.889   4.467   3.937 -0.2303 -1.1949 -0.9136
  131MYC   H13426459   4.761   4.594   3.925  0.0010  0.5804  0.2127
  131MYC    C6126460   4.752   4.439   3.772 -0.1089 -0.5153  0.1531
  131MYC   H13526461   4.643   4.444   3.762 -0.4511  2.0983  3.4435
  131MYC   H13626462   4.768   4.331   3.762  0.1734 -0.4159 -0.5007
  131MYC    C6026463   4.832   4.500   3.658 -0.2660  0.7554 -0.1695
  131MYC   H13726464   4.933   4.464   3.647 -0.3087  0.2344  0.9613
  131MYC    C5826465   4.767   4.560   3.541  0.2409 -0.2843  0.0587
  131MYC   H13826466   4.660   4.542   3.534  0.3375 -0.3530 -1.7521
  131MYC    C5926467   4.808   4.650   3.656 -0.2323 -0.4569  1.0279
  131MYC   H13926468   4.893   4.714   3.633 -2.8928  2.1648 -2.6091
  131MYC   H14026469   4.740   4.702   3.722 -0.4281  2.3394 -1.1883
  131MYC    C5726470   4.835   4.544   3.406 -0.4097 -0.2111  0.6320
  131MYC   HH1026471   4.813   4.438   3.392 -1.2523  0.1553 -1.2771
  131MYC   H14126472   4.943   4.557   3.411 -0.3575 -0.9976  1.8094
  131MYC    C5626473   4.786   4.626   3.287  0.3913  0.3260  0.0850
  131MYC   H14226474   4.865   4.675   3.230  1.7049 -0.7891  0.8905
  131MYC   H14326475   4.729   4.712   3.325 -0.2485 -0.9210  2.1164
  131MYC    C5526476   4.674   4.560   3.191 -0.1283 -0.1399  0.6922
  131MYC   H14426477   4.621   4.635   3.132 -0.4669 -0.2170  0.8941
  131MYC   H14526478   4.615   4.505   3.266 -0.2617 -1.9943 -0.7150
  131MYC    C5426479   4.729   4.468   3.082  0.4831  0.3505  0.9446
  131MYC   H14626480   4.805   4.398   3.119 -0.0411  0.7700  2.9246
  131MYC   H14726481   4.773   4.526   3.000 -1.3491 -1.7593 -1.7305
  131MYC    C5326482   4.615   4.384   3.008 -0.5014  0.3070 -0.5368
  131MYC   H14826483   4.551   4.338   3.083 -0.0375 -0.5055 -0.6303
  131MYC   H14926484   4.655   4.298   2.954  2.4834  1.1039  0.2013
  131MYC    C5226485   4.521   4.480   2.927 -0.2854  0.0111  0.1607
  131MYC    H9926486   4.466   4.546   2.995 -1.3988 -0.6609 -0.0644
  131MYC   H15026487   4.451   4.410   2.881  0.0231  0.3732 -0.8877
  131MYC    C5126488   4.582   4.558   2.816  0.2724  0.4556 -0.2590
  131MYC    H9726489   4.642   4.479   2.769  0.7992  1.3426 -1.1032
  131MYC    H9826490   4.657   4.629   2.853  1.9732 -1.5099  0.2813
  131MYC    C5026491   4.482   4.621   2.712 -0.1520  0.0974  0.6255
  131MYC    H9526492   4.414   4.698   2.752 -0.4264  0.6116 -0.7802
  131MYC    H9626493   4.407   4.548   2.678 -0.9729  2.1464 -2.3384
  131MYC    C4926494   4.555   4.683   2.580  0.1218  0.4891 -0.1678
  131MYC    H9326495   4.615   4.766   2.618  0.3084 -0.0736  0.7874
  131MYC    H9426496   4.476   4.734   2.523 -3.7224 -0.6563  3.5807
  131MYC    C4826497   4.630   4.589   2.481 -0.9782  0.3636  0.1127
  131MYC    H9126498   4.570   4.504   2.445  3.0569 -1.6692 -2.5528
  131MYC    H9226499   4.716   4.546   2.533 -1.0869  0.5833  0.4779
  131MYC    C4726500   4.686   4.664   2.360 -0.3805 -0.4269  0.8730
  131MYC    H8926501   4.747   4.746   2.398 -1.2891  0.7123 -0.0193
  131MYC    H9026502   4.605   4.700   2.295 -0.6250 -1.3449  0.6498
  131MYC    C4626503   4.771   4.567   2.271  0.1625 -0.0150  0.9589
  131MYC    H8726504   4.734   4.464   2.278  0.1338 -0.0066  0.9284
  131MYC    H8826505   4.868   4.577   2.321  0.5776 -0.4668  0.2662
  131MYC    C4526506   4.791   4.613   2.128  0.4505  0.6149  0.2812
  131MYC    H8526507   4.859   4.698   2.125  1.3367 -0.0817  0.0658
  131MYC    H8626508   4.695   4.646   2.086 -0.7955 -3.7549 -0.8385
  131MYC    C4426509   4.844   4.503   2.035 -0.2083 -0.0010 -0.2660
  131MYC    H8326510   4.925   4.469   2.101 -0.4446 -0.5605 -0.2607
  131MYC    H8426511   4.893   4.551   1.950 -0.9669  0.3161 -0.5307
  131MYC    C1826512   4.737   4.410   1.982 -0.1125  0.7538 -0.3337
  131MYC    H3126513   4.714   4.328   2.050 -0.2345  1.3612  0.3621
  131MYC    C1726514   4.620   4.460   1.908 -0.0288 -0.6718 -0.8706
  131MYC    H3026515   4.625   4.561   1.869 -1.7937 -0.9181 -1.8130
  131MYC    C1926516   4.721   4.366   1.842  0.2778 -0.4479  0.4694
  131MYC    H3226517   4.799   4.401   1.774  0.1406  1.1969  1.0970
  131MYC    H3326518   4.672   4.273   1.817 -0.1300 -0.7533  2.2725
  131MYC    C1626519   4.479   4.418   1.945 -0.4195  0.1083  0.1981
  131MYC    H2826520   4.461   4.314   1.915 -0.3378  0.7691 -2.3993
  131MYC    H2926521   4.411   4.472   1.878 -1.5106 -0.9394  0.4241
  131MYC    C1526522   4.424   4.442   2.083 -0.1625 -0.2833 -0.8563
  131MYC    H2626523   4.500   4.406   2.153 -0.3363  0.5433 -0.2372
  131MYC    H2726524   4.344   4.370   2.102  1.3165 -1.3890  1.6830
  131MYC    C1426525   4.373   4.589   2.105 -0.6843 -0.3111  0.0197
  131MYC    H2426526   4.321   4.639   2.023  2.8044  2.1834 -0.9145
  131MYC    H2526527   4.451   4.661   2.131 -2.4929  1.5326  0.6176
  131MYC    C1326528   4.272   4.599   2.219 -0.7226 -0.1133  0.1917
  131MYC    H2226529   4.305   4.548   2.310  1.5346 -0.7514 -0.9166
  131MYC    H2326530   4.176   4.562   2.180 -2.2832  4.5769 -1.1227
  131MYC    C1226531   4.228   4.746   2.251 -0.3757 -0.0536 -0.6645
  131MYC    H2026532   4.186   4.779   2.155  1.5480 -0.3273 -1.6470
  131MYC    H2126533   4.323   4.793   2.278 -1.2591 -0.0635  2.8601
  131MYC    C1126534   4.125   4.756   2.358 -0.0890  0.7313 -0.1470
  131MYC    H1826535   4.162   4.696   2.442 -0.5019 -1.6350 -1.5889
  131MYC    H1926536   4.029   4.712   2.328 -1.0975  0.7129  2.7721
  131MYC    C1026537   4.103   4.904   2.393 -0.2343  0.6059  0.3155
  131MYC    H1626538   4.073   4.947   2.297  0.1171 -3.9806 -2.1340
  131MYC    H1726539   4.199   4.950   2.416  0.9295 -1.4734 -0.0846
  131MYC     C926540   4.000   4.907   2.515  0.3467 -0.0156 -0.0753
  131MYC    H1426541   4.040   4.851   2.600 -1.0480 -1.7358 -0.5039
  131MYC    H1526542   3.906   4.862   2.481  0.0207  1.9526 -2.0391
  131MYC     C826543   3.944   5.050   2.546  0.2658 -0.4005  0.2153
  131MYC    H1226544   3.875   5.079   2.466  0.2898 -0.3706  0.2055
  131MYC    H1326545   4.022   5.127   2.537 -0.8589  0.5476 -2.7467
  131MYC     C726546   3.855   5.078   2.671 -0.1017  1.0484  0.5949
  131MYC    H1026547   3.799   4.984   2.680  0.0665  0.7612 -0.9603
  131MYC    H1126548   3.794   5.168   2.664 -2.6797 -0.5706  0.9407
  131MYC     C626549   3.940   5.087   2.801 -0.1669  0.4297  0.6557
  131MYC     H826550   4.012   5.169   2.792  0.1821  0.1070  0.4369
  131MYC     H926551   3.987   4.989   2.816 -0.2759  0.3553  0.5142
  131MYC     C526552   3.855   5.109   2.928 -0.4886  0.8390  0.2292
  131MYC     H626553   3.816   5.011   2.958  0.9062 -0.5178 -2.0504
  131MYC     H726554   3.764   5.165   2.902 -1.5659 -0.4935  1.0437
  131MYC     C426555   3.934   5.176   3.034 -0.5257  0.7039 -0.2398
  131MYC     H426556   3.865   5.179   3.119  0.9054 -2.2784  1.1710
  131MYC     H526557   3.957   5.278   3.000  0.8186  0.8585  1.0262
  131MYC     C226558   4.071   5.113   3.072  0.5895  0.6349  0.0989
  131MYC     H226559   4.132   5.079   2.988  0.7907  1.4034 -0.0696
  131MYC     O326560   4.148   5.199   3.153 -0.5222  0.0096 -0.2574
  131MYC     H326561   4.101   5.208   3.238  0.7920  1.9848  0.3235
  131MYC     C126562   4.056   4.980   3.152 -0.1694 -0.3432  0.5250
  131MYC     H126563   4.005   4.909   3.086  2.0113  0.6739 -2.4652
  131MYC    C8126564   3.965   5.012   3.272  0.2113  0.3216  0.1769
  131MYC    O8226565   3.983   5.087   3.362  0.3058  0.2484  0.2104
  131MYC    O8326566   3.873   4.914   3.279 -0.1431 -0.0771 -0.6026
  131MYC   H10526567   3.845   4.912   3.372  1.0095 -1.4165 -0.2526
  131MYC    C2026568   4.200   4.920   3.180  1.2594  1.0691 -0.3563
  131MYC    H3426569   4.249   4.882   3.090  0.2793  0.9596 -0.8542
  131MYC    H3526570   4.269   4.998   3.213 -0.9715  2.8160  0.4343
  131MYC    C2126571   4.214   4.796   3.276  0.3112  0.5671  0.0530
  131MYC    H3626572   4.178   4.835   3.372  0.3000 -0.6229  0.5416
  131MYC    H3726573   4.140   4.722   3.244 -1.3392  1.7572  0.9485
  131MYC    C2226574   4.356   4.737   3.294 -0.2167 -0.1575 -0.7087
  131MYC    H3826575   4.393   4.685   3.206 -1.2027 -0.7827 -0.7752
  131MYC    H3926576   4.422   4.822   3.312  1.8661 -1.5776 -1.3002
  131MYC    C2326577   4.372   4.639   3.411 -0.0216 -0.0176  0.6392
  131MYC    H4026578   4.286   4.571   3.419  0.7798 -0.8458  3.0794
  131MYC    H4126579   4.460   4.581   3.382 -0.4974 -0.0904 -0.7223
  131MYC    C2426580   4.406   4.706   3.539  0.1937 -1.2160  0.7886
  131MYC    H4226581   4.508   4.744   3.547  0.2571 -1.0607 -0.5228
  131MYC    H4326582   4.352   4.801   3.545  0.9115 -0.8363  1.2375
  131MYC    C2526583   4.369   4.614   3.662 -0.2059 -0.1112 -0.2940
  131MYC    H4426584   4.264   4.581   3.656 -0.3606  0.1594  0.6670
  131MYC    H4526585   4.413   4.514   3.666 -1.9399 -0.9464 -1.0224
  131MYC    C2626586   4.387   4.682   3.800 -0.3473 -0.0048  0.4369
  131MYC    H4626587   4.483   4.732   3.814 -0.7577  0.2025  2.9781
  131MYC    H4726588   4.323   4.771   3.808 -0.3698  0.1987 -1.5387
  131MYC    C2726589   4.357   4.591   3.919 -0.0786  0.4006 -0.4721
  131MYC    H4826590   4.255   4.558   3.901  0.5633 -0.8732 -1.9456
  131MYC    H4926591   4.414   4.498   3.911 -3.6117 -1.8184 -2.2145
  131MYC    C2826592   4.375   4.659   4.060 -0.0327  0.4117 -0.6059
  131MYC    H5026593   4.483   4.678   4.063 -0.0211  0.2554  2.4808
  131MYC    H5126594   4.330   4.759   4.064  1.6972  1.1988  0.7074
  131MYC    C2926595   4.328   4.568   4.171  0.6165 -0.1037 -0.1353
  131MYC    H5226596   4.224   4.540   4.150  0.5332 -0.4684  0.6861
  131MYC    H5326597   4.382   4.473   4.168 -0.3080 -0.7259  1.4129
  131MYC    C3026598   4.329   4.641   4.306 -0.7007 -0.5130 -0.7266
  131MYC    H5426599   4.432   4.674   4.325 -0.5630 -0.4907 -1.4938
  131MYC    H5526600   4.272   4.733   4.292  0.3851  0.2357 -0.3727
  131MYC    C3126601   4.278   4.568   4.431 -0.5991  0.9901  0.4265
  131MYC    H5626602   4.180   4.527   4.404 -1.7726  3.2322  1.0227
  131MYC    H5726603   4.340   4.479   4.446  0.5201  1.6688 -0.0955
  131MYC    C3226604   4.278   4.636   4.575 -0.0844  0.5409 -0.0993
  131MYC    H5826605   4.373   4.687   4.587 -0.7506  2.3001 -1.7714
  131MYC    H5926606   4.200   4.712   4.592 -2.9712 -2.4332  1.1834
  131MYC    C3326607   4.275   4.540   4.698 -0.4390  0.2675 -0.2884
  131MYC    H6026608   4.184   4.478   4.696 -1.2107  1.2726 -3.4224
  131MYC    H6126609   4.358   4.469   4.695 -1.6497 -1.1895 -1.0081
  131MYC    C3426610   4.281   4.619   4.828  0.8545 -0.1455 -0.3270
  131MYC    H6226611   4.371   4.682   4.833  0.3998  0.4710  0.4072
  131MYC    H6326612   4.184   4.669   4.835  0.4505 -1.0602  1.0201
  131MYC    C3526613   4.288   4.529   4.949  0.6890 -0.3267 -0.7963
  131MYC    H6426614   4.204   4.460   4.936 -0.2561  0.3486  1.1606
  131MYC    H6526615   4.381   4.472   4.940  0.2797 -1.3092  0.8232
  131MYC    C3626616   4.280   4.597   5.089 -0.1609 -0.5016  0.7465
  131MYC    H6626617   4.331   4.694   5.098 -0.8135 -0.2029  1.3739
  131MYC    H6726618   4.177   4.628   5.111  0.3243  0.6791  1.4545
  131MYC    C3726619   4.324   4.497   5.209 -0.6223 -0.4669 -0.3770
  131MYC    H6826620   4.265   4.404   5.206  0.3539 -1.0743 -2.4751
  131MYC    H6926621   4.429   4.469   5.197 -0.2311  0.5068  0.5929
  131MYC    C3826622   4.319   4.562   5.356 -1.0624 -0.6292  0.4945
  131MYC    H7026623   4.389   4.642   5.378 -1.3722 -0.1376 -0.2616
  131MYC    H7126624   4.226   4.621   5.363 -0.9581 -0.6228  2.6174
  131MYC    C3926625   4.328   4.460   5.479  0.7804 -0.5300  0.6768
  131MYC    H7226626   4.247   4.387   5.477 -0.9600  1.3117  0.9500
  131MYC    H7326627   4.419   4.399   5.471 -1.2782 -3.6732 -0.3608
  131MYC    C4026628   4.343   4.516   5.623  0.3263  0.8469  0.1888
  131MYC    H7426629   4.438   4.571   5.625  0.0453  1.3873 -0.7056
  131MYC    H7526630   4.260   4.587   5.634 -1.2088 -0.8505 -0.1222
  131MYC    C4126631   4.347   4.407   5.741 -0.1460 -0.7052 -0.1771
  131MYC    H7626632   4.249   4.359   5.754 -0.5221  0.2728  0.7542
  131MYC    H7726633   4.416   4.328   5.711  2.9423  0.7263  2.5119
  131MYC    C4226634   4.392   4.464   5.878  0.0328  0.1217  0.2252
  131MYC    H7826635   4.434   4.380   5.935  0.1412 -0.9142 -1.3093
  131MYC    H7926636   4.474   4.536   5.867 -0.0362  0.2101  0.2920
  131MYC    C4326637   4.274   4.526   5.944 -0.0646 -0.6399  0.0811
  131MYC    H8026638   4.308   4.598   6.019  3.4792  0.4654 -2.3130
  131MYC    H8126639   4.219   4.444   5.992 -0.6317 -0.1065  0.3531
  131MYC    H8226640   4.208   4.571   5.870  2.9188  0.4268 -2.1128
  132MYC   HH1526641   5.070   4.360   5.928  1.3199 -1.6961  0.4738
  132MYC    C8026642   5.151   4.420   5.886  0.2349 -0.0958  0.5774
  132MYC   H10026643   5.152   4.520   5.931 -1.6223 -0.3081  1.1788
  132MYC   H10126644   5.233   4.352   5.910 -0.3922 -1.8615 -1.9187
  132MYC    C7926645   5.148   4.417   5.728  0.0857 -0.6588  0.4248
  132MYC   H10226646   5.065   4.482   5.700  0.9306  1.4122  2.4233
  132MYC   H10326647   5.126   4.311   5.708 -2.1066 -0.1152 -0.3145
  132MYC    C7826648   5.281   4.467   5.658 -0.3574 -0.0329  0.2356
  132MYC   HH1426649   5.366   4.407   5.692 -0.3385  0.3152  0.8125
  132MYC   H10426650   5.306   4.571   5.683  3.4406 -0.8977  0.6262
  132MYC    C7726651   5.277   4.455   5.509 -0.3623 -0.5137  0.9111
  132MYC   H10626652   5.227   4.361   5.483  0.0018 -0.3895 -0.2889
  132MYC   H10726653   5.380   4.456   5.471 -0.6208  2.7790 -0.0035
  132MYC    C7626654   5.209   4.575   5.437  0.3253 -0.1677  0.4307
  132MYC   H10826655   5.254   4.668   5.474  2.3590 -1.2531  0.7981
  132MYC   H10926656   5.100   4.565   5.448  0.4475 -2.1502  0.3034
  132MYC    C7526657   5.233   4.567   5.289  0.0385 -0.2231  0.7186
  132MYC   H11026658   5.213   4.462   5.263 -0.4267  0.0180  0.0896
  132MYC   H11126659   5.340   4.589   5.277 -0.2915  0.9920 -0.2063
  132MYC    C7426660   5.151   4.675   5.197 -0.0760 -0.2685  0.5313
  132MYC   H11226661   5.196   4.774   5.207 -1.0979  0.1856  0.6907
  132MYC   H11326662   5.045   4.669   5.223  0.0376 -1.8625  0.7431
  132MYC    C7326663   5.153   4.650   5.047 -0.4157  0.0600 -0.8545
  132MYC   HH1326664   5.117   4.547   5.031  3.3805 -1.6325  0.3305
  132MYC   H11426665   5.255   4.673   5.014 -1.1839  2.3621 -1.8224
  132MYC    C7226666   5.057   4.744   4.975  0.7351 -0.1278 -0.2668
  132MYC   H11526667   5.079   4.847   5.006  1.5332 -0.4165  0.1617
  132MYC   H11626668   4.952   4.714   4.985  0.7219 -0.3008 -0.9086
  132MYC    C7126669   5.086   4.726   4.824 -0.6176 -0.7140 -0.4243
  132MYC   H11726670   5.078   4.621   4.795  0.4110 -1.1943  0.9169
  132MYC   H11826671   5.191   4.755   4.809 -0.7038 -0.0770  0.1863
  132MYC    C7026672   4.986   4.806   4.737 -0.1673 -0.0998  0.3924
  132MYC   H11926673   4.974   4.911   4.763 -5.3092 -0.1457 -0.5971
  132MYC   H12026674   4.886   4.763   4.751 -0.2859  0.6461  2.0010
  132MYC    C6926675   5.020   4.787   4.592 -0.0552  0.5392  0.1334
  132MYC   H12126676   5.029   4.680   4.573  0.9162  0.7930 -1.0027
  132MYC   H12226677   5.120   4.829   4.572 -0.0909  0.1550 -0.9732
  132MYC    C6826678   4.920   4.852   4.494 -0.6598  0.0901  0.2946
  132MYC   HH1226679   4.886   4.951   4.529 -0.0245 -0.5086  2.7997
  132MYC   H12326680   4.826   4.795   4.492 -0.4260 -0.3684 -2.8762
  132MYC    C6726681   4.972   4.855   4.347  0.4712  0.8646 -0.1247
  132MYC   H12426682   5.002   4.752   4.323  3.9730  1.8226 -0.5133
  132MYC   H12526683   5.066   4.912   4.341  0.5620  0.6892 -0.3736
  132MYC    C6626684   4.878   4.907   4.230 -0.1402 -0.5896 -0.1339
  132MYC   H12626685   4.838   5.004   4.260 -2.3011 -0.8577 -1.8866
  132MYC   H12726686   4.787   4.848   4.218 -0.8054  0.4027 -0.0568
  132MYC    C6526687   4.943   4.910   4.089 -0.3414  0.3186  0.4761
  132MYC   H12826688   4.989   4.813   4.071  1.0756  1.0959 -0.2666
  132MYC   H12926689   5.016   4.992   4.083  0.2945 -0.2077  0.8993
  132MYC    C6426690   4.836   4.934   3.978 -0.0180  0.9487 -0.4014
  132MYC   H13026691   4.770   5.017   4.005 -0.5292 -0.5708  3.7947
  132MYC   H13126692   4.772   4.846   3.963 -0.9729  1.4946  0.3140
  132MYC    C6326693   4.911   4.957   3.841  0.7459 -0.1667 -0.6045
  132MYC   HH1126694   4.942   4.858   3.804  0.4111 -0.0958 -1.0848
  132MYC   H13226695   5.014   4.995   3.841  1.4193 -1.8604 -0.2727
  132MYC    C6226696   4.827   5.029   3.729 -0.4916  0.0574  0.0714
  132MYC   H13326697   4.810   5.134   3.755  0.0340  0.7144 -2.0420
  132MYC   H13426698   4.731   4.975   3.725 -0.1917 -0.5950  1.2033
  132MYC    C6126699   4.897   5.024   3.592 -0.0042  0.2992  0.3007
  132MYC   H13526700   4.932   4.923   3.568  0.4330  0.2876  0.9693
  132MYC   H13626701   4.993   5.074   3.609 -0.1126 -0.4621  4.0161
  132MYC    C6026702   4.823   5.097   3.485 -0.3800 -0.2939  0.0673
  132MYC   H13726703   4.840   5.204   3.494  2.5255 -0.4569 -2.1908
  132MYC    C5826704   4.797   5.032   3.350 -0.1720  0.5517 -0.2229
  132MYC   H13826705   4.839   4.933   3.336 -0.0417 -0.0436  3.3113
  132MYC    C5926706   4.680   5.047   3.455 -0.3796 -0.1382 -0.0598
  132MYC   H13926707   4.603   5.121   3.433 -0.0451  0.7545  1.6189
  132MYC   H14026708   4.644   4.956   3.502 -1.4395 -0.0144 -0.6127
  132MYC    C5726709   4.804   5.113   3.219 -0.5959  0.3089  0.4223
  132MYC   HH1026710   4.904   5.152   3.196 -1.0216  2.1297  1.4358
  132MYC   H14126711   4.749   5.204   3.246 -1.3099 -0.3221  1.1331
  132MYC    C5626712   4.743   5.038   3.096 -0.2116 -0.4013  0.2647
  132MYC   H14226713   4.799   4.944   3.083 -0.1707 -0.6301  1.8436
  132MYC   H14326714   4.756   5.097   3.005  0.8309 -0.3485  0.4308
  132MYC    C5526715   4.598   4.989   3.117  0.6017  0.1706 -0.6246
  132MYC   H14426716   4.530   5.074   3.127 -0.3436 -0.5566 -0.6860
  132MYC   H14526717   4.599   4.933   3.211 -0.9558  0.4670 -0.3975
  132MYC    C5426718   4.535   4.905   3.005 -0.1222  0.9371  0.4899
  132MYC   H14626719   4.455   4.844   3.050 -0.5867  0.3671 -1.0214
  132MYC   H14726720   4.612   4.833   2.976 -0.9478  0.1889  0.0952
  132MYC    C5326721   4.491   4.986   2.875 -0.2886  0.0798 -0.1401
  132MYC   H14826722   4.488   4.922   2.786 -0.4756 -0.6398  0.3770
  132MYC   H14926723   4.570   5.057   2.849 -1.9988  1.9013 -0.6426
  132MYC    C5226724   4.359   5.061   2.881  0.5098 -0.2047  0.4245
  132MYC    H9926725   4.361   5.130   2.967 -0.8484  0.3747  0.0222
  132MYC   H15026726   4.283   4.982   2.885 -0.6926  0.9649  1.7774
  132MYC    C5126727   4.330   5.152   2.747  0.3880  0.1328 -0.4563
  132MYC    H9726728   4.385   5.247   2.756  1.7586 -0.6442 -0.3851
  132MYC    H9826729   4.226   5.183   2.757  0.9731  2.2977 -0.5465
  132MYC    C5026730   4.349   5.088   2.604 -0.2341 -0.3766  0.0334
  132MYC    H9526731   4.277   5.141   2.540 -0.7277 -2.3208 -1.0997
  132MYC    H9626732   4.316   4.984   2.614  0.0059 -0.6594 -1.7147
  132MYC    C4926733   4.488   5.097   2.540  0.3137 -0.8148 -0.0279
  132MYC    H9326734   4.561   5.044   2.603  0.9960  1.2106  0.9905
  132MYC    H9426735   4.514   5.200   2.567 -1.8721 -0.7348  2.0802
  132MYC    C4826736   4.498   5.065   2.395  0.5436  0.2338  0.5028
  132MYC    H9126737   4.460   5.152   2.339  1.6930 -1.1233 -2.5918
  132MYC    H9226738   4.436   4.977   2.373  1.0752 -0.2475  0.9317
  132MYC    C4726739   4.638   5.040   2.331 -0.3478 -0.1987 -0.1981
  132MYC    H8926740   4.632   4.989   2.235  3.3269 -0.9850 -0.1716
  132MYC    H9026741   4.706   4.980   2.393  0.4085  1.3578  0.5533
  132MYC    C4626742   4.708   5.179   2.303 -0.6181 -0.4069  0.2049
  132MYC    H8726743   4.755   5.203   2.400 -0.9425  1.1757  0.0086
  132MYC    H8826744   4.641   5.264   2.284 -0.8614 -0.8395 -0.9148
  132MYC    C4526745   4.819   5.164   2.201 -0.4709 -1.4403  0.3000
  132MYC    H8526746   4.801   5.105   2.110  1.8295 -0.5774 -0.8140
  132MYC    H8626747   4.906   5.121   2.252  0.1861 -1.4757 -0.8139
  132MYC    C4426748   4.877   5.306   2.152  0.6884 -0.2383  0.3611
  132MYC    H8326749   4.957   5.285   2.081 -0.1841 -0.9671 -0.4445
  132MYC    H8426750   4.917   5.363   2.236 -0.8425  1.8515 -0.2350
  132MYC    C1826751   4.766   5.384   2.072 -0.3912  0.0028  0.3063
  132MYC    H3126752   4.675   5.403   2.127 -1.7542 -1.3749 -1.3487
  132MYC    C1726753   4.797   5.488   1.958  0.3660  0.2147  0.2715
  132MYC    H3026754   4.899   5.492   1.920 -0.0266  0.3282 -0.8154
  132MYC    C1926755   4.735   5.355   1.925  0.1267 -0.2917  0.7265
  132MYC    H3226756   4.812   5.297   1.876  1.5314  1.6769  0.5006
  132MYC    H3326757   4.629   5.353   1.902  0.2851  2.0801 -0.5984
  132MYC    C1626758   4.719   5.619   1.962 -0.0224 -0.2901  0.0080
  132MYC    H2826759   4.611   5.602   1.972  0.1487 -1.8740 -0.5360
  132MYC    H2926760   4.726   5.655   1.859  0.0069  0.5609  0.2995
  132MYC    C1526761   4.776   5.723   2.054 -0.3803 -0.2899 -0.0646
  132MYC    H2626762   4.717   5.814   2.035 -1.9219 -1.4348 -1.0725
  132MYC    H2726763   4.877   5.744   2.019  0.4212 -0.3513  2.0815
  132MYC    C1426764   4.776   5.690   2.197  0.3258  0.8644  1.0104
  132MYC    H2426765   4.839   5.760   2.252  1.4445  1.3172 -0.7571
  132MYC    H2526766   4.831   5.596   2.209 -0.8334 -0.1111 -0.8045
  132MYC    C1326767   4.636   5.685   2.263  0.4707 -0.6977  0.2691
  132MYC    H2226768   4.578   5.601   2.223  0.7955 -0.8199  0.0517
  132MYC    H2326769   4.583   5.776   2.233 -1.8310 -1.7043  1.0937
  132MYC    C1226770   4.648   5.673   2.417 -0.5424  0.4127  0.2434
  132MYC    H2026771   4.706   5.754   2.462 -0.2945  0.3264  0.0806
  132MYC    H2126772   4.707   5.584   2.437 -2.2959 -0.3962  2.2039
  132MYC    C1126773   4.513   5.657   2.482 -0.0398 -0.0176 -0.0470
  132MYC    H1826774   4.478   5.554   2.473  1.6137 -0.5795 -0.3574
  132MYC    H1926775   4.428   5.701   2.429  0.3645  2.1004  0.9415
  132MYC    C1026776   4.513   5.699   2.635 -0.1198 -0.7552 -0.3309
  132MYC    H1626777   4.556   5.798   2.647 -2.1366  0.3196 -1.3624
  132MYC    H1726778   4.577   5.633   2.695 -0.4831  0.1731  1.1251
  132MYC     C926779   4.372   5.693   2.707 -0.0408  1.2303  0.7353
  132MYC    H1426780   4.333   5.591   2.713  1.8758  0.4948  1.1392
  132MYC    H1526781   4.295   5.744   2.648 -0.4741 -1.3235 -1.0631
  132MYC     C826782   4.375   5.758   2.847  0.4158  0.3260 -0.1913
  132MYC    H1226783   4.422   5.857   2.843  1.3938 -0.0404  1.4891
  132MYC    H1326784   4.431   5.695   2.917  0.0528  0.7253  0.4611
  132MYC     C726785   4.226   5.786   2.904 -0.3651  0.4661 -0.3469
  132MYC    H1026786   4.183   5.687   2.927  2.5581 -1.6648 -3.1518
  132MYC    H1126787   4.164   5.843   2.835 -1.8263 -1.2540 -0.5415
  132MYC     C626788   4.222   5.878   3.037 -0.4770  0.6804  0.6392
  132MYC     H826789   4.285   5.967   3.022 -1.8075  1.1910 -2.9644
  132MYC     H926790   4.260   5.815   3.119 -0.1347 -1.2033 -0.8765
  132MYC     C526791   4.082   5.927   3.075  0.2316 -0.3649 -0.4969
  132MYC     H626792   4.028   5.841   3.117  0.6471 -0.5360 -0.3056
  132MYC     H726793   4.033   5.953   2.980 -0.9224  1.7460  0.5987
  132MYC     C426794   4.059   6.043   3.175 -0.1350  0.0526  0.1762
  132MYC     H426795   3.954   6.049   3.205 -0.7047 -3.8464 -0.5977
  132MYC     H526796   4.075   6.136   3.119 -0.8191 -0.1881 -0.4313
  132MYC     C226797   4.155   6.037   3.301  0.1157 -0.2428  0.2700
  132MYC     H226798   4.260   6.022   3.272  0.0246 -0.5485  0.0892
  132MYC     O326799   4.141   6.163   3.374  0.2965  0.4146  0.1159
  132MYC     H326800   4.057   6.171   3.421  0.6946  1.3096  0.7126
  132MYC     C126801   4.128   5.914   3.390  0.5561  0.0935 -0.1983
  132MYC     H126802   4.168   5.824   3.342  0.0953 -0.4205  0.3741
  132MYC    C8126803   3.972   5.873   3.409 -1.2971 -0.3118  0.6168
  132MYC    O8226804   3.885   5.952   3.448 -0.1977  0.7488  0.1236
  132MYC    O8326805   3.942   5.746   3.364  0.2150 -0.1070 -0.3602
  132MYC   H10526806   3.850   5.724   3.389  0.5420  0.6236  1.6773
  132MYC    C2026807   4.205   5.915   3.525 -0.3603  0.1119 -0.4438
  132MYC    H3426808   4.308   5.940   3.501 -0.0814 -0.3125  0.2762
  132MYC    H3526809   4.163   5.989   3.593 -0.4327  0.6031 -1.0145
  132MYC    C2126810   4.193   5.776   3.593 -0.1606 -0.5519  0.6669
  132MYC    H3626811   4.088   5.771   3.626 -0.4350 -0.3126 -0.1423
  132MYC    H3726812   4.216   5.691   3.527 -2.1283 -3.0649  2.9408
  132MYC    C2226813   4.286   5.759   3.713  0.1643 -0.0242 -0.1549
  132MYC    H3826814   4.385   5.763   3.665 -1.6047  1.8775 -4.1423
  132MYC    H3926815   4.299   5.850   3.772  1.4531  0.9442 -1.8284
  132MYC    C2326816   4.256   5.646   3.810 -0.0535  0.4631 -0.2638
  132MYC    H4026817   4.165   5.663   3.868  0.1227 -2.8540  1.1904
  132MYC    H4126818   4.227   5.557   3.753 -1.1170 -0.0028  0.9686
  132MYC    C2426819   4.388   5.616   3.888  0.7187  0.4895 -0.5866
  132MYC    H4226820   4.464   5.586   3.815  2.0715  2.6973 -0.1774
  132MYC    H4326821   4.428   5.706   3.935 -0.2013  0.5164  0.1619
  132MYC    C2526822   4.376   5.514   4.011 -0.2092  0.0947 -0.0724
  132MYC    H4426823   4.276   5.536   4.050  0.9082 -0.2015  3.2589
  132MYC    H4526824   4.369   5.407   3.987 -1.9211 -0.3295  2.0520
  132MYC    C2626825   4.479   5.542   4.114  0.1134 -0.9221 -0.2279
  132MYC    H4626826   4.580   5.557   4.073  1.1463 -0.7758  2.1925
  132MYC    H4726827   4.440   5.638   4.150 -1.3186 -1.4288 -0.3673
  132MYC    C2726828   4.487   5.441   4.230  0.0925  0.1540  1.3910
  132MYC    H4826829   4.388   5.441   4.277 -0.1314 -1.5991  1.0024
  132MYC    H4926830   4.500   5.344   4.180  0.4879  1.4302 -1.1578
  132MYC    C2826831   4.598   5.470   4.343 -0.1191 -0.0395 -0.2108
  132MYC    H5026832   4.690   5.512   4.301  0.9291 -1.6204  0.4363
  132MYC    H5126833   4.549   5.552   4.396  0.3825  1.1446 -1.5207
  132MYC    C2926834   4.622   5.359   4.441  0.0502 -0.5843  0.5183
  132MYC    H5226835   4.535   5.296   4.464  1.5428 -2.4780  1.1861
  132MYC    H5326836   4.690   5.289   4.392  1.3798  1.4928 -0.7949
  132MYC    C3026837   4.696   5.415   4.564 -0.6811  0.1531  0.0923
  132MYC    H5426838   4.781   5.481   4.542 -1.4423  1.4195  0.8103
  132MYC    H5526839   4.622   5.477   4.617 -0.2114 -0.3699  1.4142
  132MYC    C3126840   4.740   5.302   4.660  0.5420 -0.2774 -0.1577
  132MYC    H5626841   4.662   5.224   4.655 -0.4964  0.7064  0.3210
  132MYC    H5726842   4.828   5.253   4.616  0.1896 -1.3553  0.2810
  132MYC    C3226843   4.771   5.350   4.809  0.5266 -0.3539 -0.6509
  132MYC    H5826844   4.842   5.433   4.810 -0.8761  0.8852 -0.3387
  132MYC    H5926845   4.684   5.401   4.852  1.0250 -0.2100  0.2125
  132MYC    C3326846   4.796   5.230   4.917  0.6072  0.7373 -0.1938
  132MYC    H6026847   4.698   5.186   4.937  1.1283 -1.2339 -1.6624
  132MYC    H6126848   4.847   5.145   4.870 -2.4945  0.8351 -4.2764
  132MYC    C3426849   4.873   5.274   5.041  0.1434  0.3510 -0.1975
  132MYC    H6226850   4.975   5.312   5.025  1.0877 -1.1360  1.7629
  132MYC    H6326851   4.820   5.349   5.101  1.1237  0.9645 -0.0624
  132MYC    C3526852   4.878   5.155   5.142  0.6272  0.3014  0.0392
  132MYC    H6426853   4.779   5.131   5.180  0.4772  0.1505 -0.4333
  132MYC    H6526854   4.930   5.069   5.098 -1.7701 -0.2481 -1.9361
  132MYC    C3626855   4.945   5.195   5.275 -0.0923  0.0679  0.4088
  132MYC    H6626856   5.036   5.248   5.246 -1.3865  0.7513 -2.8705
  132MYC    H6726857   4.879   5.267   5.324 -0.9527 -1.3552  1.4234
  132MYC    C3726858   4.981   5.081   5.371 -1.0922 -0.0087 -0.2373
  132MYC    H6826859   4.894   5.028   5.412  0.0401 -1.5470  0.2846
  132MYC    H6926860   5.052   5.016   5.318 -0.3029  0.3084  0.4045
  132MYC    C3826861   5.068   5.132   5.494 -0.3474  0.4753 -0.9930
  132MYC    H7026862   5.170   5.160   5.465  0.1324  0.6068  0.6827
  132MYC    H7126863   5.016   5.207   5.554  0.1776 -1.8528  2.7147
  132MYC    C3926864   5.110   5.023   5.600  0.5292 -0.1871  0.6696
  132MYC    H7226865   5.021   4.973   5.639  1.0397 -1.1376  0.6417
  132MYC    H7326866   5.165   4.942   5.550  1.4955  2.1906 -2.4493
  132MYC    C4026867   5.188   5.074   5.717  0.1800  0.1228 -0.6436
  132MYC    H7426868   5.284   5.107   5.676 -0.9739  2.0639 -1.9268
  132MYC    H7526869   5.146   5.157   5.775  0.7545 -0.2265  0.2988
  132MYC    C4126870   5.203   4.958   5.831 -0.1883 -0.8168 -0.3348
  132MYC    H7626871   5.103   4.915   5.848 -0.2621 -1.0804 -1.3829
  132MYC    H7726872   5.260   4.873   5.791 -0.2291 -0.6451 -0.7618
  132MYC    C4226873   5.258   5.003   5.969  0.2540  0.3472  0.7630
  132MYC    H7826874   5.221   5.102   5.995 -1.3219  0.3559 -1.2400
  132MYC    H7926875   5.221   4.935   6.047  1.4340 -2.9352 -1.3185
  132MYC    C4326876   5.412   4.994   5.972  0.3830  0.2960  0.2717
  132MYC    H8026877   5.460   5.029   6.065  1.1891  0.3730 -0.1670
  132MYC    H8126878   5.466   5.049   5.893  0.4413 -0.5651 -0.2939
  132MYC    H8226879   5.446   4.892   5.955 -2.8744 -0.8438 -0.0734
  133MYC   HH1526880   2.541   1.056   5.322 -0.6369 -0.4717  0.5849
  133MYC    C8026881   2.564   0.985   5.241  0.5397  0.8463 -0.2797
  133MYC   H10026882   2.615   0.899   5.286 -0.8967 -0.2806 -0.7485
  133MYC   H10126883   2.461   0.957   5.216  0.9545 -0.8186 -0.2518
  133MYC    C7926884   2.640   1.036   5.110  0.4916  0.2288  0.4448
  133MYC   H10226885   2.573   1.098   5.049  1.1820  0.5045 -0.0486
  133MYC   H10326886   2.651   0.947   5.047  0.8175 -0.2448  1.1553
  133MYC    C7826887   2.780   1.100   5.134  0.4847  0.2438  0.7893
  133MYC   HH1426888   2.826   1.033   5.207  0.4365 -0.6886 -0.0197
  133MYC   H10426889   2.770   1.204   5.167  0.7781 -0.1278  2.1043
  133MYC    C7726890   2.863   1.101   4.998  0.0194 -0.0231  0.5497
  133MYC   H10626891   2.804   1.140   4.914 -0.7071 -1.7353  0.2252
  133MYC   H10726892   2.891   0.996   4.981 -1.3097 -0.4903  1.0707
  133MYC    C7626893   2.992   1.193   5.011  0.2242 -0.1307 -0.5641
  133MYC   H10826894   3.064   1.147   5.080  0.6400  1.5270  0.1481
  133MYC   H10926895   2.961   1.295   5.036 -0.8418 -0.1021 -1.8895
  133MYC    C7526896   3.060   1.206   4.881 -0.3183 -0.4803  0.3687
  133MYC   H11026897   3.127   1.293   4.886 -0.7403 -0.1424  0.2141
  133MYC   H11126898   2.985   1.231   4.806 -0.3731  0.2169  0.6458
  133MYC    C7426899   3.140   1.086   4.824  0.1173 -0.7476 -0.4428
  133MYC   H11226900   3.058   1.013   4.831  1.3176 -1.9957  1.8644
  133MYC   H11326901   3.219   1.062   4.896 -1.7867 -0.7062  1.7829
  133MYC    C7326902   3.187   1.126   4.681 -0.4240  0.9385  0.8050
  133MYC   HH1326903   3.252   1.215   4.686 -0.6065  1.0804  0.6657
  133MYC   H11426904   3.104   1.154   4.615 -0.2881 -0.5919 -0.0617
  133MYC    C7226905   3.255   1.006   4.618 -0.1265  0.0304  0.2925
  133MYC   H11526906   3.191   0.918   4.606  0.7128 -0.2537 -2.9869
  133MYC   H11626907   3.343   0.970   4.673 -0.5708 -4.4648 -1.5662
  133MYC    C7126908   3.289   1.033   4.476 -0.4748  0.5782 -0.7418
  133MYC   H11726909   3.379   1.096   4.486 -0.2615  0.1245  0.3318
  133MYC   H11826910   3.201   1.087   4.439 -1.4495 -1.4923 -1.5831
  133MYC    C7026911   3.300   0.914   4.384  0.1694  0.1094 -0.1762
  133MYC   H11926912   3.197   0.875   4.379  0.2963 -0.8759  2.8132
  133MYC   H12026913   3.361   0.837   4.433 -0.8981 -1.7879 -1.6652
  133MYC    C6926914   3.358   0.941   4.243  0.0785  0.1887  0.4960
  133MYC   H12126915   3.450   0.998   4.261  1.2744 -1.4794 -0.1490
  133MYC   H12226916   3.297   1.003   4.177 -1.0492 -2.6565 -1.3243
  133MYC    C6826917   3.391   0.811   4.174 -0.3776  0.7229  0.6923
  133MYC   HH1226918   3.309   0.739   4.183  1.3214 -1.2380  1.0422
  133MYC   H12326919   3.471   0.763   4.232  2.5352  3.8168 -0.4268
  133MYC    C6726920   3.434   0.825   4.025 -0.1968  0.5135  0.2434
  133MYC   H12426921   3.521   0.891   4.031  0.3765 -0.3453  2.4365
  133MYC   H12526922   3.348   0.871   3.975 -0.6247 -0.9829 -0.4616
  133MYC    C6626923   3.474   0.695   3.963 -0.4223  0.0081  0.5611
  133MYC   H12626924   3.384   0.633   3.954 -1.8288  2.0625 -0.4139
  133MYC   H12726925   3.546   0.645   4.028  0.0873 -2.2220 -1.5891
  133MYC    C6526926   3.538   0.705   3.828 -0.1250  0.3200  0.0396
  133MYC   H12826927   3.631   0.764   3.834  0.7975 -1.1678  1.2099
  133MYC   H12926928   3.473   0.759   3.759  1.7136  0.0970 -1.9887
  133MYC    C6426929   3.579   0.568   3.777 -0.3229  0.3806 -0.7717
  133MYC   H13026930   3.496   0.499   3.756  1.3778 -1.7920 -0.7591
  133MYC   H13126931   3.635   0.512   3.853  1.9690  1.3445 -1.6434
  133MYC    C6326932   3.675   0.588   3.658 -0.4392  1.0551 -0.0203
  133MYC   HH1126933   3.768   0.631   3.695 -0.5470  0.0140  1.5564
  133MYC   H13226934   3.630   0.662   3.590 -0.0800  0.8223 -0.5161
  133MYC    C6226935   3.696   0.439   3.605 -0.1695  0.2092 -0.9282
  133MYC   H13326936   3.597   0.393   3.598 -0.7812  1.1267  0.9369
  133MYC   H13426937   3.760   0.383   3.673  0.7966  1.0480 -1.1164
  133MYC    C6126938   3.772   0.414   3.480  0.5417  0.5998  0.1831
  133MYC   H13526939   3.719   0.460   3.396 -2.6948  1.4044  2.4539
  133MYC   H13626940   3.766   0.306   3.457 -0.8675  0.9121 -1.1669
  133MYC    C6026941   3.918   0.449   3.507  0.1726  0.8813 -0.7187
  133MYC   H13726942   3.954   0.410   3.602 -0.4858  0.7475 -0.5150
  133MYC    C5826943   4.023   0.467   3.397  0.0478 -0.1504  0.9688
  133MYC   H13826944   3.988   0.468   3.294  0.5677  0.4576  0.7970
  133MYC    C5926945   3.976   0.586   3.479 -0.2965  0.1186 -0.3230
  133MYC   H13926946   4.045   0.633   3.548  0.5660 -0.9858 -0.4080
  133MYC   H14026947   3.890   0.646   3.453 -1.3663  0.2259  3.1057
  133MYC    C5726948   4.159   0.398   3.411  0.6170  0.0480 -0.4996
  133MYC   HH1026949   4.181   0.388   3.517  0.1044 -0.9712 -0.4766
  133MYC   H14126950   4.234   0.469   3.374  0.4738  0.9984  0.9514
  133MYC    C5626951   4.159   0.249   3.347  0.1019 -0.2600 -0.2148
  133MYC   H14226952   4.154   0.258   3.238  1.4021  3.9218 -0.1203
  133MYC   H14326953   4.069   0.196   3.383  1.0022 -0.2134  2.3117
  133MYC    C5526954   4.289   0.179   3.385  0.4835  0.2392  0.2330
  133MYC   H14426955   4.299   0.170   3.494  1.5318  0.9465  0.2115
  133MYC   H14526956   4.370   0.248   3.358 -0.8666  1.7917  0.0712
  133MYC    C5426957   4.308   0.039   3.320 -0.2406 -0.2982 -0.3589
  133MYC   H14626958   4.220  -0.024   3.337 -1.4546  1.2885 -0.5101
  133MYC   H14726959   4.397  -0.011   3.360 -0.6799 -0.7401  0.0765
  133MYC    C5326960   4.331   0.047   3.170 -0.1073  1.1771  0.0590
  133MYC   H14826961   4.405   0.120   3.134  0.1095 -0.6955 -3.9094
  133MYC   H14926962   4.246   0.085   3.113 -0.5932  3.1461  2.0159
  133MYC    C5226963   4.372  -0.093   3.100 -0.0366  0.0312 -0.0809
  133MYC    H9926964   4.277  -0.148   3.102  0.5879 -1.0723  1.1265
  133MYC   H15026965   4.441  -0.140   3.171 -1.4573 -1.9853  0.0684
  133MYC    C5126966   4.431  -0.093   2.958  0.1846 -0.2799 -0.1589
  133MYC    H9726967   4.522  -0.032   2.961 -0.2442  0.3134  1.3385
  133MYC    H9826968   4.374  -0.035   2.884  0.5332  0.3133  0.0347
  133MYC    C5026969   4.450  -0.240   2.899  1.0222  0.3050  0.0466
  133MYC    H9526970   4.362  -0.301   2.922  0.4915  1.1635  0.3531
  133MYC    H9626971   4.528  -0.286   2.960  0.0978  0.5871  1.4727
  133MYC    C4926972   4.472  -0.241   2.746 -0.4643 -0.4732 -0.4283
  133MYC    H9326973   4.387  -0.196   2.694  0.0859  1.8405  0.4875
  133MYC    H9426974   4.480  -0.344   2.712  0.9838 -1.4539  2.5035
  133MYC    C4826975   4.606  -0.177   2.686 -0.1297  0.6922 -0.2269
  133MYC    H9126976   4.685  -0.230   2.740 -2.0273  0.1020  2.1952
  133MYC    H9226977   4.612  -0.075   2.724  2.2060 -0.3481  2.6142
  133MYC    C4726978   4.616  -0.200   2.536 -0.3480 -0.1213  0.0400
  133MYC    H8926979   4.689  -0.124   2.507  1.6036 -1.0184  2.2326
  133MYC    H9026980   4.518  -0.160   2.509 -0.5695  0.6472  1.8493
  133MYC    C4626981   4.647  -0.343   2.476  0.2559  0.3859 -0.5616
  133MYC    H8726982   4.551  -0.388   2.448 -0.8957  1.4700  1.4006
  133MYC    H8826983   4.679  -0.414   2.553 -0.5582 -0.2101 -0.7603
  133MYC    C4526984   4.742  -0.349   2.359  0.0451  0.5415 -0.5454
  133MYC    H8526985   4.751  -0.457   2.343 -1.0557  0.3240  0.1488
  133MYC    H8626986   4.838  -0.303   2.382 -1.1457  2.3310  1.1779
  133MYC    C4426987   4.688  -0.294   2.227  0.2593 -0.1756  0.4443
  133MYC    H8326988   4.775  -0.294   2.161  1.2693  0.0690  1.7175
  133MYC    H8426989   4.670  -0.186   2.231 -0.2013 -0.1869 -0.8740
  133MYC    C1826990   4.556  -0.356   2.167 -0.2435 -0.6490 -0.3446
  133MYC    H3126991   4.556  -0.463   2.153  1.7618 -0.5634 -1.5433
  133MYC    C1726992   4.424  -0.282   2.172  0.7689  0.0683 -0.4271
  133MYC    H3026993   4.431  -0.186   2.222 -1.1897  0.2928 -0.5038
  133MYC    C1926994   4.494  -0.288   2.042  0.0870  0.6187  0.1201
  133MYC    H3226995   4.549  -0.200   2.009  0.7732 -0.0006 -0.4055
  133MYC    H3326996   4.447  -0.355   1.970 -1.2586  1.9159 -0.2569
  133MYC    C1626997   4.291  -0.358   2.198 -0.3229  0.0882 -0.4139
  133MYC    H2826998   4.312  -0.461   2.167  1.3579  1.0610 -2.8323
  133MYC    H2926999   4.209  -0.310   2.143 -1.1323  2.7548  2.7662
  133MYC    C1527000   4.243  -0.358   2.348  0.1434 -0.6881  0.0078
  133MYC    H2627001   4.234  -0.253   2.376  2.0170 -0.2896 -0.7316
  133MYC    H2727002   4.310  -0.403   2.423  0.2598  0.4377  0.5924
  133MYC    C1427003   4.106  -0.434   2.357 -0.6839 -0.5085  0.1539
  133MYC    H2427004   4.102  -0.516   2.286  0.1744  1.0949 -1.8482
  133MYC    H2527005   4.023  -0.365   2.341 -0.9397 -1.1752 -1.5519
  133MYC    C1327006   4.069  -0.490   2.491 -0.3937  0.5413  0.0993
  133MYC    H2227007   4.083  -0.408   2.562 -0.2508  1.2664 -0.7425
  133MYC    H2327008   4.134  -0.575   2.517 -3.2827 -1.6094  0.8366
  133MYC    C1227009   3.924  -0.543   2.495 -0.5118 -0.0809 -0.3090
  133MYC    H2027010   3.902  -0.609   2.580  0.0563 -1.2056 -1.0032
  133MYC    H2127011   3.903  -0.608   2.409  0.7739  1.9193 -2.2397
  133MYC    C1127012   3.812  -0.431   2.490  0.9100 -0.3704 -0.2805
  133MYC    H1827013   3.714  -0.479   2.481  1.0482 -0.3233 -2.7532
  133MYC    H1927014   3.815  -0.362   2.405 -0.1084  0.2007  0.1242
  133MYC    C1027015   3.813  -0.333   2.607  0.4020 -0.0955  0.5491
  133MYC    H1627016   3.720  -0.276   2.597  1.0528  0.7100 -1.5689
  133MYC    H1727017   3.884  -0.249   2.596 -1.5555  1.3642 -1.9961
  133MYC     C927018   3.820  -0.401   2.750  0.0305  0.0588 -0.7954
  133MYC    H1427019   3.908  -0.466   2.758 -1.6631 -2.3274 -0.5049
  133MYC    H1527020   3.728  -0.461   2.753  0.1197 -0.0607  2.0075
  133MYC     C827021   3.795  -0.303   2.875  0.6594 -0.4347 -0.3854
  133MYC    H1227022   3.787  -0.367   2.963  0.9296 -0.3093 -0.2683
  133MYC    H1327023   3.699  -0.250   2.867  1.5668  1.2034 -0.9898
  133MYC     C727024   3.905  -0.199   2.906  0.0342 -0.1182 -0.7018
  133MYC    H1027025   3.908  -0.130   2.822 -0.0051  0.7695  0.0082
  133MYC    H1127026   4.005  -0.243   2.912  0.4443  0.8008 -0.6111
  133MYC     C627027   3.884  -0.113   3.039 -0.0492  0.0766 -0.7240
  133MYC     H827028   3.975  -0.077   3.089 -1.8325  0.5550  2.4570
  133MYC     H927029   3.850  -0.189   3.110  3.6430 -1.5408 -0.4642
  133MYC     C527030   3.781  -0.006   3.029  0.3618 -0.5103  0.7033
  133MYC     H627031   3.685  -0.058   3.020  1.2942 -2.1995  0.0796
  133MYC     H727032   3.782   0.057   2.939 -2.1154  1.8908  2.2165
  133MYC     C427033   3.769   0.086   3.156  0.3802 -0.1139  0.6616
  133MYC     H427034   3.863   0.141   3.171  0.6716 -0.5689  0.5396
  133MYC     H527035   3.747   0.029   3.247  0.2200 -0.5740  0.3389
  133MYC     C227036   3.648   0.189   3.157 -0.0961  0.0957 -0.5358
  133MYC     H227037   3.653   0.238   3.255  2.3743 -3.6624  1.4851
  133MYC     O327038   3.668   0.290   3.054  0.5113 -0.3712  0.1073
  133MYC     H327039   3.604   0.270   2.983 -3.2555  2.0076  2.4602
  133MYC     C127040   3.506   0.121   3.156 -0.2990 -0.2355 -0.0582
  133MYC     H127041   3.511   0.041   3.231  1.3043 -0.4837 -0.3927
  133MYC    C8127042   3.468   0.058   3.021  0.3764 -0.1134 -0.2814
  133MYC    O8227043   3.452   0.131   2.927 -0.0296 -0.5475 -0.1264
  133MYC    O8327044   3.437  -0.072   3.019  0.0222 -0.5602 -0.3673
  133MYC   H10527045   3.421  -0.099   2.927 -1.8334  3.6567 -1.5048
  133MYC    C2027046   3.384   0.203   3.215  0.4804 -0.0038  0.4727
  133MYC    H3427047   3.382   0.293   3.153  0.8301 -0.6167 -0.4589
  133MYC    H3527048   3.296   0.137   3.212  1.2455 -1.1137 -3.2863
  133MYC    C2127049   3.401   0.271   3.353 -0.4255  0.1391  0.0078
  133MYC    H3627050   3.440   0.195   3.422  0.3673  0.1884 -0.3734
  133MYC    H3727051   3.488   0.337   3.347  0.6238 -1.0543  1.2888
  133MYC    C2227052   3.268   0.335   3.399 -0.6332  0.3789 -0.5490
  133MYC    H3827053   3.265   0.433   3.348  0.8428 -0.6953 -2.8887
  133MYC    H3927054   3.185   0.275   3.358 -0.4859 -0.5528  0.4857
  133MYC    C2327055   3.269   0.349   3.548  0.3217 -0.3278 -0.0918
  133MYC    H4027056   3.275   0.252   3.599  2.1860  0.5443  1.5274
  133MYC    H4127057   3.357   0.402   3.585 -0.1354  0.3559  0.0456
  133MYC    C2427058   3.144   0.422   3.610 -0.0374  0.7523  0.0928
  133MYC    H4227059   3.121   0.507   3.544 -0.8635  0.7898  0.4237
  133MYC    H4327060   3.059   0.353   3.599 -0.2264  0.9284  0.4534
  133MYC    C2527061   3.152   0.458   3.762  0.4994 -0.1065 -0.2592
  133MYC    H4427062   3.157   0.365   3.818 -0.1527 -0.9125 -1.4853
  133MYC    H4527063   3.251   0.506   3.768  0.1661  0.6440 -0.6091
  133MYC    C2627064   3.041   0.556   3.810  0.1562  0.4509 -0.9312
  133MYC    H4627065   3.040   0.635   3.734  0.7558 -1.4963 -3.0778
  133MYC    H4727066   2.943   0.506   3.806 -0.0141  0.8780 -2.8406
  133MYC    C2727067   3.065   0.596   3.961 -0.3316 -0.3069 -0.0336
  133MYC    H4827068   3.104   0.503   4.002 -2.4343 -0.2781  2.2955
  133MYC    H4927069   3.147   0.668   3.960 -1.1128  0.6090 -0.7223
  133MYC    C2827070   2.936   0.640   4.021 -0.6580  0.0828 -0.0212
  133MYC    H5027071   2.960   0.691   4.115 -1.2584  0.1405  0.1053
  133MYC    H5127072   2.875   0.699   3.951  0.1928  0.4361 -0.4925
  133MYC    C2927073   2.847   0.514   4.069 -0.0009  0.3435 -0.1671
  133MYC    H5227074   2.864   0.425   4.008 -0.5678  1.9107 -2.7859
  133MYC    H5327075   2.875   0.490   4.172  0.5890  0.7781 -0.2208
  133MYC    C3027076   2.695   0.543   4.057 -1.0329 -0.4045 -0.0484
  133MYC    H5427077   2.673   0.649   4.074  1.2321  0.1414 -0.2030
  133MYC    H5527078   2.670   0.530   3.952 -1.1555 -1.2276  0.0779
  133MYC    C3127079   2.607   0.456   4.148  0.5252 -0.4871 -0.1922
  133MYC    H5627080   2.627   0.349   4.133  0.3446 -1.0574  2.9842
  133MYC    H5727081   2.641   0.473   4.251 -0.7902  2.6150 -0.1659
  133MYC    C3227082   2.457   0.493   4.131  0.1716  0.0803 -0.3094
  133MYC    H5827083   2.458   0.602   4.127  2.5745  0.3221  2.8637
  133MYC    H5927084   2.422   0.449   4.037  0.0401  1.8384 -1.1208
  133MYC    C3327085   2.362   0.427   4.228  0.0337  0.0068 -0.0982
  133MYC    H6027086   2.263   0.445   4.185  1.0370 -0.5441 -2.8106
  133MYC    H6127087   2.362   0.317   4.228 -1.2473 -0.0175  0.9648
  133MYC    C3427088   2.366   0.475   4.372 -0.9135 -0.4690 -0.0439
  133MYC    H6227089   2.458   0.436   4.416 -0.6829 -0.8722 -0.8548
  133MYC    H6327090   2.358   0.585   4.365 -1.4472 -0.5903 -1.9580
  133MYC    C3527091   2.240   0.428   4.453 -0.3755 -0.2000  0.1698
  133MYC    H6427092   2.156   0.475   4.400  0.7408  0.0767 -1.4026
  133MYC    H6527093   2.239   0.318   4.453  0.8283 -0.2533 -1.8246
  133MYC    C3627094   2.241   0.473   4.597  0.5083  0.2576  0.1791
  133MYC    H6627095   2.321   0.420   4.649 -1.4630 -0.8537  2.2668
  133MYC    H6727096   2.261   0.580   4.601  1.0457  0.1535  0.3213
  133MYC    C3727097   2.117   0.438   4.679 -0.1265  0.6335 -0.8156
  133MYC    H6827098   2.022   0.471   4.636 -0.0998 -0.1120 -1.4613
  133MYC    H6927099   2.121   0.328   4.681  1.4274  0.6729  0.5581
  133MYC    C3827100   2.134   0.483   4.822 -0.2061  0.1404 -0.0353
  133MYC    H7027101   2.237   0.469   4.854  0.5136  1.4240 -1.6213
  133MYC    H7127102   2.118   0.592   4.829 -1.1412 -0.0126  0.3459
  133MYC    C3927103   2.042   0.412   4.917  0.7764  0.0585 -0.2143
  133MYC    H7227104   1.935   0.418   4.896  0.4031  0.0473  1.5346
  133MYC    H7327105   2.077   0.310   4.935  2.3973  0.4692 -0.8384
  133MYC    C4027106   2.046   0.475   5.057  0.2784 -0.4588  0.4912
  133MYC    H7427107   2.145   0.454   5.098  0.8505 -0.0535 -0.6378
  133MYC    H7527108   2.030   0.583   5.055  1.8099 -0.2133  0.1872
  133MYC    C4127109   1.944   0.411   5.151  0.4152  0.6999 -0.9097
  133MYC    H7627110   1.846   0.440   5.111  0.4115  2.3064  0.1318
  133MYC    H7727111   1.961   0.303   5.155  0.5387  0.5983 -2.9889
  133MYC    C4227112   1.965   0.481   5.291 -0.1428  0.7785 -0.2676
  133MYC    H7827113   2.072   0.491   5.311 -0.0066 -1.4009  0.3571
  133MYC    H7927114   1.923   0.581   5.273 -0.8254  0.8292  1.3857
  133MYC    C4327115   1.904   0.405   5.407 -0.2817 -0.0411 -0.2985
  133MYC    H8027116   1.934   0.300   5.401  0.1732  0.0810 -0.2084
  133MYC    H8127117   1.800   0.429   5.433 -1.0417 -2.1196 -1.2286
  133MYC    H8227118   1.964   0.440   5.491 -3.2083  2.7390  0.8530
  134MYC   HH1527119   5.213   0.960   5.721  0.5915  1.3067 -0.3027
  134MYC    C8027120   5.179   0.973   5.824  0.4585 -0.7214 -0.0407
  134MYC   H10027121   5.252   1.040   5.871  1.5786 -2.6873  1.1105
  134MYC   H10127122   5.076   1.011   5.818  1.6986  3.1567  0.0839
  134MYC    C7927123   5.165   0.836   5.894 -0.0212  0.7134  0.0323
  134MYC   H10227124   5.099   0.850   5.980 -0.0582  0.3348  0.0670
  134MYC   H10327125   5.265   0.806   5.927 -0.4189 -1.8467 -0.8465
  134MYC    C7827126   5.107   0.722   5.813  0.2153 -0.1874  0.2224
  134MYC   HH1427127   5.017   0.753   5.759  0.3627 -2.3978 -1.4157
  134MYC   H10427128   5.072   0.647   5.886 -2.5606  0.8811  0.1194
  134MYC    C7727129   5.189   0.645   5.700  0.1804  0.3740 -0.2064
  134MYC   H10627130   5.292   0.623   5.730  0.0993 -0.5331 -0.5834
  134MYC   H10727131   5.203   0.725   5.627 -0.3298  1.5321  0.9233
  134MYC    C7627132   5.107   0.524   5.651  0.2806  0.2359 -0.3575
  134MYC   H10827133   5.008   0.553   5.613 -0.4000 -1.3764  0.0836
  134MYC   H10927134   5.094   0.453   5.734 -0.6165  0.3235 -0.4084
  134MYC    C7527135   5.182   0.443   5.546  0.4964  0.4653  0.3043
  134MYC   H11027136   5.112   0.363   5.520  0.3425  0.5494  0.4596
  134MYC   H11127137   5.270   0.406   5.600  1.3591  1.5105 -0.3388
  134MYC    C7427138   5.218   0.520   5.418  0.7939 -0.0497 -0.3691
  134MYC   H11227139   5.288   0.603   5.433  2.0127 -0.9910 -0.6818
  134MYC   H11327140   5.128   0.571   5.381  0.8674 -0.0598 -0.5666
  134MYC    C7327141   5.283   0.421   5.314  0.2072 -0.0140 -0.3087
  134MYC   HH1327142   5.217   0.334   5.303  0.5584 -0.0659 -2.5386
  134MYC   H11427143   5.383   0.385   5.339  0.4872 -0.8409 -2.3610
  134MYC    C7227144   5.281   0.494   5.176  0.3692  0.0371  0.1474
  134MYC   H11527145   5.336   0.589   5.172 -1.4866  1.1217 -1.0010
  134MYC   H11627146   5.177   0.523   5.159  1.0197  2.5513  0.0675
  134MYC    C7127147   5.320   0.407   5.052 -0.2379 -0.0072  0.0027
  134MYC   H11727148   5.253   0.322   5.039 -0.4294  0.4998 -2.7868
  134MYC   H11827149   5.417   0.361   5.075 -1.0162 -1.1056  1.2791
  134MYC    C7027150   5.342   0.487   4.914 -0.4645 -0.6306 -0.0124
  134MYC   H11927151   5.434   0.545   4.923  0.2050 -1.7924  0.8544
  134MYC   H12027152   5.254   0.551   4.895 -0.9299 -1.9307 -2.8058
  134MYC    C6927153   5.350   0.397   4.787 -0.2538 -0.0164  0.5183
  134MYC   H12127154   5.265   0.330   4.774 -0.5855  0.8705 -2.8218
  134MYC   H12227155   5.441   0.336   4.783 -0.1425  0.2067 -0.7256
  134MYC    C6827156   5.356   0.498   4.667 -0.8792 -0.1109 -0.6669
  134MYC   HH1227157   5.440   0.569   4.671  0.3757 -1.5429 -0.5829
  134MYC   H12327158   5.263   0.555   4.660 -0.2267  1.1439  0.3314
  134MYC    C6727159   5.363   0.427   4.531  1.0624  0.4212 -0.3666
  134MYC   H12427160   5.286   0.350   4.527 -0.9336  2.3414 -1.6013
  134MYC   H12527161   5.460   0.375   4.528  0.6270 -0.4103  0.0900
  134MYC    C6627162   5.349   0.514   4.408  0.1778 -0.5450  0.3707
  134MYC   H12627163   5.440   0.574   4.398 -0.8640  1.1892  0.9680
  134MYC   H12727164   5.268   0.587   4.419  1.4255  0.5542  2.9687
  134MYC    C6527165   5.324   0.432   4.284  0.5349 -0.1515  0.6464
  134MYC   H12827166   5.221   0.395   4.283  0.6849 -0.5682 -0.0082
  134MYC   H12927167   5.393   0.348   4.282  0.4543 -0.2358 -1.4309
  134MYC    C6427168   5.335   0.502   4.143  0.6158 -0.5315  0.1799
  134MYC   H13027169   5.442   0.498   4.121  0.2378  0.4262 -1.9844
  134MYC   H13127170   5.308   0.608   4.139  0.5873 -0.5645 -0.5162
  134MYC    C6327171   5.262   0.410   4.035 -0.5267  0.5890  0.2428
  134MYC   HH1127172   5.155   0.394   4.054  0.2361 -1.9636  3.0936
  134MYC   H13227173   5.303   0.309   4.044  0.1280  0.7230 -0.9974
  134MYC    C6227174   5.286   0.466   3.889 -0.3570 -0.3204  0.1282
  134MYC   H13327175   5.393   0.470   3.869  0.2700 -0.4811  3.0597
  134MYC   H13427176   5.238   0.565   3.883 -1.3902 -0.8836 -1.8155
  134MYC    C6127177   5.215   0.379   3.782 -0.4231 -0.0096 -0.6576
  134MYC   H13527178   5.107   0.391   3.797 -0.7333 -2.5246 -0.5238
  134MYC   H13627179   5.240   0.275   3.807 -2.5257 -0.3322  0.2849
  134MYC    C6027180   5.245   0.421   3.637  0.3247  0.4668  0.5147
  134MYC   H13727181   5.328   0.368   3.591 -0.3561 -1.6132  1.5390
  134MYC    C5827182   5.131   0.431   3.539  0.6737  0.0917 -0.8213
  134MYC   H13827183   5.028   0.415   3.569 -0.4978  1.6274 -3.6066
  134MYC    C5927184   5.193   0.557   3.583 -0.3030  0.1928 -0.3335
  134MYC   H13927185   5.257   0.608   3.511  2.7671 -1.5947  0.9822
  134MYC   H14027186   5.137   0.616   3.655  0.5021 -0.1298  0.5648
  134MYC    C5727187   5.152   0.396   3.390  0.1155 -0.2216  0.0557
  134MYC   HH1027188   5.138   0.288   3.378  2.4046 -0.8918  2.4227
  134MYC   H14127189   5.257   0.409   3.362 -0.0619  2.0930  0.2292
  134MYC    C5627190   5.065   0.486   3.292 -0.4449  0.4478  0.4492
  134MYC   H14227191   5.075   0.591   3.320  0.9677  1.1607 -2.3230
  134MYC   H14327192   4.960   0.454   3.299 -1.1317  2.6180  0.5805
  134MYC    C5527193   5.106   0.489   3.139 -0.5464  1.0104 -0.4081
  134MYC   H14427194   5.097   0.386   3.103 -1.9544  0.9987 -0.0724
  134MYC   H14527195   5.210   0.523   3.140  0.4591 -1.8001 -0.8508
  134MYC    C5427196   5.020   0.585   3.049 -0.1143 -0.8862 -0.2910
  134MYC   H14627197   5.027   0.684   3.095  2.1929 -1.7591  1.4637
  134MYC   H14727198   4.914   0.564   3.063 -0.5959  0.0459 -2.2169
  134MYC    C5327199   5.055   0.588   2.904  0.4891 -0.1935  0.0949
  134MYC   H14827200   5.030   0.493   2.856  0.1888  0.1409 -0.4363
  134MYC   H14927201   5.162   0.606   2.887  1.2865 -2.4461  2.1419
  134MYC    C5227202   4.969   0.695   2.835  0.4985  0.1290  0.0512
  134MYC    H9927203   4.991   0.792   2.882 -1.3362  0.2442  0.7417
  134MYC   H15027204   4.861   0.677   2.841  0.4316 -0.9618 -2.7444
  134MYC    C5127205   4.995   0.711   2.681  0.2499  0.4684 -0.1713
  134MYC    H9727206   4.995   0.613   2.632 -0.8051 -1.0840  2.6636
  134MYC    H9827207   5.097   0.749   2.668  0.3871 -0.4334 -2.1454
  134MYC    C5027208   4.893   0.807   2.618 -0.3691  0.0313  0.1472
  134MYC    H9527209   4.878   0.893   2.684 -1.7920 -0.0821 -0.0042
  134MYC    H9627210   4.792   0.764   2.609  0.0579 -0.8136 -0.7533
  134MYC    C4927211   4.945   0.845   2.479 -0.1082  0.4392 -1.0088
  134MYC    H9327212   5.039   0.900   2.486 -0.1691  0.8641 -2.8694
  134MYC    H9427213   4.881   0.928   2.445  0.2793  1.9079  1.6225
  134MYC    C4827214   4.968   0.736   2.374 -0.2562 -0.2869 -0.6215
  134MYC    H9127215   5.056   0.677   2.403  1.9972  1.9762 -2.3549
  134MYC    H9227216   5.003   0.793   2.286  1.4031 -1.0930 -0.5246
  134MYC    C4727217   4.845   0.649   2.336 -0.2135 -0.6640 -0.7237
  134MYC    H8927218   4.770   0.710   2.285  1.1930  1.1534 -0.7232
  134MYC    H9027219   4.799   0.611   2.428  0.3953  2.1990  0.8893
  134MYC    C4627220   4.887   0.521   2.261 -0.2019  0.1269  0.7227
  134MYC    H8727221   4.801   0.453   2.263 -1.2095  1.3654  1.0214
  134MYC    H8827222   4.970   0.468   2.310 -0.2183  1.2281  1.9813
  134MYC    C4527223   4.924   0.548   2.116  0.1512  0.2985  0.1253
  134MYC    H8527224   4.959   0.453   2.071  4.1120  0.5886  2.1403
  134MYC    H8627225   5.017   0.606   2.110  1.1218 -1.2782 -1.2739
  134MYC    C4427226   4.816   0.617   2.023 -0.3513 -0.2741 -0.7522
  134MYC    H8327227   4.859   0.637   1.924  1.1027 -2.3435 -0.5943
  134MYC    H8427228   4.794   0.718   2.059 -0.0861 -0.4537 -0.0698
  134MYC    C1827229   4.679   0.542   2.011  0.7015 -0.2997 -0.0821
  134MYC    H3127230   4.692   0.437   1.985 -0.7903 -0.8973  1.3864
  134MYC    C1727231   4.569   0.564   2.114 -0.0760  0.2929  0.2986
  134MYC    H3027232   4.599   0.639   2.187  2.1486  0.4123 -0.6619
  134MYC    C1927233   4.547   0.620   1.977 -0.7149 -0.0490 -0.1086
  134MYC    H3227234   4.556   0.728   1.969  1.4364 -0.1363  0.4304
  134MYC    H3327235   4.469   0.571   1.918 -1.7869  0.2932  0.9871
  134MYC    C1627236   4.463   0.460   2.164 -0.6117  0.1225 -0.0024
  134MYC    H2827237   4.504   0.380   2.227 -1.5381 -1.0578 -0.8619
  134MYC    H2927238   4.435   0.403   2.076 -1.8800  1.4866 -0.5226
  134MYC    C1527239   4.336   0.517   2.232 -0.6699 -0.2830  0.2393
  134MYC    H2627240   4.275   0.429   2.255  0.0337 -1.1210 -1.0065
  134MYC    H2727241   4.282   0.586   2.166 -1.0842  0.8303  1.6663
  134MYC    C1427242   4.356   0.604   2.355 -0.0227  0.8107 -0.3351
  134MYC    H2427243   4.255   0.630   2.390 -0.4933 -2.3654  1.0945
  134MYC    H2527244   4.395   0.701   2.325 -0.7837  1.4639  0.7078
  134MYC    C1327245   4.448   0.542   2.461  0.0570  0.1652 -0.9166
  134MYC    H2227246   4.545   0.506   2.424  0.7093  1.8709 -1.0004
  134MYC    H2327247   4.396   0.464   2.517  1.4011  0.3532  0.6814
  134MYC    C1227248   4.489   0.637   2.583  0.2566  0.2584 -0.8215
  134MYC    H2027249   4.410   0.706   2.615  0.3438  0.7161 -1.5643
  134MYC    H2127250   4.567   0.705   2.545  2.4039 -0.8275  1.3609
  134MYC    C1127251   4.545   0.562   2.703  0.2412  0.0010 -0.4483
  134MYC    H1827252   4.642   0.516   2.682  0.6568  0.4283  0.4988
  134MYC    H1927253   4.481   0.478   2.731  0.2738  0.1977  0.2345
  134MYC    C1027254   4.552   0.659   2.821 -0.2495 -0.0235 -0.5787
  134MYC    H1627255   4.451   0.703   2.821 -1.4578 -2.5404 -1.6442
  134MYC    H1727256   4.628   0.737   2.807 -0.2490  0.2851  0.9738
  134MYC     C927257   4.586   0.590   2.961 -0.0325 -0.1116  0.0771
  134MYC    H1427258   4.683   0.540   2.951  0.1918  0.6881 -2.6697
  134MYC    H1527259   4.510   0.514   2.978 -0.8438  0.3956 -1.1094
  134MYC     C827260   4.613   0.693   3.082  0.0759  0.3794 -0.0787
  134MYC    H1227261   4.677   0.773   3.044 -0.7811  2.3518  2.3991
  134MYC    H1327262   4.667   0.645   3.164  1.0359  0.7383 -0.4840
  134MYC     C727263   4.488   0.757   3.136 -0.0718 -0.2208 -0.3919
  134MYC    H1027264   4.444   0.813   3.052 -0.7242  2.3448  1.5362
  134MYC    H1127265   4.524   0.844   3.193 -0.3021  1.8487 -3.1707
  134MYC     C627266   4.391   0.664   3.206  0.5150 -0.6643  0.2838
  134MYC     H827267   4.440   0.602   3.282  0.3349 -3.2647 -1.5772
  134MYC     H927268   4.352   0.589   3.136  2.1056 -1.2339 -0.0337
  134MYC     C527269   4.263   0.744   3.238  0.0373  0.1973 -0.1076
  134MYC     H627270   4.176   0.679   3.253 -1.1749  1.7410 -0.1769
  134MYC     H727271   4.230   0.804   3.152  0.5230 -0.1060 -0.5127
  134MYC     C427272   4.290   0.840   3.363  0.0845 -0.2244  0.0325
  134MYC     H427273   4.378   0.903   3.346  0.2460 -0.3904  0.2541
  134MYC     H527274   4.303   0.773   3.449 -0.0720  1.1390  1.1545
  134MYC     C227275   4.166   0.937   3.396  0.1176  0.2972 -0.1384
  134MYC     H227276   4.075   0.878   3.411 -1.0925  2.0761 -0.1775
  134MYC     O327277   4.194   1.009   3.507  0.2674 -0.6648  0.0902
  134MYC     H327278   4.142   1.091   3.508  2.5041  0.9190 -2.0952
  134MYC     C127279   4.123   1.034   3.279 -0.3921  0.3795 -0.5483
  134MYC     H127280   4.104   0.971   3.192  2.8497 -1.3858 -0.1554
  134MYC    C8127281   4.248   1.113   3.234 -0.1555 -0.4656 -0.3342
  134MYC    O8227282   4.286   1.208   3.304 -0.4080  0.0013  0.1634
  134MYC    O8327283   4.295   1.093   3.106  0.1850 -0.0332  0.0200
  134MYC   H10527284   4.357   1.164   3.079 -2.6016  1.9491 -1.7559
  134MYC    C2027285   4.003   1.125   3.315 -0.6801 -0.4410  0.3803
  134MYC    H3427286   4.031   1.217   3.368 -0.4958 -0.4162  0.2447
  134MYC    H3527287   3.963   1.159   3.218 -0.6088  0.8529  0.7897
  134MYC    C2127288   3.884   1.068   3.391 -0.8591  0.0253 -0.6359
  134MYC    H3627289   3.822   1.010   3.322 -3.1094 -0.4899  1.6698
  134MYC    H3727290   3.916   1.000   3.471  0.9011  0.5017 -0.8900
  134MYC    C2227291   3.792   1.192   3.455 -0.5690 -0.0736  0.3739
  134MYC    H3827292   3.862   1.256   3.510 -0.6758 -1.2999  2.0238
  134MYC    H3927293   3.753   1.250   3.372 -1.3894  2.5417  2.4464
  134MYC    C2327294   3.687   1.142   3.556 -0.4915  0.3205  0.1533
  134MYC    H4027295   3.624   1.060   3.521  1.1205 -0.7455 -0.3246
  134MYC    H4127296   3.737   1.097   3.643  3.8898  1.2251 -1.6449
  134MYC    C2427297   3.593   1.257   3.612  0.1903  0.0109  0.2606
  134MYC    H4227298   3.654   1.335   3.658 -1.1146  1.0605  0.2788
  134MYC    H4327299   3.533   1.294   3.528 -0.7814 -1.0833  0.4337
  134MYC    C2527300   3.512   1.200   3.734  0.5190  0.4222  0.4073
  134MYC    H4427301   3.456   1.114   3.697  2.9888 -1.4468  0.7774
  134MYC    H4527302   3.571   1.144   3.807  0.1616  0.2198  0.5415
  134MYC    C2627303   3.412   1.295   3.807 -0.4702 -0.9888  0.9431
  134MYC    H4627304   3.471   1.384   3.831  1.7382 -2.1904  0.1925
  134MYC    H4727305   3.330   1.331   3.743 -0.5923  1.3167  2.2530
  134MYC    C2727306   3.363   1.246   3.940  0.1715 -0.7904 -0.4851
  134MYC    H4827307   3.313   1.149   3.930  0.8495 -1.3781  1.3366
  134MYC    H4927308   3.462   1.230   3.986 -0.1687  0.0882  0.6092
  134MYC    C2827309   3.293   1.354   4.035 -0.2969  0.2851  0.4795
  134MYC    H5027310   3.348   1.448   4.025 -0.2623  0.0610 -2.0825
  134MYC    H5127311   3.199   1.380   3.987  0.4006  0.3690 -0.8887
  134MYC    C2927312   3.260   1.310   4.179  0.7704 -0.1241  0.0694
  134MYC    H5227313   3.198   1.220   4.180  0.3935  0.1314  0.9943
  134MYC    H5327314   3.351   1.280   4.231  0.6261 -3.0444 -1.2205
  134MYC    C3027315   3.192   1.427   4.252 -0.1256  0.0251 -0.2866
  134MYC    H5427316   3.268   1.506   4.245  1.1046 -1.1690 -0.7500
  134MYC    H5527317   3.101   1.466   4.206  0.2054 -0.2208 -1.1703
  134MYC    C3127318   3.155   1.395   4.401  0.0060 -0.2250 -0.7600
  134MYC    H5627319   3.077   1.320   4.414 -0.3654  0.5649  2.4466
  134MYC    H5727320   3.246   1.356   4.448  0.0509  0.2468 -0.4464
  134MYC    C3227321   3.102   1.518   4.485 -0.0988  0.2664 -0.4140
  134MYC    H5827322   3.166   1.604   4.467  0.2261  0.2273  0.5033
  134MYC    H5927323   3.005   1.543   4.439 -0.3773  0.0735  0.0569
  134MYC    C3327324   3.083   1.486   4.634  0.3614 -0.4111  0.6794
  134MYC    H6027325   3.020   1.399   4.652 -0.3490  0.1167  0.7724
  134MYC    H6127326   3.182   1.449   4.665  0.5619  1.1771  2.1005
  134MYC    C3427327   3.041   1.614   4.720 -0.2218  1.0024  0.4654
  134MYC    H6227328   3.115   1.695   4.712 -0.2094  0.9571  0.1104
  134MYC    H6327329   2.950   1.657   4.677 -0.2858  0.6122  0.2062
  134MYC    C3527330   3.019   1.581   4.868 -0.3985  1.1309  0.0669
  134MYC    H6427331   2.936   1.510   4.863 -0.6466  1.4956 -2.1294
  134MYC    H6527332   3.102   1.522   4.907  0.0256  1.2598 -0.6281
  134MYC    C3627333   2.978   1.681   4.970  0.5673 -0.2562 -0.7845
  134MYC    H6627334   3.044   1.768   4.960  0.2439  0.2722  1.1565
  134MYC    H6727335   2.888   1.729   4.929  0.0996 -1.7503 -1.5541
  134MYC    C3727336   2.950   1.631   5.113 -0.3506 -0.1060 -0.6597
  134MYC    H6827337   2.886   1.542   5.122  0.8621 -1.1184 -1.5269
  134MYC    H6927338   3.049   1.602   5.151 -0.6403 -1.5380 -0.9413
  134MYC    C3827339   2.879   1.732   5.201  0.1550 -0.1508  0.2757
  134MYC    H7027340   2.783   1.757   5.155  0.8427  1.8074 -0.1767
  134MYC    H7127341   2.853   1.693   5.300 -0.2853  0.4461  0.4004
  134MYC    C3927342   2.960   1.865   5.230  0.5222 -0.4362  0.0196
  134MYC    H7227343   2.951   1.926   5.139 -0.6711 -3.3488 -1.9773
  134MYC    H7327344   2.911   1.924   5.308  1.2628  1.8301 -1.1409
  134MYC    C4027345   3.106   1.853   5.262  0.5453  0.4931  0.1757
  134MYC    H7427346   3.114   1.798   5.356 -1.0351 -0.1976 -0.0617
  134MYC    H7527347   3.151   1.781   5.193  0.6052 -0.4850  1.2059
  134MYC    C4127348   3.184   1.981   5.260  0.8538  0.2398  0.1091
  134MYC    H7627349   3.175   2.031   5.163  1.6125 -2.9839 -1.7810
  134MYC    H7727350   3.131   2.051   5.325 -1.1007  0.2533 -1.4229
  134MYC    C4227351   3.328   1.970   5.307 -0.3754 -0.0699 -0.0345
  134MYC    H7827352   3.364   2.073   5.306 -0.3881 -0.0570 -1.4956
  134MYC    H7927353   3.343   1.941   5.411  0.7547 -0.2550 -0.2361
  134MYC    C4327354   3.427   1.905   5.211  0.3193  0.1128 -0.0783
  134MYC    H8027355   3.393   1.923   5.108 -0.0670  0.5820  0.1252
  134MYC    H8127356   3.424   1.798   5.232 -0.1307  0.1056 -0.1693
  134MYC    H8227357   3.530   1.932   5.239  0.6517 -1.2633  0.0604
  135MYC   HH1527358   3.457   1.574   4.824 -0.0529 -1.5433 -0.2822
  135MYC    C8027359   3.522   1.542   4.742  0.0778 -1.2903 -0.2789
  135MYC   H10027360   3.621   1.584   4.763  0.1250 -1.3758 -0.3289
  135MYC   H10127361   3.527   1.433   4.731 -2.6793 -1.4086 -1.2788
  135MYC    C7927362   3.468   1.585   4.612 -0.8404 -0.7028 -0.7787
  135MYC   H10227363   3.434   1.689   4.619  1.4409  0.0684 -0.1879
  135MYC   H10327364   3.379   1.526   4.589 -1.2367 -1.3698  2.1033
  135MYC    C7827365   3.561   1.580   4.495  0.1840 -0.1859 -0.5590
  135MYC   HH1427366   3.535   1.494   4.432 -0.5403 -1.5679  1.5056
  135MYC   H10427367   3.663   1.556   4.526  0.8907 -0.1539 -2.6813
  135MYC    C7727368   3.569   1.708   4.408  0.4578  0.2145 -0.2942
  135MYC   H10627369   3.562   1.797   4.472 -1.5700  0.9697 -1.4603
  135MYC   H10727370   3.477   1.702   4.349 -0.8169 -2.4622  1.7603
  135MYC    C7627371   3.695   1.721   4.329  0.7037 -0.4610 -0.6047
  135MYC   H10827372   3.709   1.628   4.273 -0.9212 -1.0107 -0.1563
  135MYC   H10927373   3.777   1.742   4.399  2.7358 -0.2689 -2.8828
  135MYC    C7527374   3.685   1.841   4.229 -0.6013 -0.2308 -0.4205
  135MYC   H11027375   3.655   1.929   4.285  0.3905 -0.3862  0.3791
  135MYC   H11127376   3.602   1.817   4.160 -1.0819 -1.4448  0.5323
  135MYC    C7427377   3.815   1.871   4.159  0.2035 -0.0255  0.0417
  135MYC   H11227378   3.874   1.895   4.248  0.4565 -1.9390  0.4262
  135MYC   H11327379   3.808   1.960   4.095  0.5381 -0.0758 -0.0658
  135MYC    C7327380   3.879   1.756   4.078 -0.5571  0.6632 -0.0074
  135MYC   HH1327381   3.818   1.720   3.994 -0.9257  2.5313 -0.5847
  135MYC   H11427382   3.901   1.671   4.143 -0.2899  1.4965  1.0157
  135MYC    C7227383   4.010   1.792   4.006  0.5085  1.0051  0.6287
  135MYC   H11527384   4.088   1.831   4.073  0.9687  0.9613  0.1220
  135MYC   H11627385   4.002   1.871   3.931  0.6170 -0.9085 -1.5007
  135MYC    C7127386   4.067   1.668   3.928  0.0509 -0.1174 -0.3819
  135MYC   H11727387   3.993   1.621   3.862  0.5006 -0.0471 -0.9381
  135MYC   H11827388   4.101   1.587   3.994  0.8213 -0.5994 -1.3591
  135MYC    C7027389   4.186   1.717   3.846 -0.2902  0.0591  0.3549
  135MYC   H11927390   4.259   1.753   3.920 -1.5671 -0.0269  1.7049
  135MYC   H12027391   4.150   1.805   3.791 -2.0793 -0.9359 -0.1310
  135MYC    C6927392   4.265   1.609   3.768  0.1093  0.2292  0.0963
  135MYC   H12127393   4.193   1.560   3.701 -0.5731  0.5534  0.5699
  135MYC   H12227394   4.306   1.530   3.831 -0.2152 -0.1612 -0.1813
  135MYC    C6827395   4.382   1.672   3.684 -0.3702 -0.4779 -0.6401
  135MYC   HH1227396   4.461   1.704   3.752 -0.0511 -1.9778 -0.2878
  135MYC   H12327397   4.340   1.761   3.634 -1.3714 -0.2812  0.5113
  135MYC    C6727398   4.432   1.572   3.570  0.4538 -0.3944  0.0614
  135MYC   H12427399   4.358   1.541   3.496  2.1654 -1.6137 -1.2219
  135MYC   H12527400   4.445   1.480   3.627  0.0189 -0.4109  0.1358
  135MYC    C6627401   4.560   1.618   3.504 -0.4652 -0.5388 -0.9536
  135MYC   H12627402   4.636   1.658   3.572 -0.3206  1.3321 -2.1279
  135MYC   H12727403   4.535   1.704   3.442  0.4706 -0.5548 -1.3713
  135MYC    C6527404   4.633   1.524   3.412  0.0445  0.4215  0.3328
  135MYC   H12827405   4.638   1.430   3.468 -0.4139  1.0658  1.5098
  135MYC   H12927406   4.737   1.557   3.397  0.8174 -0.4994  3.0265
  135MYC    C6427407   4.563   1.494   3.273  0.3145 -0.1304  0.0148
  135MYC   H13027408   4.560   1.586   3.213  0.4702  0.5627  1.0361
  135MYC   H13127409   4.459   1.462   3.291  0.1269  0.0054 -0.7957
  135MYC    C6327410   4.632   1.394   3.188 -0.1383  0.8611  0.2900
  135MYC   HH1127411   4.735   1.427   3.168  0.7545 -0.8582  1.6932
  135MYC   H13227412   4.580   1.381   3.093  1.8763  0.3033 -0.7985
  135MYC    C6227413   4.637   1.242   3.244 -0.2224  0.1219 -0.0116
  135MYC   H13327414   4.534   1.204   3.244 -0.6432  0.7810 -4.0855
  135MYC   H13427415   4.671   1.242   3.348 -2.3606  1.8248  0.7739
  135MYC    C6127416   4.722   1.144   3.165  0.1226  0.0304 -0.4418
  135MYC   H13527417   4.723   1.054   3.229 -2.7266  0.8168  0.8446
  135MYC   H13627418   4.822   1.190   3.166  0.7652 -1.2717  1.0183
  135MYC    C6027419   4.672   1.102   3.026 -0.2409  0.0465  0.6006
  135MYC   H13727420   4.580   1.045   3.035  0.5137 -1.2672  0.2976
  135MYC    C5827421   4.711   1.173   2.894  0.0638  0.1192  0.3732
  135MYC   H13827422   4.769   1.262   2.912 -0.0414  0.0970  0.8293
  135MYC    C5927423   4.768   1.039   2.931 -0.1237  0.2187 -0.0825
  135MYC   H13927424   4.722   0.969   2.861 -0.9498  0.9066 -0.2459
  135MYC   H14027425   4.870   1.019   2.964 -0.6145  0.9753  2.0357
  135MYC    C5727426   4.610   1.204   2.782 -0.2297  0.0521 -0.0229
  135MYC   HH1027427   4.584   1.307   2.812  0.4504 -0.2329  1.6721
  135MYC   H14127428   4.522   1.139   2.775 -1.9312  2.2111  0.1056
  135MYC    C5627429   4.675   1.211   2.636 -0.5034 -0.4053 -0.2300
  135MYC   H14227430   4.590   1.224   2.568 -0.2324 -1.5504 -0.8179
  135MYC   H14327431   4.729   1.120   2.605 -0.1686  0.3187 -1.8763
  135MYC    C5527432   4.755   1.336   2.614 -0.4334 -0.5015 -0.6849
  135MYC   H14427433   4.850   1.306   2.661 -0.3661  2.0005  0.9605
  135MYC   H14527434   4.725   1.432   2.658  0.8082 -1.6747  3.0911
  135MYC    C5427435   4.781   1.378   2.462  0.3213 -0.6016 -0.0432
  135MYC   H14627436   4.818   1.480   2.449  0.6883 -0.8964 -1.4245
  135MYC   H14727437   4.682   1.395   2.418  1.0368  4.5305 -0.2574
  135MYC    C5327438   4.867   1.270   2.379  0.0670  0.2214 -0.0759
  135MYC   H14827439   4.836   1.167   2.402  1.6563 -0.1978  0.2860
  135MYC   H14927440   4.972   1.280   2.406  0.6734 -0.3777 -2.0177
  135MYC    C5227441   4.852   1.299   2.230  0.7718  0.2157 -0.8239
  135MYC    H9927442   4.913   1.385   2.200 -0.4267  1.9827  1.4403
  135MYC   H15027443   4.749   1.330   2.209 -1.0136 -3.1638  1.9364
  135MYC    C5127444   4.874   1.171   2.134  0.0432 -0.0759 -0.6276
  135MYC    H9727445   4.842   1.191   2.031 -0.8045  1.7312 -0.0688
  135MYC    H9827446   4.808   1.090   2.166 -1.0952  0.7677 -0.7695
  135MYC    C5027447   5.013   1.112   2.148 -0.0335 -0.0431 -0.2972
  135MYC    H9527448   5.032   1.092   2.254 -2.0104  2.3903  0.5958
  135MYC    H9627449   5.082   1.188   2.108  0.8522  0.0426  1.3141
  135MYC    C4927450   5.026   0.985   2.054 -0.2071  0.4389 -0.1140
  135MYC    H9327451   4.979   0.999   1.956  0.3924  0.2071 -0.4364
  135MYC    H9427452   4.975   0.901   2.103  2.3485 -1.3855 -0.3951
  135MYC    C4827453   5.172   0.941   2.029  0.2916  0.1590  0.5676
  135MYC    H9127454   5.225   0.912   2.120 -2.4797 -1.6708  1.7420
  135MYC    H9227455   5.217   1.032   1.988  1.4852  0.6078  2.7207
  135MYC    C4727456   5.183   0.815   1.936  0.2702  0.0030  0.0144
  135MYC    H8927457   5.144   0.840   1.837  1.0039  0.9688 -0.0607
  135MYC    H9027458   5.119   0.736   1.976 -0.2067  0.1374 -0.4898
  135MYC    C4627459   5.322   0.758   1.938  0.4049  0.4954 -0.2636
  135MYC    H8727460   5.324   0.671   1.871  0.4161 -0.5137  1.0046
  135MYC    H8827461   5.360   0.719   2.033  1.2557 -1.3131 -1.2956
  135MYC    C4527462   5.430   0.859   1.878 -0.3425 -0.5778  0.5145
  135MYC    H8527463   5.456   0.940   1.947  1.6616  0.0090 -0.8719
  135MYC    H8627464   5.388   0.896   1.784 -0.3933  1.9135  1.4593
  135MYC    C4427465   5.560   0.791   1.836  0.3841  0.0706  0.0676
  135MYC    H8327466   5.538   0.719   1.756  1.0701  1.1739 -1.1585
  135MYC    H8427467   5.603   0.740   1.923  0.4003 -1.9674 -1.0951
  135MYC    C1827468   5.659   0.892   1.775  0.3547 -0.2538 -0.4179
  135MYC    H3127469   5.620   0.958   1.698  2.1066  3.0318  1.3151
  135MYC    C1727470   5.778   0.954   1.849 -0.3727 -0.2826  0.3251
  135MYC    H3027471   5.776   0.930   1.956 -0.2315  0.8101  0.5788
  135MYC    C1927472   5.800   0.843   1.752 -0.5889  0.6594  0.5906
  135MYC    H3227473   5.833   0.751   1.798 -0.5993  0.1297 -0.4361
  135MYC    H3327474   5.835   0.853   1.650 -0.0538 -1.4756  0.5312
  135MYC    C1627475   5.823   1.102   1.828 -0.5059  0.4598 -0.9243
  135MYC    H2827476   5.779   1.133   1.732 -0.4605  0.1738 -1.0377
  135MYC    H2927477   5.930   1.107   1.807 -0.7153  2.1312 -1.7997
  135MYC    C1527478   5.777   1.191   1.950 -0.0330  0.5500 -0.0831
  135MYC    H2627479   5.841   1.279   1.962 -0.0282  0.5081  0.1926
  135MYC    H2727480   5.792   1.127   2.038 -1.7705  0.3295  0.0739
  135MYC    C1427481   5.623   1.232   1.952 -1.0291  0.6107 -0.7761
  135MYC    H2427482   5.572   1.134   1.949  2.0328 -1.1847  0.6561
  135MYC    H2527483   5.606   1.292   1.863  0.9317  2.2959 -0.0793
  135MYC    C1327484   5.589   1.314   2.077 -0.0093 -0.2245  0.0313
  135MYC    H2227485   5.621   1.416   2.054 -0.3247 -0.7266 -3.0488
  135MYC    H2327486   5.659   1.282   2.156  0.5931  1.5573  0.2652
  135MYC    C1227487   5.435   1.315   2.114 -0.0261 -0.3648 -0.2513
  135MYC    H2027488   5.387   1.218   2.099 -2.3895  0.7064  0.0213
  135MYC    H2127489   5.382   1.379   2.042 -0.2230  0.0315  0.2342
  135MYC    C1127490   5.406   1.373   2.250 -0.6573  0.2263  0.3814
  135MYC    H1827491   5.463   1.466   2.255 -0.5886  0.3070 -1.1987
  135MYC    H1927492   5.444   1.298   2.321 -1.0902  0.0681  0.4518
  135MYC    C1027493   5.259   1.400   2.271  0.2552 -0.0529  0.6571
  135MYC    H1627494   5.206   1.304   2.275  0.8407 -0.3385  2.8757
  135MYC    H1727495   5.214   1.463   2.193  1.5330  1.4197  1.0422
  135MYC     C927496   5.213   1.470   2.401 -0.0542 -0.2377 -0.4198
  135MYC    H1427497   5.255   1.425   2.492 -0.2392  1.0602  0.3325
  135MYC    H1527498   5.105   1.465   2.414 -0.4010  1.7852 -1.9854
  135MYC     C827499   5.245   1.620   2.413  0.2549 -0.1219 -0.2378
  135MYC    H1227500   5.172   1.682   2.360 -1.2087  3.0884  4.7214
  135MYC    H1327501   5.344   1.632   2.368 -0.6837  1.2168 -2.0464
  135MYC     C727502   5.247   1.659   2.566  0.6863  0.2692 -0.3838
  135MYC    H1027503   5.312   1.588   2.617  1.3588  0.7353 -0.5711
  135MYC    H1127504   5.151   1.642   2.615  1.9679 -2.3839  1.4376
  135MYC     C627505   5.291   1.806   2.594  0.0784 -0.3194  0.0682
  135MYC     H827506   5.221   1.878   2.549 -1.9771 -3.7763 -2.9392
  135MYC     H927507   5.395   1.809   2.560  0.4909  0.1622  1.3147
  135MYC     C527508   5.301   1.834   2.752 -0.6765 -0.7079  0.6790
  135MYC     H627509   5.391   1.783   2.787  1.0328  1.0988 -0.7823
  135MYC     H727510   5.213   1.786   2.797 -1.7279  0.9972  0.5332
  135MYC     C427511   5.307   1.979   2.803  0.4879 -0.5640  1.0631
  135MYC     H427512   5.212   2.028   2.781  0.1254 -1.7311 -0.0925
  135MYC     H527513   5.392   2.031   2.757 -1.8847  3.3362  0.6266
  135MYC     C227514   5.320   1.990   2.953 -1.0064  0.9408  0.1568
  135MYC     H227515   5.238   1.937   3.004 -0.2477  0.8694  1.3618
  135MYC     O327516   5.442   1.927   2.988 -0.1527 -0.1837 -0.1600
  135MYC     H327517   5.515   1.967   2.937  0.1971 -1.3625 -0.6022
  135MYC     C127518   5.311   2.140   3.000 -0.3477  0.2853 -0.1130
  135MYC     H127519   5.218   2.175   2.953 -0.8355 -0.0051  0.6097
  135MYC    C8127520   5.426   2.231   2.958  0.1236 -0.1805  0.9884
  135MYC    O8227521   5.544   2.229   2.987  0.7055 -0.6843 -0.1148
  135MYC    O8327522   5.381   2.343   2.891 -0.3197  0.2480  0.3307
  135MYC   H10527523   5.462   2.396   2.883  0.7356 -0.9929  1.9154
  135MYC    C2027524   5.310   2.151   3.158  0.8041 -0.0468  1.0159
  135MYC    H3427525   5.378   2.081   3.207 -0.1586 -1.6445  0.1478
  135MYC    H3527526   5.332   2.251   3.198  4.0102 -0.2874  0.0872
  135MYC    C2127527   5.164   2.111   3.214  0.5506 -0.2372 -0.0009
  135MYC    H3627528   5.080   2.167   3.171  0.7512  0.7951  0.9019
  135MYC    H3727529   5.138   2.007   3.191  1.2580 -0.2832 -0.6247
  135MYC    C2227530   5.144   2.134   3.369  1.0892  0.1781 -0.1561
  135MYC    H3827531   5.200   2.050   3.412 -2.3405 -2.9151 -1.1834
  135MYC    H3927532   5.192   2.229   3.394  1.7482 -0.1278 -0.2446
  135MYC    C2327533   4.997   2.141   3.429 -0.0466  0.3294 -0.8939
  135MYC    H4027534   5.002   2.185   3.529  0.7684 -0.1881 -0.6974
  135MYC    H4127535   4.938   2.217   3.377 -0.9279 -0.6858 -1.4031
  135MYC    C2427536   4.913   2.006   3.432 -0.1578 -0.9406 -0.5729
  135MYC    H4227537   4.932   1.952   3.338  1.7621 -1.0047 -0.1983
  135MYC    H4327538   4.948   1.953   3.522 -0.9602  0.0648  0.3564
  135MYC    C2527539   4.762   2.023   3.468 -0.1299  0.3603 -0.6321
  135MYC    H4427540   4.728   2.087   3.386  0.3559 -0.8898 -1.8597
  135MYC    H4527541   4.716   1.925   3.449 -2.6536  1.2291  0.5449
  135MYC    C2627542   4.731   2.080   3.607  0.3524 -0.3939 -0.2806
  135MYC    H4627543   4.774   2.008   3.678 -0.7563 -1.2996 -0.5025
  135MYC    H4727544   4.788   2.173   3.625  1.1441 -1.3392  2.7426
  135MYC    C2727545   4.576   2.086   3.625  0.2528 -0.3046  0.0146
  135MYC    H4827546   4.531   2.138   3.540 -1.1250  0.1573  1.0004
  135MYC    H4927547   4.525   1.989   3.628 -0.1166 -0.1615  3.9071
  135MYC    C2827548   4.550   2.168   3.753 -0.4286  0.3567  0.3546
  135MYC    H5027549   4.586   2.109   3.839 -1.3320  0.4509  0.8089
  135MYC    H5127550   4.609   2.260   3.749 -1.6744  1.3822  2.9901
  135MYC    C2927551   4.407   2.209   3.765 -0.4190  1.1471  0.6287
  135MYC    H5227552   4.404   2.301   3.706  0.5370 -0.0763 -1.4412
  135MYC    H5327553   4.340   2.135   3.719 -0.6513  1.8286 -0.1599
  135MYC    C3027554   4.360   2.219   3.907 -0.1253  0.4676 -0.4645
  135MYC    H5427555   4.358   2.114   3.939 -2.0612  0.9408  1.1624
  135MYC    H5527556   4.430   2.276   3.968  1.8990 -0.6813 -1.6266
  135MYC    C3127557   4.222   2.284   3.925 -0.5934  0.0382 -0.4345
  135MYC    H5627558   4.221   2.389   3.895 -0.7753 -0.0430 -0.7217
  135MYC    H5727559   4.173   2.218   3.852  3.3236 -2.6706 -0.9170
  135MYC    C3227560   4.161   2.267   4.061 -0.6630 -0.1521 -0.1766
  135MYC    H5827561   4.153   2.158   4.067  3.0847 -0.7047 -2.2299
  135MYC    H5927562   4.231   2.288   4.143 -0.1287  1.0039 -0.8976
  135MYC    C3327563   4.036   2.350   4.091 -0.2186  0.2330  0.1261
  135MYC    H6027564   4.044   2.456   4.065 -1.0310 -0.0964 -1.6350
  135MYC    H6127565   3.950   2.328   4.026 -0.8651  1.0859  0.6716
  135MYC    C3427566   3.993   2.334   4.239  0.6065  0.1797 -0.5477
  135MYC    H6227567   4.063   2.380   4.310  2.7308 -1.9343 -1.1315
  135MYC    H6327568   3.898   2.387   4.247  1.1158  1.3421 -1.7483
  135MYC    C3527569   3.963   2.195   4.291 -0.7214  0.7125  0.6186
  135MYC    H6427570   3.883   2.137   4.245 -0.1763 -0.0946  0.6677
  135MYC    H6527571   4.046   2.133   4.257 -1.0268  1.2952 -1.3189
  135MYC    C3627572   3.952   2.188   4.446 -0.5612  0.6864  0.4709
  135MYC    H6627573   3.959   2.087   4.486 -2.4141  0.1023 -0.5859
  135MYC    H6727574   4.035   2.246   4.490 -0.7160  0.3129  1.2812
  135MYC    C3727575   3.821   2.245   4.489  0.8364  0.0893  0.6409
  135MYC    H6827576   3.811   2.343   4.441  2.8795 -0.1252 -0.3277
  135MYC    H6927577   3.736   2.191   4.446  0.5019  0.6921  0.5252
  135MYC    C3827578   3.802   2.255   4.642 -0.3870  0.2390 -0.3355
  135MYC    H7027579   3.888   2.308   4.684  0.3236 -0.5265 -0.7896
  135MYC    H7127580   3.712   2.312   4.666 -1.0256 -0.2548 -1.4597
  135MYC    C3927581   3.802   2.118   4.724  0.3194 -0.6965  0.0415
  135MYC    H7227582   3.758   2.045   4.656 -0.2305 -2.0639  1.7814
  135MYC    H7327583   3.903   2.092   4.758  0.1080  1.7543  2.9843
  135MYC    C4027584   3.717   2.116   4.852 -0.0055 -0.1893 -0.1826
  135MYC    H7427585   3.612   2.119   4.821  0.3210  0.8622 -1.2429
  135MYC    H7527586   3.734   2.021   4.905  0.0890 -0.0288  0.0758
  135MYC    C4127587   3.730   2.225   4.962 -1.3657 -0.0120 -0.4356
  135MYC    H7627588   3.816   2.198   5.024 -1.7212 -0.2589 -0.0417
  135MYC    H7727589   3.764   2.316   4.912 -0.4584  0.3609  0.8192
  135MYC    C4227590   3.599   2.236   5.045  0.1412 -0.0269  0.1403
  135MYC    H7827591   3.527   2.263   4.968  0.7140  0.6307 -0.1780
  135MYC    H7927592   3.572   2.140   5.090  2.3133 -1.8193 -2.0813
  135MYC    C4327593   3.590   2.345   5.159 -0.0843 -0.6376 -0.3159
  135MYC    H8027594   3.634   2.438   5.121 -1.4830  0.5416  0.8595
  135MYC    H8127595   3.648   2.321   5.249 -0.4492 -0.5168 -0.0469
  135MYC    H8227596   3.486   2.367   5.183 -0.0056  1.1424 -1.4494
  136MYC   HH1527597   3.954   2.473   4.989 -0.3756 -0.1640 -1.4700
  136MYC    C8027598   4.036   2.537   4.957  0.0022 -0.0958 -0.4044
  136MYC   H10027599   4.012   2.644   4.969  3.0794  0.4703  1.9835
  136MYC   H10127600   4.131   2.520   5.009  0.1704 -0.5490 -0.8520
  136MYC    C7927601   4.061   2.488   4.814  0.5183 -0.2606 -0.7568
  136MYC   H10227602   3.972   2.498   4.752  0.7103 -1.3618 -1.2281
  136MYC   H10327603   4.079   2.380   4.818  0.8243 -0.1907 -0.1052
  136MYC    C7827604   4.176   2.554   4.741  0.0285 -0.3917  0.4371
  136MYC   HH1427605   4.276   2.527   4.777  0.2902 -0.9471 -0.6543
  136MYC   H10427606   4.170   2.662   4.756  0.9263 -0.1168 -0.9651
  136MYC    C7727607   4.165   2.532   4.591  0.1660 -0.3329  0.6048
  136MYC   H10627608   4.064   2.557   4.557  0.8823  0.0221 -1.3689
  136MYC   H10727609   4.186   2.430   4.556 -3.0067 -0.6151 -0.8190
  136MYC    C7627610   4.260   2.622   4.511 -0.0389 -0.4064 -0.2813
  136MYC   H10827611   4.364   2.613   4.545  0.1609 -1.7686 -1.1920
  136MYC   H10927612   4.236   2.726   4.537  0.9194 -0.6594  1.8443
  136MYC    C7527613   4.264   2.589   4.360 -0.2141 -0.2653  0.1595
  136MYC   H11027614   4.165   2.618   4.322 -0.9016 -0.7919  1.4436
  136MYC   H11127615   4.282   2.481   4.348  0.6281 -0.0673 -0.4522
  136MYC    C7427616   4.363   2.653   4.267 -0.5692 -0.6885  0.4951
  136MYC   H11227617   4.463   2.644   4.309  0.3371 -3.2333 -1.9019
  136MYC   H11327618   4.339   2.760   4.271  2.6807  0.1640  0.1776
  136MYC    C7327619   4.363   2.603   4.119  0.5319  1.0509  0.7392
  136MYC   HH1327620   4.262   2.606   4.076  0.3878 -0.3966  0.9150
  136MYC   H11427621   4.387   2.496   4.116 -0.1015  0.8962  1.0402
  136MYC    C7227622   4.450   2.682   4.030  0.0864 -0.0490  0.0205
  136MYC   H11527623   4.555   2.684   4.061  0.1907  2.4392 -0.3261
  136MYC   H11627624   4.416   2.786   4.027 -0.8970 -0.3223  0.8500
  136MYC    C7127625   4.435   2.625   3.889 -0.2472  0.4053  0.7660
  136MYC   H11727626   4.337   2.653   3.849 -0.3611 -1.2490 -0.2323
  136MYC   H11827627   4.446   2.516   3.886 -1.8350  0.2109  1.2217
  136MYC    C7027628   4.537   2.689   3.789  0.6743 -0.0327  0.4557
  136MYC   H11927629   4.643   2.670   3.812  1.2202  1.9751 -0.1906
  136MYC   H12027630   4.528   2.798   3.794  3.8666  0.3627 -0.2324
  136MYC    C6927631   4.501   2.651   3.637  0.0187 -0.1912 -0.2243
  136MYC   H12127632   4.517   2.737   3.571 -0.2767 -1.1480 -1.5691
  136MYC   H12227633   4.396   2.620   3.628 -0.4325  1.4332 -0.9602
  136MYC    C6827634   4.593   2.545   3.576 -0.7617 -0.0589  0.5596
  136MYC   HH1227635   4.601   2.463   3.647 -1.3819 -0.7969 -0.1959
  136MYC   H12327636   4.693   2.588   3.566 -1.2691  0.9305 -0.6378
  136MYC    C6727637   4.533   2.479   3.445  0.0568 -0.2274 -0.2198
  136MYC   H12427638   4.474   2.552   3.390  1.5405 -0.1106 -1.7332
  136MYC   H12527639   4.463   2.403   3.481 -1.0596  1.2002  0.7316
  136MYC    C6627640   4.634   2.419   3.353 -0.1334 -0.3895  1.0418
  136MYC   H12627641   4.667   2.322   3.390  0.5497 -0.1799  0.9914
  136MYC   H12727642   4.722   2.483   3.341 -0.7638  0.2955 -0.1552
  136MYC    C6527643   4.567   2.397   3.212  0.3469  0.4979  0.0106
  136MYC   H12827644   4.517   2.482   3.164 -0.5110  1.1142  1.8804
  136MYC   H12927645   4.486   2.325   3.225  1.9025 -1.0404  1.7660
  136MYC    C6427646   4.664   2.326   3.113  0.3484 -0.3970  0.6631
  136MYC   H13027647   4.604   2.259   3.050  1.4964  0.6738 -1.7336
  136MYC   H13127648   4.744   2.264   3.155  1.1032 -1.5049 -2.1567
  136MYC    C6327649   4.741   2.426   3.020  0.6502  0.0676  0.6681
  136MYC   HH1127650   4.800   2.489   3.087 -2.3530  3.4633  0.3947
  136MYC   H13227651   4.670   2.501   2.984 -0.3775 -0.9295  0.5468
  136MYC    C6227652   4.813   2.367   2.897 -0.8401  0.0853 -0.6324
  136MYC   H13327653   4.749   2.304   2.835 -0.0483 -0.0519 -1.3326
  136MYC   H13427654   4.885   2.293   2.936 -1.2617 -0.1201 -0.2357
  136MYC    C6127655   4.891   2.471   2.811  0.7386  0.1657 -0.0488
  136MYC   H13527656   4.970   2.429   2.747  0.8662  2.4922 -1.5494
  136MYC   H13627657   4.946   2.534   2.882 -1.3465  1.3946  0.5671
  136MYC    C6027658   4.797   2.564   2.731  0.1546  0.1974 -0.3520
  136MYC   H13727659   4.733   2.626   2.794  0.7240  0.0492  0.3893
  136MYC    C5827660   4.855   2.625   2.601 -0.4504  0.5474 -0.2404
  136MYC   H13827661   4.945   2.587   2.554 -0.3440 -0.9949  1.1278
  136MYC    C5927662   4.749   2.524   2.603  0.3326 -0.4479 -0.0348
  136MYC   H13927663   4.645   2.549   2.589 -0.1036 -2.0690  0.0389
  136MYC   H14027664   4.776   2.427   2.560  1.8958 -0.5331  1.0409
  136MYC    C5727665   4.844   2.773   2.588  0.7826  0.0081  0.1536
  136MYC   HH1027666   4.899   2.815   2.673  3.3615  0.5736 -1.6718
  136MYC   H14127667   4.738   2.799   2.604  0.6509  0.8093 -1.7477
  136MYC    C5627668   4.890   2.833   2.454 -0.0240  0.1431 -0.4146
  136MYC   H14227669   4.999   2.822   2.457  0.1147  0.9707 -1.6502
  136MYC   H14327670   4.876   2.942   2.451 -1.1573  0.0375  0.3568
  136MYC    C5527671   4.836   2.764   2.324 -0.4464 -0.3146 -0.4460
  136MYC   H14427672   4.727   2.761   2.327 -0.4300 -2.1807 -0.8179
  136MYC   H14527673   4.873   2.662   2.308 -1.7352 -0.6656 -1.3123
  136MYC    C5427674   4.887   2.851   2.203  0.1500  0.0558 -0.6445
  136MYC   H14627675   4.870   2.958   2.214 -1.7273 -0.1928 -0.8620
  136MYC   H14727676   4.830   2.822   2.114  0.0488 -1.6984 -0.0565
  136MYC    C5327677   5.033   2.828   2.177  0.2138 -0.5632 -0.3155
  136MYC   H14827678   5.072   2.790   2.273  0.1733 -2.6198 -1.0709
  136MYC   H14927679   5.074   2.929   2.160 -1.8054  0.4509  0.4857
  136MYC    C5227680   5.075   2.727   2.062  0.4478  0.0952  0.2471
  136MYC    H9927681   5.185   2.727   2.056  0.4311 -0.7082 -0.2324
  136MYC   H15027682   5.038   2.769   1.968 -2.5083 -1.8704  0.3886
  136MYC    C5127683   5.016   2.582   2.091 -0.3662 -0.4066 -0.4769
  136MYC    H9727684   5.057   2.526   2.006  1.5928  1.1524 -0.6276
  136MYC    H9827685   4.907   2.585   2.101 -0.2489 -1.5704  1.7389
  136MYC    C5027686   5.069   2.507   2.210  0.5963  0.3198 -0.2064
  136MYC    H9527687   5.072   2.571   2.299 -1.0198 -1.2509  1.0395
  136MYC    H9627688   5.172   2.470   2.201 -0.2832 -2.1775 -0.5947
  136MYC    C4927689   4.975   2.380   2.238  0.7316 -0.0606  0.4831
  136MYC    H9327690   5.005   2.310   2.159  0.7302  2.0801 -1.5255
  136MYC    H9427691   4.869   2.407   2.231  1.0643  1.3674  0.5654
  136MYC    C4827692   4.993   2.320   2.377 -0.1466 -0.4519  0.5150
  136MYC    H9127693   4.917   2.243   2.395 -0.6895  0.1320  0.7457
  136MYC    H9227694   4.970   2.386   2.461  0.6494 -0.2772  0.6023
  136MYC    C4727695   5.130   2.250   2.390 -0.2229 -0.4890 -0.2913
  136MYC    H8927696   5.205   2.276   2.315 -0.2308 -0.2205 -0.2055
  136MYC    H9027697   5.117   2.141   2.395  0.8222 -0.5428  2.3119
  136MYC    C4627698   5.188   2.269   2.530  0.6151 -0.8045 -0.4489
  136MYC    H8727699   5.120   2.219   2.600  0.2925 -0.2039 -0.3319
  136MYC    H8827700   5.175   2.373   2.561  1.0926 -0.8772  0.0116
  136MYC    C4527701   5.333   2.227   2.555 -0.2812 -0.1992 -0.0037
  136MYC    H8527702   5.347   2.123   2.522  0.6851 -0.8552  2.2450
  136MYC    H8627703   5.351   2.222   2.663 -2.0981 -2.2316  0.2771
  136MYC    C4427704   5.436   2.312   2.472 -0.1843  0.6637  0.6330
  136MYC    H8327705   5.504   2.355   2.546  1.8239 -0.6889 -0.3562
  136MYC    H8427706   5.386   2.396   2.422  1.0921  0.2839 -1.3484
  136MYC    C1827707   5.522   2.235   2.372 -0.1094 -0.4737 -0.5728
  136MYC    H3127708   5.578   2.152   2.412  1.1783  1.1675  1.2318
  136MYC    C1727709   5.476   2.232   2.229 -0.4220 -0.3062  0.1459
  136MYC    H3027710   5.400   2.300   2.191  0.1819  0.0767 -0.4043
  136MYC    C1927711   5.600   2.305   2.262 -0.1551 -0.1616  0.7000
  136MYC    H3227712   5.589   2.409   2.230 -1.7216 -1.0210 -1.8896
  136MYC    H3327713   5.692   2.267   2.218  0.1662  2.3513 -1.0699
  136MYC    C1627714   5.480   2.106   2.141  0.9593  0.1637  0.5080
  136MYC    H2827715   5.528   2.023   2.194 -3.8956 -1.8663  2.2118
  136MYC    H2927716   5.536   2.135   2.051  0.5606  1.5016  0.6600
  136MYC    C1527717   5.341   2.061   2.107 -0.1224 -0.4020 -0.1989
  136MYC    H2627718   5.285   2.138   2.053 -0.1157 -1.2185 -1.4276
  136MYC    H2727719   5.296   2.049   2.206  0.3494 -0.5094  0.0041
  136MYC    C1427720   5.331   1.927   2.023 -0.2076 -0.4167  0.4260
  136MYC    H2427721   5.371   1.854   2.095  1.6520 -0.2722 -0.4163
  136MYC    H2527722   5.396   1.936   1.935  1.2792 -0.8973  1.4324
  136MYC    C1327723   5.188   1.883   1.971 -0.1754 -0.9889 -0.6301
  136MYC    H2227724   5.196   1.796   1.904  0.0888  0.3583 -2.4062
  136MYC    H2327725   5.138   1.963   1.916 -0.2859 -2.1290 -2.2526
  136MYC    C1227726   5.089   1.832   2.079  0.2318 -0.5036 -0.3929
  136MYC    H2027727   5.100   1.897   2.167  1.4648 -2.9888  1.3971
  136MYC    H2127728   5.117   1.734   2.119 -1.3558 -0.9773 -0.3348
  136MYC    C1127729   4.945   1.829   2.028 -0.4845 -0.4583  0.5605
  136MYC    H1827730   4.946   1.812   1.920  1.5543 -0.9254  0.6053
  136MYC    H1927731   4.909   1.932   2.040 -0.4311 -0.4573  0.7212
  136MYC    C1027732   4.850   1.716   2.087 -0.5736  0.4726  0.1507
  136MYC    H1627733   4.879   1.620   2.043  0.7339  1.3992 -1.1051
  136MYC    H1727734   4.752   1.748   2.051 -1.1200 -1.4304 -0.1479
  136MYC     C927735   4.850   1.708   2.243  0.4546 -0.6472  0.2873
  136MYC    H1427736   4.944   1.656   2.266 -0.1698 -2.6315 -1.3349
  136MYC    H1527737   4.776   1.634   2.275  0.9993 -1.8754 -1.1156
  136MYC     C827738   4.812   1.838   2.326 -0.2240 -0.2349 -0.3535
  136MYC    H1227739   4.702   1.833   2.329 -0.2429  0.3127 -0.0832
  136MYC    H1327740   4.845   1.934   2.284  0.7853  0.4731  1.9310
  136MYC     C727741   4.872   1.833   2.467  0.0009  0.6905  0.4936
  136MYC    H1027742   4.981   1.838   2.455  0.1913  0.5608  1.9580
  136MYC    H1127743   4.841   1.737   2.511  1.0371  1.0240  2.0490
  136MYC     C627744   4.826   1.941   2.565 -0.4971  0.1552  0.6169
  136MYC     H827745   4.716   1.937   2.569 -0.6626  2.7762  0.5637
  136MYC     H927746   4.847   2.036   2.514 -2.3345 -0.3597 -1.2481
  136MYC     C527747   4.888   1.935   2.704  0.4075 -0.8139 -0.0442
  136MYC     H627748   4.848   2.020   2.760  0.5370  0.5353 -1.9123
  136MYC     H727749   4.992   1.968   2.699 -0.6292  2.7969 -0.5497
  136MYC     C427750   4.881   1.792   2.770 -0.4362 -0.4542 -0.4785
  136MYC     H427751   4.961   1.784   2.844 -0.5863 -1.6416 -0.4330
  136MYC     H527752   4.922   1.717   2.701 -0.8739  2.0010 -3.6548
  136MYC     C227753   4.745   1.762   2.818 -0.0116  0.3635  0.2952
  136MYC     H227754   4.676   1.766   2.733 -0.7548  1.5141  0.9259
  136MYC     O327755   4.746   1.637   2.869 -0.6732  0.6303 -0.0376
  136MYC     H327756   4.703   1.640   2.956 -0.7472  2.0033 -0.0995
  136MYC     C127757   4.693   1.857   2.925  0.2559 -0.8993 -0.7017
  136MYC     H127758   4.671   1.957   2.885  2.0251 -0.1766  0.0181
  136MYC    C8127759   4.801   1.875   3.034  0.1608 -0.0878 -0.1319
  136MYC    O8227760   4.854   1.785   3.094  0.1094  0.2456 -1.1407
  136MYC    O8327761   4.823   2.006   3.065 -0.1869  0.6141  0.0517
  136MYC   H10527762   4.892   2.002   3.134  0.6622  0.9287 -0.7493
  136MYC    C2027763   4.563   1.824   2.992  0.3500  0.3614 -0.2581
  136MYC    H3427764   4.491   1.816   2.910  0.7210  0.2714 -0.5750
  136MYC    H3527765   4.567   1.727   3.043  0.7230 -0.2393 -1.4130
  136MYC    C2127766   4.518   1.929   3.104  0.4564 -0.5167 -0.5437
  136MYC    H3627767   4.599   1.935   3.178  0.5178  0.4422 -0.6747
  136MYC    H3727768   4.508   2.030   3.061  1.0156  0.5466  1.6661
  136MYC    C2227769   4.382   1.898   3.166 -0.2654  0.4275 -0.2957
  136MYC    H3827770   4.305   1.894   3.088 -1.5446 -1.8962  0.9761
  136MYC    H3927771   4.395   1.801   3.215  0.5979 -0.3446 -1.9722
  136MYC    C2327772   4.337   1.991   3.281  0.2565 -0.3530 -0.1518
  136MYC    H4027773   4.410   1.965   3.359  2.1493  1.5641 -1.1875
  136MYC    H4127774   4.332   2.095   3.248 -2.1071 -0.4583 -0.3088
  136MYC    C2427775   4.196   1.950   3.340  0.2798  0.1762  0.8428
  136MYC    H4227776   4.120   1.951   3.261  2.9710  2.3537 -2.0066
  136MYC    H4327777   4.200   1.852   3.388 -0.6009  0.9399  2.5424
  136MYC    C2527778   4.148   2.040   3.456  0.5971  0.3722  0.9092
  136MYC    H4427779   4.211   2.011   3.541  1.4998 -0.5119 -0.0335
  136MYC    H4527780   4.167   2.147   3.435 -0.5708  0.3639 -0.3380
  136MYC    C2627781   4.003   2.016   3.492  0.4343  0.1747  0.1646
  136MYC    H4627782   3.932   2.028   3.410 -0.2438 -1.2041  0.5132
  136MYC    H4727783   4.000   1.912   3.525 -0.8418 -0.2847 -1.3298
  136MYC    C2727784   3.981   2.111   3.614 -0.7934  0.2358 -0.0156
  136MYC    H4827785   4.052   2.091   3.696  0.9355  0.8011 -1.3058
  136MYC    H4927786   4.004   2.214   3.583 -1.6988  0.4087 -0.1287
  136MYC    C2827787   3.834   2.108   3.657  0.1563  0.2824  0.1122
  136MYC    H5027788   3.773   2.140   3.571  1.3733  2.3634 -0.0465
  136MYC    H5127789   3.807   2.003   3.674 -0.1584  0.6208  1.8878
  136MYC    C2927790   3.792   2.188   3.773 -0.0182  0.1903  0.5126
  136MYC    H5227791   3.868   2.161   3.847 -0.4623 -0.6784  0.6612
  136MYC    H5327792   3.805   2.295   3.754 -1.3606  0.3072  0.1663
  136MYC    C3027793   3.652   2.172   3.822  0.0332  0.8271  0.4819
  136MYC    H5427794   3.592   2.202   3.736 -1.4839  1.8634  1.8439
  136MYC    H5527795   3.637   2.067   3.847 -1.3032  1.0468  0.6888
  136MYC    C3127796   3.625   2.266   3.938  0.1431  0.0100  0.0726
  136MYC    H5627797   3.704   2.266   4.014 -0.4982  0.4483  0.7544
  136MYC    H5727798   3.607   2.367   3.898 -1.2899 -0.2071  0.1128
  136MYC    C3227799   3.501   2.224   4.011  1.1426 -0.0435  0.6322
  136MYC    H5827800   3.416   2.250   3.947  0.9696  3.8768  2.1718
  136MYC    H5927801   3.493   2.115   4.020  0.5570 -0.1740 -1.1099
  136MYC    C3327802   3.469   2.297   4.132  0.1720  1.3079  0.1287
  136MYC    H6027803   3.524   2.392   4.128  0.9655  1.0681  3.1826
  136MYC    H6127804   3.362   2.319   4.132  0.3022  2.1198 -1.5012
  136MYC    C3427805   3.526   2.225   4.260  0.4108  0.3130  0.3658
  136MYC    H6227806   3.627   2.189   4.239  0.1812 -0.3324  0.3336
  136MYC    H6327807   3.527   2.299   4.340 -0.4654 -0.2935  0.9507
  136MYC    C3527808   3.421   2.113   4.296 -0.4056 -0.1277 -0.7968
  136MYC    H6427809   3.324   2.133   4.249 -0.3826  2.5624  0.1299
  136MYC    H6527810   3.437   2.015   4.249 -1.3620 -0.3369 -0.7005
  136MYC    C3627811   3.395   2.092   4.444 -0.7038 -0.2189 -0.3127
  136MYC    H6627812   3.340   1.997   4.444 -1.7097  0.3311 -1.7586
  136MYC    H6727813   3.496   2.075   4.480 -0.2610 -0.5188 -1.6427
  136MYC    C3727814   3.323   2.211   4.521 -0.8196  0.3464  0.2107
  136MYC    H6827815   3.386   2.300   4.509  1.3724 -1.1909 -0.1947
  136MYC    H6927816   3.220   2.227   4.487 -0.2785  0.6916 -1.3500
  136MYC    C3827817   3.322   2.171   4.670 -0.4600 -0.6246 -0.1152
  136MYC    H7027818   3.264   2.078   4.670 -1.0046 -0.2898 -0.0952
  136MYC    H7127819   3.423   2.153   4.708 -1.0806  1.9994  3.4161
  136MYC    C3927820   3.256   2.280   4.757 -0.5398 -0.0096  0.3720
  136MYC    H7227821   3.315   2.373   4.747  0.8717 -1.0004 -0.9768
  136MYC    H7327822   3.161   2.308   4.712 -0.8558 -1.2660  0.2446
  136MYC    C4027823   3.239   2.245   4.910 -0.5557 -0.4092 -0.1121
  136MYC    H7427824   3.172   2.161   4.935  0.4864 -0.8373  1.4051
  136MYC    H7527825   3.338   2.210   4.941 -0.5974  0.1934  0.7480
  136MYC    C4127826   3.203   2.371   4.978 -0.2459 -0.1398 -0.8825
  136MYC    H7627827   3.285   2.443   4.967 -0.2902 -0.0230 -0.4432
  136MYC    H7727828   3.113   2.423   4.942 -1.4175 -0.3078  1.6253
  136MYC    C4227829   3.172   2.353   5.130 -0.0779  0.2933  0.0425
  136MYC    H7827830   3.101   2.271   5.143  0.8165 -0.9333 -2.1961
  136MYC    H7927831   3.263   2.311   5.175 -1.0863 -0.2369  1.6787
  136MYC    C4327832   3.134   2.487   5.197 -0.2820 -0.1743  0.2119
  136MYC    H8027833   3.103   2.475   5.302 -0.6153  1.6957  0.3640
  136MYC    H8127834   3.044   2.525   5.148 -0.7177 -1.5077 -0.0633
  136MYC    H8227835   3.216   2.558   5.211 -0.2170 -0.7550  3.6256
  137MYC   HH1527836   3.962   2.400   6.038 -0.7340 -0.2023 -1.4111
  137MYC    C8027837   3.894   2.484   6.024 -0.5656  0.2290  0.2383
  137MYC   H10027838   3.789   2.472   6.057 -0.8750 -2.6198 -1.5022
  137MYC   H10127839   3.932   2.561   6.093 -1.6429  0.6752  0.3678
  137MYC    C7927840   3.902   2.521   5.874 -0.5422 -0.2040 -0.3293
  137MYC   H10227841   3.851   2.618   5.866  0.1881  0.1836 -0.3687
  137MYC   H10327842   3.859   2.448   5.805 -0.5864  0.0088 -0.5284
  137MYC    C7827843   4.049   2.557   5.823  0.3974  0.3196  0.4738
  137MYC   HH1427844   4.124   2.499   5.879 -0.3953 -0.6840  0.5322
  137MYC   H10427845   4.068   2.662   5.848 -1.4060  0.7762  0.0975
  137MYC    C7727846   4.065   2.542   5.667 -0.1465  0.1807 -0.0489
  137MYC   H10627847   3.980   2.583   5.611  0.0185  0.5560 -0.0268
  137MYC   H10727848   4.067   2.433   5.661 -1.5995  0.1606 -0.4366
  137MYC    C7627849   4.193   2.609   5.612 -0.2693 -0.0917  0.5178
  137MYC   H10827850   4.280   2.588   5.674  0.6481  2.9860  0.4623
  137MYC   H10927851   4.182   2.718   5.616 -2.1448 -0.0858 -2.0158
  137MYC    C7527852   4.204   2.575   5.463  0.7364  0.1935  0.3110
  137MYC   H11027853   4.108   2.612   5.426 -0.2755 -0.4093  2.2122
  137MYC   H11127854   4.225   2.469   5.445 -1.8855  0.1992 -3.9921
  137MYC    C7427855   4.307   2.660   5.386 -0.2522  0.3778 -0.4106
  137MYC   H11227856   4.411   2.644   5.417  0.2960  0.2082 -2.2002
  137MYC   H11327857   4.290   2.768   5.395 -3.1049 -0.1168  1.2595
  137MYC    C7327858   4.301   2.642   5.232  0.2244 -0.2091  0.9722
  137MYC   HH1327859   4.198   2.665   5.205  0.9569  0.5822 -1.3722
  137MYC   H11427860   4.318   2.537   5.204  2.5108  0.6311 -1.2348
  137MYC    C7227861   4.388   2.730   5.140 -0.7284  0.4692  0.0848
  137MYC   H11527862   4.490   2.706   5.172 -0.7867  2.0394  1.5972
  137MYC   H11627863   4.373   2.832   5.179  1.0311  0.0853  1.9443
  137MYC    C7127864   4.375   2.714   4.993  0.3494  0.1640 -0.3412
  137MYC   H11727865   4.273   2.738   4.962 -0.3444 -3.2392 -1.0885
  137MYC   H11827866   4.391   2.609   4.964 -0.0073  0.5657 -2.1074
  137MYC    C7027867   4.483   2.795   4.911  0.0652 -0.0150  0.0054
  137MYC   H11927868   4.585   2.782   4.950 -0.3582 -1.3586  0.7219
  137MYC   H12027869   4.460   2.903   4.914  1.1324  0.2580 -0.9536
  137MYC    C6927870   4.478   2.766   4.761  0.0257  0.2297  0.4585
  137MYC   H12127871   4.379   2.788   4.721  0.2539  1.9965  0.7616
  137MYC   H12227872   4.491   2.660   4.736  0.3173  0.6421 -1.2837
  137MYC    C6827873   4.584   2.850   4.684 -0.4906 -0.8392  0.0441
  137MYC   HH1227874   4.676   2.807   4.726  0.7895  0.5940 -1.1702
  137MYC   H12327875   4.590   2.957   4.704  0.8542 -0.7123 -0.9214
  137MYC    C6727876   4.587   2.813   4.535  0.0649 -0.1505 -0.1639
  137MYC   H12427877   4.496   2.849   4.486 -0.7227 -1.9925 -0.1455
  137MYC   H12527878   4.595   2.704   4.529  1.9033  0.0474 -2.9932
  137MYC    C6627879   4.699   2.877   4.455  0.4947  0.1439  0.6364
  137MYC   H12627880   4.795   2.851   4.501  0.8566  0.2692 -0.0366
  137MYC   H12727881   4.683   2.985   4.461 -1.9363 -0.1190 -0.1132
  137MYC    C6527882   4.696   2.824   4.306  0.0053  0.6905  0.1714
  137MYC   H12827883   4.596   2.849   4.271 -1.2752 -3.5002  0.2736
  137MYC   H12927884   4.705   2.715   4.314 -0.9894  0.6668  1.2395
  137MYC    C6427885   4.816   2.878   4.225  0.1077  0.8338 -0.2045
  137MYC   H13027886   4.903   2.837   4.276  0.3547  0.0923 -1.1819
  137MYC   H13127887   4.827   2.986   4.241 -0.6805  0.6199  2.2356
  137MYC    C6327888   4.821   2.832   4.087  0.0681  0.6432 -0.4332
  137MYC   HH1127889   4.726   2.848   4.035 -0.5102  0.3833  0.5189
  137MYC   H13227890   4.841   2.724   4.089 -0.6336  0.5045 -0.6765
  137MYC    C6227891   4.925   2.902   4.008  0.3726 -0.0550 -0.4817
  137MYC   H13327892   5.024   2.888   4.053 -0.9337 -0.3611  2.5343
  137MYC   H13427893   4.907   3.010   4.020 -1.3538 -0.4755  1.2407
  137MYC    C6127894   4.915   2.874   3.853 -0.8557 -0.0492 -0.4921
  137MYC   H13527895   4.823   2.926   3.823 -0.1373  1.4004 -0.2901
  137MYC   H13627896   4.916   2.765   3.845  1.4960 -0.0992 -0.3951
  137MYC    C6027897   5.043   2.941   3.796  0.2674 -0.4319  0.1121
  137MYC   H13727898   5.135   2.926   3.851  0.6079  0.5578 -0.1688
  137MYC    C5827899   5.052   2.976   3.653  0.3952  0.3114  0.3562
  137MYC   H13827900   4.960   2.955   3.600 -0.5785 -0.6565  2.3223
  137MYC    C5927901   5.036   3.084   3.760 -0.3340  0.2963 -0.6589
  137MYC   H13927902   5.117   3.156   3.762 -0.8791  1.0205 -2.3358
  137MYC   H14027903   4.934   3.121   3.765 -0.5621 -0.5016  2.5226
  137MYC    C5727904   5.183   2.958   3.571  0.0219 -0.5006  0.7954
  137MYC   HH1027905   5.181   2.851   3.546 -1.0062 -0.0093 -1.4725
  137MYC   H14127906   5.275   2.984   3.625  0.9960  2.5541 -1.9723
  137MYC    C5627907   5.174   3.047   3.446  0.7649  0.2115 -0.3860
  137MYC   H14227908   5.123   3.140   3.474  0.2247 -0.3042  0.4022
  137MYC   H14327909   5.104   2.994   3.380  0.1072 -1.5786  1.5983
  137MYC    C5527910   5.314   3.061   3.379 -0.5624 -0.4381  0.2417
  137MYC   H14427911   5.342   2.957   3.360  0.1299 -0.3452  0.7385
  137MYC   H14527912   5.392   3.105   3.441 -1.2042  0.7014  0.2548
  137MYC    C5427913   5.309   3.128   3.239  0.0655  0.1838 -0.2030
  137MYC   H14627914   5.309   3.237   3.247 -2.4832  0.1879  0.5921
  137MYC   H14727915   5.208   3.107   3.204 -0.4337 -2.0675  2.1992
  137MYC    C5327916   5.412   3.081   3.139 -0.1817  0.1375  0.6399
  137MYC   H14827917   5.417   2.972   3.142 -0.7598  0.0414 -0.8641
  137MYC   H14927918   5.508   3.115   3.180  0.7822 -1.8750  0.1635
  137MYC    C5227919   5.400   3.134   2.988 -0.1050 -0.1807 -0.6972
  137MYC    H9927920   5.379   3.241   2.980  0.3193 -0.1603 -1.7964
  137MYC   H15027921   5.312   3.092   2.936 -0.2761  0.9911 -1.3885
  137MYC    C5127922   5.529   3.110   2.908  0.1577  0.7442  0.0487
  137MYC    H9727923   5.582   3.018   2.936  0.5123  0.9044 -0.0915
  137MYC    H9827924   5.592   3.195   2.938  0.0088  0.1491  2.2133
  137MYC    C5027925   5.494   3.111   2.754  0.3055 -0.0453 -0.8512
  137MYC    H9527926   5.425   3.194   2.733  0.0781  0.2204  0.8015
  137MYC    H9627927   5.441   3.021   2.722 -1.7086  0.5979  0.4054
  137MYC    C4927928   5.626   3.125   2.670  0.6423 -0.6844  0.1468
  137MYC    H9327929   5.684   3.033   2.677 -0.5112 -1.5457 -1.1401
  137MYC    H9427930   5.684   3.211   2.707 -1.0278  0.5588  0.0178
  137MYC    C4827931   5.611   3.147   2.524 -0.0394 -0.0279  0.9123
  137MYC    H9127932   5.567   3.247   2.518  0.0807  0.0240  0.8906
  137MYC    H9227933   5.537   3.076   2.485  1.4940 -1.3383  0.2582
  137MYC    C4727934   5.743   3.145   2.452 -0.1356 -0.0140 -0.3677
  137MYC    H8927935   5.803   3.056   2.476 -0.4618 -0.2625 -0.4582
  137MYC    H9027936   5.808   3.224   2.491 -1.6450  2.4062 -2.4411
  137MYC    C4627937   5.731   3.170   2.302 -0.2742 -1.2004  0.9232
  137MYC    H8727938   5.685   3.269   2.291  2.1694 -0.1476 -0.6301
  137MYC    H8827939   5.666   3.098   2.251  0.9318 -0.6370 -1.6054
  137MYC    C4527940   5.869   3.160   2.234 -0.3152  0.1004 -0.6323
  137MYC    H8527941   5.897   3.054   2.238  0.4964  0.1710 -2.7324
  137MYC    H8627942   5.921   3.223   2.307  0.9981  1.0264 -2.2782
  137MYC    C4427943   5.892   3.231   2.096  0.9559  0.7897  0.0361
  137MYC    H8327944   5.997   3.230   2.065  1.6941 -1.4227  2.2791
  137MYC    H8427945   5.856   3.333   2.115 -0.4343  0.1315  1.1714
  137MYC    C1827946   5.789   3.190   1.982 -0.1446  0.5111  0.6172
  137MYC    H3127947   5.715   3.122   2.024 -0.6754  1.6395  1.5888
  137MYC    C1727948   5.757   3.293   1.867 -0.1043 -0.1040  0.3979
  137MYC    H3027949   5.813   3.386   1.865 -3.3841  2.0069 -0.4672
  137MYC    C1927950   5.838   3.168   1.839 -0.9027 -0.1200 -0.1476
  137MYC    H3227951   5.945   3.183   1.824 -0.1023 -1.6374  3.1510
  137MYC    H3327952   5.801   3.086   1.779 -2.4154 -0.0528  0.6403
  137MYC    C1627953   5.620   3.311   1.813  0.2279 -0.0193 -0.2773
  137MYC    H2827954   5.573   3.215   1.788 -0.0593 -0.0192  0.2436
  137MYC    H2927955   5.624   3.364   1.717 -0.7519 -0.3560 -0.5144
  137MYC    C1527956   5.521   3.382   1.904  0.3380  0.3720  0.1110
  137MYC    H2627957   5.439   3.423   1.844 -0.7944 -2.3027 -0.3177
  137MYC    H2727958   5.567   3.472   1.947 -2.1316  1.8898 -0.2197
  137MYC    C1427959   5.458   3.304   2.022 -0.6560  0.3272  0.8613
  137MYC    H2427960   5.541   3.293   2.092 -2.2477 -3.2326  2.4328
  137MYC    H2527961   5.456   3.201   1.985 -0.3660  0.1331  1.3734
  137MYC    C1327962   5.333   3.350   2.099 -0.0008 -0.6523 -0.2386
  137MYC    H2227963   5.250   3.340   2.029 -0.6839 -1.5301  0.6800
  137MYC    H2327964   5.352   3.454   2.127 -0.8302 -0.8453  1.1068
  137MYC    C1227965   5.313   3.278   2.237 -0.3588 -0.5014  0.3470
  137MYC    H2027966   5.408   3.289   2.289  0.1787  0.7545 -0.8512
  137MYC    H2127967   5.322   3.169   2.238  0.1985 -0.4513  0.8547
  137MYC    C1127968   5.184   3.323   2.303 -0.9082 -0.5481  0.1783
  137MYC    H1827969   5.093   3.287   2.253  0.9178 -3.8187 -1.1121
  137MYC    H1927970   5.188   3.432   2.309  1.7073 -0.4242 -1.9563
  137MYC    C1027971   5.169   3.268   2.451 -0.2586 -0.0498  1.2101
  137MYC    H1627972   5.088   3.327   2.495  1.3088  2.3543  1.0233
  137MYC    H1727973   5.262   3.280   2.508  0.8490 -0.3523 -0.4516
  137MYC     C927974   5.116   3.121   2.459 -0.5232 -0.1200 -0.6108
  137MYC    H1427975   5.183   3.046   2.417  0.3005 -1.7227  3.1333
  137MYC    H1527976   5.012   3.115   2.422 -1.3578  3.3651  0.7550
  137MYC     C827977   5.121   3.077   2.609 -0.2675 -0.3935  0.4429
  137MYC    H1227978   5.221   3.099   2.647 -0.8215  2.1172  0.6128
  137MYC    H1327979   5.120   2.967   2.619  0.1328 -0.3317  1.1987
  137MYC     C727980   5.012   3.135   2.699 -1.1121 -0.7575 -0.5728
  137MYC    H1027981   4.917   3.134   2.645 -2.0210 -0.3047  0.9513
  137MYC    H1127982   5.024   3.243   2.712 -0.0444 -0.9919  0.5747
  137MYC     C627983   4.996   3.067   2.843  0.0047 -0.1486  0.3136
  137MYC     H827984   5.088   3.076   2.901 -0.5616 -2.0025  1.6048
  137MYC     H927985   4.985   2.958   2.832  2.0885 -0.3480 -0.1963
  137MYC     C527986   4.893   3.135   2.942  0.4064  0.0823  0.6604
  137MYC     H627987   4.793   3.122   2.898 -0.7417 -1.3535  3.4810
  137MYC     H727988   4.901   3.244   2.943  1.0012  0.0857 -0.9911
  137MYC     C427989   4.887   3.061   3.083  0.7933 -1.0661 -0.0698
  137MYC     H427990   4.989   3.065   3.123  0.6913  0.3396  0.1105
  137MYC     H527991   4.862   2.956   3.066 -0.8103 -0.5795 -0.8853
  137MYC     C227992   4.785   3.133   3.189 -0.2485  0.2555 -0.0963
  137MYC     H227993   4.805   3.241   3.190  2.8135 -0.2010  1.2796
  137MYC     O327994   4.659   3.114   3.136  0.2305  0.6660 -0.2296
  137MYC     H327995   4.633   3.022   3.157 -1.7324  1.1508 -0.3017
  137MYC     C127996   4.788   3.072   3.326  0.0844  0.9349  0.4907
  137MYC     H127997   4.893   3.069   3.355 -0.1911  0.6467  1.5044
  137MYC    C8127998   4.752   2.915   3.329 -0.8540 -0.7518  0.4158
  137MYC    O8227999   4.636   2.885   3.310  1.2368 -0.6466 -0.0461
  137MYC    O8328000   4.849   2.841   3.384  0.2259 -0.1478 -0.3002
  137MYC   H10528001   4.807   2.755   3.401  1.3546 -0.8834 -1.0976
  137MYC    C2028002   4.728   3.149   3.448  0.4121 -0.2610 -0.0554
  137MYC    H3428003   4.751   3.086   3.534  2.0991  0.1981 -0.1393
  137MYC    H3528004   4.783   3.242   3.468  1.2102 -0.6635 -0.3391
  137MYC    C2128005   4.577   3.176   3.448  0.0970 -0.2796 -0.3718
  137MYC    H3628006   4.546   3.249   3.372 -1.6464  1.6679  2.0298
  137MYC    H3728007   4.523   3.081   3.436 -2.4110  0.4203  3.3095
  137MYC    C2228008   4.524   3.237   3.582 -0.3203  0.1648  0.1600
  137MYC    H3828009   4.565   3.336   3.608 -3.2928  1.0291  2.0819
  137MYC    H3928010   4.420   3.256   3.555  0.3490  0.6647 -2.2955
  137MYC    C2328011   4.531   3.147   3.712 -0.0016  0.1002 -0.1588
  137MYC    H4028012   4.501   3.044   3.689 -0.5425 -0.5310  2.9266
  137MYC    H4128013   4.635   3.140   3.745 -0.2068 -0.9616  0.3087
  137MYC    C2428014   4.465   3.210   3.837  0.1834  0.3626  0.4190
  137MYC    H4228015   4.527   3.296   3.863  1.5673 -0.0399 -1.3028
  137MYC    H4328016   4.362   3.239   3.816 -0.5237  0.0641  3.1869
  137MYC    C2528017   4.461   3.120   3.956 -1.0163 -0.4039  0.0686
  137MYC    H4428018   4.408   3.027   3.932  0.1515 -0.8563 -0.8239
  137MYC    H4528019   4.568   3.101   3.969 -0.9405  0.3939  0.7286
  137MYC    C2628020   4.402   3.184   4.079 -0.2744  0.5978 -0.0423
  137MYC    H4628021   4.457   3.277   4.093 -0.4383  0.6198  0.4766
  137MYC    H4728022   4.295   3.206   4.066 -0.5123 -1.2632 -1.5474
  137MYC    C2728023   4.399   3.101   4.203  0.4216 -0.8063  0.1302
  137MYC    H4828024   4.341   3.010   4.185 -0.9300 -0.3362  1.8808
  137MYC    H4928025   4.498   3.079   4.245  0.9384  0.0410 -0.5806
  137MYC    C2828026   4.324   3.176   4.325  0.0236  0.5258 -0.5355
  137MYC    H5028027   4.365   3.274   4.352 -0.5106  0.6614 -0.2037
  137MYC    H5128028   4.219   3.189   4.295 -1.3746 -3.8590  1.5116
  137MYC    C2928029   4.319   3.086   4.457 -0.3770 -0.6387 -0.3408
  137MYC    H5228030   4.274   2.994   4.420  0.0226 -0.4663 -1.3023
  137MYC    H5328031   4.421   3.073   4.497 -0.3294 -0.2810 -0.3346
  137MYC    C3028032   4.223   3.147   4.563 -0.4633  0.1701  0.0048
  137MYC    H5428033   4.266   3.248   4.570 -0.4229  0.1594 -0.0843
  137MYC    H5528034   4.128   3.155   4.511 -0.1569  1.8568 -0.3570
  137MYC    C3128035   4.204   3.069   4.693 -0.1940  0.0192  0.2466
  137MYC    H5628036   4.163   2.971   4.666  1.6526 -0.5289 -0.7135
  137MYC    H5728037   4.303   3.062   4.739 -0.0847  0.8544  0.1388
  137MYC    C3228038   4.099   3.121   4.784 -0.2093 -0.0577  0.9429
  137MYC    H5828039   4.129   3.225   4.805  1.1270 -0.1516 -0.3595
  137MYC    H5928040   4.000   3.122   4.737 -0.5148 -1.7696  1.4940
  137MYC    C3328041   4.071   3.035   4.902  0.0423 -0.1314 -0.3479
  137MYC    H6028042   4.045   2.932   4.875  0.6071 -0.6671  1.0808
  137MYC    H6128043   4.163   3.032   4.961  0.9851  0.4879 -1.7375
  137MYC    C3428044   3.956   3.081   5.006 -0.2345  0.4641  0.1745
  137MYC    H6228045   3.984   3.179   5.045 -0.2534  1.0443 -1.1953
  137MYC    H6328046   3.855   3.080   4.963 -0.3004 -4.1072 -0.0558
  137MYC    C3528047   3.962   2.978   5.122  0.3571  0.3188 -0.0485
  137MYC    H6428048   3.938   2.880   5.078 -0.8105  0.6902 -0.2757
  137MYC    H6528049   4.060   2.975   5.171  1.0101  0.1106 -1.3234
  137MYC    C3628050   3.859   3.024   5.222  0.5102 -0.3065  0.3030
  137MYC    H6628051   3.867   3.129   5.251  0.6371 -0.4900  0.9438
  137MYC    H6728052   3.760   3.014   5.175  1.2205 -2.4236 -0.8755
  137MYC    C3728053   3.845   2.936   5.343  0.2192  0.0437  0.1823
  137MYC    H6828054   3.937   2.925   5.402  1.3875 -0.5214 -1.6658
  137MYC    H6928055   3.770   2.978   5.411 -2.0821 -1.6276 -1.1945
  137MYC    C3828056   3.795   2.798   5.311  0.2306  0.0983  0.4966
  137MYC    H7028057   3.697   2.819   5.267  0.2517 -0.6071  0.0921
  137MYC    H7128058   3.858   2.738   5.244  0.5373  1.5504 -0.5537
  137MYC    C3928059   3.774   2.717   5.439 -0.1911 -0.0691 -0.1966
  137MYC    H7228060   3.778   2.613   5.403  1.9642 -0.2239  0.3311
  137MYC    H7328061   3.865   2.728   5.499  0.6641  1.5492 -1.7006
  137MYC    C4028062   3.646   2.752   5.528 -0.1274 -0.1108 -0.0734
  137MYC    H7428063   3.664   2.842   5.587 -1.4351 -0.0495  0.2633
  137MYC    H7528064   3.567   2.775   5.455 -1.6475 -0.0476  1.5286
  137MYC    C4128065   3.600   2.637   5.618 -0.4041  0.3834  0.7207
  137MYC    H7628066   3.689   2.592   5.663  0.3657  0.4193 -0.6994
  137MYC    H7728067   3.537   2.667   5.703  0.3107  1.6230  0.8426
  137MYC    C4228068   3.518   2.527   5.541 -0.7374  0.2066 -0.0070
  137MYC    H7828069   3.430   2.560   5.485 -1.6364 -2.0680 -0.0515
  137MYC    H7928070   3.589   2.489   5.467  0.5228 -1.5012  1.9500
  137MYC    C4328071   3.479   2.405   5.631  0.2535  0.5413  0.4406
  137MYC    H8028072   3.562   2.339   5.658 -0.0268  0.6712  1.6968
  137MYC    H8128073   3.409   2.344   5.573  0.6752  0.2931  0.1907
  137MYC    H8228074   3.427   2.438   5.722 -3.2491 -1.3247 -0.6864
  138MYC   HH1528075   4.342   3.048   5.702  0.8461 -0.7480  1.4897
  138MYC    C8028076   4.234   3.030   5.711  0.5688  0.0749  0.1068
  138MYC   H10028077   4.231   2.929   5.754 -0.1665 -0.4705 -1.1794
  138MYC   H10128078   4.182   3.097   5.781  1.3115 -0.5471  1.2941
  138MYC    C7928079   4.149   3.032   5.574 -0.9146  0.8331 -0.5299
  138MYC   H10228080   4.044   3.014   5.600 -0.7795  1.8236  0.8860
  138MYC   H10328081   4.188   2.948   5.515  1.6544  1.4823  0.1204
  138MYC    C7828082   4.158   3.167   5.492 -0.2268  0.0379  0.2084
  138MYC   HH1428083   4.160   3.248   5.566  3.3804  1.2109 -0.9692
  138MYC   H10428084   4.066   3.175   5.433  0.0143  2.5656  0.0439
  138MYC    C7728085   4.290   3.177   5.408  0.0351  0.1126 -0.6538
  138MYC   H10628086   4.298   3.078   5.362  0.0432 -0.7870  1.1981
  138MYC   H10728087   4.374   3.190   5.478 -0.5804  1.3485 -0.1183
  138MYC    C7628088   4.301   3.275   5.290  0.0105  0.0042 -0.6565
  138MYC   H10828089   4.338   3.364   5.341 -0.3865 -0.8694  1.2318
  138MYC   H10928090   4.200   3.305   5.259  0.3870  1.3551 -0.6054
  138MYC    C7528091   4.398   3.222   5.183 -0.0604  0.6142 -0.2129
  138MYC   H11028092   4.364   3.123   5.150  2.4577 -0.1533 -0.7172
  138MYC   H11128093   4.496   3.206   5.229 -1.8276 -1.8429  3.1900
  138MYC    C7428094   4.406   3.318   5.065 -0.3247 -0.4231  0.2461
  138MYC   H11228095   4.445   3.414   5.100  0.0197 -0.3401 -0.3541
  138MYC   H11328096   4.308   3.341   5.023  0.5007  1.7560 -0.6349
  138MYC    C7328097   4.494   3.266   4.943  0.3986 -0.6369  0.0016
  138MYC   HH1328098   4.459   3.171   4.900 -1.2347  0.2552 -0.7433
  138MYC   H11428099   4.590   3.241   4.989  1.0136  0.0306 -0.8882
  138MYC    C7228100   4.509   3.362   4.825 -0.6040  0.5219 -0.3712
  138MYC   H11528101   4.566   3.448   4.861 -1.5710  0.8477  0.3970
  138MYC   H11628102   4.405   3.385   4.798 -0.8498 -1.4172 -1.2894
  138MYC    C7128103   4.595   3.305   4.699 -0.1828 -0.4448 -0.0026
  138MYC   H11728104   4.551   3.208   4.674 -0.1256 -0.3957 -0.2874
  138MYC   H11828105   4.701   3.294   4.723 -0.0715  1.6617  0.7540
  138MYC    C7028106   4.593   3.400   4.578  0.4703  0.7860 -0.3152
  138MYC   H11928107   4.636   3.496   4.610  0.8242  0.6053 -0.2421
  138MYC   H12028108   4.489   3.423   4.551  0.5524 -0.0348 -1.3934
  138MYC    C6928109   4.672   3.331   4.470  0.0804  0.4629 -0.3766
  138MYC   H12128110   4.644   3.225   4.473  2.1877 -0.1355  1.8176
  138MYC   H12228111   4.780   3.333   4.492  0.5257 -3.1270 -1.5816
  138MYC    C6828112   4.664   3.393   4.337 -0.0208  0.3082  0.2498
  138MYC   HH1228113   4.683   3.500   4.350  0.0423  0.2304  0.8463
  138MYC   H12328114   4.560   3.390   4.302  0.2959  2.2921 -0.9948
  138MYC    C6728115   4.746   3.338   4.220 -0.3081  0.3687 -0.4459
  138MYC   H12428116   4.697   3.244   4.193  3.0696 -2.3358  2.0444
  138MYC   H12528117   4.849   3.317   4.249 -0.7272  0.0908  0.9160
  138MYC    C6628118   4.749   3.434   4.096  0.6366 -0.2096 -0.2849
  138MYC   H12628119   4.798   3.526   4.128 -0.6785  0.3490  0.2069
  138MYC   H12728120   4.648   3.464   4.064  0.6769 -1.9428 -2.2586
  138MYC    C6528121   4.812   3.381   3.980 -0.9053 -0.0031  0.1227
  138MYC   H12828122   4.755   3.293   3.948  0.1308 -0.8520  0.5308
  138MYC   H12928123   4.910   3.356   4.023 -0.3270 -0.2506 -1.3040
  138MYC    C6428124   4.824   3.483   3.867 -1.1706 -0.0690  0.3535
  138MYC   H13028125   4.868   3.578   3.899 -0.9845  0.2192 -0.7322
  138MYC   H13128126   4.723   3.507   3.834 -0.1463  0.9160 -2.3060
  138MYC    C6328127   4.904   3.410   3.749  0.0981 -0.2480 -0.3111
  138MYC   HH1128128   4.847   3.322   3.717  1.5903 -1.8281  1.1632
  138MYC   H13228129   4.995   3.370   3.797 -0.1409 -1.4863 -0.8725
  138MYC    C6228130   4.939   3.514   3.638 -0.2119  0.1198 -0.5577
  138MYC   H13328131   4.986   3.605   3.677  0.1068 -0.4944  0.5345
  138MYC   H13428132   4.850   3.548   3.584  2.4073  3.0984 -3.4781
  138MYC    C6128133   5.034   3.456   3.532  0.1122 -0.1436 -0.7310
  138MYC   H13528134   5.014   3.349   3.517 -1.9558 -0.3796  2.6321
  138MYC   H13628135   5.133   3.463   3.580 -0.3784  1.7782  0.1048
  138MYC    C6028136   5.032   3.531   3.395 -0.1906  0.3378  0.4698
  138MYC   H13728137   5.065   3.634   3.402 -1.0375  0.5943  0.8254
  138MYC    C5828138   5.066   3.457   3.268  0.4420  0.6344  0.7336
  138MYC   H13828139   5.079   3.350   3.281 -1.2106  0.0702 -1.7149
  138MYC    C5928140   4.920   3.489   3.305 -0.6396 -0.4098  0.0900
  138MYC   H13928141   4.876   3.567   3.243 -1.0672  0.7135  1.7495
  138MYC   H14028142   4.862   3.405   3.344  0.0128 -0.6931  0.4621
  138MYC    C5728143   5.148   3.533   3.167 -0.0262 -0.4892  1.0060
  138MYC   HH1028144   5.254   3.532   3.198 -0.1223  3.1278  1.8945
  138MYC   H14128145   5.114   3.636   3.161 -4.3204 -1.7680  0.1988
  138MYC    C5628146   5.118   3.471   3.024  0.5693  0.2228 -0.1995
  138MYC   H14228147   5.010   3.478   3.005  0.2985  1.4716  1.5388
  138MYC   H14328148   5.141   3.363   3.028 -0.6206 -0.0273  0.6209
  138MYC    C5528149   5.190   3.559   2.919 -0.4542  0.3542  0.3494
  138MYC   H14428150   5.291   3.585   2.953 -0.6075 -0.2138  1.2703
  138MYC   H14528151   5.131   3.650   2.902 -0.0884  0.5891  0.3292
  138MYC    C5428152   5.204   3.489   2.785 -0.8699  0.4103 -0.1413
  138MYC   H14628153   5.110   3.450   2.746  0.2440 -1.6067 -0.9479
  138MYC   H14728154   5.263   3.399   2.803  0.6512  1.2480 -0.7402
  138MYC    C5328155   5.285   3.566   2.674 -0.1212  0.2266 -0.4181
  138MYC   H14828156   5.253   3.669   2.651  0.9967  0.9856  1.2243
  138MYC   H14928157   5.278   3.516   2.577  3.6404 -1.4520  0.0302
  138MYC    C5228158   5.431   3.584   2.707  0.3925  0.5245  0.3152
  138MYC    H9928159   5.488   3.491   2.710  0.2912  0.3655 -1.3754
  138MYC   H15028160   5.452   3.632   2.803  0.4093 -1.4477  1.3510
  138MYC    C5128161   5.504   3.659   2.600 -0.5673  0.0623 -0.2544
  138MYC    H9728162   5.598   3.703   2.635 -0.5737 -0.6024  0.6384
  138MYC    H9828163   5.438   3.744   2.578  1.5739  1.6349 -0.8748
  138MYC    C5028164   5.534   3.584   2.461  0.7915  0.4072 -0.2144
  138MYC    H9528165   5.437   3.569   2.412  0.7938 -2.0145  0.3816
  138MYC    H9628166   5.563   3.480   2.482  0.1561  0.3349  0.3646
  138MYC    C4928167   5.640   3.655   2.370  0.1729  0.7057  0.3590
  138MYC    H9328168   5.738   3.663   2.418  0.3760 -1.7674  0.5050
  138MYC    H9428169   5.608   3.759   2.359  1.1484  1.0733  0.8608
  138MYC    C4828170   5.661   3.579   2.236  0.4688 -0.2924 -0.6190
  138MYC    H9128171   5.566   3.558   2.186 -0.5997 -0.4950  1.3756
  138MYC    H9228172   5.697   3.478   2.259 -0.7533 -0.6665 -0.3048
  138MYC    C4728173   5.766   3.631   2.139 -0.5271  0.2407 -0.3402
  138MYC    H8928174   5.786   3.567   2.053 -0.0777 -1.6940  1.1447
  138MYC    H9028175   5.861   3.641   2.193 -0.5836 -0.5600 -0.0841
  138MYC    C4628176   5.752   3.776   2.089  0.0586  0.0257  0.3451
  138MYC    H8728177   5.849   3.808   2.048 -0.6909  0.8713 -0.8293
  138MYC    H8828178   5.734   3.843   2.174  2.1704  1.5977 -0.3498
  138MYC    C4528179   5.651   3.800   1.968 -0.0807 -0.1740  0.1583
  138MYC    H8528180   5.667   3.722   1.893 -0.2989 -0.2878  0.2302
  138MYC    H8628181   5.672   3.899   1.926 -0.0707 -0.3724 -0.3144
  138MYC    C4428182   5.498   3.801   2.020 -0.9028  0.0400 -0.0257
  138MYC    H8328183   5.486   3.855   2.115 -0.8698 -0.3990  0.2301
  138MYC    H8428184   5.460   3.701   2.044  2.2194 -1.2823 -0.1440
  138MYC    C1828185   5.399   3.871   1.919 -0.5457 -0.1608 -0.5695
  138MYC    H3128186   5.311   3.897   1.978 -0.0536  0.1386  0.0379
  138MYC    C1728187   5.425   3.975   1.815  0.1253 -0.5230  0.0168
  138MYC    H3028188   5.526   4.003   1.788  0.8179 -1.0607  1.9627
  138MYC    C1928189   5.384   3.831   1.778 -0.5853  0.1775 -0.1040
  138MYC    H3228190   5.461   3.770   1.730  0.7988  1.6097  0.2234
  138MYC    H3328191   5.281   3.809   1.755 -0.8653 -1.0602  2.0456
  138MYC    C1628192   5.332   4.096   1.793  0.4850  0.2313 -0.4891
  138MYC    H2828193   5.230   4.058   1.804 -0.5301  2.6665 -0.7507
  138MYC    H2928194   5.345   4.125   1.688  3.5217  1.6221  0.1707
  138MYC    C1528195   5.354   4.219   1.882 -0.3665 -0.0658 -0.3427
  138MYC    H2628196   5.277   4.292   1.854 -1.3812 -0.5920  0.9833
  138MYC    H2728197   5.450   4.268   1.858 -0.9199  0.0190 -2.6593
  138MYC    C1428198   5.339   4.197   2.030  0.6844  0.1825  0.0018
  138MYC    H2428199   5.269   4.113   2.037  2.5897 -1.4888 -0.0500
  138MYC    H2528200   5.283   4.281   2.071  0.5306  0.7545 -1.3393
  138MYC    C1328201   5.466   4.190   2.108  0.6278  0.5739  0.0580
  138MYC    H2228202   5.524   4.283   2.101  0.0471  0.8792 -0.8740
  138MYC    H2328203   5.528   4.111   2.063  1.4838  0.6908  0.9847
  138MYC    C1228204   5.433   4.142   2.256 -0.5617  0.1735 -0.1864
  138MYC    H2028205   5.513   4.071   2.283 -0.2536  0.4506 -0.3543
  138MYC    H2128206   5.339   4.087   2.257 -0.4760  0.0168 -0.7205
  138MYC    C1128207   5.395   4.253   2.363 -0.3837 -0.3823 -0.1622
  138MYC    H1828208   5.304   4.300   2.326  0.0221 -0.0454 -0.7524
  138MYC    H1928209   5.486   4.314   2.367  0.5203 -1.7258  0.6643
  138MYC    C1028210   5.376   4.190   2.508  0.5744  0.1465 -0.1178
  138MYC    H1628211   5.474   4.195   2.558  0.2266  1.4510  0.4621
  138MYC    H1728212   5.336   4.088   2.503 -0.5792  0.6349 -1.7148
  138MYC     C928213   5.294   4.286   2.594  0.7448  0.7199 -0.4426
  138MYC    H1428214   5.202   4.310   2.539 -0.0629 -0.2740  0.4196
  138MYC    H1528215   5.346   4.381   2.604  0.6151  0.5792  2.2807
  138MYC     C828216   5.251   4.248   2.736  0.5927  0.0261  0.1756
  138MYC    H1228217   5.172   4.318   2.766 -0.3474 -0.4018 -1.1882
  138MYC    H1328218   5.327   4.255   2.815 -0.1473  1.2270  0.8078
  138MYC     C728219   5.191   4.110   2.752  0.0287 -0.2984  0.0761
  138MYC    H1028220   5.270   4.039   2.777  1.5205  1.7843  1.6457
  138MYC    H1128221   5.142   4.079   2.659  1.7832  0.0054 -0.9954
  138MYC     C628222   5.097   4.102   2.869  0.7641 -0.2557 -0.0935
  138MYC     H828223   5.011   4.166   2.847  2.6805  2.2118 -0.8677
  138MYC     H928224   5.150   4.137   2.959 -0.9201 -1.9305  1.6437
  138MYC     C528225   5.048   3.958   2.894 -0.1402  0.0639  0.1029
  138MYC     H628226   5.137   3.898   2.913 -1.3353 -1.7140  0.3571
  138MYC     H728227   5.005   3.931   2.796 -1.0005  0.4382  0.3666
  138MYC     C428228   4.939   3.956   3.001  0.3976 -0.6086 -0.1183
  138MYC     H428229   4.894   3.857   2.988  1.0642 -0.9559  0.1585
  138MYC     H528230   4.875   4.038   2.968  1.0493  0.0765  0.2756
  138MYC     C228231   4.980   3.959   3.151 -0.1521 -1.2239 -0.3866
  138MYC     H228232   5.056   3.881   3.169  0.7701 -0.5737 -1.3276
  138MYC     O328233   5.042   4.082   3.182  0.2602  0.1551  0.1884
  138MYC     H328234   4.981   4.135   3.237 -1.4899 -1.9328  0.3948
  138MYC     C128235   4.863   3.937   3.246 -0.1144 -0.2650  0.2314
  138MYC     H128236   4.830   3.834   3.230 -1.7886  0.5066 -1.6022
  138MYC    C8128237   4.749   4.032   3.223  0.6779 -0.0990 -0.1653
  138MYC    O8228238   4.756   4.148   3.230 -0.8497 -0.0761 -0.2998
  138MYC    O8328239   4.634   3.968   3.191  0.0191 -0.2965 -0.7594
  138MYC   H10528240   4.576   4.040   3.162  0.3168 -0.1794 -1.0715
  138MYC    C2028241   4.908   3.949   3.395 -0.4792  0.1246  0.0742
  138MYC    H3428242   5.011   3.911   3.404 -0.9160 -1.6843 -1.9125
  138MYC    H3528243   4.918   4.057   3.412  0.6901  0.1708 -0.7387
  138MYC    C2128244   4.814   3.888   3.505  0.5284 -0.4186 -0.6194
  138MYC    H3628245   4.709   3.902   3.477  0.2274  0.0555  0.6821
  138MYC    H3728246   4.815   3.778   3.505  0.4943 -0.4207  0.1239
  138MYC    C2228247   4.826   3.938   3.649  0.4303 -0.2923  0.4661
  138MYC    H3828248   4.926   3.921   3.690  0.4565 -2.4367 -0.3841
  138MYC    H3928249   4.817   4.048   3.647 -1.6077 -0.4353 -0.7223
  138MYC    C2328250   4.715   3.877   3.741 -0.6511  0.0927  0.4051
  138MYC    H4028251   4.612   3.900   3.712 -0.9018 -0.5907  0.7237
  138MYC    H4128252   4.725   3.769   3.727 -3.5079 -0.3536  1.2778
  138MYC    C2428253   4.746   3.902   3.885  0.0384 -0.4559 -0.0544
  138MYC    H4228254   4.847   3.864   3.906  0.0059 -0.7581 -0.4507
  138MYC    H4328255   4.760   4.009   3.903 -0.9361 -0.5735  1.6635
  138MYC    C2528256   4.639   3.832   3.986 -0.7472 -0.6980 -0.2049
  138MYC    H4428257   4.538   3.873   3.972 -0.6088 -0.4367 -0.4367
  138MYC    H4528258   4.653   3.724   3.977  3.5193 -0.3337  0.0259
  138MYC    C2628259   4.676   3.849   4.135  0.1177  0.1190 -0.8481
  138MYC    H4628260   4.771   3.803   4.164 -0.6495 -0.5612  0.7282
  138MYC    H4728261   4.700   3.955   4.155  1.8985 -0.2498 -0.8281
  138MYC    C2728262   4.576   3.792   4.232  0.2167  0.1948  0.4723
  138MYC    H4828263   4.481   3.846   4.216  1.0230  1.7682  0.7449
  138MYC    H4928264   4.563   3.686   4.209  0.9549  0.4267 -1.1698
  138MYC    C2828265   4.619   3.805   4.374  0.2034  1.0825  0.3246
  138MYC    H5028266   4.707   3.741   4.385 -0.3478  0.5856  2.2809
  138MYC    H5128267   4.657   3.904   4.401  1.9027  0.0960  1.8206
  138MYC    C2928268   4.509   3.763   4.468 -0.3807 -0.2629 -0.1136
  138MYC    H5228269   4.414   3.808   4.435  0.1779 -0.4635 -2.1114
  138MYC    H5328270   4.496   3.658   4.440 -1.0761  0.9408 -5.5373
  138MYC    C3028271   4.547   3.780   4.618 -1.0481 -0.0184 -0.1877
  138MYC    H5428272   4.639   3.721   4.624 -0.9142  0.1630 -0.4495
  138MYC    H5528273   4.585   3.879   4.646 -1.9802  0.2826  0.0291
  138MYC    C3128274   4.442   3.741   4.719  0.6436 -0.6563  0.4310
  138MYC    H5628275   4.360   3.813   4.709  2.2229  1.1421 -0.1821
  138MYC    H5728276   4.411   3.637   4.708 -0.2503 -0.3206 -0.2995
  138MYC    C3228277   4.495   3.746   4.872 -0.4216  0.0830  0.5662
  138MYC    H5828278   4.572   3.668   4.874  0.2943  0.7291  3.8309
  138MYC    H5928279   4.535   3.842   4.907 -0.4873  0.2750  0.1252
  138MYC    C3328280   4.387   3.705   4.978  0.6740  0.0356  0.0929
  138MYC    H6028281   4.307   3.779   4.968  0.6613  0.1026  0.6653
  138MYC    H6128282   4.347   3.606   4.954  0.1808 -0.1670  1.6647
  138MYC    C3428283   4.440   3.716   5.120 -0.2377  0.3056 -0.1720
  138MYC    H6228284   4.525   3.650   5.143 -1.2370 -1.0372 -0.1858
  138MYC    H6328285   4.464   3.820   5.145 -0.5142  0.3009  0.1144
  138MYC    C3528286   4.315   3.672   5.216 -0.1614 -0.1713 -0.1668
  138MYC    H6428287   4.238   3.747   5.201 -1.2112 -1.2792 -0.5060
  138MYC    H6528288   4.266   3.579   5.183  1.4873 -0.9540 -0.5511
  138MYC    C3628289   4.364   3.659   5.364  0.4277  0.3511  0.3347
  138MYC    H6628290   4.436   3.576   5.369  0.4103  0.3070 -0.1173
  138MYC    H6728291   4.414   3.754   5.384 -0.4138  1.3265 -1.9072
  138MYC    C3728292   4.246   3.633   5.475  0.0114  0.5941 -0.0581
  138MYC    H6828293   4.181   3.720   5.461  0.4341  1.1175  1.1057
  138MYC    H6928294   4.170   3.560   5.447 -0.7118  0.0807  2.9648
  138MYC    C3828295   4.302   3.621   5.617  0.0406  0.2426 -0.2856
  138MYC    H7028296   4.352   3.524   5.619  1.7929  1.1027 -0.8226
  138MYC    H7128297   4.366   3.708   5.637 -1.2247  1.7530 -2.3563
  138MYC    C3928298   4.188   3.631   5.722 -0.9651  0.3876 -0.1213
  138MYC    H7228299   4.169   3.738   5.742 -0.2538  0.6281 -0.6873
  138MYC    H7328300   4.094   3.591   5.683 -1.0998  1.6253 -1.1096
  138MYC    C4028301   4.219   3.565   5.862 -0.2879  0.5047 -0.0676
  138MYC    H7428302   4.239   3.459   5.846 -1.3754  0.6421 -2.6772
  138MYC    H7528303   4.303   3.625   5.900  0.8378 -0.8940 -0.2460
  138MYC    C4128304   4.101   3.586   5.964  0.6210 -0.4373 -0.2459
  138MYC    H7628305   4.075   3.692   5.966 -0.8910 -0.7816  1.6125
  138MYC    H7728306   4.013   3.528   5.934  1.5144 -1.3052 -1.2424
  138MYC    C4228307   4.138   3.541   6.109 -0.8032  0.1445 -0.6129
  138MYC    H7828308   4.063   3.580   6.179 -1.7766 -1.9774 -0.3973
  138MYC    H7928309   4.144   3.433   6.125  1.0388  0.4145  0.8178
  138MYC    C4328310   4.273   3.586   6.168 -0.4661  0.3863  0.0623
  138MYC    H8028311   4.307   3.682   6.126  1.3753 -0.3069 -0.1499
  138MYC    H8128312   4.353   3.516   6.143  0.5496  1.5997 -0.2187
  138MYC    H8228313   4.261   3.614   6.273  1.2730 -0.0114  0.3993
  139MYC   HH1528314   4.739   3.737   6.036  1.0404 -0.3967 -2.0273
  139MYC    C8028315   4.643   3.688   6.015  0.5401 -0.1134 -0.5497
  139MYC   H10028316   4.665   3.583   6.034 -0.6697 -0.0460  1.4525
  139MYC   H10128317   4.565   3.708   6.089  1.1560 -0.3039  0.1563
  139MYC    C7928318   4.606   3.716   5.876  0.3169 -1.3468 -0.1123
  139MYC   H10228319   4.539   3.802   5.872 -0.5087 -1.9986 -0.4230
  139MYC   H10328320   4.558   3.623   5.843 -0.3846 -1.2124  0.5070
  139MYC    C7828321   4.717   3.745   5.770 -0.4367  0.8258  0.1690
  139MYC   HH1428322   4.792   3.665   5.776 -1.1288 -0.0292 -1.7931
  139MYC   H10428323   4.769   3.837   5.802 -1.5073  1.6266 -0.3493
  139MYC    C7728324   4.665   3.757   5.624  0.0705 -0.9222 -0.8097
  139MYC   H10628325   4.587   3.834   5.619  0.8521 -0.1331 -1.1760
  139MYC   H10728326   4.621   3.659   5.605 -0.3162 -0.5048 -2.1492
  139MYC    C7628327   4.778   3.790   5.530 -0.6795 -0.6386  0.0308
  139MYC   H10828328   4.859   3.717   5.518 -0.1349 -0.1038  0.3703
  139MYC   H10928329   4.833   3.875   5.572  1.9844 -2.3289  0.1479
  139MYC    C7528330   4.713   3.832   5.394  0.4424  0.3698  0.4456
  139MYC   H11028331   4.639   3.908   5.422  0.8130 -0.3252  3.7855
  139MYC   H11128332   4.652   3.750   5.354  1.2314 -0.1188  0.2262
  139MYC    C7428333   4.812   3.876   5.280  0.5863 -0.1451 -0.6302
  139MYC   H11228334   4.892   3.802   5.281 -1.0520 -2.0219 -0.0113
  139MYC   H11328335   4.847   3.971   5.322 -2.1972  0.7742 -0.1061
  139MYC    C7328336   4.755   3.894   5.134 -0.1321 -0.0788 -0.0424
  139MYC   HH1328337   4.669   3.961   5.136 -2.2794 -2.6595  0.7371
  139MYC   H11428338   4.708   3.802   5.097  2.2145 -0.9250 -1.1357
  139MYC    C7228339   4.861   3.945   5.031  0.2903 -0.2396  0.6235
  139MYC   H11528340   4.952   3.885   5.039 -2.1632 -4.7816 -1.6751
  139MYC   H11628341   4.888   4.049   5.053  1.2132 -0.0437 -1.2040
  139MYC    C7128342   4.810   3.933   4.885  0.2933  0.5024  0.5545
  139MYC   H11728343   4.707   3.972   4.881 -0.7461 -2.1247 -0.5544
  139MYC   H11828344   4.803   3.826   4.866 -0.1442  0.0914  2.7970
  139MYC    C7028345   4.910   4.009   4.794 -0.0469 -0.1519  0.4212
  139MYC   H11928346   4.999   3.945   4.787 -0.8605 -1.2752  0.0255
  139MYC   H12028347   4.931   4.107   4.838 -1.1116  0.3334 -0.0979
  139MYC    C6928348   4.861   4.020   4.643 -0.9523 -0.6084 -0.0836
  139MYC   H12128349   4.774   4.087   4.646  0.4941  1.3021  1.5936
  139MYC   H12228350   4.822   3.925   4.605 -1.2832 -0.3041 -0.5090
  139MYC    C6828351   4.974   4.069   4.551  0.1819  0.3724  0.1245
  139MYC   HH1228352   5.065   4.007   4.557  0.4995  0.9136  1.1186
  139MYC   H12328353   5.004   4.166   4.592  0.1750 -0.0624  1.2095
  139MYC    C6728354   4.938   4.073   4.408 -0.0351  0.3845  0.4116
  139MYC   H12428355   4.855   4.145   4.410  2.1832  3.2625 -1.3209
  139MYC   H12528356   4.890   3.980   4.379 -1.8849  0.9462  1.5204
  139MYC    C6628357   5.042   4.110   4.297 -0.0670 -0.3380  0.3320
  139MYC   H12628358   5.131   4.047   4.302  0.6159  0.4738 -0.9710
  139MYC   H12728359   5.074   4.211   4.327 -1.2448 -0.0779  0.7743
  139MYC    C6528360   4.991   4.125   4.153 -0.2498 -0.6081  0.3929
  139MYC   H12828361   4.903   4.190   4.167  0.5019  1.2331 -2.5800
  139MYC   H12928362   4.953   4.033   4.108 -1.6014 -0.1462  0.5358
  139MYC    C6428363   5.092   4.190   4.052 -0.5039 -0.0069 -0.3767
  139MYC   H13028364   5.194   4.152   4.065  0.0921  1.8283  0.5014
  139MYC   H13128365   5.092   4.294   4.085  2.1901 -0.4260  1.2179
  139MYC    C6328366   5.053   4.166   3.906  0.0020 -0.4227  0.6280
  139MYC   HH1128367   4.945   4.180   3.889  0.6621  1.7823 -2.3899
  139MYC   H13228368   5.082   4.065   3.875 -2.1044 -0.5738 -1.0263
  139MYC    C6228369   5.128   4.260   3.822 -0.3358  1.1600  0.5445
  139MYC   H13328370   5.232   4.259   3.854  0.2314  0.3032 -1.1977
  139MYC   H13428371   5.099   4.363   3.845  2.8652  2.4684 -0.7351
  139MYC    C6128372   5.120   4.234   3.676 -0.4008 -0.0179  0.3120
  139MYC   H13528373   5.026   4.282   3.647 -0.6958 -0.2611  0.8594
  139MYC   H13628374   5.102   4.126   3.666 -0.3295 -0.0526  0.5647
  139MYC    C6028375   5.233   4.275   3.583  0.7996  0.2294  0.9076
  139MYC   H13728376   5.323   4.217   3.602 -0.6017 -2.8331 -0.9561
  139MYC    C5828377   5.200   4.322   3.437 -0.2206  0.5780 -0.4089
  139MYC   H13828378   5.098   4.333   3.400  0.0902  1.7740 -0.9432
  139MYC    C5928379   5.238   4.421   3.541  0.2697  0.1259  0.0091
  139MYC   H13928380   5.339   4.461   3.536  0.5177 -0.2209  1.8149
  139MYC   H14028381   5.167   4.494   3.580  0.6919 -0.5045  2.0432
  139MYC    C5728382   5.298   4.291   3.326 -0.5193  0.0909  0.1530
  139MYC   HH1028383   5.264   4.204   3.269 -0.1387 -0.1730  0.3233
  139MYC   H14128384   5.398   4.280   3.370 -0.8264 -1.1027  0.5765
  139MYC    C5628385   5.300   4.407   3.228  0.7639 -0.1726 -0.4039
  139MYC   H14228386   5.342   4.490   3.285 -1.8240  1.4350 -0.6539
  139MYC   H14328387   5.196   4.437   3.208  0.1592  0.1407  2.7699
  139MYC    C5528388   5.388   4.375   3.102 -0.7249  0.0214  0.6740
  139MYC   H14428389   5.324   4.332   3.024 -0.6526 -0.0506  0.6535
  139MYC   H14528390   5.464   4.301   3.130 -0.1694  0.2360 -0.2219
  139MYC    C5428391   5.449   4.506   3.040 -0.2748  0.5248 -0.6201
  139MYC   H14628392   5.511   4.563   3.111  0.6407 -1.4717  0.2547
  139MYC   H14728393   5.374   4.573   2.996 -0.3022  0.5523 -0.5329
  139MYC    C5328394   5.549   4.470   2.927 -0.0798 -0.1098 -0.2048
  139MYC   H14828395   5.511   4.394   2.858 -0.5920 -1.8805  1.8839
  139MYC   H14928396   5.633   4.421   2.979 -0.0395 -0.4888 -0.6177
  139MYC    C5228397   5.600   4.607   2.868  0.1013  0.0609 -0.0789
  139MYC    H9928398   5.695   4.581   2.820  0.2030  0.2472  0.0187
  139MYC   H15028399   5.625   4.675   2.951  1.1017 -0.2602 -0.1068
  139MYC    C5128400   5.508   4.671   2.758  0.4994  0.3584  0.2534
  139MYC    H9728401   5.408   4.680   2.802 -1.1057  0.0605 -2.9971
  139MYC    H9828402   5.495   4.603   2.673 -2.9543  2.0636 -0.7570
  139MYC    C5028403   5.553   4.803   2.693 -0.1594 -0.6267 -0.0202
  139MYC    H9528404   5.559   4.877   2.774  1.3085 -0.7538  0.0122
  139MYC    H9628405   5.482   4.820   2.611 -3.2540 -2.5776  2.0419
  139MYC    C4928406   5.692   4.805   2.625 -0.2463 -1.0505 -0.4872
  139MYC    H9328407   5.774   4.807   2.698 -1.5161 -0.7496  0.9834
  139MYC    H9428408   5.697   4.902   2.574  3.2877 -0.1016  1.3487
  139MYC    C4828409   5.719   4.706   2.519 -0.0064  1.3608  0.2182
  139MYC    H9128410   5.635   4.694   2.449  0.4566  1.3138 -0.3429
  139MYC    H9228411   5.733   4.605   2.559 -1.3892  0.0623 -2.3079
  139MYC    C4728412   5.844   4.738   2.431 -0.0146 -0.2313  0.2914
  139MYC    H8928413   5.884   4.640   2.404 -0.3514 -0.5948  1.0966
  139MYC    H9028414   5.916   4.801   2.486 -0.6768  1.2358 -0.4791
  139MYC    C4628415   5.807   4.822   2.301 -0.4405  0.9667 -0.1495
  139MYC    H8728416   5.761   4.913   2.341  0.9774  1.5812  0.1463
  139MYC    H8828417   5.739   4.766   2.236 -0.1628  1.8278 -1.2056
  139MYC    C4528418   5.939   4.851   2.215  0.2515 -0.5003 -0.5681
  139MYC    H8528419   6.002   4.762   2.209  1.6028  0.2354  1.6226
  139MYC    H8628420   5.998   4.929   2.265 -1.7146  0.6165  0.1111
  139MYC    C4428421   5.906   4.917   2.080 -0.2682  0.6444 -0.0202
  139MYC    H8328422   5.994   4.976   2.051  0.3025 -0.1794  0.0052
  139MYC    H8428423   5.822   4.984   2.100 -1.5394 -1.1355  0.8579
  139MYC    C1828424   5.879   4.808   1.969 -0.3110 -0.0731 -0.7497
  139MYC    H3128425   5.957   4.733   1.965 -0.5133 -0.3304 -0.1319
  139MYC    C1728426   5.738   4.763   1.940  0.2481  0.9466 -0.2046
  139MYC    H3028427   5.661   4.812   1.999 -1.8492  2.4850 -3.8839
  139MYC    C1928428   5.812   4.853   1.847  0.2587 -0.0730 -0.0962
  139MYC    H3228429   5.771   4.952   1.834  3.1560  0.9167 -3.1963
  139MYC    H3328430   5.839   4.799   1.756 -0.6686  0.2517 -0.5775
  139MYC    C1628431   5.706   4.616   1.914 -0.9204 -0.3721  0.1397
  139MYC    H2828432   5.734   4.562   2.005  1.5250 -1.1556 -1.0095
  139MYC    H2928433   5.771   4.585   1.832 -1.5144  4.0266 -2.3154
  139MYC    C1528434   5.554   4.588   1.891  0.3386  0.5355  0.1528
  139MYC    H2628435   5.547   4.486   1.853 -1.8750  0.4970  0.5455
  139MYC    H2728436   5.508   4.655   1.818 -4.5467 -0.0382  2.2830
  139MYC    C1428437   5.476   4.606   2.024 -0.6229 -0.5377  0.6182
  139MYC    H2428438   5.498   4.702   2.071 -1.3024 -0.0801  0.0331
  139MYC    H2528439   5.514   4.534   2.097  0.5194  0.4478  1.0364
  139MYC    C1328440   5.325   4.588   1.998  0.5498  0.6140 -0.6320
  139MYC    H2228441   5.288   4.485   2.004 -0.9390  1.0600 -1.6325
  139MYC    H2328442   5.305   4.622   1.896 -0.2933  0.2910 -0.5882
  139MYC    C1228443   5.234   4.675   2.093  0.1700 -0.2075 -0.5656
  139MYC    H2028444   5.128   4.673   2.068  0.2469 -1.5318 -0.8958
  139MYC    H2128445   5.269   4.777   2.076  0.5355 -0.6719 -3.0425
  139MYC    C1128446   5.248   4.627   2.237  0.3189 -0.0441  0.2225
  139MYC    H1828447   5.355   4.619   2.256  0.4094  2.2179  1.0024
  139MYC    H1928448   5.198   4.529   2.241 -2.0151  1.1035  0.9058
  139MYC    C1028449   5.188   4.716   2.337  0.0451  0.5279 -0.6284
  139MYC    H1628450   5.083   4.724   2.307 -0.4319  0.0636  0.8349
  139MYC    H1728451   5.228   4.818   2.348 -1.2139  0.8883  0.9852
  139MYC     C928452   5.177   4.648   2.471  0.1175  0.7218  0.1276
  139MYC    H1428453   5.275   4.650   2.519 -0.6068  1.9937  1.6583
  139MYC    H1528454   5.168   4.539   2.473 -0.0577  0.7327  1.9770
  139MYC     C828455   5.082   4.705   2.584 -0.4196  0.1586  0.3631
  139MYC    H1228456   4.979   4.708   2.548 -0.3608 -1.7131 -0.0897
  139MYC    H1328457   5.117   4.808   2.599 -0.9495  0.5355 -0.8486
  139MYC     C728458   5.090   4.626   2.718  0.1235  0.2170 -0.0814
  139MYC    H1028459   5.181   4.653   2.773  1.5367 -1.9871 -1.1764
  139MYC    H1128460   5.094   4.519   2.694 -3.4912  0.2259 -1.2635
  139MYC     C628461   4.967   4.642   2.812 -0.3644 -0.3147  0.9043
  139MYC     H828462   5.002   4.580   2.895  2.5340  0.0490  0.0778
  139MYC     H928463   4.875   4.599   2.771 -0.9268  0.1892  1.6189
  139MYC     C528464   4.930   4.790   2.848 -0.4246 -0.6955 -0.1185
  139MYC     H628465   4.842   4.798   2.913  1.0055  0.7930  1.7633
  139MYC     H728466   4.902   4.840   2.755  1.6165  0.3393 -0.2360
  139MYC     C428467   5.038   4.880   2.920  0.3847  0.2210  0.6161
  139MYC     H428468   4.986   4.976   2.930 -2.5173 -1.1187 -0.3747
  139MYC     H528469   5.118   4.890   2.846  1.1250 -2.2425  0.9810
  139MYC     C228470   5.094   4.832   3.052 -0.3972 -0.3841 -0.8682
  139MYC     H228471   5.013   4.823   3.125 -0.1292 -3.6805 -0.8279
  139MYC     O328472   5.149   4.700   3.038 -0.0811  0.0331  0.0277
  139MYC     H328473   5.077   4.644   3.002 -0.8783 -0.6907  2.5200
  139MYC     C128474   5.194   4.931   3.116  0.5585  0.3928  0.5089
  139MYC     H128475   5.129   5.006   3.161  0.7549  1.5407 -1.0196
  139MYC    C8128476   5.277   5.016   3.009  0.2101  0.2630  0.1351
  139MYC    O8228477   5.350   4.964   2.922  0.1075  0.0633  0.0997
  139MYC    O8328478   5.232   5.141   2.994 -0.1867 -0.0839 -0.2438
  139MYC   H10528479   5.281   5.172   2.916 -2.3858  2.9471 -0.6180
  139MYC    C2028480   5.270   4.866   3.236  0.3595 -0.0638 -0.5808
  139MYC    H3428481   5.325   4.775   3.209 -0.0443 -0.2771 -0.6911
  139MYC    H3528482   5.352   4.938   3.247  0.7974 -0.6011 -0.1809
  139MYC    C2128483   5.190   4.859   3.365  0.1794 -0.1281 -0.0094
  139MYC    H3628484   5.134   4.952   3.382  1.9851  0.5854  2.6983
  139MYC    H3728485   5.132   4.769   3.344  0.8736 -0.8594  1.0775
  139MYC    C2228486   5.284   4.848   3.491  0.2310  0.0323  0.5385
  139MYC    H3828487   5.363   4.778   3.463 -0.7091 -0.7582 -0.2126
  139MYC    H3928488   5.340   4.942   3.493  1.9651 -0.8995 -0.9320
  139MYC    C2328489   5.214   4.803   3.623 -0.0229  0.8518 -0.1360
  139MYC    H4028490   5.154   4.888   3.659 -0.0974  0.7629 -0.0500
  139MYC    H4128491   5.157   4.712   3.604 -0.7959  1.0774  0.9935
  139MYC    C2428492   5.312   4.760   3.728  0.3929 -0.1575  0.0880
  139MYC    H4228493   5.374   4.675   3.697  0.8531  0.1923  0.0369
  139MYC    H4328494   5.381   4.842   3.753  0.3971 -0.0784 -0.1771
  139MYC    C2528495   5.245   4.707   3.859 -0.2095  0.1570  0.1899
  139MYC    H4428496   5.183   4.784   3.906 -0.0740 -0.1666  0.9188
  139MYC    H4528497   5.174   4.631   3.825  0.5067 -0.0974 -0.7890
  139MYC    C2628498   5.340   4.638   3.956  0.4060 -0.0865 -0.4918
  139MYC    H4628499   5.370   4.541   3.915  1.1269 -0.0015 -0.1831
  139MYC    H4728500   5.430   4.698   3.973  1.2468 -1.4887  0.1781
  139MYC    C2728501   5.279   4.603   4.091 -0.1021 -0.3823  0.2942
  139MYC    H4828502   5.246   4.693   4.144  2.0757  0.4598  0.3143
  139MYC    H4928503   5.190   4.542   4.071  0.4326 -1.3358  0.7594
  139MYC    C2828504   5.372   4.520   4.190  0.2593 -0.0876 -0.0090
  139MYC    H5028505   5.428   4.442   4.137  1.6989  1.0670 -0.2285
  139MYC    H5128506   5.439   4.590   4.240  3.2654 -0.3277 -3.2887
  139MYC    C2928507   5.296   4.454   4.302  0.1608 -0.1270 -0.3590
  139MYC    H5228508   5.213   4.522   4.324  0.0863  0.3057 -1.8770
  139MYC    H5328509   5.261   4.358   4.261 -0.4916 -0.0293 -0.0505
  139MYC    C3028510   5.376   4.434   4.433 -0.2380 -0.6448 -0.7564
  139MYC    H5428511   5.454   4.361   4.411 -2.6238 -3.0798 -1.8004
  139MYC    H5528512   5.411   4.531   4.469 -3.9702  0.9116 -0.8631
  139MYC    C3128513   5.282   4.363   4.538 -0.7363 -0.4710  0.0793
  139MYC    H5628514   5.183   4.409   4.542 -0.8966 -0.8410  0.3192
  139MYC    H5728515   5.271   4.260   4.504 -1.4962  0.2068 -1.8639
  139MYC    C3228516   5.346   4.357   4.677 -0.0938 -0.6292 -0.9610
  139MYC    H5828517   5.445   4.311   4.681 -0.9353 -2.4414  2.7039
  139MYC    H5928518   5.365   4.458   4.713  0.2501 -1.4674  1.3556
  139MYC    C3328519   5.251   4.300   4.781 -0.8546  0.0513 -0.0584
  139MYC    H6028520   5.177   4.380   4.794 -1.5611 -0.2931 -1.7886
  139MYC    H6128521   5.209   4.211   4.734  0.1543 -0.1489 -0.6162
  139MYC    C3428522   5.310   4.268   4.919  0.2853  0.5408 -0.3063
  139MYC    H6228523   5.400   4.206   4.920 -0.9042 -1.2848 -0.9309
  139MYC    H6328524   5.338   4.362   4.968  0.6165  1.2808 -1.8708
  139MYC    C3528525   5.208   4.214   5.020 -0.7436 -0.0727  0.3530
  139MYC    H6428526   5.129   4.287   5.039 -1.6122 -1.2389  1.4229
  139MYC    H6528527   5.159   4.123   4.982  0.8874 -1.2066  0.8371
  139MYC    C3628528   5.291   4.171   5.148  1.0733  0.8010 -0.0156
  139MYC    H6628529   5.364   4.094   5.119  0.6615  0.7681 -1.0082
  139MYC    H6728530   5.340   4.260   5.189  2.5579  0.0751 -0.1309
  139MYC    C3728531   5.191   4.109   5.249  0.1940 -0.1463  0.5113
  139MYC    H6828532   5.104   4.173   5.269  0.3623 -0.3859  2.1259
  139MYC    H6928533   5.147   4.017   5.208  1.6682 -0.2139 -1.0212
  139MYC    C3828534   5.249   4.071   5.379  0.1543  0.1234 -0.0423
  139MYC    H7028535   5.303   3.977   5.365  0.3616 -0.1034  1.9976
  139MYC    H7128536   5.324   4.143   5.411  1.1911 -1.6422  1.7108
  139MYC    C3928537   5.147   4.065   5.502  0.2678  0.3634 -0.1792
  139MYC    H7228538   5.125   4.165   5.543  1.9425  1.6145 -2.1082
  139MYC    H7328539   5.044   4.033   5.479  0.2727  1.9859 -2.9424
  139MYC    C4028540   5.213   3.983   5.619  0.3256  0.1974 -0.0901
  139MYC    H7428541   5.235   3.885   5.574  0.9920  1.6834 -3.2714
  139MYC    H7528542   5.309   4.019   5.657  0.9656 -1.3173 -0.1834
  139MYC    C4128543   5.116   3.977   5.737  0.8442  0.7389  1.1430
  139MYC    H7628544   5.084   4.079   5.764 -0.0684  0.6642  0.4324
  139MYC    H7728545   5.027   3.926   5.698  2.1676 -1.7487  1.1923
  139MYC    C4228546   5.170   3.900   5.857 -0.0924  0.3809  0.6233
  139MYC    H7828547   5.082   3.865   5.912  0.4817 -1.6588  0.3433
  139MYC    H7928548   5.214   3.804   5.827 -0.7392  0.1072  0.5335
  139MYC    C4328549   5.260   3.988   5.946 -0.1942 -0.0328  0.9633
  139MYC    H8028550   5.301   3.929   6.029  2.0622 -0.8869 -0.6519
  139MYC    H8128551   5.198   4.067   5.990  0.0719 -0.2822  1.7943
  139MYC    H8228552   5.335   4.039   5.884  0.9800 -2.3919  0.2990
  140MYC   HH1528553   4.880   4.807   5.807 -0.2883 -0.4966 -0.6141
  140MYC    C8028554   4.902   4.700   5.812  0.3248 -0.3807 -0.7682
  140MYC   H10028555   4.995   4.689   5.755  0.4504  0.1884 -0.6781
  140MYC   H10128556   4.913   4.681   5.919  0.5534  0.6248 -0.6063
  140MYC    C7928557   4.790   4.613   5.746 -1.2351  0.0313  0.5514
  140MYC   H10228558   4.693   4.647   5.784 -1.4834  0.3392 -0.3430
  140MYC   H10328559   4.812   4.513   5.785 -2.4990  0.2406  1.8811
  140MYC    C7828560   4.783   4.606   5.593 -0.0607 -0.0807 -0.7218
  140MYC   HH1428561   4.709   4.530   5.566  1.9629 -1.9060 -1.4018
  140MYC   H10428562   4.876   4.581   5.540 -0.7710  1.3445 -2.7354
  140MYC    C7728563   4.740   4.737   5.527  0.3778 -0.2194 -0.0504
  140MYC   H10628564   4.813   4.813   5.556 -0.3865  0.3285  0.4685
  140MYC   H10728565   4.637   4.765   5.552  0.6726 -1.3661  2.7739
  140MYC    C7628566   4.733   4.720   5.371 -0.1368  0.3020  0.0121
  140MYC   H10828567   4.665   4.638   5.344 -0.6613  1.2408 -1.6139
  140MYC   H10928568   4.832   4.688   5.335 -1.1290 -3.3328  0.1358
  140MYC    C7528569   4.672   4.827   5.287 -0.2995 -0.3027  0.2094
  140MYC   H11028570   4.733   4.917   5.303  0.7585 -0.9190 -0.2392
  140MYC   H11128571   4.569   4.851   5.316  0.0482  0.8938  0.5112
  140MYC    C7428572   4.690   4.807   5.133 -0.1520 -0.3069 -0.4668
  140MYC   H11228573   4.665   4.703   5.108  1.2512 -0.8047  0.0828
  140MYC   H11328574   4.795   4.813   5.103 -0.3013 -1.6755 -1.3411
  140MYC    C7328575   4.604   4.902   5.045  0.1676 -0.1220  0.2943
  140MYC   HH1328576   4.625   5.007   5.066 -3.4279  0.4208  1.9547
  140MYC   H11428577   4.498   4.885   5.064 -0.0864  0.9337 -0.1249
  140MYC    C7228578   4.625   4.877   4.897 -0.2049 -0.5774  1.2205
  140MYC   H11528579   4.622   4.769   4.877  2.4440 -0.6721  0.8938
  140MYC   H11628580   4.725   4.917   4.873 -0.9440  0.7591  0.2366
  140MYC    C7128581   4.532   4.952   4.797  0.5722  0.2199 -0.8773
  140MYC   H11728582   4.513   5.057   4.823  0.4932  0.1599 -0.6883
  140MYC   H11828583   4.436   4.902   4.817  0.5787  0.1975 -0.9056
  140MYC    C7028584   4.568   4.927   4.646 -0.1420  0.5337 -0.0716
  140MYC   H11928585   4.585   4.821   4.625  2.3453  0.9734 -0.5649
  140MYC   H12028586   4.667   4.968   4.620  0.0498  0.3688  0.3856
  140MYC    C6928587   4.455   4.983   4.558 -0.0348 -0.4969  0.8857
  140MYC   H12128588   4.441   5.087   4.588 -2.5393  0.4442 -2.8020
  140MYC   H12228589   4.366   4.929   4.592 -1.6330  3.1244  2.9658
  140MYC    C6828590   4.488   4.977   4.408 -1.0834 -0.2943 -0.8350
  140MYC   HH1228591   4.511   4.872   4.387 -0.7836 -0.1943 -1.0008
  140MYC   H12328592   4.575   5.039   4.387 -0.6361 -0.2592  0.9296
  140MYC    C6728593   4.377   5.024   4.307 -0.1062 -0.2767 -0.3453
  140MYC   H12428594   4.337   5.125   4.325  2.6889  0.7871  0.6230
  140MYC   H12528595   4.296   4.951   4.306  0.3165 -0.7484 -0.3819
  140MYC    C6628596   4.452   5.031   4.176  0.1799 -0.1494 -0.1798
  140MYC   H12628597   4.477   4.931   4.140 -0.0374 -1.0218  1.9680
  140MYC   H12728598   4.545   5.089   4.181 -0.0868  0.4314 -1.3997
  140MYC    C6528599   4.368   5.098   4.058 -0.1030 -0.6686 -0.4144
  140MYC   H12828600   4.314   5.184   4.098  2.2019 -0.1339  1.8505
  140MYC   H12928601   4.288   5.028   4.030 -1.1251  0.6009 -0.7648
  140MYC    C6428602   4.440   5.149   3.925 -0.6065 -0.4964 -0.4331
  140MYC   H13028603   4.509   5.070   3.894 -0.4818 -0.1473 -1.0549
  140MYC   H13128604   4.499   5.240   3.946 -1.5825 -0.1048  0.7712
  140MYC    C6328605   4.353   5.180   3.805 -0.4002  0.1889 -0.0237
  140MYC   HH1128606   4.260   5.220   3.847 -1.5468  0.2434 -2.4347
  140MYC   H13228607   4.328   5.083   3.761  1.9570 -0.7391  0.5388
  140MYC    C6228608   4.403   5.272   3.696  0.2947 -0.2137  0.8780
  140MYC   H13328609   4.501   5.240   3.659 -0.1024  0.0988 -0.5161
  140MYC   H13428610   4.415   5.377   3.726 -2.0281  0.7498 -1.1781
  140MYC    C6128611   4.291   5.292   3.587 -0.0583  1.0933 -0.3207
  140MYC   H13528612   4.207   5.331   3.645 -0.1386  0.3239  0.0974
  140MYC   H13628613   4.267   5.190   3.554 -0.0137  0.1975  2.1932
  140MYC    C6028614   4.342   5.389   3.471 -0.3245  0.1249 -0.5506
  140MYC   H13728615   4.358   5.490   3.509 -3.4281  0.4899 -0.0157
  140MYC    C5828616   4.387   5.352   3.329 -0.1253 -0.1236 -0.3063
  140MYC   H13828617   4.372   5.248   3.301 -1.5781 -0.3479  1.1493
  140MYC    C5928618   4.257   5.417   3.347  0.6297 -0.0824  0.8093
  140MYC   H13928619   4.248   5.516   3.305  0.6188 -0.2982  0.2987
  140MYC   H14028620   4.166   5.357   3.346  1.2511 -1.0777  1.6045
  140MYC    C5728621   4.501   5.421   3.256 -0.3050  0.3379  0.4132
  140MYC   HH1028622   4.597   5.380   3.290  0.4706  0.3801 -1.5736
  140MYC   H14128623   4.515   5.528   3.275  0.7907  0.9565 -3.1544
  140MYC    C5628624   4.488   5.403   3.098  0.0213 -0.5903  0.6584
  140MYC   H14228625   4.412   5.480   3.083  1.0267  0.0541 -1.4420
  140MYC   H14328626   4.446   5.310   3.059  0.6333  0.2577 -2.2419
  140MYC    C5528627   4.621   5.425   3.023 -1.1308 -0.4896  0.0040
  140MYC   H14428628   4.699   5.371   3.078 -1.7663 -0.9307  0.4946
  140MYC   H14528629   4.652   5.530   3.023  2.2084 -1.3608 -0.0915
  140MYC    C5428630   4.619   5.377   2.870  0.1155  0.8323  0.1425
  140MYC   H14628631   4.542   5.424   2.807  2.4645  2.3782 -1.7503
  140MYC   H14728632   4.590   5.272   2.876  1.6276  0.4730  2.1685
  140MYC    C5328633   4.755   5.404   2.811 -0.8840  0.1155 -1.0061
  140MYC   H14828634   4.826   5.361   2.884  0.8995  1.3518 -1.9297
  140MYC   H14928635   4.782   5.511   2.807  2.0980 -0.5806 -3.2409
  140MYC    C5228636   4.759   5.351   2.669 -0.8581 -0.0952 -1.1009
  140MYC    H9928637   4.680   5.384   2.601 -0.3814  5.0912  0.4131
  140MYC   H15028638   4.750   5.242   2.673 -1.8022 -0.0171 -0.9794
  140MYC    C5128639   4.895   5.395   2.606 -0.6498  0.0061  0.0127
  140MYC    H9728640   4.898   5.504   2.601 -1.9041 -0.0085 -2.3884
  140MYC    H9828641   4.898   5.370   2.500  0.3640 -1.3142  0.3217
  140MYC    C5028642   5.021   5.334   2.685  0.3670 -0.0173  0.2230
  140MYC    H9528643   4.997   5.241   2.738  2.0954 -0.7311 -0.2081
  140MYC    H9628644   5.053   5.412   2.755  1.0811  1.3643 -1.5510
  140MYC    C4928645   5.140   5.309   2.588 -0.5039  0.3715  0.6839
  140MYC    H9328646   5.179   5.404   2.551 -0.9194  0.7266  1.1502
  140MYC    H9428647   5.108   5.260   2.496  0.1406  1.1431  0.0315
  140MYC    C4828648   5.258   5.236   2.657 -0.2763  0.3058 -0.1688
  140MYC    H9128649   5.214   5.146   2.703 -1.3465  0.3534 -1.0444
  140MYC    H9228650   5.296   5.297   2.739  1.5699  0.2221 -0.9323
  140MYC    C4728651   5.377   5.205   2.566  0.3740  0.7905  0.2902
  140MYC    H8928652   5.460   5.167   2.627 -0.7824  2.0211  2.7441
  140MYC    H9028653   5.406   5.304   2.528 -1.9827  1.0506 -1.0438
  140MYC    C4628654   5.346   5.115   2.436 -0.2221  0.5971  0.1871
  140MYC    H8728655   5.274   5.162   2.368 -1.5001 -0.3648  0.8234
  140MYC    H8828656   5.298   5.020   2.463  0.0346  0.2287 -0.6310
  140MYC    C4528657   5.475   5.079   2.360  0.2223  0.6035 -0.2032
  140MYC    H8528658   5.544   5.022   2.423  0.2065 -0.2765 -0.9610
  140MYC    H8628659   5.522   5.171   2.324  1.2654  0.3706  0.5092
  140MYC    C4428660   5.459   5.005   2.228 -0.0371  0.3763 -0.1361
  140MYC    H8328661   5.403   4.914   2.252 -0.5910  0.5204 -0.8382
  140MYC    H8428662   5.551   4.980   2.174  0.1897  0.4823  0.1974
  140MYC    C1828663   5.375   5.083   2.129  0.1495 -0.4643 -0.1130
  140MYC    H3128664   5.271   5.086   2.159 -0.1657  1.3520 -1.2138
  140MYC    C1728665   5.424   5.194   2.040  0.6039 -0.6307 -0.1050
  140MYC    H3028666   5.517   5.230   2.082  0.7627 -0.3929 -0.6433
  140MYC    C1928667   5.408   5.055   1.983 -0.3524  0.5548 -0.1299
  140MYC    H3228668   5.501   5.008   1.954 -0.0992  2.0048 -1.8909
  140MYC    H3328669   5.322   5.033   1.920 -0.6284 -0.9150  0.7123
  140MYC    C1628670   5.337   5.307   1.978 -0.9090 -0.1311 -0.0821
  140MYC    H2828671   5.236   5.269   1.961 -0.8887 -1.4661  2.2908
  140MYC    H2928672   5.378   5.328   1.879 -2.1459 -0.6645 -0.7210
  140MYC    C1528673   5.340   5.439   2.063  0.2643  1.2969  0.2780
  140MYC    H2628674   5.436   5.492   2.053  0.1627  1.3977 -0.2118
  140MYC    H2728675   5.327   5.416   2.169  2.4965 -1.2584  0.0921
  140MYC    C1428676   5.221   5.529   2.017  0.3380 -0.5153  0.6867
  140MYC    H2428677   5.137   5.458   2.022  1.6541 -2.2432 -0.4229
  140MYC    H2528678   5.246   5.572   1.920  1.5176  0.9069  1.5832
  140MYC    C1328679   5.205   5.645   2.119  0.2902  0.3843  0.7391
  140MYC    H2228680   5.152   5.729   2.074  1.7671  1.3385  0.6917
  140MYC    H2328681   5.302   5.696   2.116  1.1559 -1.2390  0.3340
  140MYC    C1228682   5.163   5.611   2.267 -0.0556 -0.6541  0.5813
  140MYC    H2028683   5.237   5.546   2.315  0.1594 -0.8996 -0.0577
  140MYC    H2128684   5.070   5.554   2.268 -0.1200 -0.5449  1.0219
  140MYC    C1128685   5.138   5.737   2.352 -0.6044 -0.6421 -0.6007
  140MYC    H1828686   5.112   5.814   2.279  0.0798  0.3166  0.1418
  140MYC    H1928687   5.235   5.777   2.384 -1.3284  1.4029 -0.8485
  140MYC    C1028688   5.039   5.724   2.473 -0.0703 -0.5433 -0.5468
  140MYC    H1628689   5.071   5.666   2.560 -0.0946 -1.6523 -1.2697
  140MYC    H1728690   4.946   5.686   2.431 -0.7388 -0.0992  0.4823
  140MYC     C928691   5.003   5.863   2.524  0.2558 -0.5132  0.4462
  140MYC    H1428692   4.938   5.905   2.447  1.1646 -0.9494 -0.5701
  140MYC    H1528693   5.086   5.930   2.552  0.4875  0.2323 -1.8552
  140MYC     C828694   4.930   5.853   2.661  0.7287  0.1687  0.2635
  140MYC    H1228695   4.996   5.786   2.718  1.2318 -0.3938 -0.9514
  140MYC    H1328696   4.835   5.799   2.651 -1.0748  2.7500  2.1366
  140MYC     C728697   4.919   5.986   2.742 -0.3717  0.4429 -0.2774
  140MYC    H1028698   4.860   6.053   2.679 -0.1944 -0.5714 -1.5645
  140MYC    H1128699   5.016   6.035   2.753  0.7757 -1.8179  0.1832
  140MYC     C628700   4.864   5.981   2.886 -0.4617 -0.1290  1.0337
  140MYC     H828701   4.840   6.086   2.910 -0.4148  0.6247 -1.9121
  140MYC     H928702   4.945   5.962   2.958  2.0312 -1.2842 -1.8614
  140MYC     C528703   4.736   5.901   2.906  0.5101 -0.1919  0.2507
  140MYC     H628704   4.753   5.798   2.871  1.0933 -0.2185  0.5944
  140MYC     H728705   4.660   5.939   2.837 -0.5291 -0.2556  1.3106
  140MYC     C428706   4.682   5.899   3.053 -0.1542  0.0849  0.3825
  140MYC     H428707   4.579   5.864   3.039  0.9892 -2.5367 -2.7416
  140MYC     H528708   4.674   5.999   3.096  0.3385  0.5083 -0.4931
  140MYC     C228709   4.757   5.806   3.149  0.2761 -0.3551 -0.2257
  140MYC     H228710   4.762   5.712   3.092 -0.7863 -1.8084  1.9310
  140MYC     O328711   4.884   5.858   3.189 -0.4808 -0.5358 -0.0272
  140MYC     H328712   4.894   5.945   3.146 -0.4016 -0.6673 -0.2735
  140MYC     C128713   4.683   5.768   3.281  0.2116 -0.7489  0.0962
  140MYC     H128714   4.588   5.719   3.253 -0.3607 -0.4465  1.4184
  140MYC    C8128715   4.637   5.888   3.362 -0.4137 -0.2933  0.2856
  140MYC    O8228716   4.718   5.954   3.430 -0.1406 -0.1725 -0.3275
  140MYC    O8328717   4.509   5.912   3.352 -0.8309  0.2395 -0.1506
  140MYC   H10528718   4.491   5.997   3.395 -0.9789  0.2145 -0.1639
  140MYC    C2028719   4.762   5.658   3.360  0.2609 -0.3826  0.1597
  140MYC    H3428720   4.759   5.565   3.302 -1.6028 -0.4235  0.2478
  140MYC    H3528721   4.864   5.697   3.363  0.6200 -1.2360 -0.5706
  140MYC    C2128722   4.714   5.630   3.509  0.5040  0.7283 -0.3875
  140MYC    H3628723   4.713   5.728   3.558  1.3165  1.0302 -0.9501
  140MYC    H3728724   4.610   5.596   3.507  0.2343  1.3593 -4.4054
  140MYC    C2228725   4.813   5.534   3.578  0.1945  0.1331 -0.3049
  140MYC    H3828726   4.791   5.433   3.542 -0.2444  0.3003 -0.5034
  140MYC    H3928727   4.918   5.557   3.555  0.9955  0.7697  3.3220
  140MYC    C2328728   4.787   5.536   3.731 -0.2732 -0.3442  0.6829
  140MYC    H4028729   4.810   5.639   3.761  0.5345 -0.0814 -0.7438
  140MYC    H4128730   4.682   5.513   3.750 -0.5649  0.0870 -0.3538
  140MYC    C2428731   4.888   5.442   3.802  0.0161 -1.1809 -0.8537
  140MYC    H4228732   4.870   5.342   3.763 -1.0789 -0.8888 -1.1114
  140MYC    H4328733   4.993   5.474   3.795  0.0244 -0.7437  0.7805
  140MYC    C2528734   4.849   5.438   3.957 -0.0287  0.2101 -0.1188
  140MYC    H4428735   4.833   5.537   4.003  1.5801  0.5393 -0.2047
  140MYC    H4528736   4.750   5.393   3.952  0.0222 -0.0912  1.1123
  140MYC    C2628737   4.952   5.358   4.037 -0.5054  0.2484 -0.4951
  140MYC    H4628738   4.957   5.262   3.984 -1.8923  0.2013 -0.5813
  140MYC    H4728739   5.046   5.414   4.038  0.5596 -1.4399  0.8041
  140MYC    C2728740   4.920   5.344   4.184  0.1608 -0.0793 -0.5840
  140MYC    H4828741   4.893   5.441   4.228  0.9477 -0.7073  1.3887
  140MYC    H4928742   4.840   5.273   4.206  0.9665 -0.7032  0.4537
  140MYC    C2828743   5.047   5.282   4.260 -0.4162  0.1142  0.3217
  140MYC    H5028744   5.075   5.192   4.205 -1.4994 -0.4286  0.6473
  140MYC    H5128745   5.141   5.336   4.241  0.8924 -1.9327  0.6908
  140MYC    C2928746   5.015   5.250   4.404  0.1289 -0.8343  1.1851
  140MYC    H5228747   4.974   5.348   4.433 -2.0545 -0.5675 -2.1633
  140MYC    H5328748   4.930   5.182   4.417  0.2089 -1.5206 -1.3716
  140MYC    C3028749   5.139   5.193   4.481  0.2353 -0.4743  0.9554
  140MYC    H5428750   5.177   5.099   4.440 -0.0858 -0.2156  0.0454
  140MYC    H5528751   5.222   5.259   4.452 -0.7660  1.5838  2.5053
  140MYC    C3128752   5.120   5.189   4.630  0.1156 -0.4274  0.4502
  140MYC    H5628753   5.124   5.294   4.662 -0.4632 -0.4272  0.5326
  140MYC    H5728754   5.020   5.151   4.656 -0.6646  0.6539 -0.8529
  140MYC    C3228755   5.227   5.102   4.711 -0.1489 -0.3597  0.1676
  140MYC    H5828756   5.203   4.996   4.695  1.4631 -0.8336  0.7722
  140MYC    H5928757   5.327   5.105   4.666 -0.9500 -1.2943 -1.7992
  140MYC    C3328758   5.225   5.148   4.857  0.1448 -0.0759 -0.2611
  140MYC    H6028759   5.248   5.255   4.864  1.5006 -0.4157  0.7496
  140MYC    H6128760   5.124   5.127   4.893  0.5065 -1.7289 -0.1266
  140MYC    C3428761   5.324   5.085   4.948  0.1428  0.9667 -0.0968
  140MYC    H6228762   5.307   4.977   4.941  1.5458  0.5124  2.3023
  140MYC    H6328763   5.421   5.121   4.911  0.8389 -1.0011 -0.2614
  140MYC    C3528764   5.314   5.128   5.096  0.1426  0.8964 -0.8172
  140MYC    H6428765   5.342   5.233   5.105 -0.2257  0.8726  1.0255
  140MYC    H6528766   5.221   5.094   5.143  0.2835 -3.4028 -3.0857
  140MYC    C3628767   5.419   5.047   5.179 -0.0868  0.0963  0.1795
  140MYC    H6628768   5.424   4.941   5.153 -1.6540 -0.0070  0.1730
  140MYC    H6728769   5.518   5.085   5.152 -1.0993  1.5006 -1.8420
  140MYC    C3728770   5.411   5.067   5.330  0.2362  0.1017 -0.0561
  140MYC    H6828771   5.387   5.170   5.358 -0.3052 -0.5198  2.0139
  140MYC    H6928772   5.318   5.021   5.365 -1.1369  0.3771 -3.0621
  140MYC    C3828773   5.532   5.015   5.417 -0.0127  0.3644  0.0671
  140MYC    H7028774   5.633   5.041   5.382  0.5253  0.6320  1.7678
  140MYC    H7128775   5.534   5.064   5.514  2.2380  1.7035 -0.5692
  140MYC    C3928776   5.533   4.862   5.446 -0.2476  0.2134  0.4935
  140MYC    H7228777   5.434   4.816   5.441 -0.7468  1.3373 -1.0330
  140MYC    H7328778   5.582   4.821   5.357 -3.8878  0.1826 -1.7055
  140MYC    C4028779   5.618   4.817   5.573 -0.3354  0.8988 -0.1317
  140MYC    H7428780   5.550   4.836   5.656 -2.3639 -0.7302 -1.3371
  140MYC    H7528781   5.634   4.709   5.564  2.8413  1.3835 -1.8868
  140MYC    C4128782   5.763   4.882   5.584  0.4878  0.0368  0.3705
  140MYC    H7628783   5.827   4.835   5.508  0.5077  0.1965  0.2884
  140MYC    H7728784   5.765   4.992   5.575  1.3073  0.0091  0.0938
  140MYC    C4228785   5.834   4.858   5.721  0.3344  0.5307  0.4262
  140MYC    H7828786   5.771   4.886   5.806 -1.8090  1.4619 -1.3961
  140MYC    H7928787   5.863   4.752   5.719 -1.2954  0.0039  1.6973
  140MYC    C4328788   5.966   4.934   5.723  0.2959  0.7578  0.3361
  140MYC    H8028789   6.008   4.931   5.824  1.1168  1.3770  0.0235
  140MYC    H8128790   5.948   5.041   5.705 -0.1319  1.0794  2.3572
  140MYC    H8228791   6.034   4.894   5.647  1.6336 -3.1143  3.2459
  141MYC   HH1528792   4.926   5.868   5.798  0.1743 -0.9224  2.8669
  141MYC    C8028793   4.863   5.956   5.818 -0.2624 -0.4387 -0.1403
  141MYC   H10028794   4.757   5.929   5.814 -0.7991  1.4784 -0.0071
  141MYC   H10128795   4.885   5.983   5.922 -1.8391 -1.7268  0.5621
  141MYC    C7928796   4.898   6.069   5.718  0.2462 -0.3810  0.0357
  141MYC   H10228797   5.001   6.103   5.733 -0.5684  2.8348 -0.9964
  141MYC   H10328798   4.826   6.148   5.739  0.3660 -0.3117  0.1895
  141MYC    C7828799   4.880   6.018   5.569  0.1552 -0.5830 -0.6455
  141MYC   HH1428800   4.782   5.972   5.551  0.3521 -0.2625 -2.7821
  141MYC   H10428801   4.942   5.929   5.552 -1.1521 -1.5087 -0.7571
  141MYC    C7728802   4.920   6.110   5.452 -0.6774 -0.3607  0.1557
  141MYC   H10628803   5.012   6.167   5.473 -0.9718 -0.2344  1.1655
  141MYC   H10728804   4.844   6.188   5.444 -1.4074 -1.0191  0.5919
  141MYC    C7628805   4.933   6.038   5.312 -0.2318  0.2805 -0.2632
  141MYC   H10828806   4.847   5.972   5.297  1.1829 -1.4668 -1.0365
  141MYC   H10928807   5.024   5.978   5.315  0.2985  1.0441 -0.5592
  141MYC    C7528808   4.934   6.143   5.193  0.7362 -0.7379 -0.9194
  141MYC   H11028809   4.998   6.226   5.223 -0.2143  0.0596 -1.0498
  141MYC   H11128810   4.833   6.183   5.178  0.9546  0.2227  0.0745
  141MYC    C7428811   4.966   6.082   5.056 -0.0469  0.0992  0.4611
  141MYC   H11228812   4.887   6.007   5.043  0.1610  0.1225 -1.1955
  141MYC   H11328813   5.057   6.020   5.056 -1.7159 -2.5268  0.3846
  141MYC    C7328814   4.969   6.184   4.931 -0.0487 -0.6902 -0.8757
  141MYC   HH1328815   5.051   6.254   4.951 -0.6190  0.0916 -1.2232
  141MYC   H11428816   4.869   6.227   4.922  0.6004  1.1269  0.1065
  141MYC    C7228817   5.002   6.110   4.802  0.4305  0.6638 -0.4686
  141MYC   H11528818   4.941   6.021   4.782  1.6163 -0.3986  0.5420
  141MYC   H11628819   5.102   6.069   4.815 -0.4799 -1.4924  0.0813
  141MYC    C7128820   5.005   6.203   4.676  0.6731  0.2942  0.0444
  141MYC   H11728821   5.083   6.277   4.698  3.2912 -1.3600 -2.8621
  141MYC   H11828822   4.905   6.247   4.664  0.3766 -0.9300 -2.7594
  141MYC    C7028823   5.056   6.126   4.549  0.3119  0.1695  0.0954
  141MYC   H11928824   5.009   6.028   4.541 -1.8294  1.1961 -0.7063
  141MYC   H12028825   5.164   6.118   4.562  0.3298 -0.2129 -0.3035
  141MYC    C6928826   5.029   6.209   4.422  0.6155 -0.0971  0.5000
  141MYC   H12128827   5.048   6.314   4.445 -0.3663  0.1105  0.4158
  141MYC   H12228828   4.921   6.202   4.404  0.9093 -2.4384 -0.8812
  141MYC    C6828829   5.091   6.166   4.284 -0.5458  0.5514  0.8139
  141MYC   HH1228830   5.043   6.068   4.270 -2.1942  1.0287  2.7096
  141MYC   H12328831   5.196   6.139   4.302 -0.6860 -0.3838  0.2868
  141MYC    C6728832   5.070   6.260   4.158  0.2875  0.6042 -0.1001
  141MYC   H12428833   5.093   6.360   4.196  0.3923 -0.1217  1.9083
  141MYC   H12528834   4.965   6.277   4.133  0.4664  3.5848  0.7849
  141MYC    C6628835   5.160   6.223   4.044 -0.9221  0.0775  0.4993
  141MYC   H12628836   5.125   6.126   4.008 -0.0124  0.3246 -1.1104
  141MYC   H12728837   5.262   6.203   4.078  0.1102  0.2764 -2.2618
  141MYC    C6528838   5.176   6.323   3.930  0.7812 -0.1025 -0.2127
  141MYC   H12828839   5.244   6.405   3.956  0.8892 -0.6235  1.2878
  141MYC   H12928840   5.080   6.353   3.889  0.3884 -3.0232 -1.6627
  141MYC    C6428841   5.224   6.255   3.794 -0.1988 -0.6671  0.7121
  141MYC   H13028842   5.145   6.187   3.761 -0.4163 -0.8370  1.5445
  141MYC   H13128843   5.316   6.196   3.799 -1.7818 -3.2120  1.7485
  141MYC    C6328844   5.242   6.379   3.694 -0.1741  0.4309 -0.5938
  141MYC   HH1128845   5.335   6.431   3.719  0.5129 -0.6963 -0.7279
  141MYC   H13228846   5.174   6.461   3.718  0.0311  0.2263  0.8063
  141MYC    C6228847   5.240   6.344   3.544  0.1786  0.6357 -0.3832
  141MYC   H13328848   5.143   6.305   3.511 -1.0104  2.1760  1.1025
  141MYC   H13428849   5.306   6.258   3.527 -0.5809 -0.0245 -0.0588
  141MYC    C6128850   5.290   6.469   3.466  0.5962 -0.4843 -0.1230
  141MYC   H13528851   5.376   6.517   3.515 -0.4807  2.3432 -0.8164
  141MYC   H13628852   5.212   6.544   3.447  0.5514 -0.8118 -1.3073
  141MYC    C6028853   5.323   6.440   3.317 -0.2417 -0.3140 -0.4438
  141MYC   H13728854   5.245   6.374   3.279 -1.5566  0.4083  0.9169
  141MYC    C5828855   5.363   6.555   3.226 -0.7297 -0.4660  1.1977
  141MYC   H13828856   5.374   6.649   3.279 -1.7503 -0.8570  2.1400
  141MYC    C5928857   5.457   6.446   3.255  0.0598 -0.0627  0.0518
  141MYC   H13928858   5.477   6.384   3.168  0.4043 -2.1784  1.5613
  141MYC   H14028859   5.544   6.474   3.313  0.4985  0.6786 -0.9305
  141MYC    C5728860   5.303   6.573   3.086  0.0042 -0.4390 -1.2332
  141MYC   HH1028861   5.194   6.587   3.086 -0.0526 -0.6044  0.7492
  141MYC   H14128862   5.314   6.475   3.038  0.1457 -1.8109  1.4009
  141MYC    C5628863   5.380   6.675   3.007  0.1560 -0.5166  0.9226
  141MYC   H14228864   5.488   6.657   3.006  0.2416 -0.5102 -3.0770
  141MYC   H14328865   5.381   6.777   3.047 -1.0057  0.2918 -1.0067
  141MYC    C5528866   5.325   6.679   2.866  0.2342  0.3959 -0.5388
  141MYC   H14428867   5.219   6.705   2.869 -0.0724 -0.9034  0.2652
  141MYC   H14528868   5.324   6.578   2.824  0.7697  0.0221  0.3157
  141MYC    C5428869   5.388   6.791   2.780 -0.3126  0.4161  0.3299
  141MYC   H14628870   5.498   6.795   2.785 -0.2467  0.7135 -0.8651
  141MYC   H14728871   5.362   6.888   2.823 -2.6091  0.0868 -0.1841
  141MYC    C5328872   5.332   6.790   2.632 -0.0994 -0.3686 -0.1203
  141MYC   H14828873   5.231   6.752   2.645  0.1679 -0.7199  1.0192
  141MYC   H14928874   5.388   6.713   2.578  2.4756 -1.5298  3.8232
  141MYC    C5228875   5.323   6.923   2.564  0.1427 -0.1926  0.1874
  141MYC    H9928876   5.425   6.964   2.568 -0.1763  1.3010 -3.3357
  141MYC   H15028877   5.243   6.987   2.601 -2.6898 -2.1624 -2.0175
  141MYC    C5128878   5.292   6.917   2.420  0.6548  0.1920  0.3439
  141MYC    H9728879   5.290   7.019   2.380 -2.8059 -0.0226 -0.3810
  141MYC    H9828880   5.192   6.877   2.397 -0.3536  0.5230  3.6663
  141MYC    C5028881   5.389   6.839   2.330  0.0519  0.4752 -0.2903
  141MYC    H9528882   5.380   6.730   2.341 -0.9214  0.5370 -0.3689
  141MYC    H9628883   5.490   6.868   2.363  1.7982 -1.6112 -3.3849
  141MYC    C4928884   5.377   6.873   2.177 -0.1204  0.5080 -0.3847
  141MYC    H9328885   5.382   6.982   2.168 -0.6084  0.7244  1.5245
  141MYC    H9428886   5.277   6.837   2.151  0.4465 -0.5249 -1.1797
  141MYC    C4828887   5.489   6.805   2.097  0.1299  0.1931  0.4447
  141MYC    H9128888   5.477   6.697   2.083  1.8354  0.2152 -1.6753
  141MYC    H9228889   5.583   6.829   2.147  1.4777 -1.1938 -1.2800
  141MYC    C4728890   5.490   6.858   1.948  0.3115  0.0571  0.0805
  141MYC    H8928891   5.573   6.806   1.898  2.4054 -0.6024  3.8671
  141MYC    H9028892   5.516   6.964   1.947  2.2966 -0.3649 -1.5237
  141MYC    C4628893   5.366   6.830   1.870 -0.1524 -0.1007  0.6291
  141MYC    H8728894   5.289   6.896   1.910 -0.0812  0.3670  0.0197
  141MYC    H8828895   5.336   6.726   1.889 -0.8162 -0.0630 -0.1409
  141MYC    C4528896   5.388   6.859   1.718 -0.5494 -0.4254 -0.1211
  141MYC    H8528897   5.449   6.782   1.669 -1.1570 -1.3358  0.5062
  141MYC    H8628898   5.448   6.948   1.701  0.4684 -1.1545 -0.4376
  141MYC    C4428899   5.255   6.871   1.642 -0.3003 -0.9561 -0.1041
  141MYC    H8328900   5.279   6.909   1.542 -1.5884  0.9838  0.2629
  141MYC    H8428901   5.191   6.939   1.700  0.6053 -1.1945  1.2292
  141MYC    C1828902   5.173   6.744   1.631  0.3845 -0.4279 -0.0953
  141MYC    H3128903   5.205   6.674   1.554 -0.5322 -0.3390 -0.5714
  141MYC    C1728904   5.089   6.691   1.745  0.1117 -0.0852 -0.1236
  141MYC    H3028905   5.099   6.741   1.841 -0.5064  0.4648 -0.3446
  141MYC    C1928906   5.020   6.774   1.642 -0.3490 -0.1235  0.7493
  141MYC    H3228907   4.989   6.873   1.672 -0.0041 -0.4801  2.4436
  141MYC    H3328908   4.951   6.722   1.577  0.7995 -2.4812  1.2971
  141MYC    C1628909   5.056   6.542   1.761 -0.2829 -0.6760 -0.4082
  141MYC    H2828910   5.136   6.496   1.821 -0.5819 -2.6475 -1.4405
  141MYC    H2928911   5.063   6.499   1.661  0.8642  0.3110 -0.7766
  141MYC    C1528912   4.925   6.504   1.830  0.3659 -1.1216 -0.5346
  141MYC    H2628913   4.927   6.394   1.828  2.2541 -1.1120 -2.2360
  141MYC    H2728914   4.836   6.529   1.771  1.0061  0.7837 -0.7574
  141MYC    C1428915   4.921   6.552   1.980 -0.6236 -0.2719  0.4395
  141MYC    H2428916   4.940   6.659   1.995  0.6252 -0.7553  2.7973
  141MYC    H2528917   4.996   6.494   2.035 -2.1538 -1.2572  1.5828
  141MYC    C1328918   4.795   6.516   2.059 -0.5660 -0.0247 -0.0682
  141MYC    H2228919   4.780   6.408   2.047 -0.1441  0.1084 -2.1940
  141MYC    H2328920   4.707   6.554   2.006 -0.5793 -0.6718 -0.5265
  141MYC    C1228921   4.797   6.568   2.207 -0.1524 -0.8728  0.3831
  141MYC    H2028922   4.727   6.505   2.262 -0.9661 -0.8269 -0.5992
  141MYC    H2128923   4.758   6.670   2.217 -2.9142 -1.7666 -0.4641
  141MYC    C1128924   4.933   6.544   2.288  0.0677 -0.1592  0.4886
  141MYC    H1828925   5.020   6.584   2.235  1.5172  1.0284  3.5327
  141MYC    H1928926   4.946   6.437   2.302 -2.5667 -0.7960 -1.1341
  141MYC    C1028927   4.945   6.610   2.431  0.5126  0.0979 -0.7138
  141MYC    H1628928   4.905   6.712   2.437 -0.3978 -0.3122  2.2793
  141MYC    H1728929   5.052   6.608   2.452  0.4184 -1.2782 -0.3103
  141MYC     C928930   4.868   6.545   2.550 -0.0217  0.5603 -1.3075
  141MYC    H1428931   4.880   6.437   2.533  1.8262  0.6098 -0.5214
  141MYC    H1528932   4.764   6.578   2.549  0.1897  1.2306 -1.2122
  141MYC     C828933   4.923   6.587   2.695 -0.0515  0.6286  0.6428
  141MYC    H1228934   4.940   6.696   2.691 -2.9896  1.1144 -1.3376
  141MYC    H1328935   5.027   6.554   2.701 -0.7858 -2.1286 -0.5503
  141MYC     C728936   4.854   6.539   2.825  0.4586 -0.5441  0.1102
  141MYC    H1028937   4.867   6.431   2.843  1.8980 -0.3074  0.6138
  141MYC    H1128938   4.747   6.556   2.811  0.6034 -0.3538 -0.7864
  141MYC     C628939   4.897   6.606   2.958  0.0210  0.3607  0.5166
  141MYC     H828940   4.885   6.715   2.956  1.0589  0.5976 -3.9046
  141MYC     H928941   5.007   6.610   2.955  0.0295 -0.2410 -0.5244
  141MYC     C528942   4.837   6.548   3.091  0.5972 -0.4938  1.0639
  141MYC     H628943   4.872   6.444   3.085  1.5491 -0.1654  0.5573
  141MYC     H728944   4.728   6.538   3.089  0.5445 -0.0614 -0.9253
  141MYC     C428945   4.889   6.594   3.226  0.0273  0.5537 -0.1036
  141MYC     H428946   4.877   6.702   3.213  0.7246  0.6224 -0.1808
  141MYC     H528947   4.997   6.582   3.233  0.1652  2.2676  1.5665
  141MYC     C228948   4.820   6.547   3.355  0.2961  0.5766  0.3130
  141MYC     H228949   4.864   6.608   3.436  1.9790 -1.5565  1.1014
  141MYC     O328950   4.678   6.562   3.337 -0.1675  0.7135 -0.4990
  141MYC     H328951   4.639   6.476   3.315  0.0873  0.8362 -1.4803
  141MYC     C128952   4.857   6.403   3.408 -0.3528  0.7292 -0.4631
  141MYC     H128953   4.966   6.400   3.417 -0.3547 -3.9822  0.3639
  141MYC    C8128954   4.820   6.279   3.324 -0.1115  1.1892 -0.4095
  141MYC    O8228955   4.704   6.257   3.292  0.2209 -0.0929 -0.0828
  141MYC    O8328956   4.917   6.185   3.311 -0.0463  0.5088  0.5616
  141MYC   H10528957   4.867   6.107   3.281  1.8125  0.3065 -2.4096
  141MYC    C2028958   4.808   6.379   3.554  0.3472  0.2407 -0.1702
  141MYC    H3428959   4.843   6.462   3.617  1.7399 -1.1455  0.9297
  141MYC    H3528960   4.699   6.387   3.551  0.3588  0.3575 -2.4001
  141MYC    C2128961   4.838   6.239   3.621 -0.9090  0.4649  0.5061
  141MYC    H3628962   4.798   6.165   3.551 -3.6248  2.1349  0.1343
  141MYC    H3728963   4.942   6.204   3.625 -1.4168 -0.9962  2.3284
  141MYC    C2228964   4.769   6.214   3.756 -0.3795  0.2515 -0.4458
  141MYC    H3828965   4.800   6.290   3.829 -0.2974  0.3229 -0.5551
  141MYC    H3928966   4.661   6.212   3.737  0.1219 -0.9061 -3.7765
  141MYC    C2328967   4.803   6.072   3.810  0.1430 -0.3289  0.1633
  141MYC    H4028968   4.772   5.995   3.739 -0.8425 -0.4387  0.7012
  141MYC    H4128969   4.912   6.082   3.822  0.0711  1.1781 -0.1782
  141MYC    C2428970   4.745   6.044   3.952  0.5274 -0.2002 -0.0747
  141MYC    H4228971   4.752   6.126   4.025 -1.5393 -0.3440  0.3700
  141MYC    H4328972   4.638   6.019   3.944  0.2483  0.2158  1.8142
  141MYC    C2528973   4.814   5.926   4.011 -0.3768  0.2115  0.9300
  141MYC    H4428974   4.842   5.849   3.938 -0.4715  0.5372  0.5458
  141MYC    H4528975   4.906   5.955   4.063 -0.6518  4.1704 -0.4290
  141MYC    C2628976   4.736   5.841   4.114 -1.2623 -0.0818  0.8497
  141MYC    H4628977   4.636   5.812   4.080 -0.9874  0.3228 -0.3611
  141MYC    H4728978   4.796   5.750   4.123 -0.1702  0.5893  0.5464
  141MYC    C2728979   4.741   5.908   4.249 -0.5305  0.2059  0.2527
  141MYC    H4828980   4.843   5.942   4.272  0.6333 -2.6420 -0.2595
  141MYC    H4928981   4.681   5.999   4.239  1.8319  2.0406  1.5797
  141MYC    C2828982   4.687   5.825   4.364  1.1430  0.6175  0.0665
  141MYC    H5028983   4.581   5.801   4.346  1.3657  0.8533 -1.7112
  141MYC    H5128984   4.741   5.733   4.390 -0.1926 -0.2496 -0.0995
  141MYC    C2928985   4.703   5.911   4.493  0.2640  0.5860 -0.0193
  141MYC    H5228986   4.801   5.951   4.518 -0.6157  1.5108  2.2470
  141MYC    H5328987   4.643   6.002   4.480 -1.4548 -0.8306 -3.1081
  141MYC    C3028988   4.635   5.847   4.609 -0.2181 -0.7529 -0.1349
  141MYC    H5428989   4.528   5.845   4.586  0.0005 -2.0545 -1.1754
  141MYC    H5528990   4.660   5.740   4.619 -0.0990 -0.6984  0.1735
  141MYC    C3128991   4.671   5.905   4.744 -0.0156  0.0933  0.4295
  141MYC    H5628992   4.778   5.896   4.764  0.1733  0.9278 -0.1853
  141MYC    H5728993   4.655   6.013   4.742  0.0619  0.1787  2.5258
  141MYC    C3228994   4.591   5.842   4.862 -1.6946 -0.0822 -0.4236
  141MYC    H5828995   4.601   5.907   4.949  0.8220  2.1009 -2.1595
  141MYC    H5928996   4.483   5.840   4.846 -1.7369 -0.1042 -0.1366
  141MYC    C3328997   4.644   5.706   4.890  0.1623  0.6074 -0.9006
  141MYC    H6028998   4.645   5.641   4.802  2.3691  1.7196 -1.7412
  141MYC    H6128999   4.750   5.722   4.913  0.0824 -1.4546  1.4324
  141MYC    C3429000   4.570   5.631   5.011  0.3271 -0.5171  0.0841
  141MYC    H6229001   4.464   5.628   4.984  0.3932 -0.4064 -0.1917
  141MYC    H6329002   4.601   5.526   5.002  1.2419 -0.2851  0.4951
  141MYC    C3529003   4.594   5.693   5.148 -0.1294  0.0188  0.0144
  141MYC    H6429004   4.703   5.685   5.149 -0.2589 -2.8446  1.8811
  141MYC    H6529005   4.569   5.800   5.152  1.2653  0.3429  1.5214
  141MYC    C3629006   4.521   5.606   5.257  0.2814 -0.1492 -0.2560
  141MYC    H6629007   4.524   5.651   5.357 -2.9961 -1.1619  0.4164
  141MYC    H6729008   4.415   5.592   5.233  0.0693 -0.7714  0.9517
  141MYC    C3729009   4.576   5.461   5.259  0.6887  0.4982  0.1396
  141MYC    H6829010   4.547   5.418   5.163 -0.3820  2.9173 -0.6916
  141MYC    H6929011   4.686   5.464   5.264  0.6336  2.5462  1.3045
  141MYC    C3829012   4.518   5.375   5.377 -0.6766 -0.2293 -0.1855
  141MYC    H7029013   4.549   5.420   5.472  0.8183  0.1686 -0.8208
  141MYC    H7129014   4.409   5.367   5.371 -0.6482  0.1505 -2.0051
  141MYC    C3929015   4.581   5.235   5.379  0.1383  0.1251  0.0078
  141MYC    H7229016   4.556   5.188   5.284 -2.1804 -1.6018  1.3705
  141MYC    H7329017   4.690   5.241   5.382  0.2255 -1.4572  0.7490
  141MYC    C4029018   4.552   5.152   5.509 -0.0194 -0.1883 -0.0784
  141MYC    H7429019   4.446   5.150   5.538  0.4352 -1.9062  1.6827
  141MYC    H7529020   4.583   5.050   5.484 -0.4549 -0.2099 -0.5415
  141MYC    C4129021   4.659   5.177   5.616  0.1379 -0.9029 -0.2794
  141MYC    H7629022   4.763   5.156   5.587  0.5636 -0.5765  0.9593
  141MYC    H7729023   4.660   5.285   5.634 -1.3947 -0.7756 -0.7991
  141MYC    C4229024   4.631   5.086   5.742 -0.3102 -0.2485  0.0731
  141MYC    H7829025   4.530   5.112   5.777 -0.3374  0.3340 -0.4340
  141MYC    H7929026   4.640   4.985   5.700  3.3303 -0.2865  0.5922
  141MYC    C4329027   4.748   5.104   5.833 -0.8713 -0.9038 -0.4594
  141MYC    H8029028   4.722   5.047   5.923 -0.5286  0.8528  0.8129
  141MYC    H8129029   4.762   5.208   5.866 -2.6107 -0.8149  0.1380
  141MYC    H8229030   4.838   5.055   5.796  0.1366 -0.2219  0.9602
  142MYC   HH1529031   5.342   1.171   5.600 -0.4862  0.9658 -1.1067
  142MYC    C8029032   5.450   1.162   5.612 -0.6862 -0.1288  0.2051
  142MYC   H10029033   5.490   1.227   5.691  2.2993  0.5112 -1.6721
  142MYC   H10129034   5.461   1.057   5.641  0.4789 -0.0180  0.1999
  142MYC    C7929035   5.528   1.178   5.484  0.1739 -0.6487 -0.5562
  142MYC   H10229036   5.624   1.126   5.493 -0.2781 -1.3893  0.0359
  142MYC   H10329037   5.538   1.286   5.465  0.2613 -0.2472  1.5341
  142MYC    C7829038   5.451   1.115   5.360  0.0232 -0.6666 -0.2392
  142MYC   HH1429039   5.347   1.150   5.368  0.6670  0.9505  1.5183
  142MYC   H10429040   5.443   1.005   5.359 -0.2274 -0.6858 -2.7544
  142MYC    C7729041   5.518   1.145   5.225 -0.0356  0.5857  0.8878
  142MYC   H10629042   5.618   1.101   5.225 -1.2037 -2.5014  3.9760
  142MYC   H10729043   5.525   1.253   5.204  0.2860 -0.0175 -2.8062
  142MYC    C7629044   5.438   1.077   5.104  0.0661 -0.0087  0.0914
  142MYC   H10829045   5.337   1.118   5.115  0.0050 -0.0582 -0.2829
  142MYC   H10929046   5.438   0.970   5.126 -0.7387 -0.5566 -2.2910
  142MYC    C7529047   5.497   1.102   4.967 -0.3151 -0.6128  0.2742
  142MYC   H11029048   5.603   1.075   4.977  0.2919  1.3915 -0.3191
  142MYC   H11129049   5.496   1.210   4.951  0.9236 -0.5573  0.4679
  142MYC    C7429050   5.432   1.028   4.852  0.2397  0.3190  0.5003
  142MYC   H11229051   5.332   1.068   4.835  0.2563  0.4040  0.6012
  142MYC   H11329052   5.420   0.925   4.887  3.4327 -0.7302 -1.0788
  142MYC    C7329053   5.506   1.033   4.717 -0.0244  0.2497  0.2729
  142MYC   HH1329054   5.613   1.012   4.728 -0.1766 -0.0850  1.1783
  142MYC   H11429055   5.512   1.132   4.670  2.5759 -0.7005 -1.6625
  142MYC    C7229056   5.448   0.931   4.597  1.2217 -0.7209 -0.0582
  142MYC   H11529057   5.349   0.959   4.561  2.0753  0.9160 -1.3015
  142MYC   H11629058   5.434   0.832   4.641  0.0021  0.1373  1.5792
  142MYC    C7129059   5.543   0.918   4.481 -0.1258 -0.6251  1.5635
  142MYC   H11729060   5.493   0.854   4.407 -0.4250  0.9825  0.3324
  142MYC   H11829061   5.643   0.887   4.514  0.5374 -0.0801  0.1332
  142MYC    C7029062   5.583   1.052   4.413  0.2234 -0.4390  0.5286
  142MYC   H11929063   5.633   1.116   4.487 -1.2303 -0.6049  1.7222
  142MYC   H12029064   5.495   1.112   4.388  0.8127  0.3488  0.3086
  142MYC    C6929065   5.664   1.038   4.275 -0.7499 -0.0491  0.0481
  142MYC   H12129066   5.767   1.007   4.299 -0.9521 -0.5624  0.2730
  142MYC   H12229067   5.677   1.139   4.235 -3.5957  1.0056  1.5203
  142MYC    C6829068   5.604   0.938   4.170 -0.4127 -0.1937 -0.3560
  142MYC   HH1229069   5.498   0.960   4.149 -0.5739 -1.3767 -0.8851
  142MYC   H12329070   5.587   0.839   4.214 -1.8996  1.1764  2.3757
  142MYC    C6729071   5.687   0.931   4.039 -0.0696 -0.0288  0.2179
  142MYC   H12429072   5.638   0.871   3.962 -2.4588  1.2410  0.6409
  142MYC   H12529073   5.783   0.881   4.053 -0.2858 -0.5853 -0.2480
  142MYC    C6629074   5.707   1.062   3.968  0.4133 -0.0045  0.6001
  142MYC   H12629075   5.783   1.039   3.892 -0.5593  1.0003 -0.7275
  142MYC   H12729076   5.749   1.135   4.039  1.0441  0.4023 -0.1774
  142MYC    C6529077   5.580   1.104   3.897  0.0782  0.6744  0.0772
  142MYC   H12829078   5.509   1.114   3.980  1.2094  1.2588  1.0134
  142MYC   H12929079   5.547   1.035   3.818  0.2940  0.5043  0.1327
  142MYC    C6429080   5.577   1.234   3.822  0.2241  0.0249 -0.5684
  142MYC   H13029081   5.649   1.225   3.740  0.3680  1.8064 -0.6757
  142MYC   H13129082   5.609   1.309   3.896 -0.2020 -0.8978  0.6019
  142MYC    C6329083   5.427   1.269   3.788  0.5263 -0.5333 -1.1157
  142MYC   HH1129084   5.378   1.266   3.886 -0.5224 -1.7784 -1.6440
  142MYC   H13229085   5.373   1.194   3.729 -2.8473  0.5256  0.3639
  142MYC    C6229086   5.416   1.404   3.718 -0.9035  0.1214 -0.5901
  142MYC   H13329087   5.476   1.400   3.626 -0.5539  1.0966 -0.4256
  142MYC   H13429088   5.446   1.480   3.792 -1.7919  0.0791 -0.1726
  142MYC    C6129089   5.268   1.450   3.691  0.3644  0.5047 -0.1241
  142MYC   H13529090   5.202   1.425   3.775  2.7290 -1.1910  1.3441
  142MYC   H13629091   5.226   1.382   3.617 -0.9034  2.9389 -1.7822
  142MYC    C6029092   5.262   1.599   3.650  0.6726 -0.5796 -0.4052
  142MYC   H13729093   5.359   1.636   3.619  0.3119 -1.7613 -3.2658
  142MYC    C5829094   5.151   1.649   3.562 -0.3112 -0.6902 -0.0214
  142MYC   H13829095   5.078   1.574   3.534  0.0428 -0.8495 -0.5277
  142MYC    C5929096   5.160   1.695   3.700 -0.0830 -0.2596  0.3398
  142MYC   H13929097   5.180   1.802   3.707  0.5538 -0.2716 -1.1083
  142MYC   H14029098   5.075   1.664   3.761 -1.5504  0.4271 -1.2807
  142MYC    C5729099   5.191   1.741   3.442  0.0680 -0.1708  0.1130
  142MYC   HH1029100   5.265   1.807   3.488  2.3527 -2.2668 -0.3174
  142MYC   H14129101   5.114   1.817   3.426 -0.3935 -1.0677 -2.3565
  142MYC    C5629102   5.245   1.676   3.311  0.1121 -0.3328  0.0255
  142MYC   H14229103   5.331   1.612   3.332  0.2452 -0.6795 -1.4547
  142MYC   H14329104   5.281   1.752   3.240 -0.7824 -0.7546 -0.9051
  142MYC    C5529105   5.142   1.596   3.234 -0.6731  0.0860  0.0975
  142MYC   H14429106   5.041   1.637   3.236 -0.9321 -0.4155 -1.5685
  142MYC   H14529107   5.128   1.507   3.297 -2.8876 -0.0050 -0.4504
  142MYC    C5429108   5.173   1.543   3.091 -0.8409 -0.3551  0.3562
  142MYC   H14629109   5.261   1.478   3.103 -1.4591 -1.0998  1.0380
  142MYC   H14729110   5.199   1.616   3.014 -2.0176 -1.0615 -0.7629
  142MYC    C5329111   5.058   1.461   3.042 -0.1188  0.1922 -0.5336
  142MYC   H14829112   4.967   1.521   3.045  0.0195  0.5020 -1.8117
  142MYC   H14929113   5.042   1.383   3.117  0.9501  0.6262  0.1823
  142MYC    C5229114   5.079   1.414   2.898  0.1271  0.4010  0.1988
  142MYC    H9929115   5.099   1.499   2.832  0.3683 -0.5213 -0.9541
  142MYC   H15029116   4.988   1.370   2.857  0.3907 -0.8432  0.8871
  142MYC    C5129117   5.180   1.295   2.877  0.3181 -0.3893  0.5679
  142MYC    H9729118   5.148   1.205   2.932 -0.0540 -0.5927  0.0257
  142MYC    H9829119   5.279   1.321   2.916  1.1715 -0.3590 -1.5170
  142MYC    C5029120   5.189   1.246   2.729  0.0808  0.2282 -0.1288
  142MYC    H9529121   5.234   1.328   2.672 -2.9317  2.5882  0.6167
  142MYC    H9629122   5.085   1.224   2.702 -0.8943  1.1255  2.5282
  142MYC    C4929123   5.264   1.113   2.714 -0.0624 -0.1611 -0.3069
  142MYC    H9329124   5.212   1.036   2.772  0.9212  0.0617  0.8898
  142MYC    H9429125   5.363   1.111   2.761 -1.0092 -3.4497  1.8991
  142MYC    C4829126   5.276   1.080   2.564  0.4037 -0.0422  0.4787
  142MYC    H9129127   5.333   1.166   2.529 -3.4029  2.3759 -0.3871
  142MYC    H9229128   5.177   1.100   2.522  1.1300  2.4130 -0.2125
  142MYC    C4729129   5.330   0.948   2.509  0.1086 -0.3254  0.6534
  142MYC    H8929130   5.269   0.869   2.555 -2.4523  1.5179  0.6727
  142MYC    H9029131   5.431   0.948   2.551  0.0118 -1.6401  0.9278
  142MYC    C4629132   5.337   0.944   2.357  0.2824  0.2664  0.4618
  142MYC    H8729133   5.310   1.041   2.312 -1.8025  0.9024  2.8516
  142MYC    H8829134   5.263   0.872   2.319  0.7463 -0.1077  0.2596
  142MYC    C4529135   5.482   0.914   2.312 -0.4343  0.3160 -0.1560
  142MYC    H8529136   5.538   1.000   2.351  0.8268  0.2550 -1.6982
  142MYC    H8629137   5.490   0.910   2.203 -1.8138 -2.4270 -0.2604
  142MYC    C4429138   5.541   0.774   2.362 -0.1042 -0.5905  0.0981
  142MYC    H8329139   5.495   0.685   2.319 -0.3484 -0.9106  1.0082
  142MYC    H8429140   5.523   0.767   2.469  1.4897 -1.1282  0.3563
  142MYC    C1829141   5.687   0.753   2.331 -0.1468 -0.0485  0.2839
  142MYC    H3129142   5.751   0.828   2.376 -1.0909 -1.6424  4.8204
  142MYC    C1729143   5.745   0.610   2.335  0.0945 -0.2766  0.6750
  142MYC    H3029144   5.674   0.528   2.329 -1.5222  0.9843  1.7439
  142MYC    C1929145   5.739   0.688   2.201 -0.1543  0.0613 -0.4143
  142MYC    H3229146   5.657   0.676   2.131 -0.5338  2.0323 -0.3776
  142MYC    H3329147   5.834   0.723   2.162  0.2398 -0.4172  0.1074
  142MYC    C1629148   5.889   0.582   2.386 -0.2366  0.5492  0.2836
  142MYC    H2829149   5.948   0.669   2.416 -0.1308  0.0826  1.5321
  142MYC    H2929150   5.951   0.527   2.314 -2.3814 -2.7058  0.6783
  142MYC    C1529151   5.889   0.477   2.503  0.0243  0.9092  0.8357
  142MYC    H2629152   5.993   0.448   2.522 -0.7495 -2.9776 -0.0151
  142MYC    H2729153   5.841   0.382   2.477  0.4422  0.7712  0.5485
  142MYC    C1429154   5.812   0.523   2.624  0.2162 -0.1803  0.7143
  142MYC    H2429155   5.815   0.442   2.698 -0.1470 -2.5557 -1.7064
  142MYC    H2529156   5.705   0.537   2.605  0.6342  2.4238 -0.1713
  142MYC    C1329157   5.856   0.657   2.685  0.7960  0.4502  0.2196
  142MYC    H2229158   5.859   0.740   2.613 -0.4172 -0.2176 -0.6456
  142MYC    H2329159   5.949   0.647   2.742  0.2243  0.6268  1.2098
  142MYC    C1229160   5.758   0.720   2.793 -0.0880  0.2159 -0.1071
  142MYC    H2029161   5.819   0.795   2.845 -1.0156  1.2902 -0.5303
  142MYC    H2129162   5.736   0.642   2.866  2.3091  1.6329  2.3085
  142MYC    C1129163   5.632   0.792   2.738 -0.2026  0.5371 -0.3447
  142MYC    H1829164   5.579   0.717   2.678 -1.0357 -1.8073  3.0022
  142MYC    H1929165   5.662   0.872   2.669 -2.9468  2.6445  0.7431
  142MYC    C1029166   5.532   0.845   2.849 -0.0991 -0.5241 -0.6162
  142MYC    H1629167   5.519   0.760   2.917  0.2615  0.0995  0.2639
  142MYC    H1729168   5.437   0.853   2.795  1.0478 -0.5891 -2.7606
  142MYC     C929169   5.562   0.972   2.934  0.6486  0.1392  0.3056
  142MYC    H1429170   5.592   1.055   2.869  2.3356 -1.5724 -1.1878
  142MYC    H1529171   5.645   0.945   2.999  0.7643 -0.1445  0.0399
  142MYC     C829172   5.454   1.026   3.031 -0.1934 -0.1961  1.0364
  142MYC    H1229173   5.434   0.947   3.104 -0.9975  0.3276  1.3943
  142MYC    H1329174   5.364   1.028   2.968  2.3461 -0.0838 -2.9126
  142MYC     C729175   5.474   1.168   3.095 -0.4727 -0.2125 -1.0517
  142MYC    H1029176   5.447   1.248   3.025 -1.6482  0.1365 -0.2176
  142MYC    H1129177   5.576   1.178   3.133  0.9468 -1.5700 -4.1156
  142MYC     C629178   5.383   1.189   3.220  0.1785 -1.0007 -0.1661
  142MYC     H829179   5.278   1.202   3.192 -0.3575 -2.5716  0.9681
  142MYC     H929180   5.414   1.286   3.260  0.1914 -1.4269  0.8850
  142MYC     C529181   5.395   1.079   3.334  0.2607  0.2322 -0.0427
  142MYC     H629182   5.319   1.002   3.316 -0.7308  0.9324  1.0520
  142MYC     H729183   5.345   1.123   3.421 -0.9117 -1.1806  0.0325
  142MYC     C429184   5.531   1.019   3.371  0.3329  0.7803 -0.5310
  142MYC     H429185   5.604   1.101   3.374 -0.9141  1.9670 -1.0128
  142MYC     H529186   5.569   0.959   3.288  1.5536  1.6578 -0.6291
  142MYC     C229187   5.535   0.932   3.502 -0.2822 -1.0723  0.7891
  142MYC     H229188   5.539   1.001   3.586 -1.9904 -0.8214  0.6892
  142MYC     O329189   5.433   0.830   3.506 -0.5138 -0.0924 -0.1476
  142MYC     H329190   5.441   0.774   3.427 -0.6314 -0.2348 -0.0591
  142MYC     C129191   5.663   0.858   3.519 -0.0871 -0.3875 -0.3791
  142MYC     H129192   5.748   0.926   3.508 -0.6268  0.3092 -0.3208
  142MYC    C8129193   5.680   0.754   3.406  0.3693 -0.4813  0.8240
  142MYC    O8229194   5.615   0.650   3.387 -0.1142  0.1423 -0.3235
  142MYC    O8329195   5.757   0.807   3.301  0.0124  0.1036 -0.0864
  142MYC   H10529196   5.750   0.746   3.226 -1.4062  1.9182 -1.5406
  142MYC    C2029197   5.684   0.795   3.666 -0.0892  0.3879  0.1988
  142MYC    H3429198   5.710   0.872   3.739  1.9266  1.3909 -1.4613
  142MYC    H3529199   5.594   0.750   3.709  0.7451 -2.1316 -0.4752
  142MYC    C2129200   5.787   0.678   3.685 -0.3810 -0.4936 -0.2148
  142MYC    H3629201   5.799   0.611   3.599 -0.1155  0.1186 -0.6587
  142MYC    H3729202   5.885   0.726   3.689 -0.2806 -0.4627 -2.1295
  142MYC    C2229203   5.763   0.608   3.832 -0.7839 -0.2345  0.7415
  142MYC    H3829204   5.751   0.694   3.899  2.3407 -0.5327  1.8317
  142MYC    H3929205   5.671   0.549   3.825 -0.5037 -0.6218  0.2978
  142MYC    C2329206   5.891   0.528   3.873 -0.1005 -0.0530  0.0785
  142MYC    H4029207   5.910   0.438   3.815 -0.6033 -1.9162  2.6423
  142MYC    H4129208   5.973   0.600   3.859 -0.6832  0.3169 -1.6574
  142MYC    C2429209   5.890   0.468   4.016  0.3623 -0.1140 -0.4952
  142MYC    H4229210   5.831   0.376   4.011  1.4558 -0.8082 -1.2188
  142MYC    H4329211   5.992   0.431   4.034  0.6090  0.5394 -0.5345
  142MYC    C2529212   5.832   0.566   4.121  0.1865  0.5081 -0.4984
  142MYC    H4429213   5.875   0.665   4.106  0.5987  0.3061 -0.6519
  142MYC    H4529214   5.725   0.576   4.097  0.0183 -1.0317 -0.4632
  142MYC    C2629215   5.844   0.502   4.260 -0.1075 -0.6808  0.5284
  142MYC    H4629216   5.811   0.398   4.265 -1.7728 -0.1373  2.5695
  142MYC    H4729217   5.949   0.498   4.289 -0.2878 -0.3670  1.2594
  142MYC    C2729218   5.778   0.588   4.366 -0.2201  0.1129 -0.3194
  142MYC    H4829219   5.825   0.687   4.357 -1.1466  0.5311 -0.7404
  142MYC    H4929220   5.671   0.600   4.344 -1.1636 -0.5118  3.2811
  142MYC    C2829221   5.806   0.535   4.508  0.5007  0.0139 -0.7719
  142MYC    H5029222   5.742   0.450   4.532  2.0251 -0.7065  0.9633
  142MYC    H5129223   5.911   0.503   4.506  0.8290  1.0746 -1.7907
  142MYC    C2929224   5.772   0.644   4.620  0.0920 -0.8000 -0.0683
  142MYC    H5229225   5.834   0.734   4.612  0.3694 -0.8616  1.1947
  142MYC    H5329226   5.663   0.656   4.612 -0.0557 -1.5951  0.5884
  142MYC    C3029227   5.791   0.570   4.760  0.5156  0.1292 -0.7563
  142MYC    H5429228   5.730   0.481   4.780  0.0101  0.8980  1.5062
  142MYC    H5529229   5.893   0.558   4.798 -0.3490  1.2528  2.2680
  142MYC    C3129230   5.741   0.669   4.877 -0.4763  0.6295  0.2397
  142MYC    H5629231   5.809   0.755   4.884 -0.8944  0.8746  1.5172
  142MYC    H5729232   5.640   0.706   4.857  0.4238  2.6088 -1.0067
  142MYC    C3229233   5.739   0.596   5.015  0.0012 -0.3741 -0.3647
  142MYC    H5829234   5.670   0.513   4.996 -1.7298  1.0641 -0.6454
  142MYC    H5929235   5.839   0.565   5.047  0.3576  1.8452  0.8861
  142MYC    C3329236   5.674   0.689   5.124 -0.1570  0.0578  0.1570
  142MYC    H6029237   5.745   0.772   5.127  0.3350 -0.3267 -0.4791
  142MYC    H6129238   5.575   0.723   5.091  0.1140 -0.4953 -1.3332
  142MYC    C3429239   5.667   0.627   5.260 -0.6205  0.7929  1.0123
  142MYC    H6229240   5.597   0.543   5.252  1.2150 -0.7997  0.8512
  142MYC    H6329241   5.767   0.592   5.286 -0.9448  0.6351  2.0917
  142MYC    C3529242   5.620   0.735   5.351  0.0945 -0.0690 -0.4768
  142MYC    H6429243   5.680   0.826   5.348 -2.1706  1.8202  3.3407
  142MYC    H6529244   5.516   0.769   5.335 -0.0395 -0.5999 -0.7561
  142MYC    C3629245   5.613   0.691   5.496 -0.4876  0.5110  0.2182
  142MYC    H6629246   5.534   0.622   5.526  0.8074 -0.0953  2.4353
  142MYC    H6729247   5.707   0.638   5.520  1.3771  1.8094 -3.4152
  142MYC    C3729248   5.585   0.802   5.600 -0.7728 -0.3892 -0.2453
  142MYC    H6829249   5.652   0.886   5.578 -1.2015 -0.1726 -0.7444
  142MYC    H6929250   5.483   0.838   5.585 -1.9321 -2.1966  2.5057
  142MYC    C3829251   5.601   0.750   5.748 -0.4797 -0.2626  0.4795
  142MYC    H7029252   5.542   0.657   5.755  0.2391 -0.9710 -1.9974
  142MYC    H7129253   5.709   0.742   5.759 -0.1440  1.8848 -0.8503
  142MYC    C3929254   5.553   0.859   5.851 -0.2797 -0.9800  0.3873
  142MYC    H7229255   5.609   0.953   5.838 -1.2726 -0.0393  2.4883
  142MYC    H7329256   5.454   0.894   5.819  0.4753  0.3642 -0.6434
  142MYC    C4029257   5.565   0.822   5.992  0.1342 -0.4786  0.5920
  142MYC    H7429258   5.501   0.733   6.002  1.0621 -1.0984  1.2161
  142MYC    H7529259   5.664   0.788   6.025 -0.7623 -0.3770  3.7465
  142MYC    C4129260   5.515   0.931   6.089 -0.3084 -0.1044 -0.0113
  142MYC    H7629261   5.600   1.000   6.100  1.1641 -1.8532 -0.0584
  142MYC    H7729262   5.432   0.994   6.054  0.5430 -0.0240 -2.0381
  142MYC    C4229263   5.476   0.876   6.228 -0.1445 -0.7234 -0.8950
  142MYC    H7829264   5.425   0.781   6.207 -0.1475 -0.6698 -1.1227
  142MYC    H7929265   5.569   0.839   6.273  0.3154  1.3041 -0.0647
  142MYC    C4329266   5.402   0.976   6.321 -0.1583  0.5919  0.5334
  142MYC    H8029267   5.385   0.938   6.422 -0.4271  1.8075  0.9652
  142MYC    H8129268   5.304   0.992   6.275  0.3069  0.1122 -0.6933
  142MYC    H8229269   5.452   1.073   6.334 -2.3663  1.6234  1.6941
  143MYC   HH1529270   5.090   1.442   5.468 -0.6254 -0.0843 -0.3206
  143MYC    C8029271   5.184   1.487   5.434 -0.4776 -0.3719 -0.2994
  143MYC   H10029272   5.244   1.481   5.526 -0.5863  2.1915  0.0124
  143MYC   H10129273   5.227   1.430   5.351  0.5491  1.9122 -1.4184
  143MYC    C7929274   5.175   1.626   5.386 -0.3957  0.0432 -0.5586
  143MYC   H10229275   5.133   1.686   5.467  1.2010  1.5277 -0.7765
  143MYC   H10329276   5.096   1.637   5.311  0.3272  1.0945 -1.1844
  143MYC    C7829277   5.301   1.677   5.310 -0.3643 -0.0446 -0.7946
  143MYC   HH1429278   5.277   1.771   5.259 -1.6946 -0.3509 -0.7676
  143MYC   H10429279   5.345   1.605   5.241 -1.0930 -0.4551 -0.8393
  143MYC    C7729280   5.419   1.713   5.409  0.2417  0.0444  0.2429
  143MYC   H10629281   5.462   1.620   5.447  0.8003  0.3483  0.3733
  143MYC   H10729282   5.383   1.757   5.503  0.0400  0.2174  0.0858
  143MYC    C7629283   5.538   1.807   5.359 -0.0468 -0.1550 -0.2623
  143MYC   H10829284   5.593   1.824   5.452  0.9998  1.2803 -1.1133
  143MYC   H10929285   5.512   1.907   5.322  0.0309 -0.5113 -1.3292
  143MYC    C7529286   5.631   1.729   5.268 -0.0288  0.2518 -0.2835
  143MYC   H11029287   5.591   1.716   5.167 -2.6493  2.1780  0.3958
  143MYC   H11129288   5.650   1.628   5.307  0.9051  0.8050  0.7555
  143MYC    C7429289   5.771   1.783   5.263 -0.1396  0.2775 -0.6164
  143MYC   H11229290   5.831   1.719   5.197  1.0523 -0.5975  1.2309
  143MYC   H11329291   5.812   1.769   5.363  0.0779 -0.5038 -0.8122
  143MYC    C7329292   5.798   1.933   5.215  0.6769  0.5478  0.4481
  143MYC   HH1329293   5.896   1.962   5.255  0.2903 -1.4211  3.1102
  143MYC   H11429294   5.732   2.004   5.265 -0.4276  0.4908 -0.8630
  143MYC    C7229295   5.798   1.965   5.065 -0.2875  0.8191  0.0626
  143MYC   H11529296   5.851   1.891   5.005  0.3751  1.0802  0.3179
  143MYC   H11629297   5.828   2.070   5.052 -0.2056  0.9952  1.4918
  143MYC    C7129298   5.654   1.966   5.000  0.1171 -0.0203  1.3400
  143MYC   H11729299   5.582   2.028   5.054  0.6612  1.5582  0.3204
  143MYC   H11829300   5.609   1.866   4.991 -0.9675  0.6300 -1.8441
  143MYC    C7029301   5.661   2.020   4.858  0.4345 -0.2539  0.8012
  143MYC   H11929302   5.718   2.113   4.866 -1.8730  1.1972  1.3526
  143MYC   H12029303   5.560   2.054   4.832  0.3533 -1.4365 -0.5244
  143MYC    C6929304   5.704   1.924   4.748  0.6761  0.0750  0.5034
  143MYC   H12129305   5.655   1.827   4.758 -1.5128  1.0582  0.0972
  143MYC   H12229306   5.813   1.919   4.750  0.7035  0.3708  0.0222
  143MYC    C6829307   5.687   1.983   4.610  0.1505 -0.4926  0.7909
  143MYC   HH1229308   5.733   2.081   4.599  0.8419 -0.6759  1.9731
  143MYC   H12329309   5.579   1.990   4.589  0.6058  0.8474 -1.5377
  143MYC    C6729310   5.733   1.891   4.490 -0.4045 -0.3137 -0.2210
  143MYC   H12429311   5.677   1.796   4.486 -2.0480  0.6599 -2.0392
  143MYC   H12529312   5.835   1.856   4.508 -0.8144 -0.7313  1.5669
  143MYC    C6629313   5.738   1.945   4.352 -0.1224  0.6735 -0.6009
  143MYC   H12629314   5.799   2.035   4.345 -1.3996  1.5010 -1.4140
  143MYC   H12729315   5.631   1.960   4.336 -0.2107 -0.3334 -1.0437
  143MYC    C6529316   5.784   1.847   4.239  0.2994  0.1425  0.1229
  143MYC   H12829317   5.730   1.751   4.236  1.4595 -0.5673  1.0165
  143MYC   H12929318   5.887   1.813   4.255  0.0729 -0.1890  0.9633
  143MYC    C6429319   5.774   1.908   4.097  0.0599 -0.0984  0.3096
  143MYC   H13029320   5.804   1.826   4.030 -0.6214  0.6968 -1.0216
  143MYC   H13129321   5.847   1.990   4.089 -0.1832  0.3532  2.2514
  143MYC    C6329322   5.638   1.956   4.057 -0.1602 -0.2776 -0.4085
  143MYC   HH1129323   5.606   2.027   4.134 -0.2329  0.3685 -1.0276
  143MYC   H13229324   5.561   1.878   4.060 -0.9181  0.4801  1.8468
  143MYC    C6229325   5.631   2.025   3.920  0.3661 -0.2662 -0.2072
  143MYC   H13329326   5.718   2.090   3.904  1.6838 -1.6333  1.0876
  143MYC   H13429327   5.536   2.080   3.924  0.0499 -0.8456  0.6260
  143MYC    C6129328   5.622   1.924   3.805 -0.0515 -0.0819  0.0864
  143MYC   H13529329   5.543   1.853   3.832 -0.7194  0.7993  0.5359
  143MYC   H13629330   5.716   1.873   3.783 -0.0931 -0.3247  0.4759
  143MYC    C6029331   5.580   1.992   3.677 -0.6177  0.3210 -0.1026
  143MYC   H13729332   5.652   2.064   3.642 -0.6008  1.4889  2.1539
  143MYC    C5829333   5.511   1.918   3.566 -0.0493  0.3214 -0.0386
  143MYC   H13829334   5.511   1.811   3.586 -1.0219  0.4539  0.7943
  143MYC    C5929335   5.434   2.010   3.655  0.3610 -0.7084  0.5015
  143MYC   H13929336   5.393   2.100   3.610 -0.1774 -1.3710 -0.3605
  143MYC   H14029337   5.352   1.972   3.715  0.3827 -0.5197  0.6526
  143MYC    C5729338   5.527   1.957   3.421  0.2468  0.2396  0.6727
  143MYC   HH1029339   5.527   2.065   3.402  0.2781 -0.3432 -3.5083
  143MYC   H14129340   5.448   1.918   3.357  1.7002 -0.5606 -0.7139
  143MYC    C5629341   5.658   1.897   3.381 -0.2972  1.0128  0.5273
  143MYC   H14229342   5.628   1.797   3.347 -0.5530 -0.0072  3.4888
  143MYC   H14329343   5.726   1.882   3.466 -1.0390  1.3320  1.1874
  143MYC    C5529344   5.733   1.984   3.277 -0.0375  0.7095 -0.5065
  143MYC   H14429345   5.762   2.078   3.325 -0.5191  1.2852 -1.3340
  143MYC   H14529346   5.661   2.006   3.198  1.5696 -0.7361 -2.4894
  143MYC    C5429347   5.868   1.919   3.228  0.3170  0.3147 -0.6325
  143MYC   H14629348   5.859   1.817   3.187 -0.3178 -0.4035  1.1951
  143MYC   H14729349   5.935   1.912   3.314 -0.8840 -2.3603  0.1966
  143MYC    C5329350   5.932   2.009   3.116  1.1186  0.4622 -0.8500
  143MYC   H14829351   6.024   1.952   3.098 -0.4789 -2.6040 -0.0620
  143MYC   H14929352   5.958   2.101   3.169 -0.5827  0.3480  0.2577
  143MYC    C5229353   5.848   2.035   2.987 -0.6242 -0.3692 -0.1653
  143MYC    H9929354   5.911   2.094   2.919  2.7057 -3.2333  0.2037
  143MYC   H15029355   5.778   2.114   3.021 -0.2905  0.0524 -0.4505
  143MYC    C5129356   5.778   1.915   2.913  0.4673  0.0030 -0.3570
  143MYC    H9729357   5.703   1.875   2.982  1.0832  1.1828  1.0351
  143MYC    H9829358   5.858   1.842   2.895  1.3581  0.5591  1.1166
  143MYC    C5029359   5.709   1.944   2.783  0.0038 -0.6588 -0.0108
  143MYC    H9529360   5.643   2.028   2.809  1.0441 -0.0445  0.6913
  143MYC    H9629361   5.657   1.854   2.750  0.0792 -0.5915 -0.3123
  143MYC    C4929362   5.802   1.989   2.671 -0.2324 -0.8288  0.6624
  143MYC    H9329363   5.778   1.946   2.573  0.3468  0.3704 -0.0300
  143MYC    H9429364   5.907   1.966   2.690  1.6199  3.3655 -2.7542
  143MYC    C4829365   5.777   2.145   2.650  0.3306  0.2703  0.3136
  143MYC    H9129366   5.783   2.196   2.747 -0.8452 -1.8115  1.5390
  143MYC    H9229367   5.670   2.156   2.630  0.3951  0.9882  0.3042
  143MYC    C4729368   5.869   2.206   2.537  0.5444 -0.8851  1.0722
  143MYC    H8929369   5.835   2.310   2.534  0.4315 -0.9457 -0.5527
  143MYC    H9029370   5.835   2.175   2.437  2.7724  1.0867 -0.3933
  143MYC    C4629371   6.021   2.194   2.538 -0.5691  0.0176  0.6455
  143MYC    H8729372   6.058   2.091   2.533  4.0020  1.4558 -0.4685
  143MYC    H8829373   6.052   2.222   2.640  2.3554 -0.3006 -0.0487
  143MYC    C4529374   6.101   2.284   2.435 -0.6300 -0.0611 -0.0360
  143MYC    H8529375   6.206   2.255   2.449 -0.4185  0.2257 -0.9936
  143MYC    H8629376   6.098   2.387   2.472 -0.2309  0.5413 -1.6043
  143MYC    C4429377   6.069   2.291   2.286  0.1994  0.1073 -0.4826
  143MYC    H8329378   6.116   2.380   2.242 -3.2518  3.0623  1.3000
  143MYC    H8429379   5.962   2.310   2.276  0.1665 -0.4391 -1.2278
  143MYC    C1829380   6.091   2.172   2.204  0.2104  0.3641  0.1063
  143MYC    H3129381   6.194   2.139   2.195  0.3463  1.0649 -1.1949
  143MYC    C1729382   5.991   2.058   2.194 -0.5371  0.6312 -0.4844
  143MYC    H3029383   5.895   2.084   2.238 -1.0924  1.5430 -2.1381
  143MYC    C1929384   6.017   2.145   2.074 -0.1102 -0.0771 -0.1126
  143MYC    H3229385   5.933   2.208   2.046 -0.9260 -1.3049 -0.4989
  143MYC    H3329386   6.057   2.090   1.989 -1.3555 -0.4039 -0.5183
  143MYC    C1629387   6.034   1.907   2.191 -0.1427 -0.6138  0.0889
  143MYC    H2829388   6.144   1.914   2.192 -0.1728  0.1970 -0.7599
  143MYC    H2929389   6.008   1.853   2.099 -0.9559  0.9599 -0.6424
  143MYC    C1529390   5.984   1.817   2.308 -0.9218 -0.5766 -0.1208
  143MYC    H2629391   5.996   1.877   2.399  1.0630 -0.6253 -0.3234
  143MYC    H2729392   6.039   1.723   2.306 -1.6857 -1.0623  0.9134
  143MYC    C1429393   5.839   1.774   2.293  0.0585 -0.2848  1.1516
  143MYC    H2429394   5.838   1.730   2.193  1.5702  2.3180 -0.0977
  143MYC    H2529395   5.762   1.852   2.300 -1.3203 -1.4210 -0.5734
  143MYC    C1329396   5.808   1.675   2.412 -0.1432  0.1925 -0.0428
  143MYC    H2229397   5.799   1.738   2.500  0.2205  0.9475 -0.5354
  143MYC    H2329398   5.893   1.608   2.427  0.2826  0.1727 -2.1535
  143MYC    C1229399   5.682   1.595   2.397  0.9131 -0.2571 -0.1724
  143MYC    H2029400   5.678   1.535   2.305 -3.8941  0.3569 -0.6304
  143MYC    H2129401   5.593   1.660   2.393  1.9789  1.3808  1.4908
  143MYC    C1129402   5.656   1.495   2.508  1.0485  0.3226 -1.0036
  143MYC    H1829403   5.732   1.416   2.500 -1.7189 -2.5992 -0.6078
  143MYC    H1929404   5.561   1.447   2.481  1.9378 -3.0198  1.1015
  143MYC    C1029405   5.636   1.550   2.654  0.6619  0.7156 -0.2914
  143MYC    H1629406   5.553   1.622   2.645  0.5633  0.7984  1.0980
  143MYC    H1729407   5.725   1.603   2.689  1.4356 -0.5791 -0.2584
  143MYC     C929408   5.579   1.446   2.752 -0.0861 -0.3256 -0.9248
  143MYC    H1429409   5.651   1.364   2.745  0.4633  0.1262 -0.6598
  143MYC    H1529410   5.481   1.408   2.725 -0.1496  0.3164 -1.6501
  143MYC     C829411   5.566   1.509   2.896 -0.0442  0.2823 -0.5006
  143MYC    H1229412   5.486   1.455   2.947  0.2994 -1.5085 -1.7488
  143MYC    H1329413   5.547   1.616   2.894  2.4540  0.8064 -2.5378
  143MYC     C729414   5.704   1.499   2.981  0.7813  0.3040 -0.2898
  143MYC    H1029415   5.775   1.575   2.946  0.4118  0.1201 -1.4993
  143MYC    H1129416   5.745   1.399   2.963  1.5761  0.9237 -2.2674
  143MYC     C629417   5.676   1.519   3.134  0.7494 -0.0825 -0.3067
  143MYC     H829418   5.585   1.469   3.168  1.1158 -0.2866  0.3938
  143MYC     H929419   5.646   1.623   3.148 -4.0241 -1.0475 -1.4253
  143MYC     C529420   5.792   1.485   3.225 -0.1177  0.0331  0.0852
  143MYC     H629421   5.870   1.561   3.206  0.9086 -0.6437  1.4118
  143MYC     H729422   5.840   1.389   3.204  0.3293  0.2765 -0.0299
  143MYC     C429423   5.758   1.483   3.377  0.3196 -0.0507  0.7267
  143MYC     H429424   5.681   1.407   3.395  0.0787 -0.6793 -2.3569
  143MYC     H529425   5.716   1.582   3.400 -0.4147  0.1081 -1.1156
  143MYC     C229426   5.880   1.446   3.467  0.4725  0.1055 -0.4727
  143MYC     H229427   5.900   1.340   3.446  0.6895  0.0862 -0.1810
  143MYC     O329428   5.989   1.528   3.417  0.0665 -0.6148 -0.4094
  143MYC     H329429   5.951   1.618   3.425  0.9699 -0.2195 -0.4537
  143MYC     C129430   5.873   1.464   3.625 -0.1532 -0.3107 -0.5683
  143MYC     H129431   5.797   1.396   3.666 -1.0938  1.2203  0.2961
  143MYC    C8129432   5.836   1.606   3.659  0.0424 -0.3301  0.6922
  143MYC    O8229433   5.909   1.701   3.649  0.0977 -0.0834  0.6955
  143MYC    O8329434   5.699   1.628   3.676 -0.2755  0.2099 -0.0952
  143MYC   H10529435   5.677   1.722   3.680 -2.0584 -0.1978  1.5618
  143MYC    C2029436   6.003   1.413   3.703 -0.1781  0.3063 -0.8603
  143MYC    H3429437   6.035   1.321   3.653  0.4453 -0.1373  0.3270
  143MYC    H3529438   6.085   1.487   3.703  0.9656 -0.9193 -0.0360
  143MYC    C2129439   5.987   1.375   3.848 -0.1809  0.4931  0.1366
  143MYC    H3629440   5.915   1.295   3.870 -1.1973  1.1075 -0.8318
  143MYC    H3729441   6.085   1.345   3.885 -0.6116 -0.3398  0.6248
  143MYC    C2229442   5.946   1.485   3.946 -0.4639 -0.2754 -0.2211
  143MYC    H3829443   6.014   1.569   3.929 -0.1156 -0.9400 -2.4524
  143MYC    H3929444   5.844   1.513   3.919  0.0317  2.1986  0.1963
  143MYC    C2329445   5.948   1.432   4.093 -0.3284 -0.4339  0.9136
  143MYC    H4029446   5.891   1.499   4.159  0.5444  0.4383  0.7986
  143MYC    H4129447   5.891   1.338   4.086  1.5488 -1.4765 -2.1041
  143MYC    C2429448   6.087   1.394   4.151 -0.7089 -1.2472  0.7937
  143MYC    H4229449   6.131   1.318   4.084 -1.7020 -1.9755  0.9364
  143MYC    H4329450   6.149   1.483   4.166 -3.0115  0.4248  0.9260
  143MYC    C2529451   6.062   1.323   4.286  0.1206  0.0002 -0.4159
  143MYC    H4429452   5.975   1.257   4.283 -0.8217  1.0547  1.7548
  143MYC    H4529453   6.150   1.260   4.295 -0.2684 -0.6275 -0.9299
  143MYC    C2629454   6.047   1.416   4.404 -0.4444  0.1851  0.1032
  143MYC    H4629455   6.134   1.481   4.410 -0.5987  0.3737  0.2972
  143MYC    H4729456   5.955   1.472   4.385 -2.1698 -2.7293 -0.7845
  143MYC    C2729457   6.028   1.335   4.535  0.1643  0.0456  0.4900
  143MYC    H4829458   5.958   1.251   4.524  1.0619 -0.5065 -1.5080
  143MYC    H4929459   6.123   1.281   4.546 -0.9971 -3.1014 -2.8606
  143MYC    C2829460   5.986   1.414   4.660  0.5192 -0.3257 -0.2367
  143MYC    H5029461   6.041   1.509   4.664 -0.5201  0.2730  0.3853
  143MYC    H5129462   5.885   1.448   4.634  0.6571  0.5946  0.3766
  143MYC    C2929463   5.996   1.337   4.799  0.4127  0.1135 -0.0195
  143MYC    H5229464   5.929   1.251   4.798 -0.5561  0.7638  2.3984
  143MYC    H5329465   6.097   1.299   4.813  0.5487  0.7012  0.6669
  143MYC    C3029466   5.943   1.433   4.914 -0.0924 -0.1077  0.1826
  143MYC    H5429467   6.016   1.509   4.940  0.4831 -1.8501  4.4453
  143MYC    H5529468   5.849   1.482   4.887  0.4022  0.4338 -0.5913
  143MYC    C3129469   5.938   1.359   5.047  0.7592 -0.3642  0.1969
  143MYC    H5629470   5.865   1.278   5.034 -0.9607  1.2992 -1.0140
  143MYC    H5729471   6.035   1.314   5.075  0.1728 -0.1846  2.7873
  143MYC    C3229472   5.900   1.431   5.174 -0.0572 -0.3562  0.6895
  143MYC    H5829473   5.977   1.509   5.182 -0.4172  0.3424 -1.9394
  143MYC    H5929474   5.808   1.488   5.162  0.1310  0.1255  1.4337
  143MYC    C3329475   5.903   1.339   5.305  0.0575  0.2957  0.3037
  143MYC    H6029476   5.844   1.249   5.284  0.6281 -0.0299  0.0504
  143MYC    H6129477   6.008   1.310   5.321 -0.4532 -1.1728  1.1933
  143MYC    C3429478   5.841   1.409   5.431 -0.0867 -0.0956  0.2158
  143MYC    H6229479   5.886   1.508   5.446 -2.0845  1.2431 -1.7821
  143MYC    H6329480   5.734   1.430   5.416 -0.2059 -1.2454 -0.6960
  143MYC    C3529481   5.850   1.333   5.563  0.4956 -0.1359  0.2477
  143MYC    H6429482   5.824   1.227   5.556 -0.8094  0.0457  1.5995
  143MYC    H6529483   5.954   1.333   5.598  0.8780  1.3774 -0.7636
  143MYC    C3629484   5.776   1.395   5.680  0.0868 -0.0743 -1.1097
  143MYC    H6629485   5.816   1.497   5.687 -0.9268  0.2440  3.1432
  143MYC    H6729486   5.668   1.401   5.663 -0.9413 -2.2266  3.2222
  143MYC    C3729487   5.791   1.319   5.812 -0.2336 -0.1035 -0.1976
  143MYC    H6829488   5.733   1.226   5.804 -0.9869  0.5099 -2.9857
  143MYC    H6929489   5.895   1.298   5.839 -0.1607  1.0296  0.4900
  143MYC    C3829490   5.730   1.399   5.931 -0.0008 -0.1709  0.0872
  143MYC    H7029491   5.792   1.487   5.950 -2.6680  1.2432  3.4501
  143MYC    H7129492   5.631   1.440   5.905  0.7219  1.4172 -0.2774
  143MYC    C3929493   5.720   1.339   6.068  0.2021  0.5260 -0.8699
  143MYC    H7229494   5.637   1.267   6.076  1.0694 -0.2884  3.4163
  143MYC    H7329495   5.816   1.296   6.095  0.3806  1.4298 -0.0214
  143MYC    C4029496   5.681   1.445   6.172  0.1915 -0.7845  0.5887
  143MYC    H7429497   5.738   1.539   6.173  0.6313 -1.0084 -0.7111
  143MYC    H7529498   5.579   1.479   6.148 -0.1017 -1.7344  0.4714
  143MYC    C4129499   5.675   1.389   6.313 -0.3575 -0.4293  1.0855
  143MYC    H7629500   5.620   1.295   6.309  1.4388 -1.4900 -2.1251
  143MYC    H7729501   5.778   1.361   6.336 -0.2930 -1.5292 -0.4099
  143MYC    C4229502   5.639   1.496   6.417 -0.0810  0.3727 -0.7559
  143MYC    H7829503   5.672   1.450   6.511 -2.2587 -0.1434 -0.1839
  143MYC    H7929504   5.698   1.585   6.394  0.5016 -0.5128 -2.9755
  143MYC    C4329505   5.482   1.531   6.450 -0.9556  0.7682  0.1265
  143MYC    H8029506   5.420   1.441   6.436  1.1742 -0.8682  0.6225
  143MYC    H8129507   5.450   1.612   6.384  1.4209  1.6054 -0.1126
  143MYC    H8229508   5.474   1.551   6.557 -2.0853 -3.0076  0.9088
  144MYC   HH1529509   3.805   2.036   6.173  1.3983  1.3463  0.0678
  144MYC    C8029510   3.856   2.018   6.078  0.7962  0.2888 -0.0686
  144MYC   H10029511   3.951   2.072   6.089  1.7188 -1.4255  0.8930
  144MYC   H10129512   3.874   1.910   6.066 -1.2266 -0.1987  0.9234
  144MYC    C7929513   3.785   2.061   5.952  0.6626  0.4124 -0.8994
  144MYC   H10229514   3.786   2.171   5.957  1.6061  0.3550  0.9130
  144MYC   H10329515   3.682   2.030   5.973  1.2767 -1.8677 -1.0486
  144MYC    C7829516   3.836   2.018   5.815 -0.0885  0.0976 -0.6176
  144MYC   HH1429517   3.834   1.909   5.823 -3.2684  0.0597 -0.7030
  144MYC   H10429518   3.942   2.044   5.818 -0.1310  0.4269 -1.6915
  144MYC    C7729519   3.764   2.072   5.686  0.1540  0.2222 -1.0561
  144MYC   H10629520   3.755   2.180   5.701 -0.6201 -0.1785  2.1060
  144MYC   H10729521   3.659   2.040   5.687  0.1009  0.2531  1.5384
  144MYC    C7629522   3.838   2.037   5.557 -0.1927  0.0002  0.0250
  144MYC   H10829523   3.769   2.020   5.474  0.5489 -0.5355 -0.4907
  144MYC   H10929524   3.891   1.945   5.582 -0.1840  0.0449  0.1733
  144MYC    C7529525   3.938   2.141   5.510 -0.7065  0.5109 -0.5137
  144MYC   H11029526   4.028   2.134   5.572 -0.6339 -1.2631 -0.7558
  144MYC   H11129527   3.911   2.247   5.516  0.9314  0.8738  2.4650
  144MYC    C7429528   3.990   2.106   5.365  0.6915 -0.0257 -0.2328
  144MYC   H11229529   3.909   2.130   5.295  0.1831 -0.1877  0.2853
  144MYC   H11329530   3.991   1.999   5.342  1.3497  0.2776 -1.7251
  144MYC    C7329531   4.115   2.171   5.310 -0.4223 -0.4616 -0.4998
  144MYC   HH1329532   4.193   2.146   5.383 -0.9239 -2.3477 -0.5740
  144MYC   H11429533   4.093   2.278   5.310  1.8522  0.0941  0.9840
  144MYC    C7229534   4.160   2.119   5.170  0.3994 -0.4355 -0.5066
  144MYC   H11529535   4.066   2.112   5.116 -0.5888 -1.7005  1.2738
  144MYC   H11629536   4.202   2.019   5.187  2.0214 -0.4490 -3.7449
  144MYC    C7129537   4.263   2.208   5.103  0.1547 -0.1692 -0.1766
  144MYC   H11729538   4.366   2.210   5.141  0.7219  0.3445 -1.6610
  144MYC   H11829539   4.229   2.310   5.122  1.6417  0.0024  1.8579
  144MYC    C7029540   4.276   2.175   4.957  0.9948 -0.4272 -0.3915
  144MYC   H11929541   4.182   2.198   4.907  1.3199 -0.9055 -1.2412
  144MYC   H12029542   4.299   2.068   4.951  0.4006 -0.9534  3.7746
  144MYC    C6929543   4.386   2.248   4.879 -0.4013 -0.0617  0.0393
  144MYC   H12129544   4.484   2.212   4.914 -0.9037 -2.1412 -0.5464
  144MYC   H12229545   4.383   2.354   4.907  3.1195  0.3769 -0.7403
  144MYC    C6829546   4.381   2.227   4.726  0.0553 -0.5629  0.4282
  144MYC   HH1229547   4.296   2.277   4.678  1.5738  1.7956  0.0042
  144MYC   H12329548   4.378   2.119   4.706 -0.8139 -0.4434 -0.1621
  144MYC    C6729549   4.515   2.266   4.653  0.0604  0.3081  0.5966
  144MYC   H12429550   4.599   2.216   4.702 -1.1167 -0.8143  1.5331
  144MYC   H12529551   4.532   2.374   4.666 -0.7434  0.4941  0.1578
  144MYC    C6629552   4.507   2.227   4.496 -0.0831 -0.6798  0.3314
  144MYC   H12629553   4.405   2.229   4.457  0.6197 -1.3988 -1.6485
  144MYC   H12729554   4.534   2.123   4.478  1.7187 -0.4937  1.6734
  144MYC    C6529555   4.585   2.332   4.415  0.1745 -0.1059 -0.1266
  144MYC   H12829556   4.673   2.355   4.476  0.4751  1.2478 -1.0362
  144MYC   H12929557   4.538   2.431   4.413  0.8996  0.2423 -0.0189
  144MYC    C6429558   4.620   2.289   4.278 -0.2171  0.0616 -0.4563
  144MYC   H13029559   4.523   2.258   4.235 -0.7166  0.0391  0.6590
  144MYC   H13129560   4.673   2.193   4.277 -0.0458  0.1413  0.3018
  144MYC    C6329561   4.703   2.390   4.194  0.4969  0.6532 -0.4874
  144MYC   HH1129562   4.792   2.429   4.245  0.4874 -0.4275  0.3923
  144MYC   H13229563   4.646   2.482   4.177  2.4405  2.3152  1.4243
  144MYC    C6229564   4.740   2.343   4.053  0.4812 -0.0702 -0.2877
  144MYC   H13329565   4.653   2.310   3.994  0.2840 -1.5855  0.7706
  144MYC   H13429566   4.807   2.256   4.058 -0.1454 -0.6546 -1.5443
  144MYC    C6129567   4.819   2.449   3.981 -0.2469  0.1608 -0.5066
  144MYC   H13529568   4.897   2.489   4.047 -2.6964  1.6977  1.6373
  144MYC   H13629569   4.760   2.537   3.955 -1.5438 -1.1401 -2.1913
  144MYC    C6029570   4.895   2.409   3.848 -0.1502  0.0960  0.0807
  144MYC   H13729571   4.836   2.335   3.797 -2.1457  1.9989 -0.5312
  144MYC    C5829572   4.997   2.497   3.791  0.1010  0.1258 -0.2865
  144MYC   H13829573   5.023   2.587   3.847 -1.9318  0.9320 -0.5418
  144MYC    C5929574   5.047   2.373   3.853  0.1356  0.1747  0.1126
  144MYC   H13929575   5.087   2.298   3.786 -2.1096 -1.9647  1.0372
  144MYC   H14029576   5.102   2.388   3.946  0.9157 -0.1743 -0.2835
  144MYC    C5729577   5.008   2.513   3.637  0.3786  0.3988 -1.0743
  144MYC   HH1029578   4.953   2.604   3.609 -1.5079 -0.1052  0.7515
  144MYC   H14129579   4.958   2.436   3.578  0.6106  1.3303 -2.5488
  144MYC    C5629580   5.149   2.513   3.587  0.0947 -0.0867 -0.1685
  144MYC   H14229581   5.190   2.413   3.606  0.6650 -0.7463 -3.9762
  144MYC   H14329582   5.215   2.580   3.644 -1.3275  2.4080 -1.2819
  144MYC    C5529583   5.146   2.543   3.434  0.0185  0.2560  0.5970
  144MYC   H14429584   5.122   2.649   3.423  1.7834  0.8328  1.8193
  144MYC   H14529585   5.062   2.495   3.384  1.4051 -1.3745 -0.2979
  144MYC    C5429586   5.282   2.514   3.358  0.0322 -0.0122  0.0730
  144MYC   H14629587   5.312   2.412   3.383 -3.6256 -1.3312 -0.2079
  144MYC   H14729588   5.356   2.580   3.403 -0.6088  0.2358  0.7839
  144MYC    C5329589   5.291   2.534   3.207 -0.4186  0.4495  0.1891
  144MYC   H14829590   5.208   2.481   3.159 -1.0307  0.5097  1.1469
  144MYC   H14929591   5.374   2.478   3.163 -2.2476 -0.6432 -2.0824
  144MYC    C5229592   5.295   2.682   3.157 -0.6580 -0.0218  0.2585
  144MYC    H9929593   5.380   2.727   3.210 -0.2118  0.4104 -0.7991
  144MYC   H15029594   5.208   2.743   3.185  0.2083 -0.0593  3.3955
  144MYC    C5129595   5.321   2.692   3.006 -0.4120 -0.1125 -0.5228
  144MYC    H9729596   5.412   2.639   2.974  0.0943 -0.8440  1.8804
  144MYC    H9829597   5.336   2.799   2.987 -0.5239 -0.3653 -2.0884
  144MYC    C5029598   5.198   2.650   2.923  0.3393 -0.3482  0.0845
  144MYC    H9529599   5.119   2.707   2.973  0.6289  1.5392 -1.4652
  144MYC    H9629600   5.184   2.543   2.941  0.5042  0.1789  4.2975
  144MYC    C4929601   5.206   2.694   2.765 -0.5282 -0.5040 -0.0576
  144MYC    H9329602   5.185   2.801   2.753 -0.1897 -0.7184 -3.2135
  144MYC    H9429603   5.129   2.647   2.703  0.2111  0.0291 -1.4129
  144MYC    C4829604   5.347   2.672   2.702 -0.7903  0.0391  0.0581
  144MYC    H9129605   5.395   2.576   2.723 -0.0315  0.1669 -0.9990
  144MYC    H9229606   5.421   2.743   2.742  0.4132 -0.5958 -0.9585
  144MYC    C4729607   5.340   2.699   2.547  0.4972 -0.0635 -0.2693
  144MYC    H8929608   5.283   2.788   2.520  0.8774 -0.4197 -2.4841
  144MYC    H9029609   5.281   2.616   2.505 -0.2443  0.8815 -1.1383
  144MYC    C4629610   5.474   2.713   2.479 -0.5240  0.9348  0.5904
  144MYC    H8729611   5.541   2.628   2.493 -0.7514  0.7048  0.2867
  144MYC    H8829612   5.528   2.782   2.545  1.3168  0.5784 -0.4817
  144MYC    C4529613   5.468   2.754   2.335  0.7210 -0.0758  0.1055
  144MYC    H8529614   5.425   2.854   2.332  1.3282  0.5601  4.7614
  144MYC    H8629615   5.390   2.697   2.282  0.7851 -0.8352  0.8047
  144MYC    C4429616   5.604   2.747   2.259 -0.6031  0.2533 -0.2799
  144MYC    H8329617   5.631   2.642   2.275 -1.9497 -0.1450 -0.4714
  144MYC    H8429618   5.675   2.815   2.307  0.2025 -0.2335 -0.7611
  144MYC    C1829619   5.606   2.774   2.107 -0.5937  0.0223 -0.2423
  144MYC    H3129620   5.597   2.879   2.082  0.2650 -0.0499 -0.9193
  144MYC    C1729621   5.693   2.679   2.019  0.8110  0.0041 -0.0674
  144MYC    H3029622   5.745   2.595   2.064  2.2926  0.1441 -1.4132
  144MYC    C1929623   5.538   2.677   2.018 -0.2382 -0.3617 -0.4049
  144MYC    H3229624   5.482   2.596   2.063 -0.7310 -0.5684 -1.3610
  144MYC    H3329625   5.476   2.726   1.944 -1.4383 -1.8719 -0.4551
  144MYC    C1629626   5.766   2.727   1.889  0.5935 -0.4249 -0.5808
  144MYC    H2829627   5.760   2.836   1.879  0.5845 -0.3173  0.5610
  144MYC    H2929628   5.732   2.678   1.797  1.3931 -0.1832 -1.0205
  144MYC    C1529629   5.918   2.700   1.878  0.1704 -0.1796 -0.1612
  144MYC    H2629630   5.931   2.715   1.770  3.0453 -1.3124 -0.0489
  144MYC    H2729631   5.928   2.592   1.899 -1.3777 -0.0290  1.7153
  144MYC    C1429632   6.001   2.801   1.959  0.9168 -0.6199  0.3431
  144MYC    H2429633   5.969   2.795   2.064 -3.4969  0.7267 -0.6864
  144MYC    H2529634   5.967   2.898   1.920  0.6235 -0.6530  0.5098
  144MYC    C1329635   6.154   2.800   1.938  0.0585  0.0130  0.2941
  144MYC    H2229636   6.164   2.823   1.831 -1.0954  2.8213  0.7133
  144MYC    H2329637   6.199   2.703   1.960 -1.2712 -0.6174  0.3695
  144MYC    C1229638   6.226   2.909   2.019 -0.3747  0.6501 -1.3145
  144MYC    H2029639   6.189   3.010   1.996  0.7277  0.8751 -2.1714
  144MYC    H2129640   6.333   2.910   1.993  0.2786  0.5405  1.1212
  144MYC    C1129641   6.207   2.885   2.173  0.4977 -0.6117  0.5389
  144MYC    H1829642   6.238   2.785   2.204 -0.4226 -0.3448  2.5028
  144MYC    H1929643   6.104   2.899   2.207  0.3550  1.3083 -0.5094
  144MYC    C1029644   6.284   2.992   2.258 -0.4545  0.2025 -0.3099
  144MYC    H1629645   6.255   3.097   2.245 -1.1981 -0.0126 -0.4727
  144MYC    H1729646   6.386   2.999   2.221 -0.1589  1.3106  0.6628
  144MYC     C929647   6.286   2.954   2.408  0.3452  0.1086  0.2499
  144MYC    H1429648   6.375   2.994   2.458  0.4642  1.6209 -1.0875
  144MYC    H1529649   6.288   2.846   2.426 -0.9706  0.1808  0.9810
  144MYC     C829650   6.158   3.009   2.490 -1.0933  0.2220 -0.3844
  144MYC    H1229651   6.067   2.977   2.438 -1.8060  1.0338  0.3304
  144MYC    H1329652   6.164   3.118   2.488 -1.1678  0.2285 -0.2743
  144MYC     C729653   6.158   2.957   2.635 -0.0610  0.5127 -0.3719
  144MYC    H1029654   6.255   2.968   2.684 -0.6699  0.5605  0.8508
  144MYC    H1129655   6.146   2.848   2.630  1.5075  0.3034 -0.0396
  144MYC     C629656   6.051   3.015   2.721 -0.5713 -0.9245  0.4378
  144MYC     H829657   5.956   2.981   2.677 -0.9780 -0.3124  0.8357
  144MYC     H929658   6.056   3.123   2.706  0.2092 -1.3693 -3.6731
  144MYC     C529659   6.065   2.979   2.868 -0.9104 -0.3048 -0.5307
  144MYC     H629660   5.997   3.037   2.932  0.1095 -1.5556  1.7852
  144MYC     H729661   6.165   3.014   2.898 -1.4248 -0.0406  0.9628
  144MYC     C429662   6.054   2.835   2.904  0.4257  0.2772  0.0923
  144MYC     H429663   6.102   2.823   3.002  1.5483 -1.1636 -0.6052
  144MYC     H529664   6.122   2.780   2.838  1.0479  0.9121  0.1996
  144MYC     C229665   5.907   2.786   2.912  0.0726  0.3429 -0.5758
  144MYC     H229666   5.852   2.858   2.973 -1.0093 -0.7891 -0.1765
  144MYC     O329667   5.841   2.782   2.786  0.2221  0.0726 -0.3488
  144MYC     H329668   5.805   2.692   2.778  0.9645 -0.0298 -3.4325
  144MYC     C129669   5.885   2.650   2.983 -0.0625  0.0605  0.1342
  144MYC     H129670   5.916   2.667   3.086 -2.7229  0.7272  0.9050
  144MYC    C8129671   5.965   2.528   2.915  0.1287  0.1309 -0.2724
  144MYC    O8229672   6.048   2.464   2.972 -0.7666  0.3351 -0.6629
  144MYC    O8329673   5.908   2.488   2.797  0.1464 -0.1106 -0.2020
  144MYC   H10529674   5.958   2.413   2.762 -0.0651 -0.0802 -0.5776
  144MYC    C2029675   5.729   2.620   2.995  0.3444  0.1942 -0.0915
  144MYC    H3429676   5.673   2.708   3.031  0.5936  0.2317  0.2051
  144MYC    H3529677   5.683   2.586   2.901  1.1347  0.1811 -0.4756
  144MYC    C2129678   5.699   2.494   3.074 -0.0334 -0.7629 -0.1928
  144MYC    H3629679   5.594   2.469   3.055 -0.3934 -0.0312  0.7425
  144MYC    H3729680   5.762   2.408   3.050  0.8862 -0.1614 -0.0191
  144MYC    C2229681   5.713   2.510   3.222 -0.0840  0.0771 -1.0586
  144MYC    H3829682   5.819   2.516   3.249  0.5194 -0.4562 -3.1606
  144MYC    H3929683   5.668   2.598   3.271  1.3154 -1.1786  2.9132
  144MYC    C2329684   5.651   2.391   3.306 -0.0429  0.1685 -0.0043
  144MYC    H4029685   5.547   2.369   3.279  0.8832 -3.5969 -1.1603
  144MYC    H4129686   5.718   2.304   3.296  0.9974  0.4082  3.3538
  144MYC    C2429687   5.649   2.415   3.455  0.1397 -0.5169  0.2739
  144MYC    H4229688   5.601   2.511   3.475  0.0616 -0.3603 -0.5890
  144MYC    H4329689   5.586   2.342   3.507 -0.6730 -0.4726 -0.6045
  144MYC    C2529690   5.793   2.414   3.525  0.1734 -0.4026  0.3361
  144MYC    H4429691   5.834   2.312   3.519 -1.5852 -1.1494  0.4391
  144MYC    H4529692   5.858   2.478   3.465 -0.4971  0.9803  1.0441
  144MYC    C2629693   5.792   2.468   3.667 -0.3479 -0.0833 -0.2769
  144MYC    H4629694   5.895   2.480   3.700 -0.2481 -0.4762 -0.4440
  144MYC    H4729695   5.763   2.574   3.663  0.5151  0.1373 -1.3974
  144MYC    C2729696   5.704   2.401   3.774  0.6380 -0.1641  0.4802
  144MYC    H4829697   5.597   2.414   3.752  1.3336  1.9841 -2.2165
  144MYC    H4929698   5.734   2.296   3.762 -1.3733 -0.5184 -2.4731
  144MYC    C2829699   5.730   2.451   3.923 -0.3593  0.1696  0.6172
  144MYC    H5029700   5.836   2.437   3.947 -0.1104 -0.3775 -0.6912
  144MYC    H5129701   5.720   2.558   3.904  0.1471  0.1975  0.4888
  144MYC    C2929702   5.635   2.390   4.030 -0.1266  0.0789 -0.0655
  144MYC    H5229703   5.528   2.382   4.006 -0.0983 -1.4845  0.2106
  144MYC    H5329704   5.648   2.282   4.044 -2.5217 -0.2596 -0.0438
  144MYC    C3029705   5.652   2.462   4.170  0.3878  0.6676  0.7076
  144MYC    H5429706   5.749   2.435   4.212 -0.2030 -1.6439  0.7200
  144MYC    H5529707   5.653   2.570   4.151 -1.2746  0.6571  0.3653
  144MYC    C3129708   5.540   2.426   4.277 -0.4192  0.2115 -0.1941
  144MYC    H5629709   5.558   2.489   4.365 -1.1454  2.2358 -1.4316
  144MYC    H5729710   5.447   2.473   4.244  1.1971  1.9509 -2.6096
  144MYC    C3229711   5.531   2.289   4.337  0.7995 -0.0972 -0.1440
  144MYC    H5829712   5.535   2.206   4.266  0.1184  0.3965 -0.7783
  144MYC    H5929713   5.625   2.280   4.392  0.5746  0.1197  0.2851
  144MYC    C3329714   5.411   2.270   4.438  1.3267 -0.0024  0.3337
  144MYC    H6029715   5.313   2.271   4.390  2.0450  2.0525 -1.2031
  144MYC    H6129716   5.434   2.170   4.478  0.5408  0.2452  1.4362
  144MYC    C3429717   5.398   2.383   4.559  0.2128  1.0267 -0.4198
  144MYC    H6229718   5.492   2.385   4.616  0.2381  2.3006 -0.4841
  144MYC    H6329719   5.398   2.486   4.522  0.7320  1.6611  1.2796
  144MYC    C3529720   5.293   2.367   4.661 -0.6565 -0.7111 -0.0139
  144MYC    H6429721   5.296   2.459   4.721  2.1869 -1.3721  1.0003
  144MYC    H6529722   5.199   2.343   4.610 -0.0239 -3.7216  0.0604
  144MYC    C3629723   5.308   2.254   4.763 -0.2781  0.4830 -0.2976
  144MYC    H6629724   5.327   2.167   4.700  0.7500 -0.3065  1.0520
  144MYC    H6729725   5.401   2.266   4.820 -0.9733 -3.6102  2.1299
  144MYC    C3729726   5.201   2.260   4.870 -0.0169  0.1119 -0.2871
  144MYC    H6829727   5.206   2.349   4.934 -4.0810 -0.1364  0.6561
  144MYC    H6929728   5.104   2.263   4.818  0.2566  1.5086 -0.7500
  144MYC    C3829729   5.203   2.139   4.976 -0.1622 -1.0285  0.0648
  144MYC    H7029730   5.200   2.044   4.922  0.2424 -0.6790 -0.5912
  144MYC    H7129731   5.295   2.144   5.034 -1.5220  0.0270  2.2828
  144MYC    C3929732   5.075   2.147   5.059  0.2852 -0.1096  0.0271
  144MYC    H7229733   5.062   2.248   5.100 -1.4322 -0.3872  0.2128
  144MYC    H7329734   4.998   2.114   4.988  1.8685 -2.1975 -0.8132
  144MYC    C4029735   5.061   2.047   5.176  0.2825  0.7767  0.0859
  144MYC    H7429736   5.053   1.945   5.137  0.7123  1.2532 -1.3080
  144MYC    H7529737   5.153   2.047   5.235  0.8714 -2.3052 -0.6386
  144MYC    C4129738   4.935   2.069   5.273 -0.7786  0.7155  0.3860
  144MYC    H7629739   4.908   2.175   5.279 -1.5668  0.5839 -0.5359
  144MYC    H7729740   4.847   2.023   5.228 -0.6035  0.5487  0.2115
  144MYC    C4229741   4.949   2.012   5.412  1.4103 -0.4129  0.0340
  144MYC    H7829742   4.970   1.906   5.393 -1.2862 -0.6310 -2.4709
  144MYC    H7929743   5.026   2.058   5.474 -0.9261  1.0419  2.0523
  144MYC    C4329744   4.816   1.984   5.484 -0.1416  0.6102  0.0832
  144MYC    H8029745   4.841   1.941   5.582  1.1327  1.3277  0.0913
  144MYC    H8129746   4.764   1.911   5.422  0.3390 -0.8462  1.3137
  144MYC    H8229747   4.753   2.072   5.505  0.5267  1.1782 -0.2255
  145MYC   HH1529748   4.667   2.833   6.071 -0.5972  0.7399 -0.8775
  145MYC    C8029749   4.592   2.758   6.101  0.1836  0.0806 -0.5617
  145MYC   H10029750   4.614   2.652   6.083 -0.4929 -0.1695  0.0428
  145MYC   H10129751   4.580   2.765   6.210 -1.3415 -1.2176 -0.6270
  145MYC    C7929752   4.466   2.802   6.031 -0.5591  0.0166  0.1659
  145MYC   H10229753   4.473   2.910   6.045  0.1537 -0.2218  1.8349
  145MYC   H10329754   4.379   2.764   6.087 -1.2943  0.1479 -0.8680
  145MYC    C7829755   4.453   2.761   5.876 -0.2841 -0.2597 -0.0316
  145MYC   HH1429756   4.355   2.801   5.847  0.0891 -0.4654 -1.6982
  145MYC   H10429757   4.466   2.656   5.848  1.6513  0.1549 -0.8762
  145MYC    C7729758   4.556   2.836   5.791  0.2805  0.5956  0.0653
  145MYC   H10629759   4.657   2.803   5.818 -0.3897 -1.0090  0.7077
  145MYC   H10729760   4.541   2.944   5.800 -1.5273  0.3529  0.3422
  145MYC    C7629761   4.539   2.790   5.634 -0.6799  0.2145 -0.3054
  145MYC   H10829762   4.435   2.801   5.603 -0.1006  2.8976 -1.6433
  145MYC   H10929763   4.573   2.685   5.633  0.2491  0.4929  0.2326
  145MYC    C7529764   4.637   2.882   5.547  0.5660  0.2165 -0.0234
  145MYC   H11029765   4.737   2.845   5.575  1.5762  2.2447 -0.7932
  145MYC   H11129766   4.630   2.982   5.591 -2.1897 -0.7123  1.8973
  145MYC    C7429767   4.614   2.869   5.398 -0.3774 -0.4144  0.0624
  145MYC   H11229768   4.513   2.901   5.370 -0.4260 -1.4371 -1.0355
  145MYC   H11329769   4.612   2.762   5.372 -1.1525 -0.3033 -0.3822
  145MYC    C7329770   4.716   2.942   5.319 -0.3432 -0.5964  0.1423
  145MYC   HH1329771   4.816   2.914   5.353  0.5296  1.3051 -0.7270
  145MYC   H11429772   4.687   3.046   5.339  1.3757 -0.1754  0.6174
  145MYC    C7229773   4.717   2.930   5.163 -0.3734 -0.0454 -0.3861
  145MYC   H11529774   4.613   2.940   5.129 -0.6707  1.0916  0.7801
  145MYC   H11629775   4.755   2.830   5.140  0.2114  0.1318 -0.2301
  145MYC    C7129776   4.813   3.031   5.090 -0.2087 -0.4130 -0.1345
  145MYC   H11729777   4.909   3.035   5.142 -0.4730 -2.0913  0.5507
  145MYC   H11829778   4.768   3.131   5.091  2.4312  0.9414 -2.1963
  145MYC    C7029779   4.821   3.003   4.937 -0.3732  0.0129  0.0041
  145MYC   H11929780   4.725   3.036   4.897  0.3189  1.0305 -0.8663
  145MYC   H12029781   4.844   2.896   4.927  0.8527  0.4001 -1.7506
  145MYC    C6929782   4.930   3.083   4.862  0.5986  0.5320 -0.4953
  145MYC   H12129783   5.023   3.066   4.917  0.9714  1.6135 -0.7741
  145MYC   H12229784   4.899   3.188   4.865 -3.0711 -0.4439  0.8451
  145MYC    C6829785   4.933   3.052   4.707  0.5561  0.2176  0.0999
  145MYC   HH1229786   4.835   3.030   4.663  0.4242 -0.9693  0.9469
  145MYC   H12329787   4.979   2.953   4.700  0.1855 -0.0686  1.5092
  145MYC    C6729788   5.021   3.145   4.627 -0.0035  1.0037 -0.3828
  145MYC   H12429789   5.119   3.143   4.674 -0.0663 -1.6470 -0.2384
  145MYC   H12529790   4.983   3.248   4.628  0.5301  1.1947  0.8135
  145MYC    C6629791   5.047   3.105   4.476 -0.0206 -0.2329  0.0901
  145MYC   H12629792   4.950   3.098   4.425 -0.6763 -0.4241  1.3159
  145MYC   H12729793   5.098   3.008   4.474  1.2372  0.4250 -0.8710
  145MYC    C6529794   5.144   3.197   4.397 -0.4154 -0.1077  0.2163
  145MYC   H12829795   5.242   3.199   4.447 -0.2777 -1.5261  0.0199
  145MYC   H12929796   5.097   3.296   4.409  0.1002 -0.1153  3.1410
  145MYC    C6429797   5.163   3.165   4.251  0.5385 -0.4343 -0.4134
  145MYC   H13029798   5.068   3.145   4.200  0.5862  0.9255 -1.0516
  145MYC   H13129799   5.225   3.075   4.242  1.5227 -0.0939  2.0243
  145MYC    C6329800   5.231   3.272   4.177  0.0670  0.7679  0.5875
  145MYC   HH1129801   5.331   3.266   4.221 -0.6620 -0.4536  2.1861
  145MYC   H13229802   5.179   3.367   4.192 -0.5093  0.2032  2.5338
  145MYC    C6229803   5.245   3.241   4.018  0.2542 -0.1155  0.0556
  145MYC   H13329804   5.147   3.228   3.971  1.4236 -2.2539 -2.0299
  145MYC   H13429805   5.308   3.155   3.991  0.6602  0.4489 -0.8425
  145MYC    C6129806   5.324   3.349   3.935 -0.1406  0.0767 -0.6595
  145MYC   H13529807   5.397   3.399   4.000  0.5567  0.7388 -1.9238
  145MYC   H13629808   5.254   3.428   3.904  1.0032  0.8007 -1.4425
  145MYC    C6029809   5.388   3.299   3.803 -0.0759  0.0396 -0.0145
  145MYC   H13729810   5.329   3.221   3.755 -1.5264  0.3551  1.1513
  145MYC    C5829811   5.476   3.386   3.713 -0.1818 -0.1669  0.0272
  145MYC   H13829812   5.519   3.480   3.747 -1.1513  0.7470 -1.1710
  145MYC    C5929813   5.531   3.264   3.786  0.1543 -0.0034 -0.3180
  145MYC   H13929814   5.543   3.172   3.729 -3.0999 -1.7502  1.5208
  145MYC   H14029815   5.598   3.276   3.870  0.8219 -0.4234 -0.7796
  145MYC    C5729816   5.464   3.389   3.561  0.1896 -0.4419  0.2870
  145MYC   HH1029817   5.396   3.471   3.535 -0.9439 -1.0546  1.2224
  145MYC   H14129818   5.409   3.302   3.525 -0.2362 -0.4244  0.8767
  145MYC    C5629819   5.591   3.397   3.482 -0.1219 -0.7943  0.5059
  145MYC   H14229820   5.645   3.302   3.485 -0.1917 -0.8602 -0.1551
  145MYC   H14329821   5.655   3.472   3.530  2.4445 -1.8478 -1.0867
  145MYC    C5529822   5.569   3.441   3.326 -0.4703 -0.0270  0.4712
  145MYC   H14429823   5.532   3.544   3.330 -0.5186 -0.0774  1.4297
  145MYC   H14529824   5.491   3.377   3.283 -0.7405 -0.4689  1.5840
  145MYC    C5429825   5.704   3.427   3.234 -0.2543 -0.2475  0.0851
  145MYC   H14629826   5.743   3.325   3.229  0.3014  0.0173 -1.4408
  145MYC   H14729827   5.784   3.483   3.284 -3.6416  1.9367  3.6497
  145MYC    C5329828   5.690   3.478   3.094 -0.2027  0.0282  0.1053
  145MYC   H14829829   5.680   3.587   3.092 -0.3642  0.0222 -2.3076
  145MYC   H14929830   5.601   3.441   3.043 -1.9736  1.5764  1.9136
  145MYC    C5229831   5.812   3.440   3.000 -0.4066  0.0014 -0.0981
  145MYC    H9929832   5.827   3.331   3.003 -0.2613  0.0441  1.2453
  145MYC   H15029833   5.902   3.483   3.046 -0.1344 -0.2982 -0.3417
  145MYC    C5129834   5.803   3.502   2.859 -0.0909  0.0432  0.5602
  145MYC    H9729835   5.797   3.611   2.865 -1.2951  0.0880 -0.9189
  145MYC    H9829836   5.705   3.472   2.819 -1.3337  2.8419  1.2776
  145MYC    C5029837   5.919   3.453   2.771  0.8825 -0.4571  0.4841
  145MYC    H9529838   5.916   3.343   2.764  2.1624 -0.5138  0.4995
  145MYC    H9629839   6.009   3.484   2.825  1.4741 -1.1525 -0.0783
  145MYC    C4929840   5.915   3.519   2.623 -0.7335  1.0955 -0.5653
  145MYC    H9329841   5.911   3.627   2.636  1.3736  1.2174 -0.5276
  145MYC    H9429842   5.824   3.491   2.569  0.2385 -1.2043 -1.1334
  145MYC    C4829843   6.040   3.480   2.545 -0.3205 -0.2295 -0.0090
  145MYC    H9129844   6.011   3.375   2.533 -2.8710  0.6472 -2.8430
  145MYC    H9229845   6.127   3.493   2.610 -1.7465  3.3004  1.4062
  145MYC    C4729846   6.061   3.539   2.406  0.1878  0.2109  0.5249
  145MYC    H8929847   6.050   3.647   2.422  0.3889 -0.1242  3.6817
  145MYC    H9029848   5.974   3.506   2.349 -0.0579 -0.3391  1.2152
  145MYC    C4629849   6.195   3.488   2.336  0.1669 -0.7438  0.1676
  145MYC    H8729850   6.214   3.383   2.358  0.3028 -1.3648 -2.5461
  145MYC    H8829851   6.285   3.530   2.383 -0.9880  0.8210  1.0947
  145MYC    C4529852   6.186   3.504   2.181  0.1971 -0.1087  0.1250
  145MYC    H8529853   6.179   3.611   2.158 -1.3528  0.2432  2.0042
  145MYC    H8629854   6.092   3.452   2.159  0.4757 -2.0189  2.8707
  145MYC    C4429855   6.300   3.439   2.098  0.1872  0.2202 -0.5229
  145MYC    H8329856   6.270   3.441   1.993  0.8676  0.6060 -0.7102
  145MYC    H8429857   6.293   3.334   2.130  0.0892 -0.9627 -4.0017
  145MYC    C1829858   6.441   3.481   2.120  0.5952 -0.3583 -0.5515
  145MYC    H3129859   6.446   3.547   2.206  2.2973 -1.0914 -0.0339
  145MYC    C1729860   6.562   3.404   2.085  0.0321  0.1144 -0.0889
  145MYC    H3029861   6.558   3.307   2.037 -1.9840 -0.3501  0.9295
  145MYC    C1929862   6.522   3.515   1.998  0.5303  0.5536  0.3484
  145MYC    H3229863   6.471   3.499   1.903  1.5705  2.2207 -0.5361
  145MYC    H3329864   6.581   3.606   2.010  2.4309 -0.5193 -0.5095
  145MYC    C1629865   6.681   3.416   2.176  0.4036 -0.4960  0.9038
  145MYC    H2829866   6.676   3.517   2.219  0.0102 -0.4117  0.6671
  145MYC    H2929867   6.775   3.411   2.120 -0.2003  1.0608 -0.3346
  145MYC    C1529868   6.678   3.321   2.294 -0.4069  0.3244 -0.1020
  145MYC    H2629869   6.766   3.346   2.353  0.8402 -0.2852 -1.6357
  145MYC    H2729870   6.695   3.218   2.260  0.2878  0.5808 -0.5563
  145MYC    C1429871   6.560   3.346   2.397 -0.2290  0.1390 -0.5025
  145MYC    H2429872   6.473   3.303   2.345 -2.3002 -0.0634  2.8048
  145MYC    H2529873   6.542   3.454   2.408  0.1577  0.4271 -2.4414
  145MYC    C1329874   6.591   3.274   2.535  0.5854 -0.1053 -0.5989
  145MYC    H2229875   6.675   3.327   2.582  0.1195 -0.4177  0.6172
  145MYC    H2329876   6.611   3.168   2.513  1.7826 -0.2609  1.0684
  145MYC    C1229877   6.472   3.254   2.626 -0.6794  0.5427  0.1207
  145MYC    H2029878   6.499   3.179   2.702  0.8442 -0.3081 -1.1895
  145MYC    H2129879   6.390   3.208   2.569 -0.5045 -0.3518  0.5845
  145MYC    C1129880   6.428   3.382   2.697  0.6509  0.2725 -0.5077
  145MYC    H1829881   6.390   3.449   2.618  1.4461  2.3016  0.7573
  145MYC    H1929882   6.513   3.436   2.741 -0.2777  1.2856  0.1020
  145MYC    C1029883   6.304   3.367   2.798  0.1877  0.2639 -0.0870
  145MYC    H1629884   6.226   3.308   2.748 -0.7733  2.9772 -2.0639
  145MYC    H1729885   6.269   3.470   2.812 -0.7298  0.2000 -1.6924
  145MYC     C929886   6.332   3.297   2.929 -0.5419  0.6786  0.7133
  145MYC    H1429887   6.409   3.359   2.976 -0.9838  1.4363  0.4493
  145MYC    H1529888   6.378   3.199   2.915 -0.0414  0.8540  1.1060
  145MYC     C829889   6.204   3.291   3.016  0.7634  0.2696  0.0904
  145MYC    H1229890   6.125   3.237   2.962  0.8701  1.3830 -1.2174
  145MYC    H1329891   6.174   3.396   3.012 -0.3558 -0.0115  0.7109
  145MYC     C729892   6.217   3.233   3.163  0.0400  0.1490 -0.4162
  145MYC    H1029893   6.321   3.245   3.196 -0.0942 -1.3528  0.6508
  145MYC    H1129894   6.189   3.128   3.175  0.2352  0.2776  1.3989
  145MYC     C629895   6.124   3.317   3.265 -0.1296 -0.4195  0.0305
  145MYC     H829896   6.023   3.336   3.224 -0.4002  0.4794  1.0617
  145MYC     H929897   6.164   3.419   3.266  1.1418 -0.8924 -0.8353
  145MYC     C529898   6.111   3.267   3.413  0.3222  0.1011  0.5733
  145MYC     H629899   6.045   3.332   3.471 -2.5140 -0.5866 -1.6775
  145MYC     H729900   6.208   3.274   3.464  0.7585 -0.1838 -0.2033
  145MYC     C429901   6.055   3.121   3.428  0.5087 -0.1234 -0.0824
  145MYC     H429902   6.044   3.104   3.536 -2.4600 -0.3484 -0.3253
  145MYC     H529903   6.131   3.053   3.388 -0.3531 -1.5792  0.6663
  145MYC     C229904   5.906   3.106   3.372 -0.0948 -0.1306  0.0065
  145MYC     H229905   5.845   3.197   3.385 -0.4200 -0.0754 -1.6697
  145MYC     O329906   5.902   3.097   3.227 -0.2046 -0.0025  0.0823
  145MYC     H329907   5.939   3.011   3.202  1.4179 -0.1131  2.5456
  145MYC     C129908   5.831   2.986   3.428  0.3181 -0.0232  0.7137
  145MYC     H129909   5.818   2.994   3.537  1.7265 -3.6765  1.2859
  145MYC    C8129910   5.913   2.859   3.412  0.2647 -0.0118 -0.2231
  145MYC    O8229911   5.931   2.811   3.306 -0.1250  0.6595  0.9034
  145MYC    O8329912   5.949   2.798   3.528  0.3964 -0.4182  0.3639
  145MYC   H10529913   5.959   2.703   3.509 -1.5044 -0.8728  1.4251
  145MYC    C2029914   5.686   2.967   3.390  0.5040 -0.0653 -0.1374
  145MYC    H3429915   5.637   3.059   3.422  0.9493 -0.1459  0.8044
  145MYC    H3529916   5.673   2.966   3.281 -0.3789 -0.1087 -0.0373
  145MYC    C2129917   5.611   2.846   3.457 -0.0077  0.1915  0.2013
  145MYC    H3629918   5.523   2.834   3.393  0.3423 -0.1298 -0.2269
  145MYC    H3729919   5.676   2.757   3.452  2.1521  1.7181 -0.3714
  145MYC    C2229920   5.569   2.876   3.598  0.7920  0.3350 -0.6836
  145MYC    H3829921   5.652   2.904   3.663  0.6943  1.8263 -1.1528
  145MYC    H3929922   5.507   2.967   3.599 -1.6654 -1.2396  0.6767
  145MYC    C2329923   5.490   2.761   3.665 -0.6166  0.2406  0.3876
  145MYC    H4029924   5.400   2.737   3.607 -0.2023  0.1357 -0.2217
  145MYC    H4129925   5.557   2.674   3.657  2.4050  2.4632 -0.0816
  145MYC    C2429926   5.452   2.783   3.811  0.1855 -0.1248  0.5101
  145MYC    H4229927   5.538   2.818   3.869  1.2465 -0.5788 -0.7427
  145MYC    H4329928   5.388   2.872   3.805 -0.1489 -0.4592 -2.1686
  145MYC    C2529929   5.375   2.667   3.882 -1.0112  0.3544  0.0264
  145MYC    H4429930   5.276   2.664   3.836 -0.6894 -1.1636 -0.6439
  145MYC    H4529931   5.420   2.568   3.873 -1.1403  0.3382 -0.4440
  145MYC    C2629932   5.350   2.709   4.032 -0.7532  0.1312  0.6658
  145MYC    H4629933   5.440   2.709   4.094  0.4457  1.0457 -1.0109
  145MYC    H4729934   5.304   2.809   4.034  0.7373  0.8742 -0.3672
  145MYC    C2729935   5.246   2.619   4.101  0.0263 -0.1520  0.2152
  145MYC    H4829936   5.162   2.605   4.032  1.1052 -1.4651 -0.8672
  145MYC    H4929937   5.299   2.524   4.108 -3.3357 -2.3039 -1.0504
  145MYC    C2829938   5.206   2.679   4.241  0.3123  0.3800 -0.2042
  145MYC    H5029939   5.295   2.670   4.304 -0.1126 -2.0673  0.1369
  145MYC    H5129940   5.175   2.783   4.221 -0.6506  0.1008 -0.2074
  145MYC    C2929941   5.081   2.615   4.303  0.2849 -0.6595  0.3294
  145MYC    H5229942   4.997   2.649   4.241  1.8716  0.0751 -1.5126
  145MYC    H5329943   5.100   2.508   4.298  0.0782 -0.7979  1.9300
  145MYC    C3029944   5.060   2.657   4.451 -0.3244  0.1328 -0.3325
  145MYC    H5429945   5.155   2.642   4.503  0.6423  1.8896 -1.4811
  145MYC    H5529946   5.043   2.765   4.457  0.0705  0.1820 -0.0995
  145MYC    C3129947   4.939   2.592   4.518 -0.6003 -0.2677  0.2968
  145MYC    H5629948   4.843   2.619   4.472 -1.5593 -0.3787  2.1411
  145MYC    H5729949   4.939   2.483   4.507 -0.9351 -0.1370 -1.4172
  145MYC    C3229950   4.957   2.598   4.674  0.0944 -0.2030  0.4172
  145MYC    H5829951   5.052   2.548   4.696  0.2019 -0.5297 -0.7469
  145MYC    H5929952   4.970   2.700   4.712  1.5142 -1.1290  2.6494
  145MYC    C3329953   4.842   2.523   4.749 -0.4238 -0.3523 -0.0017
  145MYC    H6029954   4.755   2.581   4.716 -0.0234 -1.2936 -2.9766
  145MYC    H6129955   4.830   2.426   4.699 -3.1548  0.5700 -1.3636
  145MYC    C3429956   4.845   2.515   4.904  0.0621  0.5515  0.5504
  145MYC    H6229957   4.934   2.460   4.936  0.5285  1.1286  0.2709
  145MYC    H6329958   4.864   2.620   4.931  5.8964  0.8620 -3.0830
  145MYC    C3529959   4.718   2.468   4.971 -0.6833  0.1095 -0.1109
  145MYC    H6429960   4.624   2.515   4.939 -0.0888  1.0375 -0.5419
  145MYC    H6529961   4.702   2.363   4.943  0.3525 -0.8006  2.4075
  145MYC    C3629962   4.733   2.477   5.121 -0.6577 -0.1064 -1.2847
  145MYC    H6629963   4.831   2.449   5.162 -0.3569  1.6590 -0.6987
  145MYC    H6729964   4.713   2.577   5.162  0.7221 -0.1967 -0.3014
  145MYC    C3729965   4.633   2.391   5.195  0.0527 -0.4273  0.3205
  145MYC    H6829966   4.537   2.404   5.144  0.3675  0.5428 -0.0351
  145MYC    H6929967   4.651   2.283   5.184  3.3894  0.0428  0.1287
  145MYC    C3829968   4.618   2.421   5.348 -0.3043 -0.8856  0.3729
  145MYC    H7029969   4.717   2.403   5.392  0.6292 -3.4463 -2.4361
  145MYC    H7129970   4.595   2.528   5.353  0.2129 -0.5779 -2.3181
  145MYC    C3929971   4.507   2.343   5.415  0.0232  0.1236 -0.5391
  145MYC    H7229972   4.406   2.368   5.381 -0.4943  1.7924  2.0048
  145MYC    H7329973   4.522   2.236   5.396 -1.3393 -0.2503  0.3345
  145MYC    C4029974   4.509   2.371   5.565 -0.4909  0.5475  0.0231
  145MYC    H7429975   4.611   2.353   5.602 -1.2748 -2.6979  0.9367
  145MYC    H7529976   4.469   2.472   5.580 -0.8551  0.5053 -0.6414
  145MYC    C4129977   4.423   2.269   5.646 -0.2712 -0.5029 -1.1648
  145MYC    H7629978   4.321   2.282   5.609 -0.7179  1.4065  0.5532
  145MYC    H7729979   4.465   2.170   5.623  0.6977 -0.6062  0.8828
  145MYC    C4229980   4.427   2.284   5.803 -0.6306 -0.4241 -0.0751
  145MYC    H7829981   4.532   2.271   5.832 -0.4695  1.5381  0.3846
  145MYC    H7929982   4.396   2.382   5.841  0.0099 -0.5314  0.7244
  145MYC    C4329983   4.355   2.175   5.879  0.0113  0.7787 -0.4057
  145MYC    H8029984   4.399   2.080   5.846 -2.4125 -0.8789  0.7872
  145MYC    H8129985   4.246   2.176   5.863 -0.1907 -1.1531  0.4360
  145MYC    H8229986   4.358   2.185   5.989 -2.9871 -1.0718 -0.0237
  146MYC   HH1529987   4.527   3.358   6.232 -3.4427 -0.1037  1.7839
  146MYC    C8029988   4.518   3.259   6.184  0.1288  0.3358 -0.1296
  146MYC   H10029989   4.592   3.186   6.220  0.6192  1.3925  1.1114
  146MYC   H10129990   4.418   3.227   6.214 -0.0264 -1.6725 -2.5006
  146MYC    C7929991   4.500   3.261   6.030  0.0694 -0.6661  0.3840
  146MYC   H10229992   4.419   3.330   6.006  0.5034 -0.1830  0.2885
  146MYC   H10329993   4.460   3.162   6.006  1.5519 -1.1863 -0.0651
  146MYC    C7829994   4.630   3.282   5.947 -0.3275 -0.4337 -0.7073
  146MYC   HH1429995   4.703   3.204   5.969  1.2187  0.5813 -2.0139
  146MYC   H10429996   4.680   3.369   5.992 -0.7547 -1.1437  1.2303
  146MYC    C7729997   4.591   3.305   5.806 -0.0964 -0.1157  0.1470
  146MYC   H10629998   4.529   3.395   5.814  1.5811  1.0203  0.9835
  146MYC   H10729999   4.524   3.232   5.759  0.1932  0.9186 -2.0335
  146MYC    C7630000   4.718   3.336   5.712 -0.5294  0.5233 -0.3369
  146MYC   H10830001   4.784   3.249   5.714  1.3143  1.8504 -0.5075
  146MYC   H10930002   4.782   3.417   5.749  1.3874  0.1726 -2.6543
  146MYC    C7530003   4.667   3.355   5.570  0.5023  0.7358 -0.4907
  146MYC   H11030004   4.588   3.430   5.570 -0.2981 -0.0902  0.0714
  146MYC   H11130005   4.632   3.257   5.535  0.1744  0.7518 -0.2126
  146MYC    C7430006   4.775   3.398   5.468  0.7621 -0.4359 -0.5895
  146MYC   H11230007   4.859   3.329   5.453  1.2490 -0.0316  0.2396
  146MYC   H11330008   4.813   3.496   5.499 -0.4797 -0.9464  3.0450
  146MYC    C7330009   4.729   3.424   5.324 -0.2950  0.1669  0.1968
  146MYC   HH1330010   4.641   3.489   5.333 -1.6993 -1.8774  2.9813
  146MYC   H11430011   4.695   3.336   5.269  0.3287  0.8848 -1.3874
  146MYC    C7230012   4.835   3.477   5.226 -0.3982  0.4967  0.5366
  146MYC   H11530013   4.921   3.411   5.235 -0.8264 -0.0785  0.4503
  146MYC   H11630014   4.874   3.575   5.256  1.7383 -0.6712  1.8074
  146MYC    C7130015   4.801   3.483   5.078 -0.4666 -0.2770  0.0965
  146MYC   H11730016   4.712   3.543   5.055 -0.6703 -1.3283 -2.1124
  146MYC   H11830017   4.775   3.383   5.041 -0.4610 -0.3685  0.3346
  146MYC    C7030018   4.920   3.527   4.985  0.7029  0.1270  0.4582
  146MYC   H11930019   4.998   3.453   5.009  0.3660  0.0371  1.3232
  146MYC   H12030020   4.965   3.623   5.011  1.0777  0.4372 -1.2080
  146MYC    C6930021   4.885   3.523   4.832  0.2917 -0.2483  0.2593
  146MYC   H12130022   4.790   3.568   4.799  2.9380  4.3959 -2.0254
  146MYC   H12230023   4.879   3.415   4.811  1.7819 -0.4493  0.7845
  146MYC    C6830024   4.993   3.573   4.749 -0.3704  0.9741  0.1286
  146MYC   HH1230025   5.077   3.502   4.758  0.7119  1.2895 -4.5224
  146MYC   H12330026   5.034   3.671   4.774  2.7044 -0.3220  0.6471
  146MYC    C6730027   4.956   3.582   4.602 -0.2078  0.0279  0.1717
  146MYC   H12430028   4.870   3.650   4.608  0.6848  1.0157  2.7409
  146MYC   H12530029   4.917   3.491   4.556  1.1158 -0.3272 -0.2954
  146MYC    C6630030   5.058   3.638   4.508 -0.1256 -0.4236 -0.2363
  146MYC   H12630031   5.144   3.571   4.504 -0.2547 -0.5504 -1.1533
  146MYC   H12730032   5.103   3.727   4.553 -0.7325 -0.2335  0.0135
  146MYC    C6530033   4.998   3.685   4.368 -0.3267  0.3956 -0.0869
  146MYC   H12830034   4.936   3.775   4.373 -1.7218 -0.4937 -0.7488
  146MYC   H12930035   4.927   3.613   4.327 -0.0843 -1.1360  2.0067
  146MYC    C6430036   5.117   3.705   4.273  0.1040 -0.3731 -0.1886
  146MYC   H13030037   5.186   3.623   4.296  2.8201  1.3136 -1.8288
  146MYC   H13130038   5.161   3.804   4.291 -4.7844  1.5329  3.6132
  146MYC    C6330039   5.081   3.691   4.119  0.9842 -0.1832 -0.0998
  146MYC   HH1130040   4.996   3.757   4.099  0.6115 -1.1313 -1.8021
  146MYC   H13230041   5.052   3.588   4.096 -0.6027 -0.2089  1.7259
  146MYC    C6230042   5.195   3.740   4.037  0.1524 -0.6273  0.6818
  146MYC   H13330043   5.287   3.686   4.061  1.5738  1.8510  1.1782
  146MYC   H13430044   5.231   3.836   4.078 -0.3216 -0.8545  1.6550
  146MYC    C6130045   5.176   3.733   3.887  0.1723  0.0523  1.0869
  146MYC   H13530046   5.093   3.796   3.854  0.3884 -0.9943 -1.7676
  146MYC   H13630047   5.144   3.630   3.870 -0.7765  0.6006 -0.7174
  146MYC    C6030048   5.306   3.760   3.810  0.6621  0.2496  0.6273
  146MYC   H13730049   5.382   3.681   3.805  0.1135 -0.2529 -4.5438
  146MYC    C5830050   5.295   3.837   3.681  0.4536 -0.0186 -0.5833
  146MYC   H13830051   5.198   3.880   3.656 -0.1652 -1.1473 -0.2266
  146MYC    C5930052   5.352   3.901   3.802  0.0345  0.5219 -0.4552
  146MYC   H13930053   5.459   3.921   3.810 -0.3046  1.7202  1.7539
  146MYC   H14030054   5.298   3.974   3.860  2.1339  1.6129  0.2349
  146MYC    C5730055   5.379   3.811   3.555 -0.1601  0.1716  0.5183
  146MYC   HH1030056   5.330   3.727   3.504 -0.0858 -0.5357  1.5778
  146MYC   H14130057   5.482   3.786   3.584  0.6655  1.1125 -1.4278
  146MYC    C5630058   5.380   3.939   3.472  0.0969  0.3836 -0.8145
  146MYC   H14230059   5.415   4.025   3.529 -0.8247  0.4001 -0.2479
  146MYC   H14330060   5.275   3.961   3.452 -0.4698 -1.0607  0.3659
  146MYC    C5530061   5.455   3.922   3.340  0.6052 -0.2976  0.1206
  146MYC   H14430062   5.550   3.872   3.364 -0.8489 -2.4918  1.7610
  146MYC   H14530063   5.474   4.017   3.289  0.6034 -1.0679 -1.3742
  146MYC    C5430064   5.378   3.837   3.235  0.1823 -0.2592  0.2882
  146MYC   H14630065   5.283   3.891   3.219  0.0690 -1.0422 -1.9509
  146MYC   H14730066   5.357   3.736   3.272 -3.4222  0.4153  0.4649
  146MYC    C5330067   5.457   3.830   3.102  0.1590  0.3027  0.1446
  146MYC   H14830068   5.412   3.756   3.035  0.0935  0.8310 -0.3990
  146MYC   H14930069   5.558   3.788   3.116  0.1614  0.0422 -0.6082
  146MYC    C5230070   5.470   3.955   3.014  0.0673 -0.4220 -0.4053
  146MYC    H9930071   5.477   4.048   3.071 -0.3773 -0.2727 -0.5950
  146MYC   H15030072   5.375   3.961   2.961  0.2279  1.4120 -0.5402
  146MYC    C5130073   5.598   3.962   2.919  0.8102 -0.0718 -0.5849
  146MYC    H9730074   5.583   3.885   2.842  0.7706 -1.7139  1.0042
  146MYC    H9830075   5.686   3.927   2.974 -0.9308 -3.9191  0.0600
  146MYC    C5030076   5.618   4.099   2.861 -0.3604 -0.5421  0.4496
  146MYC    H9530077   5.629   4.175   2.939  1.0409 -0.7703  0.4911
  146MYC    H9630078   5.540   4.126   2.788  0.6635 -1.0374 -0.8623
  146MYC    C4930079   5.746   4.116   2.781  0.0744  0.5574  0.9558
  146MYC    H9330080   5.837   4.098   2.839  0.9159  1.8133  0.0966
  146MYC    H9430081   5.742   4.223   2.755 -0.0918  0.0344 -1.3767
  146MYC    C4830082   5.747   4.030   2.648 -0.1490 -0.3646 -0.1720
  146MYC    H9130083   5.648   4.040   2.603  0.0529 -0.7163 -0.7099
  146MYC    H9230084   5.758   3.923   2.664  0.4807 -0.1240  1.0697
  146MYC    C4730085   5.857   4.076   2.546  0.3706  0.8446 -0.2831
  146MYC    H8930086   5.953   4.076   2.599  0.2501  1.3699 -0.0502
  146MYC    H9030087   5.834   4.180   2.520 -1.6492  0.5357  0.1208
  146MYC    C4630088   5.866   3.982   2.425 -0.2082 -0.4230  0.2763
  146MYC    H8730089   5.764   3.962   2.389  0.6750 -0.3958 -2.4712
  146MYC    H8830090   5.912   3.888   2.460 -0.9833 -0.1005  2.3365
  146MYC    C4530091   5.939   4.042   2.308 -0.0061 -0.6250 -0.2382
  146MYC    H8530092   5.932   3.964   2.231 -3.8177  0.1786 -0.9002
  146MYC    H8630093   6.042   4.053   2.343 -0.6398  0.5250  1.3768
  146MYC    C4430094   5.886   4.179   2.254  0.3418  0.1832 -0.1856
  146MYC    H8330095   5.891   4.249   2.338  2.1210 -1.2982  1.0143
  146MYC    H8430096   5.777   4.170   2.255  0.4053 -0.8398  1.7886
  146MYC    C1830097   5.935   4.229   2.120  0.0115  0.2314 -0.0941
  146MYC    H3130098   6.037   4.266   2.121  1.0238 -2.2505 -1.1688
  146MYC    C1730099   5.880   4.161   2.001  0.2666 -1.0828  0.2178
  146MYC    H3030100   5.807   4.083   2.021 -0.9133 -0.1129 -0.1715
  146MYC    C1930101   5.829   4.300   2.027  0.3833  0.3346  0.3969
  146MYC    H3230102   5.727   4.313   2.062  0.7403  0.4127  1.4213
  146MYC    H3330103   5.870   4.382   1.968  0.3577 -0.0230 -0.1344
  146MYC    C1630104   5.972   4.137   1.877 -0.1236  0.4629  0.2366
  146MYC    H2830105   6.034   4.228   1.879  0.5227  0.1122 -1.9862
  146MYC    H2930106   5.918   4.130   1.782 -0.0424  0.6372  0.1772
  146MYC    C1530107   6.064   4.018   1.895  0.0247  0.8513  0.2977
  146MYC    H2630108   6.116   4.014   1.799 -0.1932  1.2011  0.1641
  146MYC    H2730109   5.996   3.933   1.905 -2.7152  2.9622  0.7854
  146MYC    C1430110   6.167   4.017   1.997  0.0559  0.2653 -0.0139
  146MYC    H2430111   6.121   3.985   2.090 -0.1939 -1.5217 -0.7089
  146MYC    H2530112   6.219   4.114   1.994  0.1346  0.2123 -0.4389
  146MYC    C1330113   6.278   3.903   1.967  0.1558 -0.5263  1.1161
  146MYC    H2230114   6.341   3.922   1.879 -1.1039  0.1891  0.3451
  146MYC    H2330115   6.221   3.814   1.938  1.5713 -0.6759 -1.5633
  146MYC    C1230116   6.361   3.858   2.094  0.1151  0.1471 -0.1150
  146MYC    H2030117   6.426   3.774   2.067 -1.0405 -0.4580 -1.1064
  146MYC    H2130118   6.291   3.828   2.173 -1.1669  4.1800  0.5369
  146MYC    C1130119   6.451   3.966   2.159  0.1325 -0.4624  0.3040
  146MYC    H1830120   6.393   4.038   2.218  0.6016 -0.2311  0.4874
  146MYC    H1930121   6.495   4.022   2.075 -1.9049 -1.7291 -1.7280
  146MYC    C1030122   6.552   3.900   2.256  0.1997 -0.0482  0.0183
  146MYC    H1630123   6.614   3.985   2.287  0.1818  0.2633 -0.7732
  146MYC    H1730124   6.621   3.837   2.200  0.5868 -0.1344  0.5834
  146MYC     C930125   6.497   3.820   2.378 -0.5913 -0.7302 -0.2435
  146MYC    H1430126   6.585   3.776   2.426 -2.5100 -3.4649  1.0566
  146MYC    H1530127   6.439   3.734   2.343 -1.2508  0.4411 -2.2292
  146MYC     C830128   6.410   3.903   2.475 -0.4339 -0.2745 -0.3379
  146MYC    H1230129   6.330   3.960   2.427 -1.5517 -0.7743  0.8528
  146MYC    H1330130   6.466   3.988   2.514 -1.9881  1.3221 -1.4546
  146MYC     C730131   6.348   3.806   2.585 -0.2360 -0.5750 -0.7423
  146MYC    H1030132   6.433   3.754   2.631  1.0132  0.9636 -1.2199
  146MYC    H1130133   6.282   3.743   2.525 -2.0895  0.0695  0.5242
  146MYC     C630134   6.264   3.889   2.687  0.3002  0.0391  0.3185
  146MYC     H830135   6.212   3.960   2.621 -0.3678 -2.0548 -1.5502
  146MYC     H930136   6.324   3.950   2.755  0.2900  0.3290  0.0724
  146MYC     C530137   6.171   3.795   2.758  0.0578  0.1410 -0.4202
  146MYC     H630138   6.231   3.718   2.807 -0.7813 -1.1281 -1.3143
  146MYC     H730139   6.106   3.747   2.684  0.4577 -2.1544  0.6396
  146MYC     C430140   6.090   3.863   2.872 -0.1181  0.7458  0.3758
  146MYC     H430141   5.985   3.860   2.840 -0.5604  2.5856  1.5254
  146MYC     H530142   6.125   3.967   2.869 -0.3777  0.8156 -1.4432
  146MYC     C230143   6.098   3.804   3.016  0.1866 -0.5073 -0.2632
  146MYC     H230144   6.078   3.696   3.013  2.3940 -1.0456  1.4787
  146MYC     O330145   6.234   3.827   3.062  0.9277 -0.3974  0.2377
  146MYC     H330146   6.230   3.867   3.151  1.1860  0.2893 -0.0492
  146MYC     C130147   5.986   3.863   3.116  0.6444  0.3332 -0.1008
  146MYC     H130148   5.896   3.834   3.061  0.0310 -0.5676  1.3259
  146MYC    C8130149   6.000   4.014   3.126 -0.1184 -0.2702 -0.2392
  146MYC    O8230150   6.090   4.070   3.178  0.2774 -0.4636 -0.1662
  146MYC    O8330151   5.898   4.076   3.070  0.4910 -0.6775 -0.3436
  146MYC   H10530152   5.918   4.171   3.063  1.4998 -0.8473  0.0819
  146MYC    C2030153   5.992   3.803   3.266  0.2402 -0.0899  0.7643
  146MYC    H3430154   5.967   3.697   3.256 -3.2680  0.8702 -3.2143
  146MYC    H3530155   6.091   3.826   3.308  0.6798  2.6438 -1.4927
  146MYC    C2130156   5.889   3.878   3.366 -0.4487 -0.7700  0.2981
  146MYC    H3630157   5.901   3.987   3.363 -2.2828 -0.4800  1.7150
  146MYC    H3730158   5.787   3.860   3.331 -1.0507  0.3391  1.4106
  146MYC    C2230159   5.893   3.829   3.509  0.0814  0.0946 -0.1865
  146MYC    H3830160   5.992   3.855   3.550 -0.6115  1.2906  0.8153
  146MYC    H3930161   5.820   3.897   3.554 -1.9004 -0.3999 -2.4652
  146MYC    C2330162   5.868   3.675   3.531 -0.0572 -0.2834 -0.0154
  146MYC    H4030163   5.768   3.655   3.489 -0.4818  1.5633  0.0387
  146MYC    H4130164   5.947   3.626   3.474  0.7254  2.7414 -1.7560
  146MYC    C2430165   5.866   3.628   3.678  0.2980 -0.1501 -0.5600
  146MYC    H4230166   5.867   3.518   3.682  0.7768 -0.1258  0.3527
  146MYC    H4330167   5.964   3.665   3.712  0.9063  0.7968 -3.1116
  146MYC    C2530168   5.750   3.671   3.761 -0.2759 -0.0724 -0.7740
  146MYC    H4430169   5.746   3.780   3.766  0.0898 -0.1123  0.8703
  146MYC    H4530170   5.659   3.638   3.709 -0.0489 -1.9264 -0.0644
  146MYC    C2630171   5.761   3.596   3.894 -0.1891  0.0769  0.3293
  146MYC    H4630172   5.777   3.490   3.871 -1.5010 -0.0620 -0.0212
  146MYC    H4730173   5.846   3.640   3.947  0.4754 -1.4168  0.5665
  146MYC    C2730174   5.644   3.618   3.990 -0.1057  0.5087 -0.5889
  146MYC    H4830175   5.650   3.720   4.027  0.4957  0.7265 -1.2638
  146MYC    H4930176   5.551   3.605   3.933  1.0321 -0.2195 -2.3676
  146MYC    C2830177   5.643   3.519   4.106 -1.4544 -0.1402 -0.2951
  146MYC    H5030178   5.633   3.422   4.056  1.0810 -0.0972 -1.0283
  146MYC    H5130179   5.745   3.515   4.146  0.1200  2.8588 -3.4210
  146MYC    C2930180   5.535   3.546   4.219  0.4255 -0.5990 -0.3908
  146MYC    H5230181   5.539   3.651   4.249  0.0274 -0.4123 -0.9815
  146MYC    H5330182   5.439   3.515   4.176 -0.2900  1.3776 -0.2951
  146MYC    C3030183   5.565   3.454   4.343  0.6164 -0.5683 -0.2903
  146MYC    H5430184   5.587   3.354   4.306  0.6591 -0.4240 -0.6591
  146MYC    H5530185   5.654   3.496   4.392  2.4590 -0.9067 -3.1340
  146MYC    C3130186   5.446   3.455   4.439 -0.7625 -0.4580  0.3724
  146MYC    H5630187   5.431   3.555   4.481 -0.2588 -0.5310  0.7346
  146MYC    H5730188   5.356   3.436   4.379 -0.3011 -0.1463 -0.4347
  146MYC    C3230189   5.458   3.361   4.559  0.0498 -0.6880 -0.3057
  146MYC    H5830190   5.441   3.261   4.515 -4.2466 -0.1765 -0.1913
  146MYC    H5930191   5.562   3.379   4.587 -0.4086  2.4169 -0.3240
  146MYC    C3330192   5.362   3.402   4.673  0.2022  0.6788  0.3616
  146MYC    H6030193   5.371   3.506   4.704  3.0394  1.0683 -1.4262
  146MYC    H6130194   5.264   3.402   4.624 -0.3739 -1.8928  1.3479
  146MYC    C3430195   5.369   3.296   4.781  0.1483  0.2389  0.3388
  146MYC    H6230196   5.339   3.199   4.739  0.3213 -0.1640  1.1089
  146MYC    H6330197   5.475   3.287   4.808  0.2871  2.1810  0.6137
  146MYC    C3530198   5.281   3.321   4.898 -1.0849 -0.1537  0.1529
  146MYC    H6430199   5.299   3.418   4.946 -0.6198 -0.0340 -0.2514
  146MYC    H6530200   5.177   3.320   4.865 -0.9561 -2.1583 -0.2950
  146MYC    C3630201   5.295   3.229   5.014  0.4565 -0.0430  0.2386
  146MYC    H6630202   5.260   3.131   4.981 -0.2957  0.1088  0.5695
  146MYC    H6730203   5.399   3.210   5.043  0.6862  0.3090 -0.3335
  146MYC    C3730204   5.199   3.256   5.133 -0.2955  0.4135  0.1526
  146MYC    H6830205   5.203   3.361   5.164  3.6981  0.7058 -0.7236
  146MYC    H6930206   5.099   3.231   5.097 -0.3133 -1.0595  1.1438
  146MYC    C3830207   5.227   3.166   5.259 -0.2687 -0.5060 -0.2819
  146MYC    H7030208   5.206   3.067   5.215  0.9106 -2.2694  2.8004
  146MYC    H7130209   5.332   3.180   5.286  0.1398  0.6269 -2.2690
  146MYC    C3930210   5.134   3.198   5.378  0.1332 -0.1266 -0.4744
  146MYC    H7230211   5.180   3.290   5.414  3.6481 -2.3204  1.2886
  146MYC    H7330212   5.030   3.219   5.351 -0.3794 -0.5461  1.1031
  146MYC    C4030213   5.136   3.094   5.489 -0.1199  0.1865  0.1453
  146MYC    H7430214   5.098   3.006   5.435 -3.5015  0.8336  1.2877
  146MYC    H7530215   5.242   3.084   5.518  0.4922  2.3468 -1.1433
  146MYC    C4130216   5.034   3.122   5.609  0.6816  0.0826 -0.1008
  146MYC    H7630217   5.064   3.220   5.649  0.8610  0.1335 -0.3558
  146MYC    H7730218   4.933   3.125   5.567  0.3124 -0.6796  0.6934
  146MYC    C4230219   5.038   3.014   5.714 -0.0566  0.3091 -0.1707
  146MYC    H7830220   5.023   2.914   5.671 -0.4924  0.9045 -1.4404
  146MYC    H7930221   5.145   3.016   5.740 -0.2559 -3.0144  1.3765
  146MYC    C4330222   4.944   3.031   5.840  0.1499 -0.1353 -0.4484
  146MYC    H8030223   4.842   3.009   5.806 -0.4903 -0.1261  1.3246
  146MYC    H8130224   4.930   3.133   5.879 -1.8659 -0.4494 -0.2713
  146MYC    H8230225   4.974   2.961   5.919  0.3399 -1.6741 -1.8227
  147MYC   HH1530226   5.223   3.509   5.841  3.6819 -3.8556 -2.1037
  147MYC    C8030227   5.131   3.456   5.813  0.5419  0.0864 -0.1522
  147MYC   H10030228   5.153   3.350   5.797 -0.1569  0.0518 -0.9539
  147MYC   H10130229   5.050   3.457   5.887  0.3943 -0.1687 -0.3095
  147MYC    C7930230   5.078   3.511   5.684 -0.4278 -0.0472 -0.5963
  147MYC   H10230231   5.028   3.603   5.718  2.8913  0.9773  2.1668
  147MYC   H10330232   5.014   3.447   5.623 -0.7404  1.6909 -2.1831
  147MYC    C7830233   5.184   3.566   5.583  0.4052 -0.4603 -0.2964
  147MYC   HH1430234   5.255   3.488   5.552  1.0330  0.3781 -1.0001
  147MYC   H10430235   5.240   3.632   5.649 -0.6054  0.8533 -0.7112
  147MYC    C7730236   5.129   3.633   5.446 -0.8805 -0.6801 -0.7409
  147MYC   H10630237   5.072   3.725   5.463  0.3942 -0.2978  1.9647
  147MYC   H10730238   5.060   3.568   5.391  0.1410 -0.3265 -2.5135
  147MYC    C7630239   5.249   3.656   5.340  0.4718 -0.2361 -0.0810
  147MYC   H10830240   5.302   3.563   5.317  0.8338 -0.0272 -0.1128
  147MYC   H10930241   5.323   3.730   5.373  3.3195 -2.6901 -0.4646
  147MYC    C7530242   5.203   3.698   5.201 -0.8724  0.3177 -0.7721
  147MYC   H11030243   5.129   3.778   5.217 -0.2964  0.5658  0.8929
  147MYC   H11130244   5.145   3.614   5.161  2.5066 -3.0061  0.7415
  147MYC    C7430245   5.321   3.730   5.101  0.3932  0.5245  0.9332
  147MYC   H11230246   5.375   3.638   5.077 -0.7955  0.3972 -1.5208
  147MYC   H11330247   5.390   3.808   5.136 -0.6204  1.0857  1.7420
  147MYC    C7330248   5.267   3.777   4.961  0.1881  0.1623  0.6195
  147MYC   HH1330249   5.204   3.863   4.986 -0.2885  0.0056 -0.0274
  147MYC   H11430250   5.212   3.695   4.913  1.9337  0.8662 -2.8940
  147MYC    C7230251   5.381   3.808   4.857 -0.3465  0.1386  0.1682
  147MYC   H11530252   5.429   3.716   4.819  0.6246 -0.0136  1.6671
  147MYC   H11630253   5.464   3.862   4.904  0.4183 -0.4301 -0.5006
  147MYC    C7130254   5.329   3.886   4.732  0.3206 -0.0469 -0.1375
  147MYC   H11730255   5.314   3.988   4.768  0.8737  0.6232 -1.7029
  147MYC   H11830256   5.227   3.853   4.708  1.4085 -2.6864 -1.5737
  147MYC    C7030257   5.421   3.878   4.612  0.0806 -0.5126  0.3234
  147MYC   H11930258   5.410   3.774   4.580 -0.9094 -0.3814  0.1821
  147MYC   H12030259   5.525   3.889   4.645 -0.0104 -0.9599  0.7766
  147MYC    C6930260   5.399   3.981   4.498 -0.3791  0.4002  0.3612
  147MYC   H12130261   5.415   4.084   4.531  2.5410  0.2094 -0.2375
  147MYC   H12230262   5.295   3.966   4.465 -0.1637 -0.6116  0.0981
  147MYC    C6830263   5.481   3.944   4.365  0.4344 -0.4057  0.1894
  147MYC   HH1230264   5.438   3.860   4.309  0.8640  0.4667 -1.5254
  147MYC   H12330265   5.585   3.933   4.396  0.5795 -0.2903 -0.2457
  147MYC    C6730266   5.465   4.057   4.258  0.2987  0.1108 -0.6146
  147MYC   H12430267   5.453   4.153   4.309 -1.8176 -1.2934  1.7494
  147MYC   H12530268   5.363   4.046   4.219  0.9724  0.4592 -2.5811
  147MYC    C6630269   5.570   4.044   4.149 -0.4666 -0.2009  0.2955
  147MYC   H12630270   5.577   3.940   4.114 -0.4152  0.4334 -1.7421
  147MYC   H12730271   5.661   4.068   4.204 -0.4129 -0.0684  0.1517
  147MYC    C6530272   5.560   4.149   4.039  0.5701  0.0384  0.9691
  147MYC   H12830273   5.592   4.249   4.069  0.7862  0.2239  0.1350
  147MYC   H12930274   5.456   4.153   4.004  1.5788 -0.7999 -2.4400
  147MYC    C6430275   5.646   4.119   3.912  0.2204  0.0996  0.3022
  147MYC   H13030276   5.629   4.018   3.873 -0.3002  0.3415 -0.1069
  147MYC   H13130277   5.753   4.121   3.936  0.3739 -1.6403 -0.0974
  147MYC    C6330278   5.615   4.212   3.796 -0.5044 -0.5452 -0.1805
  147MYC   HH1130279   5.633   4.316   3.826 -1.3447  0.0056 -1.4591
  147MYC   H13230280   5.509   4.222   3.770 -0.8376  0.1182  1.3335
  147MYC    C6230281   5.691   4.170   3.671 -0.0521 -0.0393 -0.4618
  147MYC   H13330282   5.664   4.064   3.662  0.0304 -0.1875  0.8763
  147MYC   H13430283   5.800   4.175   3.687  0.1324 -0.7149 -1.4267
  147MYC    C6130284   5.661   4.262   3.545  0.1287 -0.4979 -0.2996
  147MYC   H13530285   5.555   4.291   3.548  0.3439  0.2119  0.6356
  147MYC   H13630286   5.680   4.199   3.458  1.0986 -0.8862  0.1786
  147MYC    C6030287   5.743   4.388   3.519  0.0070  0.5976  0.2011
  147MYC   H13730288   5.846   4.355   3.508 -0.5492 -0.7534 -1.3108
  147MYC    C5830289   5.695   4.476   3.407  0.5215  0.0723 -0.0580
  147MYC   H13830290   5.596   4.452   3.368 -0.0451  0.9981  0.7741
  147MYC    C5930291   5.701   4.527   3.552  0.3727 -0.3421 -0.0143
  147MYC   H13930292   5.781   4.596   3.578  1.8387 -1.9933  0.0022
  147MYC   H14030293   5.606   4.555   3.597  0.8075  0.7474  0.2532
  147MYC    C5730294   5.790   4.532   3.306  0.0296 -0.2545 -0.1526
  147MYC   HH1030295   5.860   4.594   3.364 -0.0903 -0.8171  0.6084
  147MYC   H14130296   5.733   4.599   3.241 -0.5737 -0.6315 -0.0212
  147MYC    C5630297   5.853   4.424   3.219  0.0547 -0.7080  0.1418
  147MYC   H14230298   5.762   4.381   3.177 -0.5941 -0.9630  1.7132
  147MYC   H14330299   5.916   4.353   3.275  2.4575  0.9936 -0.2163
  147MYC    C5530300   5.939   4.485   3.107  0.5592  0.7553 -0.4922
  147MYC   H14430301   6.024   4.542   3.147 -0.5253  1.4303  0.9565
  147MYC   H14530302   5.872   4.557   3.059 -1.1303 -0.9507 -0.8005
  147MYC    C5430303   6.002   4.391   3.003  0.2408 -1.4786  0.2016
  147MYC   H14630304   5.923   4.323   2.969 -0.2092  0.4613 -3.0902
  147MYC   H14730305   6.094   4.335   3.024  0.7284 -1.0068 -0.5951
  147MYC    C5330306   6.040   4.467   2.868  0.4310 -0.8048 -0.0206
  147MYC   H14830307   6.122   4.538   2.884 -0.1823  0.9368 -3.4936
  147MYC   H14930308   5.956   4.536   2.852 -1.2794 -2.6442  0.6504
  147MYC    C5230309   6.077   4.380   2.747 -0.5809 -0.0757 -0.6718
  147MYC    H9930310   6.000   4.310   2.713  0.9418 -1.7085 -0.8813
  147MYC   H15030311   6.159   4.318   2.785 -1.8759 -1.5558 -0.2002
  147MYC    C5130312   6.119   4.466   2.629  0.4957  0.1045  0.5230
  147MYC    H9730313   6.188   4.545   2.662 -0.1323  0.5368  0.8314
  147MYC    H9830314   6.042   4.538   2.598 -0.8309 -1.1881  0.7351
  147MYC    C5030315   6.176   4.384   2.503  0.2089  0.0111  0.4951
  147MYC    H9530316   6.111   4.302   2.472 -0.0564  0.1990  0.5464
  147MYC    H9630317   6.264   4.332   2.543 -0.1615  1.3570  3.3262
  147MYC    C4930318   6.201   4.479   2.380  0.2998 -0.1971  0.8813
  147MYC    H9330319   6.268   4.556   2.419 -0.2888 -0.0339  1.6056
  147MYC    H9430320   6.103   4.523   2.355 -0.1486 -1.5516  0.1509
  147MYC    C4830321   6.258   4.407   2.263 -1.0925  0.6462 -0.2380
  147MYC    H9130322   6.197   4.317   2.247 -1.1696  0.7171 -0.3394
  147MYC    H9230323   6.360   4.375   2.289 -0.8082  2.0289  0.4121
  147MYC    C4730324   6.262   4.509   2.145  0.2072 -0.0845  0.7379
  147MYC    H8930325   6.334   4.591   2.156 -0.4305  0.6258 -0.1781
  147MYC    H9030326   6.162   4.555   2.141 -0.3711 -1.0954  2.4256
  147MYC    C4630327   6.281   4.442   2.010 -0.5452  0.0390 -0.6591
  147MYC    H8730328   6.188   4.401   1.971 -0.1780 -0.1906 -1.2994
  147MYC    H8830329   6.351   4.359   2.019 -1.5240 -0.6584  1.0716
  147MYC    C4530330   6.337   4.527   1.893  0.7450  0.3927 -0.2116
  147MYC    H8530331   6.349   4.456   1.810  0.2608  0.7052 -0.5513
  147MYC    H8630332   6.440   4.562   1.910  1.4287 -0.8885 -1.4764
  147MYC    C4430333   6.244   4.647   1.851  0.2470 -0.2813 -0.4471
  147MYC    H8330334   6.140   4.619   1.832 -0.7061  2.0467  0.9177
  147MYC    H8430335   6.280   4.661   1.748  1.8338  0.8185  0.2239
  147MYC    C1830336   6.261   4.781   1.922 -0.2662  0.1821  0.0678
  147MYC    H3130337   6.204   4.783   2.015  0.3544 -3.3662  0.6691
  147MYC    C1730338   6.394   4.852   1.901  0.5710  0.4166  0.0170
  147MYC    H3030339   6.465   4.806   1.833  2.3025  0.1990  1.9000
  147MYC    C1930340   6.265   4.908   1.843 -0.4067 -0.7200  0.1745
  147MYC    H3230341   6.253   4.912   1.735 -2.2646  2.1361  0.3761
  147MYC    H3330342   6.222   4.995   1.892 -0.1693 -1.1225  1.1266
  147MYC    C1630343   6.463   4.931   2.023 -0.4309  0.0127  0.5365
  147MYC    H2830344   6.405   5.020   2.050 -1.7345 -0.8607  0.6987
  147MYC    H2930345   6.561   4.976   2.001  1.3332 -2.9016  1.8992
  147MYC    C1530346   6.473   4.863   2.159  0.8007 -0.0737 -0.5639
  147MYC    H2630347   6.562   4.799   2.152  0.4242 -0.6683 -0.0422
  147MYC    H2730348   6.383   4.802   2.175  1.3153 -0.3595  1.5418
  147MYC    C1430349   6.501   4.962   2.281 -0.4818 -0.2365  0.3965
  147MYC    H2430350   6.428   5.041   2.303  0.1143  0.8117 -1.1810
  147MYC    H2530351   6.593   5.014   2.253 -1.3169  1.0935  0.0229
  147MYC    C1330352   6.524   4.892   2.410  0.0806 -0.2434  0.1637
  147MYC    H2230353   6.580   4.955   2.480 -1.7022 -0.0470  1.4724
  147MYC    H2330354   6.595   4.811   2.391  1.0564  0.3804  1.1080
  147MYC    C1230355   6.388   4.851   2.465 -0.8048  0.4370 -0.2621
  147MYC    H2030356   6.347   4.769   2.404  0.6947 -0.6343  0.1286
  147MYC    H2130357   6.316   4.934   2.464 -1.9518 -0.4902  1.4768
  147MYC    C1130358   6.382   4.818   2.620 -0.5120  0.2757 -0.0528
  147MYC    H1830359   6.438   4.876   2.694 -0.2916  2.5586 -1.8999
  147MYC    H1930360   6.407   4.711   2.622  0.0760  0.4091 -0.1913
  147MYC    C1030361   6.235   4.819   2.678 -0.2786 -0.3968 -0.2336
  147MYC    H1630362   6.250   4.782   2.780  2.1820  1.1931  0.0684
  147MYC    H1730363   6.161   4.759   2.623 -1.8348  0.2118  1.1065
  147MYC     C930364   6.173   4.961   2.685  0.6029 -0.2032  0.1952
  147MYC    H1430365   6.110   4.980   2.597 -0.9561  0.9501  1.5000
  147MYC    H1530366   6.258   5.030   2.676  1.1770 -1.0459 -1.0973
  147MYC     C830367   6.102   4.994   2.816  0.5145 -0.7217 -0.2086
  147MYC    H1230368   6.174   4.987   2.898 -1.4818  0.4750  1.7852
  147MYC    H1330369   6.016   4.928   2.834  0.7928 -1.1372 -0.3993
  147MYC     C730370   6.044   5.135   2.826  0.3589  0.0647  0.6690
  147MYC    H1030371   5.952   5.142   2.766  0.0146  1.4269  1.2899
  147MYC    H1130372   6.106   5.212   2.779  0.4172 -0.8080 -0.7476
  147MYC     C630373   6.003   5.193   2.962  0.0604  0.5092 -0.2005
  147MYC     H830374   5.960   5.292   2.943 -0.8126  0.4743  1.4309
  147MYC     H930375   6.094   5.205   3.021  0.3765  1.3853 -0.8480
  147MYC     C530376   5.894   5.114   3.040  0.1102 -0.1326 -0.2171
  147MYC     H630377   5.895   5.141   3.146 -0.4931  1.5309 -0.6041
  147MYC     H730378   5.921   5.008   3.041 -1.2688 -0.4987  0.5528
  147MYC     C430379   5.745   5.115   2.986  0.2316 -0.1110 -0.5337
  147MYC     H430380   5.693   5.046   3.053  0.1385 -0.0809 -0.5758
  147MYC     H530381   5.740   5.069   2.887  0.4887 -1.4556  0.0507
  147MYC     C230382   5.681   5.256   2.981 -0.2051  0.0508 -0.3272
  147MYC     H230383   5.734   5.313   2.904  0.5735 -2.3501 -1.6781
  147MYC     O330384   5.550   5.238   2.923 -0.4369 -0.6440  0.0842
  147MYC     H330385   5.529   5.144   2.911 -0.5897 -0.6757  0.5836
  147MYC     C130386   5.673   5.342   3.114 -0.3089  0.2123 -0.4180
  147MYC     H130387   5.776   5.358   3.148 -0.7803 -1.8348  2.2998
  147MYC    C8130388   5.604   5.243   3.213  0.6517 -0.3719 -0.7360
  147MYC    O8230389   5.488   5.202   3.191 -0.1768 -0.1308  0.7758
  147MYC    O8330390   5.689   5.202   3.310 -0.9854 -0.3586 -0.4829
  147MYC   H10530391   5.627   5.158   3.371 -2.0703  0.7420 -0.7486
  147MYC    C2030392   5.593   5.475   3.103  0.1234  0.0679  0.0950
  147MYC    H3430393   5.625   5.505   3.003 -0.5597 -0.5561 -0.3233
  147MYC    H3530394   5.488   5.445   3.091  0.4991 -1.8787  1.1901
  147MYC    C2130395   5.602   5.593   3.198  0.1289  0.7495  0.0056
  147MYC    H3630396   5.701   5.636   3.180 -0.4356  3.0940  1.9072
  147MYC    H3730397   5.525   5.663   3.163 -1.3138 -0.0347  1.4752
  147MYC    C2230398   5.568   5.579   3.347 -0.1134  0.0013 -0.5871
  147MYC    H3830399   5.460   5.565   3.360  0.2094 -1.2316  1.1612
  147MYC    H3930400   5.615   5.486   3.381 -0.9971 -0.7200 -1.2857
  147MYC    C2330401   5.609   5.703   3.432 -0.6444  0.0010 -0.7023
  147MYC    H4030402   5.717   5.716   3.434 -0.4633 -1.0257 -1.9881
  147MYC    H4130403   5.568   5.788   3.376 -0.0210  0.2615 -0.7715
  147MYC    C2430404   5.553   5.706   3.580 -0.1021  0.0809 -0.3097
  147MYC    H4230405   5.574   5.800   3.633 -3.0627 -0.1558  1.5125
  147MYC    H4330406   5.444   5.692   3.575 -0.2158 -0.0853  1.7087
  147MYC    C2530407   5.599   5.593   3.665 -0.6953  0.4072  0.7861
  147MYC    H4430408   5.594   5.499   3.610  1.8519  0.8878 -0.4501
  147MYC    H4530409   5.706   5.608   3.684 -0.8372  0.8939  1.2309
  147MYC    C2630410   5.535   5.575   3.803 -0.1188 -0.3723 -0.2339
  147MYC    H4630411   5.545   5.674   3.849  0.7328 -1.4039  1.9642
  147MYC    H4730412   5.429   5.556   3.782 -0.7676  1.6532  0.8438
  147MYC    C2730413   5.592   5.453   3.872  0.4931 -0.0560  0.1197
  147MYC    H4830414   5.567   5.374   3.800  3.6401  0.2954 -1.5472
  147MYC    H4930415   5.701   5.456   3.885  0.6667 -2.8107 -0.1060
  147MYC    C2830416   5.531   5.409   4.001  0.0539  0.1609  0.0595
  147MYC    H5030417   5.426   5.385   3.982  0.1850  0.1585 -0.6986
  147MYC    H5130418   5.577   5.314   4.031 -0.2413  0.6159  2.0530
  147MYC    C2930419   5.540   5.512   4.117  0.8514  0.3036 -0.0560
  147MYC    H5230420   5.646   5.539   4.113  1.2145 -1.1970 -1.6923
  147MYC    H5330421   5.470   5.597   4.112 -0.6120 -0.8738 -0.3023
  147MYC    C3030422   5.518   5.454   4.254  0.8282 -0.0846  0.1199
  147MYC    H5430423   5.430   5.390   4.266  1.6907 -1.0534  1.5410
  147MYC    H5530424   5.599   5.380   4.253 -0.8285 -2.0525 -1.7280
  147MYC    C3130425   5.536   5.535   4.384 -0.3889  0.3368 -0.6284
  147MYC    H5630426   5.639   5.573   4.380 -0.8650  2.1240  2.0083
  147MYC    H5730427   5.470   5.623   4.382 -2.1495 -0.8999  0.7676
  147MYC    C3230428   5.502   5.460   4.514  0.1657 -0.5995  0.1955
  147MYC    H5830429   5.393   5.443   4.513  0.4540 -2.8532  0.6255
  147MYC    H5930430   5.554   5.363   4.521  2.0417  0.4262  1.1361
  147MYC    C3330431   5.519   5.547   4.644 -0.1752 -0.6228 -0.2657
  147MYC    H6030432   5.622   5.583   4.657 -1.0709  1.7286  0.8624
  147MYC    H6130433   5.471   5.644   4.628  1.3958  0.5746  1.7352
  147MYC    C3430434   5.475   5.477   4.773 -0.1599 -0.9180  0.3317
  147MYC    H6230435   5.369   5.457   4.759  0.5318 -3.9797 -1.4267
  147MYC    H6330436   5.533   5.384   4.777 -0.0330 -0.8315  0.5151
  147MYC    C3530437   5.501   5.566   4.896 -0.5048  0.4617 -0.1567
  147MYC    H6430438   5.599   5.615   4.892  0.8215 -2.0290 -0.3693
  147MYC    H6530439   5.419   5.638   4.906 -0.2326  0.6456  0.9123
  147MYC    C3630440   5.491   5.477   5.013  0.6831  0.1255 -0.3490
  147MYC    H6630441   5.388   5.441   5.011  0.3695  1.0167 -1.9793
  147MYC    H6730442   5.558   5.392   4.995 -0.1818 -0.4897 -0.7231
  147MYC    C3730443   5.517   5.544   5.153 -0.1591 -0.3644  0.1540
  147MYC    H6830444   5.624   5.565   5.149 -0.1775 -0.4003 -1.2727
  147MYC    H6930445   5.476   5.646   5.152  0.8902  0.0739 -0.4743
  147MYC    C3830446   5.466   5.457   5.269 -0.7956  0.3115  0.5263
  147MYC    H7030447   5.365   5.418   5.252 -1.5978  2.1418  0.8767
  147MYC    H7130448   5.527   5.366   5.259 -1.8503 -0.4649  1.0028
  147MYC    C3930449   5.481   5.523   5.414 -0.4326 -0.4252  0.1974
  147MYC    H7230450   5.587   5.551   5.427 -0.6448  0.8640 -0.6704
  147MYC    H7330451   5.426   5.618   5.409  0.9014  0.3077 -1.8096
  147MYC    C4030452   5.425   5.433   5.532  0.5998 -0.3140 -0.0892
  147MYC    H7430453   5.318   5.429   5.513  0.3372 -1.3674  1.4747
  147MYC    H7530454   5.457   5.329   5.524  0.2629 -0.8113  3.5558
  147MYC    C4130455   5.459   5.463   5.680 -0.1126 -0.5293  0.3855
  147MYC    H7630456   5.566   5.484   5.693 -0.2954  0.7610 -0.1002
  147MYC    H7730457   5.413   5.556   5.713  0.6888  0.0251 -0.0116
  147MYC    C4230458   5.413   5.347   5.773  0.1764 -0.2837  0.2833
  147MYC    H7830459   5.306   5.335   5.756  0.1662  0.9981 -0.7768
  147MYC    H7930460   5.466   5.253   5.756  1.4701  0.3218  0.7976
  147MYC    C4330461   5.428   5.378   5.925 -0.7809  0.3654 -0.1768
  147MYC    H8030462   5.529   5.374   5.966 -0.7824 -0.8643 -0.2510
  147MYC    H8130463   5.368   5.303   5.978 -0.1160 -1.4241 -1.8146
  147MYC    H8230464   5.382   5.468   5.966  1.8905  1.4259  0.6590
  148MYC   HH1530465   5.583   4.288   5.772 -1.0691  2.2221 -0.4642
  148MYC    C8030466   5.656   4.355   5.817  0.1509  0.2075  0.7253
  148MYC   H10030467   5.615   4.456   5.831  0.1608  0.9149 -3.2552
  148MYC   H10130468   5.679   4.299   5.909  2.1610 -3.3163 -1.7106
  148MYC    C7930469   5.783   4.371   5.738  0.1966  0.1616  0.5079
  148MYC   H10230470   5.827   4.270   5.732  0.5085  0.3113  0.2737
  148MYC   H10330471   5.847   4.439   5.795  0.1791  0.1969  0.4852
  148MYC    C7830472   5.776   4.443   5.613 -0.0441 -0.0994  0.1881
  148MYC   HH1430473   5.875   4.451   5.566  0.0213  2.7456  0.6346
  148MYC   H10430474   5.740   4.543   5.638 -1.5856 -0.2656 -1.1783
  148MYC    C7730475   5.680   4.380   5.504 -0.2161 -0.0580  0.1664
  148MYC   H10630476   5.578   4.409   5.529 -0.8714 -0.2344 -2.1128
  148MYC   H10730477   5.681   4.272   5.519 -0.7035  0.1189  1.5824
  148MYC    C7630478   5.719   4.410   5.362  0.2426 -0.1272  0.2225
  148MYC   H10830479   5.672   4.329   5.305  0.2092  0.5100 -0.6673
  148MYC   H10930480   5.827   4.407   5.343 -0.0309  0.1619 -1.4879
  148MYC    C7530481   5.663   4.545   5.312 -0.0779  0.4790 -0.5982
  148MYC   H11030482   5.716   4.623   5.367  0.1662  0.3005 -0.5782
  148MYC   H11130483   5.555   4.546   5.333 -0.1332 -2.1769 -0.4147
  148MYC    C7430484   5.695   4.563   5.171 -0.4320  0.4368 -0.0388
  148MYC   H11230485   5.674   4.470   5.117 -1.7306  0.3591  0.5763
  148MYC   H11330486   5.801   4.580   5.148 -0.2708  0.2468  0.5641
  148MYC    C7330487   5.626   4.673   5.097  0.2675 -1.0309  0.0665
  148MYC   HH1330488   5.666   4.765   5.141  1.8481 -1.9853  0.6812
  148MYC   H11430489   5.517   4.668   5.109  0.2231  0.1336  0.2759
  148MYC    C7230490   5.662   4.677   4.945 -1.0636  0.4569  0.1550
  148MYC   H11530491   5.657   4.576   4.902  0.0266  0.2099  0.5661
  148MYC   H11630492   5.765   4.715   4.943 -0.0908 -1.9751  0.8206
  148MYC    C7130493   5.572   4.768   4.868  0.1147  0.2871  0.3454
  148MYC   H11730494   5.580   4.867   4.915 -2.9219  1.0810 -0.5985
  148MYC   H11830495   5.468   4.737   4.882 -0.2982  0.5070 -1.9593
  148MYC    C7030496   5.607   4.764   4.716  1.3641 -0.3553  0.2751
  148MYC   H11930497   5.601   4.664   4.672 -1.0450 -0.3789  0.4860
  148MYC   H12030498   5.712   4.793   4.704  0.6132  1.4676 -3.3558
  148MYC    C6930499   5.503   4.846   4.635  0.0765  0.1002  0.4257
  148MYC   H12130500   5.495   4.950   4.670  2.4798  1.3080 -2.2391
  148MYC   H12230501   5.411   4.787   4.646 -0.1317  0.4818  0.7913
  148MYC    C6830502   5.533   4.864   4.482 -0.3826 -0.2079 -0.6167
  148MYC   HH1230503   5.566   4.764   4.451  0.8787  0.0286 -0.0758
  148MYC   H12330504   5.620   4.930   4.479  0.1107 -0.8691 -1.0225
  148MYC    C6730505   5.409   4.905   4.403 -0.0486  0.3213  0.1280
  148MYC   H12430506   5.380   4.998   4.453  0.6674  1.4508 -1.4861
  148MYC   H12530507   5.322   4.838   4.395  0.5155 -0.6660  1.6902
  148MYC    C6630508   5.448   4.941   4.258  0.6354 -0.7978  0.0112
  148MYC   H12630509   5.484   4.849   4.209  2.8413  0.1605 -0.2881
  148MYC   H12730510   5.539   5.002   4.261 -0.1987  0.4638  0.4273
  148MYC    C6530511   5.337   5.011   4.180  0.0099  0.5848  0.3368
  148MYC   H12830512   5.293   5.098   4.230 -1.0139  0.7313 -0.7561
  148MYC   H12930513   5.249   4.947   4.164  0.1148  0.3638  0.6627
  148MYC    C6430514   5.386   5.047   4.036 -0.7151 -0.6031  0.7733
  148MYC   H13030515   5.426   4.958   3.988 -0.2470 -1.7194  3.0723
  148MYC   H13130516   5.473   5.114   4.040  0.1678 -1.6762  0.1690
  148MYC    C6330517   5.294   5.110   3.952 -0.0192 -0.0196 -0.0425
  148MYC   HH1130518   5.279   5.207   4.000  1.1323  0.6863 -1.0469
  148MYC   H13230519   5.194   5.064   3.952  0.2476 -0.6852  1.9321
  148MYC    C6230520   5.340   5.133   3.813  0.4963 -0.3706 -0.2797
  148MYC   H13330521   5.326   5.043   3.752  1.6547  0.5133 -1.9644
  148MYC   H13430522   5.447   5.153   3.810  0.4982 -0.2213 -3.6137
  148MYC    C6130523   5.239   5.233   3.745 -0.2467  0.1912 -0.0455
  148MYC   H13530524   5.252   5.331   3.793  0.9951  0.8240 -1.5780
  148MYC   H13630525   5.131   5.217   3.757 -0.3319  1.4556  1.0826
  148MYC    C6030526   5.243   5.234   3.599 -0.0896  0.1230  0.3690
  148MYC   H13730527   5.219   5.137   3.558  1.3095 -0.1243  0.0898
  148MYC    C5830528   5.197   5.358   3.517  0.2976  0.9782 -0.0609
  148MYC   H13830529   5.169   5.447   3.571 -0.5229  2.4612 -2.7342
  148MYC    C5930530   5.341   5.312   3.520 -0.5831 -0.7321  0.1026
  148MYC   H13930531   5.382   5.260   3.434  2.4015  1.3042  0.1563
  148MYC   H14030532   5.409   5.371   3.581 -2.1105 -2.2993  3.6499
  148MYC    C5730533   5.119   5.338   3.388 -0.1098 -0.4380 -0.0363
  148MYC   HH1030534   5.015   5.319   3.416  0.1078 -0.3762  0.8216
  148MYC   H14130535   5.160   5.249   3.340  1.7641  0.9252 -1.0981
  148MYC    C5630536   5.128   5.452   3.283 -0.0668 -0.0885 -0.5158
  148MYC   H14230537   5.234   5.460   3.255 -0.3813  2.4538 -1.2274
  148MYC   H14330538   5.099   5.544   3.334  0.2726 -0.4704  0.4008
  148MYC    C5530539   5.038   5.419   3.168 -0.0959  0.2874 -0.7071
  148MYC   H14430540   4.936   5.411   3.206 -0.2539  3.0926 -0.3606
  148MYC   H14530541   5.071   5.326   3.119  0.2230  0.6337 -1.1624
  148MYC    C5430542   5.031   5.520   3.058 -0.1156  0.7288 -0.5088
  148MYC   H14630543   4.967   5.605   3.085  1.3415  2.2995 -1.7647
  148MYC   H14730544   4.971   5.494   2.970  0.6624 -0.2597 -0.7574
  148MYC    C5330545   5.174   5.571   3.005 -0.3017 -0.5218  0.0901
  148MYC   H14830546   5.241   5.488   2.980 -1.9276 -1.5243 -1.1763
  148MYC   H14930547   5.233   5.635   3.072  0.5810  1.3228 -2.3002
  148MYC    C5230548   5.141   5.659   2.885 -0.9923 -0.5620  0.7988
  148MYC    H9930549   5.079   5.745   2.912 -0.3034  0.3549 -0.4483
  148MYC   H15030550   5.074   5.601   2.821 -0.4547 -1.8308  1.3394
  148MYC    C5130551   5.270   5.711   2.811  0.1298  0.5190 -0.2676
  148MYC    H9730552   5.335   5.764   2.883 -0.4926 -0.3419  0.9727
  148MYC    H9830553   5.240   5.790   2.742 -1.1722 -0.7253 -1.1594
  148MYC    C5030554   5.363   5.614   2.734  0.3425 -0.5174 -0.0581
  148MYC    H9530555   5.304   5.561   2.658  0.1324 -0.0312 -0.2363
  148MYC    H9630556   5.394   5.528   2.795 -0.0256 -0.9991 -0.5381
  148MYC    C4930557   5.483   5.685   2.671 -0.9372  0.3685  0.2427
  148MYC    H9330558   5.540   5.740   2.746  0.7885  1.3595 -1.7041
  148MYC    H9430559   5.442   5.769   2.614 -0.3375  0.0221 -0.7246
  148MYC    C4830560   5.586   5.586   2.602 -0.0166  0.2688 -0.0618
  148MYC    H9130561   5.650   5.637   2.528 -0.2607 -0.5783 -0.8780
  148MYC    H9230562   5.520   5.527   2.537 -0.2765  1.5628 -1.0130
  148MYC    C4730563   5.676   5.498   2.690  0.2190  0.0794  0.1853
  148MYC    H8930564   5.615   5.431   2.753 -1.3713  0.9500 -0.3749
  148MYC    H9030565   5.733   5.560   2.760 -0.5420  0.2061  0.7034
  148MYC    C4630566   5.789   5.420   2.622  0.0163 -0.9882  0.1610
  148MYC    H8730567   5.860   5.388   2.700 -0.0057 -1.3190  0.0460
  148MYC    H8830568   5.843   5.483   2.551  0.0732  0.4288  1.4129
  148MYC    C4530569   5.736   5.303   2.542  0.3736  0.4778 -0.0024
  148MYC    H8530570   5.673   5.345   2.463  0.9754  0.5906 -0.4270
  148MYC    H8630571   5.678   5.229   2.598  0.7244 -1.2562 -1.7913
  148MYC    C4430572   5.841   5.216   2.468  0.6530 -0.1177 -0.4246
  148MYC    H8330573   5.793   5.117   2.462 -0.3805  0.1175  2.2781
  148MYC    H8430574   5.925   5.179   2.528  0.7333  1.6582  0.6273
  148MYC    C1830575   5.884   5.275   2.326  0.6025  0.2054  0.1689
  148MYC    H3130576   5.806   5.271   2.251 -0.0407 -0.8186  0.8577
  148MYC    C1730577   5.976   5.383   2.315 -0.6949 -0.4554  0.0345
  148MYC    H3030578   6.014   5.430   2.406  0.9305 -0.6261 -0.5218
  148MYC    C1930579   6.025   5.242   2.282  1.1043 -0.2683 -0.4106
  148MYC    H3230580   6.086   5.196   2.359  1.3968  0.2082 -0.3551
  148MYC    H3330581   6.039   5.221   2.177 -2.4392  0.2967 -1.1195
  148MYC    C1630582   5.960   5.491   2.203  0.5183  0.4065 -0.6149
  148MYC    H2830583   5.896   5.446   2.127 -2.3023  1.8819  0.7246
  148MYC    H2930584   6.061   5.507   2.163  1.5621 -1.6070  1.0425
  148MYC    C1530585   5.905   5.620   2.253  0.2231  0.2325 -0.2571
  148MYC    H2630586   5.965   5.670   2.330 -1.0136  1.0172  0.2279
  148MYC    H2730587   5.818   5.601   2.316  1.1028  1.9003  1.6057
  148MYC    C1430588   5.849   5.729   2.158  0.5627 -0.1896  0.3487
  148MYC    H2430589   5.749   5.689   2.137 -0.0262  0.0085  2.6017
  148MYC    H2530590   5.897   5.726   2.059 -2.1408 -1.5757 -1.0538
  148MYC    C1330591   5.851   5.862   2.225 -0.3413 -0.7077 -0.5837
  148MYC    H2230592   5.809   5.940   2.160  0.0261 -1.0382 -1.2252
  148MYC    H2330593   5.952   5.900   2.247 -0.3964 -0.5679 -0.5671
  148MYC    C1230594   5.769   5.871   2.357  0.2584  0.4066 -0.8777
  148MYC    H2030595   5.793   5.803   2.439  0.9265  0.4998 -0.9834
  148MYC    H2130596   5.665   5.854   2.330  0.5944 -0.7925 -1.5277
  148MYC    C1130597   5.768   6.021   2.408 -0.3615  0.1277 -0.1972
  148MYC    H1830598   5.752   6.075   2.314  1.0184 -0.3872 -0.7738
  148MYC    H1930599   5.872   6.041   2.437 -0.9163 -0.3500  2.2769
  148MYC    C1030600   5.675   6.062   2.518  0.5322 -0.7747  0.5614
  148MYC    H1630601   5.584   6.001   2.515  0.4112 -0.6008  0.6361
  148MYC    H1730602   5.643   6.165   2.494  0.4249 -1.3267 -1.9057
  148MYC     C930603   5.744   6.054   2.659 -0.6049  0.2897  0.1302
  148MYC    H1430604   5.834   6.116   2.654  1.1176 -2.1580 -1.4767
  148MYC    H1530605   5.766   5.947   2.669 -1.4673  0.2210  1.6523
  148MYC     C830606   5.653   6.096   2.770  0.2539 -0.6304 -0.0491
  148MYC    H1230607   5.554   6.048   2.773  0.7397 -1.6333  2.2462
  148MYC    H1330608   5.620   6.201   2.771 -1.1757 -1.0466 -0.6903
  148MYC     C730609   5.711   6.087   2.910  0.4047 -0.3463 -0.2783
  148MYC    H1030610   5.637   6.121   2.984  1.3100  0.1213  0.4371
  148MYC    H1130611   5.798   6.152   2.919  1.3775 -1.6345  0.0590
  148MYC     C630612   5.740   5.944   2.970 -0.4745 -0.2739  0.9267
  148MYC     H830613   5.790   5.879   2.898  0.6104 -0.4449  1.8032
  148MYC     H930614   5.644   5.893   2.988 -1.2473  0.5049 -0.7521
  148MYC     C530615   5.821   5.956   3.099 -0.6881  0.4235 -0.4943
  148MYC     H630616   5.916   6.008   3.086  0.4877 -1.2583  0.9440
  148MYC     H730617   5.849   5.853   3.121  1.1242  0.6517 -1.5780
  148MYC     C430618   5.749   6.009   3.228 -0.0122 -0.1102 -0.0518
  148MYC     H430619   5.668   5.937   3.240  0.2681 -0.8111 -1.9471
  148MYC     H530620   5.710   6.109   3.205  2.9897  1.0569 -0.4903
  148MYC     C230621   5.843   6.018   3.354  0.3945 -0.3983  0.0281
  148MYC     H230622   5.902   5.929   3.378 -0.0369 -0.1163  2.4012
  148MYC     O330623   5.939   6.128   3.342 -0.1078  0.4989  0.3255
  148MYC     H330624   5.889   6.211   3.331 -0.9472 -0.2998 -2.6723
  148MYC     C130625   5.749   6.046   3.480  0.3124 -0.1701 -0.2242
  148MYC     H130626   5.673   5.968   3.493 -0.9133  0.9172 -0.6544
  148MYC    C8130627   5.677   6.181   3.471 -0.6229 -0.1080  0.4555
  148MYC    O8230628   5.734   6.293   3.477 -0.3758  0.2758  0.2522
  148MYC    O8330629   5.551   6.172   3.438 -0.0461 -0.4960  0.2469
  148MYC   H10530630   5.509   6.256   3.414  0.1368 -0.3662  0.3856
  148MYC    C2030631   5.822   6.050   3.614  0.0066 -0.2874  0.8967
  148MYC    H3430632   5.876   5.954   3.609  1.0503  0.3436 -1.9639
  148MYC    H3530633   5.901   6.126   3.607 -1.7001  1.7471  2.4760
  148MYC    C2130634   5.741   6.060   3.745 -0.5713  1.0377 -0.1168
  148MYC    H3630635   5.726   6.168   3.759 -2.6548  1.2228 -2.9757
  148MYC    H3730636   5.641   6.019   3.730  0.4177 -1.6362  0.0854
  148MYC    C2230637   5.802   5.986   3.871  0.0270 -0.1840  0.4124
  148MYC    H3830638   5.796   5.878   3.856  1.0968  0.0886 -2.5177
  148MYC    H3930639   5.907   6.017   3.872  0.6455 -1.9415 -1.8310
  148MYC    C2330640   5.740   6.023   4.007  0.1018 -0.6192  0.3224
  148MYC    H4030641   5.811   5.985   4.081  0.2816  0.5122  0.7485
  148MYC    H4130642   5.739   6.132   4.011  0.4874 -0.6063  0.1749
  148MYC    C2430643   5.592   5.971   4.030 -0.1891 -0.1835  0.9707
  148MYC    H4230644   5.538   5.988   3.936  1.0323 -2.5232 -0.2316
  148MYC    H4330645   5.602   5.863   4.045  0.1575 -0.0717  1.5969
  148MYC    C2530646   5.521   6.033   4.154  0.3335  0.0085 -0.0392
  148MYC    H4430647   5.537   6.141   4.147  1.9440 -0.0498  1.9798
  148MYC    H4530648   5.414   6.019   4.138 -0.0724  3.3192 -1.0816
  148MYC    C2630649   5.583   5.993   4.289  0.4277  0.2725  0.1782
  148MYC    H4630650   5.582   5.884   4.292  1.0869  0.2180 -0.9554
  148MYC    H4730651   5.683   6.033   4.272  0.3075 -0.5824 -3.4832
  148MYC    C2730652   5.504   6.050   4.400  0.1886 -0.2264 -0.5309
  148MYC    H4830653   5.523   6.158   4.405 -1.4960  0.0612  0.2144
  148MYC    H4930654   5.396   6.041   4.382  0.0622  0.5276 -0.2000
  148MYC    C2830655   5.536   5.985   4.534  0.3934  0.1222  0.5297
  148MYC    H5030656   5.522   5.877   4.529 -2.7282  0.4439 -0.2479
  148MYC    H5130657   5.644   5.982   4.551  0.6909  2.5814 -0.4180
  148MYC    C2930658   5.458   6.046   4.649  0.1847 -0.9386 -0.6234
  148MYC    H5230659   5.480   6.153   4.658 -1.3691 -0.6636  0.2720
  148MYC    H5330660   5.352   6.022   4.635 -0.0459 -0.8682  0.8596
  148MYC    C3030661   5.503   5.985   4.782  0.2794 -0.5381  0.6600
  148MYC    H5430662   5.531   5.880   4.762  2.2688  0.1099 -0.2077
  148MYC    H5530663   5.588   6.049   4.807  0.5461 -0.9257  0.7616
  148MYC    C3130664   5.390   5.987   4.888  0.1042 -0.2190  0.1758
  148MYC    H5630665   5.345   6.087   4.890  3.0337  1.1795  0.7779
  148MYC    H5730666   5.315   5.912   4.861 -0.4342  0.8155 -1.3289
  148MYC    C3230667   5.455   5.969   5.029  0.2552 -0.1546  0.0884
  148MYC    H5830668   5.499   5.869   5.037 -0.8619 -0.7561 -0.9359
  148MYC    H5930669   5.524   6.054   5.036  0.1005  0.5099 -3.9378
  148MYC    C3330670   5.353   5.980   5.140  0.1951  0.5698 -0.3201
  148MYC    H6030671   5.286   6.066   5.149 -0.5515 -0.2252  3.1713
  148MYC    H6130672   5.282   5.899   5.119 -0.5960  0.8247  1.2568
  148MYC    C3430673   5.412   5.940   5.284  0.3595 -0.4857  0.1837
  148MYC    H6230674   5.431   5.832   5.277  0.3855 -0.4888  0.3097
  148MYC    H6330675   5.503   5.998   5.305  0.7868 -0.9030 -0.4736
  148MYC    C3530676   5.308   5.972   5.399 -0.7112 -0.2450  0.0700
  148MYC    H6430677   5.294   6.081   5.407  1.0702 -0.0443  1.0651
  148MYC    H6530678   5.213   5.919   5.388 -0.5785 -0.1119 -1.9993
  148MYC    C3630679   5.360   5.930   5.542 -0.0985  0.3423  0.2561
  148MYC    H6630680   5.371   5.822   5.531  1.0315  0.4235  0.5023
  148MYC    H6730681   5.467   5.954   5.541  0.2006 -0.6125 -3.0052
  148MYC    C3730682   5.275   5.981   5.653  0.3795 -0.8963 -0.1102
  148MYC    H6830683   5.270   6.091   5.660  2.5009 -0.7642  0.0621
  148MYC    H6930684   5.171   5.956   5.630  0.1085  0.1792 -0.1154
  148MYC    C3830685   5.312   5.924   5.790 -0.1835  0.4213 -0.6737
  148MYC    H7030686   5.324   5.815   5.786 -0.8037  0.2480  1.1854
  148MYC    H7130687   5.409   5.962   5.826 -0.4454 -0.9156  1.6937
  148MYC    C3930688   5.210   5.961   5.892 -0.0555  0.0508 -0.0755
  148MYC    H7230689   5.182   6.066   5.875 -1.2514 -0.4508 -1.3755
  148MYC    H7330690   5.118   5.902   5.878 -0.1198  0.3499 -0.9802
  148MYC    C4030691   5.273   5.937   6.039  0.2230  0.6114  0.9320
  148MYC    H7430692   5.320   5.839   6.045  0.2739  0.5269 -0.4301
  148MYC    H7530693   5.356   6.006   6.057  0.0171  1.0269  0.3275
  148MYC    C4130694   5.170   5.957   6.158 -0.2820 -0.3089  0.5445
  148MYC    H7630695   5.119   6.051   6.133 -0.1135 -0.2155  0.5580
  148MYC    H7730696   5.091   5.881   6.159 -1.0442  0.4712  1.4325
  148MYC    C4230697   5.225   5.994   6.293 -0.0741  0.0480 -0.3464
  148MYC    H7830698   5.306   5.926   6.320 -0.7465 -0.6842 -0.1125
  148MYC    H7930699   5.260   6.098   6.285 -1.3928  0.3756 -4.2203
  148MYC    C4330700   5.120   5.985   6.402 -0.3146  0.2296 -0.6349
  148MYC    H8030701   5.038   6.052   6.374 -0.7210  0.2108  0.4476
  148MYC    H8130702   5.159   6.007   6.502 -0.7739 -0.1012 -0.3783
  148MYC    H8230703   5.079   5.884   6.416 -1.3933  0.8459  0.9324
  149MYC   HH1530704   4.964   5.452   6.153 -0.3772  0.2465  0.5489
  149MYC    C8030705   5.001   5.522   6.078 -0.9277 -0.4892 -0.4499
  149MYC   H10030706   4.945   5.616   6.075 -0.0761  0.1462  1.4527
  149MYC   H10130707   5.104   5.541   6.112 -0.7494  0.2261 -1.3376
  149MYC    C7930708   5.011   5.452   5.943 -0.0440  0.4145 -0.4748
  149MYC   H10230709   4.913   5.407   5.922 -0.2836  0.6259  0.1889
  149MYC   H10330710   5.089   5.374   5.944 -0.3082  0.0555  2.8342
  149MYC    C7830711   5.036   5.552   5.825  0.6339  0.2374 -0.3878
  149MYC   HH1430712   5.136   5.597   5.821  0.9447 -0.4944 -1.0062
  149MYC   H10430713   4.967   5.637   5.832  2.6792  1.9525  0.1130
  149MYC    C7730714   5.019   5.488   5.690  0.0823 -0.2803  0.3828
  149MYC   H10630715   4.928   5.427   5.681  0.0392 -0.0270 -1.4703
  149MYC   H10730716   5.099   5.414   5.675 -3.0111 -3.8992  0.4336
  149MYC    C7630717   5.024   5.587   5.576 -0.7005  0.6304 -0.4210
  149MYC   H10830718   5.122   5.637   5.581  0.5836 -0.9582 -5.0566
  149MYC   H10930719   4.942   5.657   5.596  1.2140  2.0857  3.3917
  149MYC    C7530720   5.030   5.533   5.434  0.4916 -0.2565 -0.0747
  149MYC   H11030721   4.935   5.478   5.422 -0.2964  1.0887 -0.1528
  149MYC   H11130722   5.103   5.451   5.426  1.2897  0.4750 -0.3767
  149MYC    C7430723   5.060   5.638   5.326 -0.0200  0.7270 -0.2134
  149MYC   H11230724   5.168   5.653   5.328  0.1584 -0.5393  0.8682
  149MYC   H11330725   5.016   5.736   5.349 -1.0998  0.3102 -0.4166
  149MYC    C7330726   5.014   5.584   5.193  0.3058 -0.0872  0.5804
  149MYC   HH1330727   4.905   5.570   5.182  0.2861  0.2830  0.2775
  149MYC   H11430728   5.048   5.480   5.181 -0.8144 -0.5344  1.0531
  149MYC    C7230729   5.047   5.679   5.081 -0.2783  0.1501 -1.1128
  149MYC   H11530730   5.155   5.697   5.079 -0.6760  3.1746 -0.7513
  149MYC   H11630731   4.990   5.772   5.088 -1.7514 -0.8120  0.2503
  149MYC    C7130732   5.021   5.604   4.942  0.2168 -0.1531 -0.4836
  149MYC   H11730733   4.912   5.590   4.935 -0.0867  1.8988 -0.6206
  149MYC   H11830734   5.072   5.508   4.934  0.5146  0.0429 -1.0364
  149MYC    C7030735   5.057   5.699   4.822  0.0211  0.6225 -1.0476
  149MYC   H11930736   5.166   5.711   4.822  0.0065  0.8149 -1.9482
  149MYC   H12030737   5.014   5.799   4.834  1.7213  1.3340 -0.6089
  149MYC    C6930738   5.025   5.633   4.690  0.2798 -0.0056 -0.6524
  149MYC   H12130739   4.920   5.602   4.705 -0.4375  2.0822 -0.9733
  149MYC   H12230740   5.085   5.543   4.672  0.3898  0.0753 -0.6881
  149MYC    C6830741   5.027   5.707   4.557 -0.1904 -0.0071 -0.0967
  149MYC   HH1230742   4.975   5.803   4.569  1.6819  0.8018  2.5102
  149MYC   H12330743   4.986   5.634   4.487  1.8502 -0.5910 -0.7521
  149MYC    C6730744   5.178   5.742   4.529  0.0655 -0.3727  0.0159
  149MYC   H12430745   5.242   5.654   4.546  0.8218  0.5292  2.1241
  149MYC   H12530746   5.219   5.812   4.602 -1.2399 -1.7923  2.2201
  149MYC    C6630747   5.200   5.796   4.384  0.0482  0.1260 -0.7110
  149MYC   H12630748   5.299   5.842   4.386 -0.9790  2.5994  2.2583
  149MYC   H12730749   5.140   5.887   4.373  1.6028  1.4648  1.1832
  149MYC    C6530750   5.179   5.689   4.271 -0.1005 -0.2904  0.5528
  149MYC   H12830751   5.093   5.625   4.293 -0.4278  0.0373  0.2279
  149MYC   H12930752   5.265   5.621   4.275  0.0303 -0.4904 -2.6499
  149MYC    C6430753   5.165   5.769   4.137 -0.2635  0.3679 -0.3195
  149MYC   H13030754   5.251   5.833   4.118 -0.0155  0.0246 -0.3760
  149MYC   H13130755   5.079   5.833   4.158 -0.0275  0.7539 -0.5328
  149MYC    C6330756   5.137   5.695   4.003 -0.8337  0.8001  0.4461
  149MYC   HH1130757   5.036   5.651   4.008  0.3362 -2.4240 -1.2240
  149MYC   H13230758   5.203   5.607   4.010 -1.7011 -0.0356 -1.2394
  149MYC    C6230759   5.175   5.780   3.878  0.0559  0.2855  0.0983
  149MYC   H13330760   5.282   5.805   3.880  0.5527 -1.6933  0.3969
  149MYC   H13430761   5.136   5.882   3.880  2.3857  1.2691 -0.6850
  149MYC    C6130762   5.157   5.719   3.733  0.5036 -0.7828 -0.1434
  149MYC   H13530763   5.049   5.704   3.734  0.4586 -0.4748 -0.1390
  149MYC   H13630764   5.195   5.618   3.713  0.1341 -0.8827 -0.3447
  149MYC    C6030765   5.213   5.816   3.636 -0.1077 -0.1665  0.4821
  149MYC   H13730766   5.321   5.821   3.641  0.1426  0.3053 -2.9491
  149MYC    C5830767   5.160   5.812   3.499  0.3797 -0.2147 -0.2485
  149MYC   H13830768   5.077   5.742   3.494  0.3113 -0.1118 -0.5744
  149MYC    C5930769   5.143   5.936   3.582 -0.2816  0.1047  0.3644
  149MYC   H13930770   5.200   6.026   3.561  1.9255 -1.5718 -1.2710
  149MYC   H14030771   5.037   5.945   3.605 -0.2694  0.1996  0.3851
  149MYC    C5730772   5.254   5.807   3.380  0.7684  0.3398 -0.1436
  149MYC   HH1030773   5.278   5.708   3.341  0.2589  0.5732 -1.0643
  149MYC   H14130774   5.345   5.846   3.428 -0.3249  0.8878  1.5775
  149MYC    C5630775   5.210   5.904   3.275 -0.2674 -0.1740 -0.2279
  149MYC   H14230776   5.172   5.997   3.318  0.2128  1.1606 -2.5295
  149MYC   H14330777   5.127   5.852   3.226 -0.3671 -0.2207 -0.0077
  149MYC    C5530778   5.333   5.932   3.181  0.1396 -0.6091 -0.1161
  149MYC   H14430779   5.387   5.841   3.153  1.4964  0.3459 -0.6870
  149MYC   H14530780   5.406   5.991   3.238 -0.3135  0.4208 -0.5614
  149MYC    C5430781   5.319   6.012   3.046 -0.6257  0.8780 -0.0394
  149MYC   H14630782   5.241   5.960   2.989  1.1192 -0.8899 -0.9296
  149MYC   H14730783   5.419   6.006   3.002 -1.0809  1.9925 -1.2863
  149MYC    C5330784   5.288   6.157   3.067 -0.8701  0.3292  0.1191
  149MYC   H14830785   5.382   6.210   3.087 -1.7522  2.2799 -0.6579
  149MYC   H14930786   5.218   6.169   3.150 -2.1485 -0.0967 -0.8680
  149MYC    C5230787   5.215   6.230   2.947 -0.8240 -0.4563 -0.1241
  149MYC    H9930788   5.173   6.322   2.989  0.9761  0.2580  0.2386
  149MYC   H15030789   5.120   6.182   2.923 -2.3245  2.7953 -1.1956
  149MYC    C5130790   5.293   6.245   2.810  0.3744  0.1749 -0.4138
  149MYC    H9730791   5.320   6.146   2.772  0.5743 -0.2710  0.8531
  149MYC    H9830792   5.390   6.288   2.839  0.8976 -1.7004  0.8514
  149MYC    C5030793   5.223   6.313   2.682 -0.4559  0.0508 -0.1557
  149MYC    H9530794   5.176   6.409   2.705 -0.7381 -0.0380 -0.3639
  149MYC    H9630795   5.140   6.253   2.642 -1.3555  0.4034  1.1309
  149MYC    C4930796   5.322   6.329   2.564 -0.5852 -1.0813  0.6080
  149MYC    H9330797   5.399   6.252   2.555 -0.2837 -0.8505  1.1952
  149MYC    H9430798   5.372   6.424   2.586  0.9434 -1.4097 -1.2612
  149MYC    C4830799   5.249   6.338   2.415  0.0857  0.5972  0.0942
  149MYC    H9130800   5.329   6.372   2.347  1.1759 -1.7759  0.0956
  149MYC    H9230801   5.171   6.414   2.427  1.5639  1.7887  3.0492
  149MYC    C4730802   5.194   6.201   2.364  0.4035  0.9087 -0.7999
  149MYC    H8930803   5.122   6.215   2.282 -1.3773  0.0447  0.5359
  149MYC    H9030804   5.136   6.156   2.446  3.5372 -3.0861 -0.4653
  149MYC    C4630805   5.302   6.099   2.313  0.7282 -0.0957 -0.5926
  149MYC    H8730806   5.258   5.999   2.321 -1.9819  1.0987  0.9505
  149MYC    H8830807   5.385   6.095   2.385 -1.0996 -0.7080  1.6284
  149MYC    C4530808   5.372   6.126   2.181 -0.2288 -0.3868 -0.9211
  149MYC    H8530809   5.468   6.073   2.179  0.0185  0.0320 -0.1475
  149MYC    H8630810   5.399   6.232   2.172  2.0949 -0.7315  1.0385
  149MYC    C4430811   5.293   6.072   2.058 -0.0051 -0.3811 -0.5013
  149MYC    H8330812   5.206   6.137   2.049  0.5446  0.5036  0.3889
  149MYC    H8430813   5.270   5.967   2.082 -2.7724  0.2628 -0.0803
  149MYC    C1830814   5.365   6.087   1.920  0.5446  0.1290 -0.1417
  149MYC    H3130815   5.383   6.191   1.896  0.4749  0.4932  1.2559
  149MYC    C1730816   5.451   5.979   1.856 -0.5547 -0.0557  0.0083
  149MYC    H3030817   5.471   5.899   1.926 -3.4346 -0.4649  0.4769
  149MYC    C1930818   5.307   6.001   1.811  0.5982  0.2159 -0.6349
  149MYC    H3230819   5.226   5.933   1.837  0.0116  1.3327  0.5879
  149MYC    H3330820   5.292   6.041   1.712  1.5744 -0.7905 -1.2176
  149MYC    C1630821   5.569   6.025   1.768 -0.0946  0.0295 -0.1780
  149MYC    H2830822   5.542   6.121   1.723  0.7034 -0.3572 -1.5206
  149MYC    H2930823   5.575   5.950   1.688 -2.2755 -1.8568  1.3034
  149MYC    C1530824   5.708   6.032   1.839 -0.8221 -0.1688 -0.3421
  149MYC    H2630825   5.787   6.060   1.767 -1.8846  1.6296 -0.8663
  149MYC    H2730826   5.751   5.936   1.869  0.3110 -0.2129 -1.9529
  149MYC    C1430827   5.701   6.137   1.952 -0.0898  0.4756 -0.0650
  149MYC    H2430828   5.798   6.125   2.001 -0.0833  1.1931  0.1023
  149MYC    H2530829   5.618   6.113   2.020 -1.2879  2.5936 -0.6904
  149MYC    C1330830   5.681   6.289   1.898 -0.7666 -0.2311  0.3389
  149MYC    H2230831   5.611   6.299   1.814 -0.7101  2.7682  0.5545
  149MYC    H2330832   5.779   6.323   1.862 -0.5237 -1.4030 -0.1771
  149MYC    C1230833   5.629   6.388   2.004  0.2025 -0.1487 -0.7192
  149MYC    H2030834   5.533   6.349   2.039  1.9091 -2.0937  2.2892
  149MYC    H2130835   5.612   6.490   1.969  1.0579 -0.1167 -1.0638
  149MYC    C1130836   5.717   6.394   2.126  0.6049  0.1966 -0.2931
  149MYC    H1830837   5.805   6.455   2.102 -0.9633  1.6319 -2.8721
  149MYC    H1930838   5.753   6.294   2.150  0.7548 -0.0690 -1.5760
  149MYC    C1030839   5.650   6.446   2.255 -0.4904 -0.0936  0.4235
  149MYC    H1630840   5.572   6.372   2.278  0.1767 -0.2994  2.1645
  149MYC    H1730841   5.591   6.534   2.228 -2.1680 -1.4174 -0.4192
  149MYC     C930842   5.735   6.471   2.380 -0.2440 -0.6099  0.3354
  149MYC    H1430843   5.821   6.532   2.349 -2.4171  1.9911 -1.1198
  149MYC    H1530844   5.773   6.374   2.412  0.9640 -0.3801 -0.3301
  149MYC     C830845   5.667   6.543   2.491 -0.0446  0.2592 -0.5227
  149MYC    H1230846   5.564   6.507   2.488 -0.4601  1.4207 -0.4192
  149MYC    H1330847   5.672   6.650   2.469 -2.1260  0.3395 -0.7917
  149MYC     C730848   5.724   6.512   2.639 -0.0361  0.8329  0.2729
  149MYC    H1030849   5.709   6.406   2.662 -2.1380  0.5523 -2.0264
  149MYC    H1130850   5.661   6.565   2.711 -1.4023  0.4766 -0.6358
  149MYC     C630851   5.870   6.547   2.670 -0.3618  1.1829 -0.0213
  149MYC     H830852   5.878   6.653   2.644 -0.8096  1.6571  1.6410
  149MYC     H930853   5.926   6.481   2.604  0.3618  0.7595  0.9899
  149MYC     C530854   5.909   6.526   2.828  0.3527 -0.6725 -0.3938
  149MYC     H630855   6.019   6.534   2.827  0.4371 -1.4644  0.7255
  149MYC     H730856   5.888   6.423   2.861  0.5411 -0.4201  0.5180
  149MYC     C430857   5.840   6.627   2.917 -0.6239 -0.5158 -0.1160
  149MYC     H430858   5.732   6.606   2.915 -0.7372  0.0324 -0.1412
  149MYC     H530859   5.854   6.725   2.869  3.8927 -0.7231  0.4018
  149MYC     C230860   5.880   6.631   3.069  0.2180 -0.0673  0.0663
  149MYC     H230861   5.879   6.530   3.111 -2.1592  0.8983  2.5855
  149MYC     O330862   6.012   6.675   3.081 -0.4505 -0.2321 -0.1997
  149MYC     H330863   6.060   6.642   3.003 -2.2692 -0.9327 -1.0896
  149MYC     C130864   5.785   6.710   3.165  0.7106 -0.2910 -0.0459
  149MYC     H130865   5.688   6.661   3.164  0.2767  0.3810  2.4080
  149MYC    C8130866   5.755   6.859   3.103  0.8697  0.8423 -0.0516
  149MYC    O8230867   5.829   6.946   3.108  0.1115 -0.3686  0.4447
  149MYC    O8330868   5.627   6.862   3.048  0.1560 -0.0439 -0.2887
  149MYC   H10530869   5.567   6.790   3.075 -0.8648  1.2053  0.9368
  149MYC    C2030870   5.821   6.713   3.320  0.6578 -0.0088  0.2614
  149MYC    H3430871   5.820   6.612   3.364 -0.5258  0.0323  0.3454
  149MYC    H3530872   5.923   6.753   3.332  0.9599  0.2112 -2.4750
  149MYC    C2130873   5.732   6.812   3.402  0.3174  0.5530 -0.0967
  149MYC    H3630874   5.780   6.910   3.395  3.5903 -0.4857  3.9651
  149MYC    H3730875   5.630   6.812   3.361 -0.0048 -2.8098  0.3982
  149MYC    C2230876   5.725   6.785   3.548 -0.3157 -0.6403  0.2165
  149MYC    H3830877   5.828   6.794   3.582 -0.1755  1.4678 -0.6314
  149MYC    H3930878   5.663   6.855   3.605  1.7157  1.1376  0.3660
  149MYC    C2330879   5.663   6.647   3.585  0.3806 -0.7331 -0.9270
  149MYC    H4030880   5.567   6.640   3.532 -1.3546  2.5452  1.4473
  149MYC    H4130881   5.726   6.565   3.549  1.7102 -0.1658  0.0698
  149MYC    C2430882   5.632   6.629   3.735 -0.0075 -0.1061  0.7872
  149MYC    H4230883   5.707   6.674   3.800  0.3459 -0.0483  0.3388
  149MYC    H4330884   5.537   6.680   3.754 -0.0120 -0.4708  1.8579
  149MYC    C2530885   5.610   6.480   3.751  1.0119 -0.4547 -0.7890
  149MYC    H4430886   5.552   6.442   3.667 -0.2461  3.2166 -1.7943
  149MYC    H4530887   5.713   6.441   3.750  0.8656 -0.8339 -1.0613
  149MYC    C2630888   5.536   6.442   3.889 -0.5204  0.0255 -0.2907
  149MYC    H4630889   5.444   6.502   3.889 -1.8158 -1.8450 -1.1833
  149MYC    H4730890   5.512   6.335   3.893  0.8921 -0.3274 -0.6795
  149MYC    C2730891   5.603   6.481   4.024  0.3942  0.3784 -0.0235
  149MYC    H4830892   5.686   6.418   4.058 -1.1056 -0.0896  3.0997
  149MYC    H4930893   5.646   6.581   4.016 -2.4110  1.6162 -0.8539
  149MYC    C2830894   5.491   6.486   4.132 -1.2502 -0.6748 -0.3495
  149MYC    H5030895   5.420   6.568   4.118 -2.3640 -0.5742  4.3870
  149MYC    H5130896   5.444   6.387   4.135 -0.1657 -1.1895  0.2602
  149MYC    C2930897   5.551   6.514   4.277  0.1132  0.2564 -0.5056
  149MYC    H5230898   5.639   6.457   4.307 -2.3172 -2.9758  1.0594
  149MYC    H5330899   5.583   6.618   4.290  0.0610  0.0197  1.9760
  149MYC    C3030900   5.451   6.469   4.386 -0.0267 -0.3331  0.6284
  149MYC    H5430901   5.358   6.527   4.379  1.5206  2.4469  1.4153
  149MYC    H5530902   5.437   6.360   4.380 -1.0122 -0.1623 -0.8204
  149MYC    C3130903   5.507   6.505   4.530  0.2744  0.0222  0.2611
  149MYC    H5630904   5.603   6.455   4.543 -0.1072 -0.2586  2.2160
  149MYC    H5730905   5.526   6.613   4.523  0.2297  0.0671  0.8303
  149MYC    C3230906   5.414   6.457   4.631 -0.3103 -0.5265 -0.2278
  149MYC    H5830907   5.325   6.518   4.614 -0.2888 -0.5655 -0.4924
  149MYC    H5930908   5.386   6.353   4.608 -0.4893 -0.3780 -0.6896
  149MYC    C3330909   5.457   6.459   4.781  0.0868 -0.4000 -0.8520
  149MYC    H6030910   5.532   6.383   4.808  0.2292 -0.1511 -0.5320
  149MYC    H6130911   5.509   6.553   4.802  2.3486 -2.2059  2.7281
  149MYC    C3430912   5.336   6.456   4.876 -0.2068  0.6161  0.1454
  149MYC    H6230913   5.284   6.552   4.879 -1.0247  0.1685  0.8920
  149MYC    H6330914   5.279   6.371   4.837  0.5533  0.9655 -1.8310
  149MYC    C3530915   5.387   6.430   5.026  0.4178  0.7300  0.1676
  149MYC    H6430916   5.428   6.330   5.044 -1.2769 -0.2200 -0.9344
  149MYC    H6530917   5.469   6.502   5.039  1.2220 -0.1398  0.0013
  149MYC    C3630918   5.283   6.454   5.130 -0.1179 -0.3445  0.2604
  149MYC    H6630919   5.211   6.530   5.096 -1.1359 -1.5032 -0.2555
  149MYC    H6730920   5.212   6.371   5.144 -1.7027  1.2444  2.2962
  149MYC    C3730921   5.347   6.481   5.268  0.3725  0.3815 -0.0098
  149MYC    H6830922   5.421   6.401   5.279  1.4934  1.3817 -0.0997
  149MYC    H6930923   5.414   6.566   5.257  1.6191 -0.3506  1.5330
  149MYC    C3830924   5.249   6.496   5.382  0.9762  0.2670  0.1002
  149MYC    H7030925   5.189   6.587   5.379  0.0293 -0.3291  0.3491
  149MYC    H7130926   5.184   6.410   5.362  0.7597  0.3381  0.4859
  149MYC    C3930927   5.313   6.486   5.521  0.2928  0.2086 -0.7792
  149MYC    H7230928   5.369   6.397   5.549 -3.2775 -2.0182  0.0196
  149MYC    H7330929   5.389   6.564   5.515 -0.8912  1.6794  1.6191
  149MYC    C4030930   5.216   6.510   5.642  0.1052 -0.3579  0.2577
  149MYC    H7430931   5.154   6.600   5.630  0.8459  0.2006  0.5602
  149MYC    H7530932   5.138   6.433   5.641 -1.7977  1.4697 -0.5803
  149MYC    C4130933   5.280   6.512   5.783  0.1705 -0.5239  0.0786
  149MYC    H7630934   5.279   6.412   5.827  0.0175 -0.0826  1.1055
  149MYC    H7730935   5.386   6.535   5.771  0.0725 -0.5405 -0.8532
  149MYC    C4230936   5.226   6.618   5.885  0.3603  0.3100  0.2400
  149MYC    H7830937   5.287   6.601   5.975 -0.0222  0.4450  0.5301
  149MYC    H7930938   5.272   6.710   5.848 -0.1730 -0.8926 -3.9298
  149MYC    C4330939   5.076   6.628   5.904  0.2387 -0.5683  0.2564
  149MYC    H8030940   5.032   6.550   5.968 -0.2551 -1.3981 -1.0436
  149MYC    H8130941   5.023   6.616   5.809  1.2742  0.0761 -0.4253
  149MYC    H8230942   5.037   6.718   5.952  1.8329  0.8687 -1.0213
  150SOL     OW30943   2.478   5.883   0.790 -0.7800  0.3486 -0.7005
  150SOL    HW130944   2.525   5.946   0.737  3.4108 -2.1773 -0.4201
  150SOL    HW230945   2.504   5.798   0.755 -1.7319 -1.3229  2.3060
  151SOL     OW30946   4.256   3.410   1.066 -0.7055 -0.3838  0.2140
  151SOL    HW130947   4.339   3.445   1.035 -1.4299  0.2016 -1.0954
  151SOL    HW230948   4.281   3.344   1.132  0.7927 -0.4020 -0.3485
  152SOL     OW30949   3.490   5.105   1.742  0.0752  0.0261 -0.4178
  152SOL    HW130950   3.502   5.185   1.793 -0.1212  0.7731 -1.5076
  152SOL    HW230951   3.495   5.034   1.807 -1.5706  0.9975  0.8393
  153SOL     OW30952   4.159   4.216  12.626 -0.1270  0.0979 -0.0684
  153SOL    HW130953   4.195   4.294  12.670  0.3040 -0.5023  0.6704
  153SOL    HW230954   4.065   4.219  12.647 -0.0115  0.0943  0.4722
  154SOL     OW30955   5.984   5.739   0.930  0.0826  0.5374 -0.7299
  154SOL    HW130956   6.007   5.690   0.851 -0.3380 -1.7717  0.4625
  154SOL    HW230957   5.890   5.725   0.940  0.3170 -0.2320  0.7592
  155SOL     OW30958   5.439   2.178   1.611  0.2713 -0.4815  1.0372
  155SOL    HW130959   5.408   2.201   1.523 -1.0586  0.8640  1.8030
  155SOL    HW230960   5.467   2.087   1.604 -1.5946 -1.0197 -0.3643
  156SOL     OW30961   3.681   3.673  11.631  0.4128  0.0030 -0.0324
  156SOL    HW130962   3.715   3.750  11.677  3.1210 -1.0952  0.0205
  156SOL    HW230963   3.636   3.708  11.554  1.1055  1.6557  0.2820
  157SOL     OW30964   4.997   6.192   0.499 -0.6632 -0.2693  0.4067
  157SOL    HW130965   4.990   6.171   0.405  1.2177  0.7596 -0.0081
  157SOL    HW230966   4.981   6.109   0.543 -1.0322 -0.8968 -0.8434
  158SOL     OW30967   0.275   6.037  11.615 -0.3276  0.4101  0.0327
  158SOL    HW130968   0.179   6.037  11.609 -0.3582 -1.5423 -0.3383
  158SOL    HW230969   0.295   6.094  11.689 -1.8305  0.3204  0.5464
  159SOL     OW30970   0.179   3.552   1.399 -0.3222 -0.1376  0.1395
  159SOL    HW130971   0.084   3.535   1.393  0.1193 -3.5750  0.4671
  159SOL    HW230972   0.215   3.518   1.318  1.0031 -3.8217  2.0152
  160SOL     OW30973   3.352   4.813   1.752 -0.2641 -0.0233 -0.8100
  160SOL    HW130974   3.421   4.813   1.819  0.9427  0.3719 -2.0007
  160SOL    HW230975   3.338   4.721   1.732  0.1961 -0.0968 -0.8143
  161SOL     OW30976   2.421   2.885   1.379  0.6542  0.0668 -0.3767
  161SOL    HW130977   2.333   2.871   1.413  0.1431  2.1281 -0.6880
  161SOL    HW230978   2.410   2.896   1.285  1.2916 -0.1045 -0.4745
  162SOL     OW30979   1.713   0.739  11.948  0.0026 -0.4343  0.2068
  162SOL    HW130980   1.644   0.772  11.889  0.0290  0.8991  0.8923
  162SOL    HW230981   1.729   0.650  11.917 -0.5300 -0.0394 -1.3163
  163SOL     OW30982   1.880   5.848   1.258  0.8104  0.6536  0.0946
  163SOL    HW130983   1.961   5.896   1.273  1.2285  0.5709 -1.6865
  163SOL    HW230984   1.857   5.813   1.344  2.7354  0.5520  0.6141
  164SOL     OW30985   4.224   2.325  11.441 -0.0319 -0.7166 -0.1756
  164SOL    HW130986   4.312   2.302  11.411  0.4056 -0.2009  0.6565
  164SOL    HW230987   4.214   2.276  11.523 -0.5373 -0.8069 -0.2916
  165SOL     OW30988   1.585   3.104  11.545  0.7830 -0.2576 -0.2377
  165SOL    HW130989   1.611   3.077  11.633  1.4769 -2.1909 -0.9883
  165SOL    HW230990   1.652   3.167  11.520  1.5661 -0.9767 -0.0084
  166SOL     OW30991   5.098   5.902   0.516  0.4483  0.4970  0.1138
  166SOL    HW130992   5.155   5.896   0.592  0.3517  1.0801  0.2375
  166SOL    HW230993   5.109   5.818   0.471  1.4187  0.6127  0.1131
  167SOL     OW30994   0.148   0.503   0.589  0.2271  0.6606 -0.3170
  167SOL    HW130995   0.203   0.501   0.511  1.5377  1.1857  0.5631
  167SOL    HW230996   0.210   0.504   0.662 -0.9653 -0.1341  0.7555
  168SOL     OW30997   5.796   3.913   0.252  0.1412 -0.6200  0.3654
  168SOL    HW130998   5.736   3.861   0.198  1.4626 -2.9354  0.9867
  168SOL    HW230999   5.775   3.888   0.342 -1.0853  2.1437  0.9543
  169SOL     OW31000   6.398   2.352  12.120  0.2344 -0.5009 -0.1828
  169SOL    HW131001   6.374   2.372  12.030 -2.3963  0.9479  0.7340
  169SOL    HW231002   6.456   2.425  12.146  1.3040 -1.1188 -0.7659
  170SOL     OW31003   1.268   5.034   0.853  0.0018  0.0584 -0.6546
  170SOL    HW131004   1.260   5.126   0.829  0.5583 -0.0954 -1.4715
  170SOL    HW231005   1.355   5.008   0.820  0.2242 -0.5223  0.3521
  171SOL     OW31006   1.683   2.232   0.240 -0.0250  0.5028 -0.9210
  171SOL    HW131007   1.761   2.224   0.295 -0.7634 -0.5487  0.0046
  171SOL    HW231008   1.707   2.187   0.159  0.2688 -0.0214 -0.5552
  172SOL     OW31009   5.225   1.309   1.415 -0.4420  0.2742  0.0478
  172SOL    HW131010   5.209   1.403   1.425 -1.9422 -0.1365  2.3233
  172SOL    HW231011   5.139   1.273   1.394 -0.9482 -0.9904  3.5470
  173SOL     OW31012   2.991   5.839  11.753  0.3961 -0.1043 -0.0815
  173SOL    HW131013   3.055   5.909  11.743 -0.7221  0.8657 -0.7334
  173SOL    HW231014   3.038   5.759  11.729  1.3105  0.6022 -0.6940
  174SOL     OW31015   2.325   5.244   1.649 -0.5862  0.7493 -0.1567
  174SOL    HW131016   2.304   5.167   1.595  0.6409  0.0747  0.2857
  174SOL    HW231017   2.275   5.231   1.729 -1.7976  1.3541 -0.7887
  175SOL     OW31018   2.063   0.534  12.116 -0.1980 -0.0044 -0.0941
  175SOL    HW131019   1.995   0.493  12.170  0.2626 -0.3242  0.2461
  175SOL    HW231020   2.051   0.496  12.029  0.7981 -1.5899  0.4093
  176SOL     OW31021   4.909   2.797   0.669  0.2518  0.2023  0.0492
  176SOL    HW131022   4.944   2.762   0.752 -0.4423 -1.0964 -0.1737
  176SOL    HW231023   4.861   2.875   0.695  0.5022  0.1222  0.7952
  177SOL     OW31024   5.311   3.181  12.456  0.5458  0.2709  0.1976
  177SOL    HW131025   5.393   3.152  12.414  0.3187  1.3952 -1.0933
  177SOL    HW231026   5.301   3.272  12.428  0.5852  1.2621  3.1217
  178SOL     OW31027   4.469   5.387   0.618  0.3320 -0.2895  0.2836
  178SOL    HW131028   4.482   5.294   0.602 -0.3620 -0.3189 -0.1767
  178SOL    HW231029   4.388   5.391   0.669 -0.4671  0.1335 -0.9732
  179SOL     OW31030   5.431   3.318   0.395  0.3035 -0.0599  0.3786
  179SOL    HW131031   5.456   3.401   0.436  1.6320 -0.0377 -0.4241
  179SOL    HW231032   5.367   3.342   0.329  0.7372  0.3461  0.0993
  180SOL     OW31033   3.340   5.112   0.661 -0.3998  0.2229  0.7976
  180SOL    HW131034   3.399   5.070   0.599 -0.0634 -0.8231  1.7827
  180SOL    HW231035   3.254   5.110   0.619 -0.4050 -1.5303  0.8171
  181SOL     OW31036   4.952   4.919  11.486 -0.0718 -0.6826  0.1921
  181SOL    HW131037   4.989   4.859  11.421  0.2687 -0.7777  0.4706
  181SOL    HW231038   4.961   5.005  11.446 -0.7386 -0.8348 -0.2908
  182SOL     OW31039   0.605   5.982  11.280 -0.0120 -0.4873  0.5449
  182SOL    HW131040   0.517   6.019  11.292  0.0689 -0.0595 -0.1376
  182SOL    HW231041   0.663   6.044  11.324 -0.1864 -1.7277  2.6739
  183SOL     OW31042   1.357   0.198   1.518  0.3168 -0.1318  0.4305
  183SOL    HW131043   1.370   0.110   1.483 -1.2201  0.5671 -2.1325
  183SOL    HW231044   1.271   0.196   1.558  1.1995 -0.3388  2.4347
  184SOL     OW31045   1.734   3.353  11.550 -0.4617  0.3180 -0.1568
  184SOL    HW131046   1.789   3.393  11.483  0.0590 -1.9184 -1.1717
  184SOL    HW231047   1.644   3.371  11.521 -0.2654 -1.3176 -2.0197
  185SOL     OW31048   6.179   3.015   1.314  0.0866 -0.3744  0.5402
  185SOL    HW131049   6.154   2.968   1.234 -0.6594  2.2773 -0.9491
  185SOL    HW231050   6.116   2.987   1.380 -0.2941 -1.4472 -0.2553
  186SOL     OW31051   5.160   4.365   1.545  0.2605 -0.4155  0.7298
  186SOL    HW131052   5.086   4.315   1.579 -1.5813 -0.6249 -3.0689
  186SOL    HW231053   5.141   4.456   1.569  1.0549 -0.8554  3.3482
  187SOL     OW31054   1.772   1.873   0.350  0.3070 -0.0943  0.8517
  187SOL    HW131055   1.852   1.920   0.326  0.3633  0.3644  1.8696
  187SOL    HW231056   1.701   1.927   0.315  0.3769  0.7094  1.8822
  188SOL     OW31057   3.515   5.136   1.440  0.1954 -0.3253  0.6310
  188SOL    HW131058   3.509   5.089   1.523  0.1135 -1.4212  0.0304
  188SOL    HW231059   3.607   5.129   1.415  0.7565  2.0625  1.7479
  189SOL     OW31060   5.973   1.928  12.605 -0.2990 -0.1135  0.0218
  189SOL    HW131061   6.045   1.933  12.542 -1.2312  0.2013 -1.0667
  189SOL    HW231062   6.006   1.871  12.675  0.8706 -0.2582 -0.6147
  190SOL     OW31063   5.712   3.931   1.613 -0.2565 -0.0465  0.0606
  190SOL    HW131064   5.702   4.021   1.646 -0.2068 -0.1552  0.3739
  190SOL    HW231065   5.623   3.906   1.587 -0.2538  0.1293 -0.1260
  191SOL     OW31066   3.558   3.773  12.474  0.0085  0.1536  0.1725
  191SOL    HW131067   3.569   3.795  12.566 -2.5549 -0.0346  0.5892
  191SOL    HW231068   3.629   3.711  12.456  0.8625  0.5829  1.8633
  192SOL     OW31069   2.879   1.078  12.530 -0.0604  0.4314  0.3702
  192SOL    HW131070   2.886   1.001  12.588 -0.1779 -0.4478 -0.7450
  192SOL    HW231071   2.964   1.121  12.538  0.2262 -0.1484  0.5761
  193SOL     OW31072   0.727   3.249   0.844 -0.3830 -0.1657  0.4522
  193SOL    HW131073   0.813   3.290   0.850 -0.6687  0.8386 -1.5297
  193SOL    HW231074   0.697   3.269   0.755 -2.7173 -0.3693  1.1330
  194SOL     OW31075   5.186   4.851  12.571 -0.0628  0.6188  0.3470
  194SOL    HW131076   5.265   4.858  12.626  0.9573 -0.2682 -0.9329
  194SOL    HW231077   5.202   4.913  12.500 -1.1491  1.4027  0.7730
  195SOL     OW31078   1.465   1.063  12.834 -0.1662 -0.2777 -0.0077
  195SOL    HW131079   1.435   1.136  12.888  1.1636  0.6779 -0.4914
  195SOL    HW231080   1.436   0.985  12.880 -2.1386  0.5394  0.2342
  196SOL     OW31081   6.137   4.105  12.392  0.2685  0.5199 -0.2331
  196SOL    HW131082   6.093   4.021  12.402  0.1665  0.4229 -1.4144
  196SOL    HW231083   6.222   4.084  12.353  0.1904  0.9711 -0.6611
  197SOL     OW31084   1.127   3.312  12.484 -0.2578  0.2927 -0.2649
  197SOL    HW131085   1.192   3.253  12.446 -0.7425  0.0138 -0.6639
  197SOL    HW231086   1.123   3.385  12.422 -0.9476 -0.0981 -0.6977
  198SOL     OW31087   0.895   6.382  11.658 -0.0888 -0.1113 -0.0181
  198SOL    HW131088   0.909   6.354  11.567  2.5567 -0.5053  0.4266
  198SOL    HW231089   0.982   6.403  11.690 -1.0856  1.0696  2.1413
  199SOL     OW31090   4.555   2.625  12.275 -0.1250 -0.1073 -0.1544
  199SOL    HW131091   4.646   2.609  12.297 -0.2173  0.1357  0.3958
  199SOL    HW231092   4.505   2.591  12.349 -0.3690  2.0185  0.7184
  200SOL     OW31093   2.058   6.239   0.364  0.1445 -0.6380  0.0658
  200SOL    HW131094   1.969   6.239   0.399 -0.6251 -2.2107 -1.7351
  200SOL    HW231095   2.047   6.220   0.271  2.2259  1.4863 -0.7164
  201SOL     OW31096   5.434   0.290   0.282 -0.5253 -0.1485  0.5381
  201SOL    HW131097   5.401   0.336   0.205 -1.0294  0.7714  1.2791
  201SOL    HW231098   5.369   0.308   0.350 -0.1893 -1.1058  1.1311
  202SOL     OW31099   6.205   4.168  12.848 -0.5391 -0.4369 -0.2827
  202SOL    HW131100   6.131   4.129  12.894 -2.3475  2.3803 -0.5990
  202SOL    HW231101   6.179   4.166  12.755 -1.5192  2.7985 -0.2046
  203SOL     OW31102   5.175   4.386   0.925 -0.1312 -1.0236 -0.1814
  203SOL    HW131103   5.262   4.351   0.946 -0.3902 -1.0224  0.9988
  203SOL    HW231104   5.123   4.310   0.902  0.5887 -0.8695 -2.6237
  204SOL     OW31105   6.410   0.843   0.840  0.5471  0.6065 -0.5739
  204SOL    HW131106   6.348   0.894   0.892 -0.2249  0.1156 -0.9970
  204SOL    HW231107   6.452   0.907   0.783  0.9480  1.0522  0.1984
  205SOL     OW31108   4.086   1.722  11.532 -0.2832 -0.6325 -0.2783
  205SOL    HW131109   4.076   1.801  11.478  0.5924 -0.5403 -0.3348
  205SOL    HW231110   3.999   1.684  11.537 -0.9846  0.9894  0.7302
  206SOL     OW31111   4.001   4.844  11.304  0.0064 -0.2438 -0.2095
  206SOL    HW131112   4.094   4.851  11.282  0.0196  3.8967  0.3702
  206SOL    HW231113   3.999   4.840  11.399 -0.3148  1.4569 -0.0978
  207SOL     OW31114   0.047   5.010   0.125  0.2062 -0.2693 -0.2565
  207SOL    HW131115  -0.038   4.979   0.095  0.8534 -2.0593 -0.3089
  207SOL    HW231116   0.111   4.956   0.080  1.3770  0.6517  0.2333
  208SOL     OW31117   0.142   0.098   0.139  0.7234 -0.0890 -0.3595
  208SOL    HW131118   0.216   0.139   0.185  0.2840  1.3844 -0.9074
  208SOL    HW231119   0.163   0.005   0.138  1.9258  0.1403  0.6662
  209SOL     OW31120   1.276   2.561  12.099  0.0290  0.2035 -0.5543
  209SOL    HW131121   1.295   2.639  12.153  1.5298  0.8995 -1.9874
  209SOL    HW231122   1.361   2.518  12.089 -0.2340 -0.0094 -2.1827
  210SOL     OW31123   1.457   2.358  12.434  0.3741  0.5399 -0.0578
  210SOL    HW131124   1.493   2.404  12.510 -2.1585  0.4033  1.3310
  210SOL    HW231125   1.365   2.343  12.457 -0.4574  0.3834 -3.1302
  211SOL     OW31126   2.845   4.449   0.842  0.1711  0.0172 -0.4510
  211SOL    HW131127   2.816   4.371   0.796 -3.3575  0.9255 -0.0691
  211SOL    HW231128   2.791   4.452   0.921 -0.6011  3.2353 -0.9314
  212SOL     OW31129   4.296   1.249   0.041  0.5639 -0.3474  0.1330
  212SOL    HW131130   4.265   1.263   0.131  1.8195 -0.2549  0.5631
  212SOL    HW231131   4.379   1.296   0.036 -0.2159  0.9607 -1.5655
  213SOL     OW31132   3.787   3.768   0.780  0.3116  0.0738 -0.4623
  213SOL    HW131133   3.833   3.725   0.707  2.4635  0.0700  0.8090
  213SOL    HW231134   3.841   3.749   0.856 -0.3557  2.4463  0.6803
  214SOL     OW31135   1.893   2.263   0.448  0.3005  0.2744  0.3211
  214SOL    HW131136   1.891   2.354   0.478  0.1949  0.5841 -0.5989
  214SOL    HW231137   1.984   2.248   0.423  0.5033 -0.1522  1.2800
  215SOL     OW31138   4.195   0.048  12.373 -0.5781  0.1558  0.2607
  215SOL    HW131139   4.208   0.021  12.282  0.2314 -0.3328  0.5144
  215SOL    HW231140   4.184  -0.034  12.421  2.4278  0.1607  1.1240
  216SOL     OW31141   0.922   0.583  12.400 -0.4796 -0.0268 -0.0079
  216SOL    HW131142   1.018   0.589  12.392 -0.0792 -2.1619  2.0032
  216SOL    HW231143   0.901   0.636  12.477 -0.9461  0.5681 -0.5419
  217SOL     OW31144   4.974   2.989  11.626 -0.1195 -0.5513  0.2020
  217SOL    HW131145   5.020   2.942  11.556 -0.0199 -2.0177  1.1983
  217SOL    HW231146   5.033   3.061  11.649 -1.2871  1.5844 -2.9026
  218SOL     OW31147   2.464   6.199  11.920 -0.3258  0.1837 -0.1606
  218SOL    HW131148   2.426   6.135  11.981 -1.8078 -0.8854 -2.0689
  218SOL    HW231149   2.556   6.204  11.944 -0.2202 -2.4783  0.2746
  219SOL     OW31150   6.247   4.126  11.041 -0.2259 -0.2221  0.3373
  219SOL    HW131151   6.243   4.222  11.047 -2.0374 -0.0150 -2.2611
  219SOL    HW231152   6.162   4.102  11.003  0.7999 -2.6915 -0.5579
  220SOL     OW31153   6.338   3.763  11.820  0.2514  0.1842 -0.0132
  220SOL    HW131154   6.330   3.839  11.877 -0.9229 -0.2808  0.4824
  220SOL    HW231155   6.387   3.794  11.744 -0.7993  1.6145 -0.1374
  221SOL     OW31156   1.636   3.175  12.529 -0.6391 -1.0838  0.0912
  221SOL    HW131157   1.544   3.185  12.504 -0.9219 -3.5797 -0.1239
  221SOL    HW231158   1.637   3.102  12.590  1.0844 -0.2513  1.1459
  222SOL     OW31159   2.211   0.492  11.183 -0.1437 -0.0767  0.8244
  222SOL    HW131160   2.276   0.461  11.245  2.2429  1.6767 -0.6232
  222SOL    HW231161   2.262   0.527  11.110 -2.6897  2.0877 -0.0850
  223SOL     OW31162   3.972   1.142  11.701  0.0817 -0.1052 -0.0694
  223SOL    HW131163   4.022   1.178  11.628 -2.9495  0.5371 -2.0119
  223SOL    HW231164   3.957   1.217  11.759  0.3486 -0.0393 -0.0817
  224SOL     OW31165   5.044   3.164  11.321  0.4135  0.1808 -0.1009
  224SOL    HW131166   5.138   3.153  11.334  0.3408 -1.2999 -0.7531
  224SOL    HW231167   5.032   3.259  11.317  1.6761  0.4486  1.3878
  225SOL     OW31168   3.710   3.157   1.083 -0.1808  0.1513 -0.5242
  225SOL    HW131169   3.751   3.140   0.998  0.5210 -1.7378  0.1404
  225SOL    HW231170   3.660   3.077   1.101  0.7594 -0.0653  1.4070
  226SOL     OW31171   3.179   4.258  11.383  0.1972 -0.1728  0.2458
  226SOL    HW131172   3.100   4.309  11.400  0.8469  1.2315 -0.7969
  226SOL    HW231173   3.243   4.322  11.353  1.3986 -1.4422  0.0240
  227SOL     OW31174   4.342   4.343   1.534  0.4296 -0.2170  0.0060
  227SOL    HW131175   4.431   4.361   1.503  0.7395 -0.1857  0.8865
  227SOL    HW231176   4.322   4.417   1.591 -0.3557  0.0204 -0.5530
  228SOL     OW31177   0.405   4.741   0.367  0.3903  0.0597  0.1657
  228SOL    HW131178   0.374   4.666   0.315 -0.4704 -1.4392  2.6280
  228SOL    HW231179   0.488   4.766   0.328  0.1405 -1.4633 -1.4342
  229SOL     OW31180   3.902   3.548   0.966 -0.7688 -0.2382  0.4166
  229SOL    HW131181   3.979   3.580   1.013 -0.1502  0.6332 -1.1466
  229SOL    HW231182   3.841   3.522   1.036  0.1889  0.8383  1.7014
  230SOL     OW31183   5.378   4.899   0.809  0.3051 -0.4184  0.9490
  230SOL    HW131184   5.333   4.821   0.842  0.2725 -0.6250  0.4411
  230SOL    HW231185   5.391   4.880   0.716  1.7874 -0.5246  1.1690
  231SOL     OW31186   2.474   0.923   0.527 -0.1238  0.7600 -0.1509
  231SOL    HW131187   2.554   0.873   0.514  0.6293  1.5557  1.2505
  231SOL    HW231188   2.493   1.009   0.489 -0.8740  0.5012 -1.1719
  232SOL     OW31189   1.224   4.051  11.737 -0.2166  0.0600 -0.5581
  232SOL    HW131190   1.242   3.964  11.703  2.7356  0.6194 -0.6889
  232SOL    HW231191   1.155   4.085  11.680  1.0519 -0.9012 -2.7834
  233SOL     OW31192   4.623   1.981   0.637 -0.1325  0.2525 -0.3991
  233SOL    HW131193   4.634   1.931   0.556  2.0283  1.5195 -0.9758
  233SOL    HW231194   4.542   2.030   0.624 -0.2401 -0.1795 -1.4345
  234SOL     OW31195   3.341   1.275  12.330 -0.7445 -0.0560  0.4048
  234SOL    HW131196   3.335   1.191  12.376  0.6039  0.8001  2.2724
  234SOL    HW231197   3.293   1.337  12.385 -1.0565  0.5714 -0.5398
  235SOL     OW31198   2.023   0.071   1.243  0.2325 -0.3682 -0.1832
  235SOL    HW131199   2.043   0.016   1.167  2.6927  0.6302 -0.3524
  235SOL    HW231200   2.043   0.015   1.319 -0.1929 -0.6599 -0.2774
  236SOL     OW31201   0.896   1.903  12.550  0.3281  0.5481  0.5286
  236SOL    HW131202   0.986   1.883  12.578  0.0040  0.3246  1.4368
  236SOL    HW231203   0.856   1.945  12.626 -0.6205 -0.1878  0.4506
  237SOL     OW31204   3.394   2.821  12.730  0.0409  0.1019  0.0917
  237SOL    HW131205   3.466   2.879  12.756  0.3238 -0.3391  0.3141
  237SOL    HW231206   3.347   2.869  12.662 -0.6109  1.2155  1.2934
  238SOL     OW31207   5.703   5.662  11.232  0.6516 -1.2498  0.4991
  238SOL    HW131208   5.687   5.753  11.258  1.4410 -0.5175 -1.3812
  238SOL    HW231209   5.619   5.632  11.196  1.0105 -0.4128 -1.1194
  239SOL     OW31210   1.152   4.796  11.788  0.0380 -0.0107  0.1458
  239SOL    HW131211   1.162   4.866  11.724 -1.0949 -0.2009 -0.2598
  239SOL    HW231212   1.111   4.725  11.739 -0.9443 -0.1162  1.0976
  240SOL     OW31213   0.918   3.197   1.510 -0.0211  0.4564 -0.3415
  240SOL    HW131214   0.866   3.167   1.584 -0.3847 -1.7958 -1.4272
  240SOL    HW231215   1.004   3.156   1.521 -0.4731 -0.9916 -1.7755
  241SOL     OW31216   2.159   4.993  11.582 -0.6174  0.1541  0.2275
  241SOL    HW131217   2.104   4.924  11.545 -0.5449  0.3515 -0.2546
  241SOL    HW231218   2.150   4.982  11.677  1.2279 -2.0222  0.2471
  242SOL     OW31219   4.148   1.454   1.105 -0.4782  0.2711  0.0844
  242SOL    HW131220   4.172   1.372   1.147 -2.2730 -0.9577 -1.1353
  242SOL    HW231221   4.224   1.476   1.051  0.0785 -0.4964  0.5301
  243SOL     OW31222   4.219   1.721   1.229  0.2408 -0.1917 -0.0013
  243SOL    HW131223   4.255   1.786   1.168  1.3367 -1.4655 -0.7563
  243SOL    HW231224   4.198   1.645   1.175 -0.6894 -0.6170  0.9163
  244SOL     OW31225   3.474   5.328   1.894  0.0479 -0.5172 -0.0840
  244SOL    HW131226   3.496   5.369   1.978  1.9761  0.3692 -0.9503
  244SOL    HW231227   3.463   5.401   1.834  0.5101 -1.1749 -0.9919
  245SOL     OW31228   5.436   1.362  11.185 -0.1680  0.5846 -0.5935
  245SOL    HW131229   5.491   1.291  11.218 -1.9862 -1.8024 -2.2673
  245SOL    HW231230   5.401   1.404  11.263  1.2201 -0.1429  0.4697
  246SOL     OW31231   2.428   4.979   0.573 -0.6095 -0.1939  0.4801
  246SOL    HW131232   2.469   4.932   0.645 -1.1542  1.9274  2.2907
  246SOL    HW231233   2.467   4.941   0.494  2.2854 -0.5886  1.9745
  247SOL     OW31234   5.136   1.637  11.049  0.7096  0.2257  0.2262
  247SOL    HW131235   5.116   1.693  10.974  0.1697  1.9272  1.5866
  247SOL    HW231236   5.208   1.682  11.093 -1.4251  1.3487  2.7948
  248SOL     OW31237   5.097   3.751  11.508 -0.6104 -0.0770 -0.2166
  248SOL    HW131238   5.134   3.786  11.589  0.1471 -0.7970 -0.2355
  248SOL    HW231239   5.025   3.695  11.536 -0.1751 -0.5391 -0.0263
  249SOL     OW31240   0.342   2.258  11.694 -0.6847 -0.0562  0.1338
  249SOL    HW131241   0.253   2.231  11.720 -0.2674 -1.4996  0.1575
  249SOL    HW231242   0.332   2.349  11.666 -2.7391 -1.0002 -2.6282
  250SOL     OW31243   2.130   5.451   1.707  0.8607  0.3908  0.2584
  250SOL    HW131244   2.115   5.364   1.745 -1.2939  0.5049 -0.2022
  250SOL    HW231245   2.215   5.478   1.743  0.2478 -0.6689  2.7673
  251SOL     OW31246   3.051   5.611   1.243 -0.5946 -0.2737 -0.1908
  251SOL    HW131247   3.133   5.607   1.292  0.0801 -0.0390 -1.2689
  251SOL    HW231248   3.073   5.661   1.164 -1.5647 -0.9287 -0.8926
  252SOL     OW31249   0.817   4.673   1.769 -0.0993  0.1824 -0.4051
  252SOL    HW131250   0.738   4.640   1.726 -0.6141 -1.7043  1.7854
  252SOL    HW231251   0.789   4.694   1.858  2.0037 -1.6541  0.8081
  253SOL     OW31252   6.154   4.163   1.168  0.1556  0.1867 -0.3786
  253SOL    HW131253   6.120   4.240   1.212 -1.0250  0.3522 -1.5206
  253SOL    HW231254   6.100   4.154   1.089  0.5941 -1.5090 -0.5316
  254SOL     OW31255   3.410   5.635   0.257 -0.6326 -0.5028 -0.0747
  254SOL    HW131256   3.456   5.715   0.231 -0.5376 -0.2095  0.9499
  254SOL    HW231257   3.317   5.656   0.243 -0.5812 -0.3727 -0.2258
  255SOL     OW31258   0.121   2.784  12.824 -0.4319 -0.4593  0.0385
  255SOL    HW131259   0.051   2.839  12.789 -0.2664  0.5118  1.1523
  255SOL    HW231260   0.201   2.836  12.812 -0.2036 -0.6478  0.6675
  256SOL     OW31261   5.553   5.599   1.782 -0.3583  0.4106  0.5979
  256SOL    HW131262   5.488   5.543   1.738  1.0436 -0.9526  0.1817
  256SOL    HW231263   5.555   5.566   1.872 -0.0624  0.2648  0.5401
  257SOL     OW31264   6.278   0.238  11.294 -0.1114 -0.0714 -0.2535
  257SOL    HW131265   6.268   0.280  11.379  3.5631  1.6647 -0.5165
  257SOL    HW231266   6.305   0.149  11.314 -3.1650 -1.0173  0.2681
  258SOL     OW31267   5.552   5.140   0.252 -0.2118 -0.8345 -0.2038
  258SOL    HW131268   5.535   5.117   0.343 -2.0022 -0.7682 -0.4994
  258SOL    HW231269   5.479   5.101   0.203 -1.1941  2.0272 -1.2022
  259SOL     OW31270   5.113   2.581  11.788  0.2878  0.3026 -0.2603
  259SOL    HW131271   5.173   2.553  11.718 -0.3379  1.4381 -1.2798
  259SOL    HW231272   5.170   2.618  11.855  0.7044  5.0385 -2.8578
  260SOL     OW31273   2.760   1.048  11.655 -0.0085 -0.0388  0.3924
  260SOL    HW131274   2.751   1.115  11.722 -0.9342 -0.3561  0.6017
  260SOL    HW231275   2.692   0.983  11.675 -0.9636  0.3295 -1.3760
  261SOL     OW31276   4.987   2.906  10.886 -0.2067 -0.4332 -0.2953
  261SOL    HW131277   5.023   2.829  10.929 -2.6061 -1.9734 -0.8899
  261SOL    HW231278   5.026   2.980  10.934  0.6480 -2.0083  1.5863
  262SOL     OW31279   1.295   3.403   0.913 -0.1560 -0.1432 -0.2397
  262SOL    HW131280   1.258   3.464   0.849  1.8630  2.1406  0.6055
  262SOL    HW231281   1.253   3.427   0.996 -0.2397 -0.7485 -0.1054
  263SOL     OW31282   0.008   2.301   1.568 -0.3342 -0.4148 -0.2520
  263SOL    HW131283   0.069   2.363   1.528 -1.0150  1.3342  1.2522
  263SOL    HW231284  -0.004   2.334   1.657 -2.5904 -1.3722 -0.1415
  264SOL     OW31285   0.517   0.020   0.562 -0.2881  0.1565 -0.2188
  264SOL    HW131286   0.458  -0.054   0.578 -0.8227  0.5696 -0.2250
  264SOL    HW231287   0.462   0.097   0.579  0.0455  0.5608 -0.9409
  265SOL     OW31288   4.014   3.042   0.613  0.5507 -0.1082 -0.0076
  265SOL    HW131289   4.093   3.036   0.667 -0.3384 -0.2672  1.3166
  265SOL    HW231290   4.021   2.968   0.552  2.3719  1.0191 -1.3000
  266SOL     OW31291   5.971   2.096  12.152  0.2274  0.4357  0.2013
  266SOL    HW131292   6.054   2.114  12.196 -0.4719 -1.7834  2.7260
  266SOL    HW231293   5.958   2.002  12.165 -2.6077  0.6936 -0.2227
  267SOL     OW31294   4.218   2.975  11.851 -0.1924 -0.2343 -0.1968
  267SOL    HW131295   4.287   3.012  11.795 -1.6522 -0.9716 -2.6314
  267SOL    HW231296   4.257   2.897  11.889  0.7120  0.0433 -0.5280
  268SOL     OW31297   0.319   4.514   1.185 -0.1806 -0.1152  0.5075
  268SOL    HW131298   0.293   4.445   1.247 -1.4483  0.6204  0.8401
  268SOL    HW231299   0.237   4.542   1.145  0.4144  0.6570 -0.2078
  269SOL     OW31300   3.365   3.969  11.763  0.3590  0.4440 -0.9773
  269SOL    HW131301   3.281   4.003  11.731 -0.0919  0.5595  0.2668
  269SOL    HW231302   3.425   3.980  11.689 -1.0104 -0.8630 -2.3419
  270SOL     OW31303   5.794   5.168   0.102 -0.2426 -0.0025 -0.7256
  270SOL    HW131304   5.784   5.139   0.012 -0.4180 -0.6540 -0.5029
  270SOL    HW231305   5.706   5.161   0.140  0.0110 -0.6634 -0.2391
  271SOL     OW31306   4.446   0.226   1.017  0.0558  0.0158  0.1489
  271SOL    HW131307   4.363   0.186   1.041 -1.8930  0.9825 -3.9999
  271SOL    HW231308   4.504   0.152   0.998 -0.3799 -0.6822  1.4234
  272SOL     OW31309   0.111   5.365  12.250 -0.3417 -0.2748 -0.9000
  272SOL    HW131310   0.039   5.303  12.263 -0.1092 -1.0718 -3.0083
  272SOL    HW231311   0.188   5.309  12.238  0.1431  0.4652 -1.2782
  273SOL     OW31312   1.551   4.954   0.823  0.0711 -0.3440 -0.3060
  273SOL    HW131313   1.516   4.956   0.911  1.8266 -1.9907  0.5087
  273SOL    HW231314   1.635   5.000   0.829 -0.1722  0.2831 -1.3377
  274SOL     OW31315   1.458   4.670   0.946  0.1788  0.2587  0.1155
  274SOL    HW131316   1.472   4.746   1.003 -2.9722 -0.5005  2.1678
  274SOL    HW231317   1.536   4.615   0.959 -0.1239  0.3764  3.4019
  275SOL     OW31318   5.065   5.374   0.253 -0.0898  0.4770 -0.3850
  275SOL    HW131319   5.015   5.455   0.262  0.2363  0.7272 -0.7581
  275SOL    HW231320   5.105   5.380   0.166 -0.0652 -0.0863 -0.4172
  276SOL     OW31321   5.817   1.450   0.175 -0.1573  0.2317 -0.1258
  276SOL    HW131322   5.806   1.536   0.135  1.9341  0.2141 -0.9017
  276SOL    HW231323   5.854   1.469   0.262  1.9029  0.1680 -0.9141
  277SOL     OW31324   3.381   2.854  11.598 -0.0014  0.2539  0.4862
  277SOL    HW131325   3.409   2.868  11.689 -0.5707 -0.1196  0.7216
  277SOL    HW231326   3.436   2.782  11.567  0.2093  0.3973  0.5238
  278SOL     OW31327   1.559   5.742  12.131 -0.1635 -0.2808  0.0988
  278SOL    HW131328   1.571   5.659  12.177  0.2490  0.5999  1.6663
  278SOL    HW231329   1.594   5.727  12.043 -1.3546 -2.1499 -0.1192
  279SOL     OW31330   1.794   6.066   0.186  0.5658  0.0797  0.3148
  279SOL    HW131331   1.884   6.092   0.166  0.5309 -1.7128 -2.8927
  279SOL    HW231332   1.796   5.970   0.186 -1.2934 -0.0042  0.3906
  280SOL     OW31333   3.950   2.101  12.597 -0.5479 -0.2866 -0.0948
  280SOL    HW131334   3.900   2.134  12.671  0.5344  0.4379  0.3474
  280SOL    HW231335   4.033   2.149  12.601  0.3416 -1.7273 -0.5512
  281SOL     OW31336   1.061   2.968  11.507 -0.0402  0.0082  0.0521
  281SOL    HW131337   1.102   2.955  11.592  0.3306 -1.0338 -0.2677
  281SOL    HW231338   1.118   3.032  11.463  0.6635 -0.6189  0.0165
  282SOL     OW31339   1.180   4.149  12.438  0.1143  0.4506  0.3319
  282SOL    HW131340   1.089   4.165  12.463  0.8346  3.0555  1.6131
  282SOL    HW231341   1.196   4.208  12.365  0.6682 -0.3538 -0.2217
  283SOL     OW31342   3.613   5.775   0.884  0.2113 -0.7872 -0.1676
  283SOL    HW131343   3.554   5.829   0.936  0.0923 -0.8693 -0.2180
  283SOL    HW231344   3.685   5.754   0.943 -0.2040 -1.3651  0.1491
  284SOL     OW31345   3.074   4.981   1.383  0.2627 -0.5121 -0.6601
  284SOL    HW131346   3.142   5.048   1.379  0.1734 -0.4621 -2.0745
  284SOL    HW231347   3.028   4.997   1.466  1.5389 -0.1375 -0.0058
  285SOL     OW31348   1.918   1.666  12.545  0.5874 -0.6281 -0.3146
  285SOL    HW131349   1.945   1.590  12.596  0.7807  0.3681  1.1141
  285SOL    HW231350   1.825   1.678  12.566  0.5067 -0.5773 -0.6878
  286SOL     OW31351   5.047   5.485  12.548 -0.1940 -0.0560 -0.1756
  286SOL    HW131352   5.004   5.507  12.466 -4.2429 -2.4525  0.9795
  286SOL    HW231353   5.104   5.412  12.527  0.7437  0.9489 -1.2097
  287SOL     OW31354   0.306   3.169   1.439 -0.0896 -0.1595 -0.3692
  287SOL    HW131355   0.345   3.201   1.357  0.5455 -0.9098 -0.3752
  287SOL    HW231356   0.372   3.109   1.475 -0.6880 -0.4307  0.3014
  288SOL     OW31357   5.321   3.835   0.452  0.1679 -0.3212  0.1575
  288SOL    HW131358   5.343   3.818   0.360  1.8430 -2.9189  0.9103
  288SOL    HW231359   5.228   3.813   0.459 -0.0817  0.2722 -0.9521
  289SOL     OW31360   4.931   5.085  11.863  0.2226  0.1383 -0.2005
  289SOL    HW131361   4.903   5.019  11.927  0.3989  0.5329  0.2915
  289SOL    HW231362   4.953   5.034  11.785 -0.9848 -0.2547 -0.2990
  290SOL     OW31363   1.874   5.533   1.682 -0.3361 -0.1150 -0.1054
  290SOL    HW131364   1.966   5.519   1.702  0.0674  0.2263 -1.6488
  290SOL    HW231365   1.854   5.618   1.721  0.3644  0.4200 -0.8860
  291SOL     OW31366   5.715   1.808   0.557  0.4694  0.5761 -0.7116
  291SOL    HW131367   5.630   1.799   0.514 -1.1083  1.9661  1.8505
  291SOL    HW231368   5.753   1.888   0.521  0.2818  0.4327 -1.2252
  292SOL     OW31369   1.324   0.399   1.006 -0.3145 -0.3439 -0.1649
  292SOL    HW131370   1.407   0.427   0.968 -0.5631  0.1844 -0.3370
  292SOL    HW231371   1.349   0.342   1.078  0.1920 -0.4092 -0.3867
  293SOL     OW31372   0.263   0.346  12.598 -0.0810 -0.1809 -0.2497
  293SOL    HW131373   0.315   0.349  12.678  0.6637 -3.5420 -0.4935
  293SOL    HW231374   0.174   0.364  12.627  0.4402  0.6268  0.9612
  294SOL     OW31375   3.310   2.458  12.083  0.1479  0.7490  0.1974
  294SOL    HW131376   3.290   2.366  12.065 -0.3836  1.4728 -4.1753
  294SOL    HW231377   3.225   2.500  12.096  0.2841  0.8811  0.7013
  295SOL     OW31378   1.146   2.912  11.757  0.7558  0.3625 -0.6101
  295SOL    HW131379   1.112   2.894  11.845  0.7885  2.5810 -0.0811
  295SOL    HW231380   1.232   2.951  11.772  1.3556 -0.4594 -1.7224
  296SOL     OW31381   5.331   1.915  12.241 -0.2977 -0.0683  0.8194
  296SOL    HW131382   5.251   1.961  12.267 -0.0430  1.6318 -1.1371
  296SOL    HW231383   5.311   1.880  12.155  1.0377  0.3298  0.3332
  297SOL     OW31384   5.730   4.953   0.668  0.0673 -0.0113  0.0764
  297SOL    HW131385   5.759   4.980   0.756 -1.2258 -1.3484  0.9523
  297SOL    HW231386   5.803   4.976   0.611  1.0410  0.6769  1.5354
  298SOL     OW31387   4.258   4.270  12.363 -0.1559 -0.1663  0.1731
  298SOL    HW131388   4.208   4.240  12.439 -0.3996 -0.7442 -0.2074
  298SOL    HW231389   4.331   4.319  12.400  0.7260 -1.9279  0.8413
  299SOL     OW31390   5.293   5.715   0.021  0.5935  0.5779  0.7361
  299SOL    HW131391   5.246   5.636  -0.008  0.9644  0.7192 -0.3184
  299SOL    HW231392   5.376   5.711  -0.027  2.4136 -0.4974  3.7047
  300SOL     OW31393   4.267   4.560   1.696  0.6492 -0.3716  0.0620
  300SOL    HW131394   4.265   4.533   1.787 -1.2543 -1.2404 -0.1841
  300SOL    HW231395   4.314   4.643   1.696  2.9514 -1.5806  1.4390
  301SOL     OW31396   1.392   1.397   0.384  0.1185  0.6214 -0.3178
  301SOL    HW131397   1.311   1.370   0.342 -0.8907  1.0320  1.2727
  301SOL    HW231398   1.376   1.487   0.412  0.5934  0.2818  1.1693
  302SOL     OW31399   2.233   0.143  11.415  0.3625 -0.6984 -0.4471
  302SOL    HW131400   2.212   0.056  11.380 -0.3540 -0.2263 -1.2435
  302SOL    HW231401   2.162   0.162  11.477 -1.5433  0.7482 -2.8735
  303SOL     OW31402   1.503   3.222   0.964 -0.3340 -0.5546  0.5243
  303SOL    HW131403   1.567   3.215   0.893 -0.1588  1.2197  0.4573
  303SOL    HW231404   1.441   3.288   0.934 -0.8111 -0.4851  1.6191
  304SOL     OW31405   1.204   2.615  12.694  0.3292  0.0003  0.4407
  304SOL    HW131406   1.218   2.522  12.677 -0.1186 -0.1632  0.9715
  304SOL    HW231407   1.276   2.640  12.752  2.3234  0.7365 -2.1304
  305SOL     OW31408   1.930   6.427  11.658  0.0187 -0.2163 -0.1704
  305SOL    HW131409   1.911   6.405  11.567  0.3068 -0.2186 -0.2295
  305SOL    HW231410   1.937   6.342  11.702 -1.3988 -0.2135  0.1236
  306SOL     OW31411   2.923   1.419  12.375 -0.1088 -0.3537  0.0048
  306SOL    HW131412   2.997   1.426  12.435  0.1575  0.9425 -0.4360
  306SOL    HW231413   2.949   1.350  12.313  1.1393  0.6722 -0.6683
  307SOL     OW31414   2.279   5.327  11.657  0.1856 -0.5163 -0.0731
  307SOL    HW131415   2.305   5.407  11.611  0.6484 -0.7585 -0.2299
  307SOL    HW231416   2.332   5.258  11.618  3.7278 -0.2144  3.5476
  308SOL     OW31417   5.964   3.440   0.852  0.0906 -0.1966 -0.0754
  308SOL    HW131418   5.886   3.477   0.892  0.3599  0.7374 -0.3830
  308SOL    HW231419   6.022   3.515   0.839  1.5186 -1.0141  1.1954
  309SOL     OW31420   3.461   3.168  12.426 -0.1042 -0.0723  0.0422
  309SOL    HW131421   3.502   3.254  12.438 -0.3238  0.0661 -0.1898
  309SOL    HW231422   3.514   3.124  12.360 -2.1075  1.3258 -2.7356
  310SOL     OW31423   5.930   1.077  11.782 -0.4940  0.0151 -0.3551
  310SOL    HW131424   5.894   1.156  11.741  0.0726 -0.0229 -0.9647
  310SOL    HW231425   5.865   1.050  11.846 -0.1523  1.6862  0.7556
  311SOL     OW31426   3.948   6.425  12.170 -0.1936  1.0656 -0.1000
  311SOL    HW131427   3.985   6.503  12.212 -0.7450  1.0631  0.3925
  311SOL    HW231428   3.920   6.369  12.242 -1.4153  1.1894 -0.4617
  312SOL     OW31429   5.802   2.462  12.370  0.3861 -0.2375 -0.4774
  312SOL    HW131430   5.780   2.554  12.362 -0.4757 -0.5362 -1.8803
  312SOL    HW231431   5.742   2.428  12.436  0.2908  0.0696 -0.4052
  313SOL     OW31432   5.746   5.655   0.125 -0.5628 -0.1112  0.3086
  313SOL    HW131433   5.727   5.739   0.167 -0.4229  0.3298 -0.4955
  313SOL    HW231434   5.800   5.608   0.189 -1.5034 -0.0188  1.1933
  314SOL     OW31435   0.193   1.387   0.112 -0.1311 -0.8055 -0.4398
  314SOL    HW131436   0.110   1.353   0.147 -0.4951  0.1715 -0.3171
  314SOL    HW231437   0.214   1.461   0.169  0.8935 -1.1080 -0.4086
  315SOL     OW31438   1.705   3.286  11.817 -0.0154 -0.1859  0.1319
  315SOL    HW131439   1.726   3.304  11.725  0.1576  1.4055  0.4429
  315SOL    HW231440   1.709   3.191  11.825 -0.8496 -0.4235 -1.6979
  316SOL     OW31441   2.341   0.326  12.598  0.3881  0.2969  0.4477
  316SOL    HW131442   2.350   0.420  12.587  0.4718 -0.0281 -4.0038
  316SOL    HW231443   2.418   0.300  12.649  0.7107  2.5144  1.1693
  317SOL     OW31444   1.762   4.547  12.235  0.4877 -0.0039 -0.2556
  317SOL    HW131445   1.666   4.543  12.232  0.3974  0.8271  0.8115
  317SOL    HW231446   1.783   4.535  12.328  1.4080  0.0580 -0.4457
  318SOL     OW31447   2.165   2.156   1.512 -0.4330  0.1115  0.1115
  318SOL    HW131448   2.092   2.094   1.511 -0.4545  0.1317  0.4662
  318SOL    HW231449   2.231   2.116   1.568 -0.9298  0.9420  1.3489
  319SOL     OW31450   0.020   1.845  12.046 -0.7783 -0.1148  0.0843
  319SOL    HW131451  -0.062   1.880  12.012 -1.4293 -1.2308  0.4773
  319SOL    HW231452   0.027   1.881  12.134 -0.7124  0.1851 -0.0429
  320SOL     OW31453   4.555   4.746  11.944 -0.4340  0.0019  0.5677
  320SOL    HW131454   4.539   4.710  12.031 -1.4419  0.0570  0.4178
  320SOL    HW231455   4.495   4.698  11.887 -1.5606  1.6323  0.3050
  321SOL     OW31456   1.915   4.269   0.540 -0.1917 -0.3870  0.4303
  321SOL    HW131457   1.968   4.255   0.462  1.3991  1.0796  1.1949
  321SOL    HW231458   1.828   4.290   0.507  0.8726  1.9893 -1.0506
  322SOL     OW31459   3.793   1.466  12.671 -0.2046  0.4578  0.2613
  322SOL    HW131460   3.804   1.489  12.578  0.9851 -0.8570  0.0453
  322SOL    HW231461   3.852   1.524  12.717  2.1147 -1.3723 -0.2041
  323SOL     OW31462   2.521   6.063  11.674 -0.3832  0.1210 -0.1748
  323SOL    HW131463   2.475   6.115  11.740 -1.1850 -1.4904  0.5987
  323SOL    HW231464   2.461   6.062  11.600 -0.4511  0.1294 -0.1207
  324SOL     OW31465   4.658   2.298   0.990 -0.3721 -0.2591  0.2924
  324SOL    HW131466   4.667   2.217   1.040  2.0894 -0.5404 -0.4779
  324SOL    HW231467   4.629   2.269   0.903  1.0990 -0.4042 -0.1641
  325SOL     OW31468   5.977   2.049   1.420  0.5221  0.1209 -0.4160
  325SOL    HW131469   5.995   2.128   1.370  0.6848 -0.2446 -0.9413
  325SOL    HW231470   5.915   2.000   1.366 -1.2227  0.8378  0.8468
  326SOL     OW31471   1.244   6.210  12.651 -0.1978  0.3352 -0.0663
  326SOL    HW131472   1.215   6.296  12.681 -0.2437  0.0032  0.8444
  326SOL    HW231473   1.324   6.228  12.602 -0.1296  0.8801  0.2368
  327SOL     OW31474   3.410   5.192   0.386  0.2452  0.8107  0.4880
  327SOL    HW131475   3.409   5.102   0.352  0.0315  1.4005 -1.1350
  327SOL    HW231476   3.319   5.209   0.410 -0.0591  1.1468 -0.8081
  328SOL     OW31477   5.201   0.728  11.772  0.6310  0.0438 -0.4275
  328SOL    HW131478   5.181   0.768  11.688  0.1523  0.7965  0.0358
  328SOL    HW231479   5.285   0.684  11.758  0.1847 -0.4986 -1.5089
  329SOL     OW31480   5.248   2.308  11.961  0.0529 -0.3154  0.3165
  329SOL    HW131481   5.328   2.265  11.930  0.1622 -1.2352  1.7711
  329SOL    HW231482   5.278   2.380  12.016 -0.1401  0.3765 -0.4605
  330SOL     OW31483   2.845   5.551  11.601 -0.5686  0.3717  0.8151
  330SOL    HW131484   2.815   5.628  11.553  2.1400  0.8071 -0.3893
  330SOL    HW231485   2.820   5.568  11.692 -1.6109  1.8001  0.3040
  331SOL     OW31486   2.859   3.903  11.765  0.3692 -0.1392 -0.6405
  331SOL    HW131487   2.916   3.973  11.732 -0.7780 -0.2259 -2.9663
  331SOL    HW231488   2.799   3.948  11.824  1.3111  0.3530 -0.0252
  332SOL     OW31489   4.335   2.839   1.595 -0.4097 -0.0146 -0.0583
  332SOL    HW131490   4.416   2.878   1.629  0.7415 -0.4477 -2.1698
  332SOL    HW231491   4.347   2.745   1.606 -0.6308 -0.0829 -0.3891
  333SOL     OW31492   4.825   4.151  12.040 -0.2212  0.7188 -0.1567
  333SOL    HW131493   4.804   4.220  11.977 -0.0333 -0.5213 -1.6431
  333SOL    HW231494   4.753   4.152  12.102 -2.0328  0.0142 -2.1288
  334SOL     OW31495   1.629   3.904   0.615 -0.9534  0.1218 -0.1167
  334SOL    HW131496   1.573   3.849   0.561 -2.0530  0.3711  0.7460
  334SOL    HW231497   1.575   3.980   0.637  0.3150  1.2483 -0.7396
  335SOL     OW31498   4.160   5.261   1.834  0.0793  0.4820 -0.7160
  335SOL    HW131499   4.121   5.192   1.888 -0.3392  0.7166 -0.7115
  335SOL    HW231500   4.085   5.307   1.797  0.3056 -0.8073 -2.9933
  336SOL     OW31501   1.249   6.226  12.041 -0.0846  0.1828  0.1409
  336SOL    HW131502   1.187   6.190  11.978 -1.3748  1.3333  0.6780
  336SOL    HW231503   1.210   6.310  12.066  1.9296  1.1603  0.1810
  337SOL     OW31504   2.028   1.645   0.186 -0.2497  0.5745 -0.2481
  337SOL    HW131505   1.984   1.688   0.113 -0.3879 -1.5897 -1.5428
  337SOL    HW231506   1.963   1.643   0.257 -0.5270  1.6613 -0.4642
  338SOL     OW31507   1.386   5.884   1.372 -0.1784  0.5158  0.4022
  338SOL    HW131508   1.318   5.950   1.362 -0.1175  1.4163  4.1245
  338SOL    HW231509   1.345   5.802   1.346 -0.6203  1.7197 -3.2470
  339SOL     OW31510   1.055   0.692   1.143  0.5926  0.3974 -0.4031
  339SOL    HW131511   1.064   0.677   1.237  3.3486 -2.1328 -0.9380
  339SOL    HW231512   1.056   0.787   1.133  0.9209  0.7024  2.0341
  340SOL     OW31513   0.350   4.156  11.732 -0.3389 -0.3631  0.8395
  340SOL    HW131514   0.311   4.095  11.670 -2.4705  0.7721  0.9590
  340SOL    HW231515   0.371   4.103  11.809 -1.3557 -1.1196  0.6200
  341SOL     OW31516   1.583   0.793   0.687 -0.0348 -0.3343  0.5943
  341SOL    HW131517   1.667   0.838   0.692 -0.5873  0.6674  1.4178
  341SOL    HW231518   1.553   0.807   0.597  0.3733 -0.1169  0.4932
  342SOL     OW31519   4.107   4.921  12.803  0.0653  0.2682 -0.2435
  342SOL    HW131520   4.058   5.000  12.782 -0.9531 -0.3208 -0.1720
  342SOL    HW231521   4.194   4.935  12.765  0.5977  2.2802  1.5353
  343SOL     OW31522   5.152   4.120  12.565  0.0095  0.0245 -0.1945
  343SOL    HW131523   5.202   4.039  12.551  1.2236  0.6032  0.6242
  343SOL    HW231524   5.070   4.106  12.517  0.3473 -1.5374 -0.3740
  344SOL     OW31525   0.493   5.215  11.882 -0.3602  0.1847  0.9616
  344SOL    HW131526   0.558   5.170  11.828 -1.0560 -0.3377  0.5495
  344SOL    HW231527   0.426   5.244  11.820  0.2629  2.1799  1.1455
  345SOL     OW31528   5.444   2.258   1.359 -0.2472  0.6866 -0.0042
  345SOL    HW131529   5.415   2.337   1.312  0.5254  0.5568 -0.7295
  345SOL    HW231530   5.532   2.241   1.323  0.6345  0.9316  1.9333
  346SOL     OW31531   4.282   3.177   0.760 -0.1453 -0.0871 -0.0823
  346SOL    HW131532   4.364   3.212   0.795 -0.4598  0.5539  0.0235
  346SOL    HW231533   4.215   3.239   0.789 -0.9548 -1.6067  1.5134
  347SOL     OW31534   2.565   0.492  12.106  0.3848  0.0693  0.1844
  347SOL    HW131535   2.488   0.541  12.135  0.4618 -0.9478  2.2745
  347SOL    HW231536   2.638   0.554  12.112  0.2510  0.1159  1.4028
  348SOL     OW31537   6.088   2.169  11.903  0.7374 -0.1115  0.2560
  348SOL    HW131538   6.078   2.248  11.850  2.0246 -0.6838 -0.8838
  348SOL    HW231539   6.057   2.194  11.990 -1.1591  0.9406 -0.6491
  349SOL     OW31540   0.407   5.121   1.515  0.2041 -0.3203 -0.3262
  349SOL    HW131541   0.485   5.075   1.547 -0.3626 -0.9591  0.1735
  349SOL    HW231542   0.391   5.189   1.582  0.6429  0.1804 -0.7153
  350SOL     OW31543   2.718   4.924  12.730 -0.1922  0.4684 -0.1679
  350SOL    HW131544   2.811   4.921  12.710 -0.1518  0.8032 -0.0319
  350SOL    HW231545   2.676   4.940  12.645 -0.0825  0.9410 -0.1356
  351SOL     OW31546   2.932   4.630  12.504 -0.3214  0.0079  0.6476
  351SOL    HW131547   2.978   4.700  12.551 -1.5645  1.4071 -0.1568
  351SOL    HW231548   2.849   4.620  12.551  0.0447 -1.3164  1.0592
  352SOL     OW31549   0.717   6.053  11.686 -0.5915  0.1029  0.1404
  352SOL    HW131550   0.676   6.007  11.760 -1.4974  0.8382  0.1203
  352SOL    HW231551   0.648   6.111  11.653 -0.5616 -0.9556 -1.9677
  353SOL     OW31552   6.196   3.093  11.755  0.0242  0.5106 -0.6058
  353SOL    HW131553   6.260   3.029  11.725 -0.7994 -0.2780 -0.7053
  353SOL    HW231554   6.237   3.135  11.831  1.4706  1.4024 -1.8244
  354SOL     OW31555   1.969   4.001  12.342 -0.0779  0.3691 -0.5611
  354SOL    HW131556   1.939   3.917  12.308 -0.9764  0.6509 -0.4963
  354SOL    HW231557   1.948   3.998  12.436  1.8224 -0.1606 -0.1183
  355SOL     OW31558   1.388   4.287   1.576  0.1315 -0.3365  0.6598
  355SOL    HW131559   1.328   4.216   1.553  0.5494 -0.5723  0.3006
  355SOL    HW231560   1.475   4.253   1.556  0.2716  0.6990 -0.6803
  356SOL     OW31561   3.973   0.605   0.673 -0.4688 -0.5316 -0.5149
  356SOL    HW131562   4.054   0.639   0.709 -0.3554 -0.6645 -0.6447
  356SOL    HW231563   4.000   0.535   0.614 -0.7260 -1.3498  0.3090
  357SOL     OW31564   0.834   2.382   0.978  0.3526  0.0264 -0.1747
  357SOL    HW131565   0.772   2.367   1.050  1.5646 -0.6882  0.7473
  357SOL    HW231566   0.860   2.473   0.989  0.5302 -0.0780  0.2913
  358SOL     OW31567   5.513   3.755   0.860  0.3518  0.3513 -0.1470
  358SOL    HW131568   5.464   3.678   0.830 -1.5854  1.7852 -0.8508
  358SOL    HW231569   5.486   3.767   0.951  1.9529 -0.7388  0.5083
  359SOL     OW31570   2.748   3.756   0.919 -0.5849  0.2768 -0.8692
  359SOL    HW131571   2.747   3.719   0.830  0.5604  0.3171 -0.9156
  359SOL    HW231572   2.796   3.838   0.911  2.0069 -1.0308  0.2420
  360SOL     OW31573   6.006   5.541   0.047 -0.0624 -0.0514  0.3011
  360SOL    HW131574   6.099   5.533   0.027 -0.0760  0.2646  0.1105
  360SOL    HW231575   5.962   5.524  -0.037 -0.0438  3.8265 -0.6586
  361SOL     OW31576   6.255   3.120   0.475  0.1693 -0.7520 -0.6506
  361SOL    HW131577   6.259   3.139   0.569  0.1649 -1.0611 -0.5883
  361SOL    HW231578   6.194   3.185   0.440  0.2339 -0.5826 -0.4543
  362SOL     OW31579   4.340   2.934   0.911 -0.2013 -0.1951  0.2837
  362SOL    HW131580   4.370   3.004   0.853  1.4453 -0.5834  0.6131
  362SOL    HW231581   4.375   2.958   0.997 -0.0806 -1.1553  0.5051
  363SOL     OW31582   4.771   5.692   1.069 -0.2779 -0.1207  0.9985
  363SOL    HW131583   4.844   5.634   1.046  0.0101  0.5201  0.2392
  363SOL    HW231584   4.696   5.633   1.080  0.1329 -0.6914  0.8093
  364SOL     OW31585   5.177   2.065   0.403  0.5448  0.7161 -0.5215
  364SOL    HW131586   5.117   2.008   0.451 -0.7439  0.4369 -2.3539
  364SOL    HW231587   5.263   2.046   0.440 -0.0940 -1.1013  0.1305
  365SOL     OW31588   0.346   3.661  11.116  0.5315 -0.0142 -0.0180
  365SOL    HW131589   0.437   3.638  11.100  1.0705  1.1517  1.1956
  365SOL    HW231590   0.318   3.602  11.186 -0.1489 -1.3875 -1.3776
  366SOL     OW31591   5.748   1.196   0.715 -0.5297  0.1053  0.1357
  366SOL    HW131592   5.708   1.258   0.654  1.4515  0.2239 -1.1607
  366SOL    HW231593   5.815   1.151   0.662  0.1324 -0.9683  1.8178
  367SOL     OW31594   5.989   6.202  11.478  0.2148 -0.1523  0.1985
  367SOL    HW131595   6.078   6.181  11.507  0.0001 -1.5170 -0.0486
  367SOL    HW231596   5.991   6.187  11.383 -0.2398 -0.0657  0.1727
  368SOL     OW31597   6.220   5.763   0.210 -0.3938 -0.2692 -0.0859
  368SOL    HW131598   6.159   5.708   0.259 -0.5410  1.0133  1.2269
  368SOL    HW231599   6.285   5.791   0.274  0.8858 -0.5873 -1.1889
  369SOL     OW31600   2.479   1.522  12.455  0.0008 -0.3345 -0.7110
  369SOL    HW131601   2.508   1.445  12.504  0.0860 -1.0789 -1.8727
  369SOL    HW231602   2.493   1.595  12.514  0.2671 -1.1708  0.2955
  370SOL     OW31603   1.412   5.899   1.685 -0.7186 -0.0459 -0.3192
  370SOL    HW131604   1.401   5.900   1.590 -0.5095  1.4325 -0.3386
  370SOL    HW231605   1.392   5.808   1.710 -2.9930  0.0742 -1.4837
  371SOL     OW31606   0.629   4.133  12.549  0.0405  0.0927  0.4260
  371SOL    HW131607   0.652   4.050  12.592 -1.3579 -0.3597  0.3521
  371SOL    HW231608   0.535   4.142  12.564  0.0369  1.2837 -0.2453
  372SOL     OW31609   4.558   0.872   0.284 -0.2082 -0.1789 -0.4968
  372SOL    HW131610   4.474   0.879   0.329  0.9982 -0.6584  1.9764
  372SOL    HW231611   4.537   0.889   0.192 -2.6498  1.8384  0.3133
  373SOL     OW31612   2.108   0.857  11.428 -0.3720 -0.4261 -0.0577
  373SOL    HW131613   2.085   0.914  11.501  1.0764  1.7103 -1.1626
  373SOL    HW231614   2.204   0.857  11.427 -0.2465 -3.5125  0.2817
  374SOL     OW31615   1.021   1.832  11.666  0.2092 -0.5439  0.4124
  374SOL    HW131616   1.010   1.850  11.572 -0.4645 -2.2699  0.1210
  374SOL    HW231617   1.099   1.881  11.691 -0.9430  1.9149 -0.4608
  375SOL     OW31618   3.906   5.299   2.092  0.0561  0.0889  0.0489
  375SOL    HW131619   3.957   5.378   2.072  0.1156  0.1197  0.3285
  375SOL    HW231620   3.971   5.229   2.098  0.1049  0.1947  0.7728
  376SOL     OW31621   1.844   0.937   0.781 -0.1174 -0.3012 -0.1768
  376SOL    HW131622   1.894   0.944   0.863 -0.2480  0.5377 -0.1530
  376SOL    HW231623   1.893   0.990   0.719 -0.6195  0.0034 -0.3258
  377SOL     OW31624   2.927   4.924   0.962  0.9995 -0.0255  0.5039
  377SOL    HW131625   2.888   4.838   0.981  1.1198 -0.0755  0.5291
  377SOL    HW231626   3.017   4.917   0.996  0.5940  0.5775  1.7421
  378SOL     OW31627   4.233   3.701   0.174 -0.4812 -0.3696 -0.0975
  378SOL    HW131628   4.324   3.729   0.186 -1.2162  1.9959  0.3521
  378SOL    HW231629   4.215   3.720   0.082  0.0327 -2.7887 -0.7814
  379SOL     OW31630   6.218   2.854   1.076 -0.4554  0.5111 -0.1641
  379SOL    HW131631   6.194   2.777   1.127 -0.2299  0.9422  0.6131
  379SOL    HW231632   6.171   2.844   0.993  0.0866 -0.7776 -0.3318
  380SOL     OW31633   5.822   1.831  12.137 -0.0332  0.1957  0.4994
  380SOL    HW131634   5.738   1.871  12.116  0.7920  1.0124 -1.4748
  380SOL    HW231635   5.819   1.818  12.232 -2.1389  0.7238  0.5532
  381SOL     OW31636   2.879   5.447   0.154  0.1136 -0.2950  0.1519
  381SOL    HW131637   2.895   5.541   0.145 -0.2105 -0.2701 -0.1839
  381SOL    HW231638   2.793   5.433   0.114 -0.6455 -0.4558  1.7622
  382SOL     OW31639   6.034   0.780  12.699 -0.3335 -0.0581  0.0726
  382SOL    HW131640   5.967   0.818  12.641  0.8963  1.9078 -0.1375
  382SOL    HW231641   5.994   0.699  12.731 -2.6247  0.7981 -0.4198
  383SOL     OW31642   3.458   4.766  12.502 -0.1667  0.4201 -0.4311
  383SOL    HW131643   3.432   4.677  12.524  0.6383  0.1833 -0.4128
  383SOL    HW231644   3.376   4.814  12.497 -0.5210 -0.0062  0.9325
  384SOL     OW31645   1.658   6.052   1.270 -0.2277  0.2085  0.6606
  384SOL    HW131646   1.749   6.025   1.262 -0.8943 -1.6100 -2.1897
  384SOL    HW231647   1.613   5.976   1.307 -0.8556  0.4814  0.4755
  385SOL     OW31648   4.027   6.134   1.163  0.5286 -0.4253 -0.3907
  385SOL    HW131649   3.947   6.168   1.202  1.2668 -0.8201  1.5560
  385SOL    HW231650   4.031   6.175   1.077 -2.4071 -1.3938 -1.0944
  386SOL     OW31651   3.258   2.030   1.439  0.0506 -0.0111  0.3803
  386SOL    HW131652   3.303   2.112   1.461  0.6648 -0.1062 -0.4830
  386SOL    HW231653   3.170   2.057   1.413  0.2658  0.3824  0.0542
  387SOL     OW31654   4.827   1.957   1.398  0.0188  0.1270  0.2834
  387SOL    HW131655   4.818   1.898   1.323  0.6306  0.2005  0.1484
  387SOL    HW231656   4.921   1.973   1.405  0.1989 -1.4313  2.2703
  388SOL     OW31657   5.455   5.329  11.183  0.1438 -0.1067  0.2875
  388SOL    HW131658   5.402   5.357  11.258  1.8719 -0.2303  1.6060
  388SOL    HW231659   5.448   5.234  11.183  2.0586 -0.2938  1.8248
  389SOL     OW31660   1.635   1.647   1.290 -0.1896  0.5122 -0.2248
  389SOL    HW131661   1.605   1.556   1.281  0.0711  0.5171 -1.2507
  389SOL    HW231662   1.730   1.641   1.282 -0.2649  1.0333 -1.9500
  390SOL     OW31663   0.558   3.989   0.854  0.8008  0.0359 -1.3401
  390SOL    HW131664   0.568   3.895   0.843  0.1283 -0.2412  0.1585
  390SOL    HW231665   0.471   4.008   0.820 -0.1377 -0.3596  0.6785
  391SOL     OW31666   6.274   5.480   0.398  0.2286  0.0008  1.0092
  391SOL    HW131667   6.265   5.387   0.420 -1.2835 -0.0001  0.4933
  391SOL    HW231668   6.258   5.484   0.303 -0.9146  0.9139  1.2155
  392SOL     OW31669   0.198   0.368  12.162 -0.4299 -0.1254 -0.2972
  392SOL    HW131670   0.186   0.422  12.083  1.4645  0.3196 -0.3467
  392SOL    HW231671   0.282   0.398  12.198 -0.9288 -0.7874  1.5313
  393SOL     OW31672   6.189   3.168   0.913 -0.0488  0.5124  0.4583
  393SOL    HW131673   6.270   3.118   0.927  0.9764  1.3490 -1.9216
  393SOL    HW231674   6.119   3.106   0.934  1.1756 -1.3565 -0.6122
  394SOL     OW31675   0.512   3.633   1.073 -0.1887 -0.7748 -0.0382
  394SOL    HW131676   0.567   3.557   1.052  0.1740 -0.0046 -2.1032
  394SOL    HW231677   0.482   3.665   0.988 -2.3170 -0.0162  0.9183
  395SOL     OW31678   0.431   0.497  12.293 -0.2157 -0.1087  0.1465
  395SOL    HW131679   0.520   0.486  12.260 -1.0367 -1.8542 -1.6527
  395SOL    HW231680   0.432   0.457  12.380  0.8956  0.5277  0.4484
  396SOL     OW31681   2.146   1.233  11.863 -0.2487  0.3954 -0.1608
  396SOL    HW131682   2.091   1.250  11.939 -0.8270  1.3824 -0.7687
  396SOL    HW231683   2.219   1.294  11.872  0.2678 -0.2735  0.1775
  397SOL     OW31684   4.302   0.922   0.333 -0.0614  0.7145 -0.2154
  397SOL    HW131685   4.276   1.007   0.299 -3.0948  0.4985  1.2198
  397SOL    HW231686   4.307   0.933   0.428  0.0453 -0.5597 -0.0451
  398SOL     OW31687   4.933   1.201   1.002 -0.1557 -0.3977 -0.0226
  398SOL    HW131688   4.843   1.231   0.991 -0.2662 -1.2523 -1.7953
  398SOL    HW231689   4.927   1.130   1.066 -1.0078 -1.5160 -1.2973
  399SOL     OW31690   4.576   3.995  11.447  0.5174  0.1073 -0.9268
  399SOL    HW131691   4.627   3.988  11.528  0.5767  0.3203 -0.9422
  399SOL    HW231692   4.496   3.947  11.464  0.6044  0.0059 -0.8010
  400SOL     OW31693   1.909   3.516  11.380  0.2046 -0.2768 -0.5379
  400SOL    HW131694   1.922   3.611  11.379  0.2807 -0.2716  0.3255
  400SOL    HW231695   1.993   3.480  11.352  0.4897 -0.1055  0.0725
  401SOL     OW31696   4.783   0.587   1.166 -0.2581 -0.2548  0.2771
  401SOL    HW131697   4.786   0.623   1.255  0.5669  1.6672 -0.4736
  401SOL    HW231698   4.694   0.552   1.158 -0.6335  0.3225  1.5504
  402SOL     OW31699   2.710   5.649  11.821 -0.0569 -0.0642 -0.0909
  402SOL    HW131700   2.746   5.668  11.907 -0.5391 -0.7585  0.2743
  402SOL    HW231701   2.635   5.708  11.812 -0.6008 -0.6623  0.3857
  403SOL     OW31702   3.599   6.221  12.194 -0.0050 -0.0336 -0.1129
  403SOL    HW131703   3.522   6.277  12.193  0.1203  0.2061  1.5682
  403SOL    HW231704   3.672   6.279  12.171 -0.1309  0.0379 -0.3361
  404SOL     OW31705   5.119   1.950   1.454 -0.0272 -0.0915  0.8137
  404SOL    HW131706   5.198   1.962   1.402 -0.5237 -0.1611  0.0201
  404SOL    HW231707   5.130   2.009   1.528  0.8943 -0.3187  0.8618
  405SOL     OW31708   6.299   4.088   1.383  0.2245 -0.1605  0.3475
  405SOL    HW131709   6.254   4.118   1.304  0.0953 -0.5609  0.2687
  405SOL    HW231710   6.248   4.013   1.413  0.6570 -0.4239  0.4340
  406SOL     OW31711   3.028   4.896   0.440  0.1371  0.0558 -0.3071
  406SOL    HW131712   3.038   4.801   0.433 -0.7533  0.0641 -3.0280
  406SOL    HW231713   2.939   4.908   0.472  0.3751 -0.0014  0.3975
  407SOL     OW31714   2.486   2.067   0.017 -0.4798  0.2828  0.0849
  407SOL    HW131715   2.414   2.009  -0.008 -0.5465 -0.0491  0.9927
  407SOL    HW231716   2.534   2.017   0.083  1.2478  0.0384 -1.2722
  408SOL     OW31717   2.597   4.937   1.483  0.1247  0.0073  0.8070
  408SOL    HW131718   2.658   5.011   1.484  0.4643 -0.2251 -0.4869
  408SOL    HW231719   2.647   4.865   1.444 -0.4636 -0.6598  1.2663
  409SOL     OW31720   3.596   5.590   1.222 -0.2255 -0.1871  0.0795
  409SOL    HW131721   3.663   5.652   1.193 -0.9249  1.1810  1.2977
  409SOL    HW231722   3.599   5.520   1.156 -1.2207  2.3612 -2.9358
  410SOL     OW31723   4.986   0.415   0.678  0.2905  0.0392  0.2826
  410SOL    HW131724   5.043   0.469   0.732  0.2703  0.8547 -0.4795
  410SOL    HW231725   4.938   0.478   0.624 -0.3982 -0.7005  0.0066
  411SOL     OW31726   4.005   3.906   1.421  0.9158  0.7166  0.2233
  411SOL    HW131727   3.923   3.867   1.451  0.7491 -1.1040 -2.3144
  411SOL    HW231728   4.003   3.996   1.454 -0.5682 -0.1890  2.9133
  412SOL     OW31729   3.479   4.162  12.208 -0.0613  0.3030 -0.2391
  412SOL    HW131730   3.435   4.158  12.123 -0.2888 -0.4917 -0.0907
  412SOL    HW231731   3.447   4.085  12.255 -0.5792  1.1576  0.8754
  413SOL     OW31732   1.119   0.234  12.425 -0.4204  0.2173  0.1818
  413SOL    HW131733   1.091   0.295  12.494  0.7173  1.2632 -0.2449
  413SOL    HW231734   1.163   0.290  12.361  1.5699 -1.1667  0.2651
  414SOL     OW31735   1.466   3.240   0.267 -0.1559 -0.7358 -0.6320
  414SOL    HW131736   1.484   3.301   0.339 -2.5266 -2.1148  1.2806
  414SOL    HW231737   1.402   3.286   0.213 -1.5257 -1.1958  0.5092
  415SOL     OW31738   3.314   2.384  11.634  0.2754 -0.1600 -0.4863
  415SOL    HW131739   3.278   2.471  11.650 -0.0553 -0.1332 -1.2976
  415SOL    HW231740   3.389   2.399  11.577 -0.0390 -0.4300 -0.9806
  416SOL     OW31741   5.912   1.019   0.111  0.3622  0.3545  0.9920
  416SOL    HW131742   5.961   1.074   0.049  0.2426 -0.3957  0.2170
  416SOL    HW231743   5.841   1.076   0.142  0.0928  0.5784  0.0084
  417SOL     OW31744   2.978   0.266   1.610 -0.0978 -0.4263  0.0683
  417SOL    HW131745   2.978   0.234   1.700  2.1261 -0.5491  0.0748
  417SOL    HW231746   2.916   0.208   1.564 -3.1395  1.1134  1.8940
  418SOL     OW31747   0.531   4.524  12.555 -0.3399  0.0771 -0.1591
  418SOL    HW131748   0.456   4.483  12.511 -2.0797  0.6920  2.0638
  418SOL    HW231749   0.528   4.616  12.527 -0.6033  0.1670  0.1629
  419SOL     OW31750   6.193   3.454   1.485  0.2502 -0.3369 -0.3696
  419SOL    HW131751   6.115   3.419   1.442  1.3007 -1.2624 -1.5996
  419SOL    HW231752   6.240   3.376   1.515  0.3720  0.2346  0.9936
  420SOL     OW31753   0.095   1.254  11.638 -0.6709 -0.4798 -0.2626
  420SOL    HW131754   0.188   1.277  11.633 -0.8148  0.2508  0.2638
  420SOL    HW231755   0.093   1.160  11.620 -0.1691  0.0171 -3.4979
  421SOL     OW31756   0.155   3.045   0.123  0.2903  0.2624 -0.5652
  421SOL    HW131757   0.249   3.061   0.131  0.2616  2.9497 -3.5710
  421SOL    HW231758   0.124   3.037   0.213  3.3513 -0.8499  0.5257
  422SOL     OW31759   3.188   1.808   0.555 -0.1126 -0.5779  0.1388
  422SOL    HW131760   3.167   1.716   0.543  0.8664 -0.6389 -1.4091
  422SOL    HW231761   3.264   1.808   0.612  0.9124 -0.8668 -1.1703
  423SOL     OW31762   1.462   5.527   0.781  0.4315  0.9296  0.6679
  423SOL    HW131763   1.487   5.562   0.867 -0.0116  1.5185  0.5600
  423SOL    HW231764   1.521   5.453   0.768 -0.5365 -0.1438  2.1805
  424SOL     OW31765   0.394   0.585  11.377 -0.1536  0.5604  0.1194
  424SOL    HW131766   0.359   0.635  11.451  0.5191 -0.2207  0.9872
  424SOL    HW231767   0.345   0.503  11.378 -0.5152  0.7550 -0.6511
  425SOL     OW31768   2.459   0.493  11.731  0.0248 -0.1956  0.1677
  425SOL    HW131769   2.541   0.467  11.689  0.3039  0.5258  0.2621
  425SOL    HW231770   2.423   0.561  11.674  0.7559  1.3033  1.4183
  426SOL     OW31771   6.273   1.443   0.390 -0.1763  0.1039  0.9546
  426SOL    HW131772   6.326   1.522   0.401  0.3122  0.0038 -0.5538
  426SOL    HW231773   6.329   1.381   0.344 -0.7569 -0.9257  1.5784
  427SOL     OW31774   3.962   4.567  12.145  0.0278 -0.1367  0.2378
  427SOL    HW131775   3.968   4.624  12.068  3.8981 -1.1499 -0.3904
  427SOL    HW231776   3.911   4.618  12.209 -0.2597  2.2030 -1.7229
  428SOL     OW31777   1.086   4.634  12.370 -0.2594  0.5889 -1.0375
  428SOL    HW131778   1.000   4.642  12.413 -0.6473  1.6357 -1.9501
  428SOL    HW231779   1.137   4.707  12.405  0.7138 -0.7230  0.4141
  429SOL     OW31780   6.422   2.632   1.319  0.2189 -0.1655 -0.1043
  429SOL    HW131781   6.489   2.588   1.267 -0.7393  1.4006 -2.9159
  429SOL    HW231782   6.434   2.725   1.301 -0.2264  0.4923  2.5596
  430SOL     OW31783   2.069   3.096   0.212  0.2296  0.3832  0.9490
  430SOL    HW131784   2.120   3.047   0.277 -0.0939 -2.0137 -0.4594
  430SOL    HW231785   2.013   3.029   0.172 -1.3375  2.2491 -0.1033
  431SOL     OW31786   4.873   3.845  12.272  0.2330  0.0932 -0.0515
  431SOL    HW131787   4.779   3.865  12.261  0.5766  2.4010  0.5862
  431SOL    HW231788   4.876   3.750  12.281 -2.2798  0.0656  1.7894
  432SOL     OW31789   0.776   4.616   0.923 -0.0633 -0.1320 -0.7494
  432SOL    HW131790   0.733   4.555   0.983  1.2210 -2.0206 -1.6490
  432SOL    HW231791   0.867   4.617   0.950  0.3535 -0.3047 -2.0556
  433SOL     OW31792   0.121   3.650   1.011 -0.0135 -0.5321  0.4997
  433SOL    HW131793   0.166   3.585   1.066 -1.4472  0.3594  2.8756
  433SOL    HW231794   0.183   3.722   1.003  0.5687 -1.0659  0.1078
  434SOL     OW31795   1.808   0.405  12.127 -0.1501  0.0220  0.5206
  434SOL    HW131796   1.870   0.335  12.108 -0.7903 -0.2015 -0.9211
  434SOL    HW231797   1.756   0.413  12.047 -0.0326  2.2297  0.5889
  435SOL     OW31798   6.245   5.387   1.725  0.8229 -0.3123  0.4132
  435SOL    HW131799   6.164   5.343   1.751 -0.7257  1.1257 -1.6374
  435SOL    HW231800   6.312   5.319   1.731 -0.7850 -1.9567  0.7998
  436SOL     OW31801   0.654   5.078   1.694  0.2713  0.3046  0.0307
  436SOL    HW131802   0.592   5.030   1.748  1.0609 -1.3143 -0.4232
  436SOL    HW231803   0.667   5.022   1.617  0.8932  1.4742 -0.7428
  437SOL     OW31804   1.487   4.929   1.099 -0.4998 -0.4784 -0.3893
  437SOL    HW131805   1.543   4.998   1.134  0.5239  0.0749 -2.9157
  437SOL    HW231806   1.399   4.954   1.125 -0.0203  1.1235 -0.2272
  438SOL     OW31807   5.667   0.793  11.851  0.0606  0.1560 -0.3341
  438SOL    HW131808   5.644   0.876  11.892 -0.4588  1.8000 -3.6246
  438SOL    HW231809   5.712   0.744  11.919  0.9462  3.3727  1.5792
  439SOL     OW31810   1.058   0.376   0.407 -0.6091 -0.2044 -0.7351
  439SOL    HW131811   1.060   0.470   0.390 -2.1106 -0.2578 -1.4196
  439SOL    HW231812   0.995   0.342   0.343  0.4362 -1.7789 -0.9825
  440SOL     OW31813   3.453   0.024  11.811  0.5640  0.1282 -0.4125
  440SOL    HW131814   3.488   0.060  11.730 -0.2996  0.7245 -0.5320
  440SOL    HW231815   3.438  -0.069  11.792 -2.6042  0.8562 -2.0160
  441SOL     OW31816   4.903   4.750   0.199  0.5973 -0.3407  0.4557
  441SOL    HW131817   4.948   4.689   0.257  0.3183 -0.1067  0.9244
  441SOL    HW231818   4.848   4.694   0.144  0.8245 -0.5590  0.4497
  442SOL     OW31819   6.315   2.518   0.680  0.2440  0.3917  0.2320
  442SOL    HW131820   6.274   2.599   0.708  3.4105  1.8584  1.0856
  442SOL    HW231821   6.403   2.520   0.719  1.4404 -2.1282 -1.9527
  443SOL     OW31822   5.785   3.344   0.501  0.0489 -0.5689  0.6133
  443SOL    HW131823   5.776   3.438   0.490 -1.6257 -0.5906  1.5509
  443SOL    HW231824   5.753   3.326   0.590  2.3201 -1.7732  1.2789
  444SOL     OW31825   0.770   3.746   0.571  0.5938  0.0873 -0.3547
  444SOL    HW131826   0.690   3.736   0.520  0.0999 -0.8822  0.5611
  444SOL    HW231827   0.841   3.729   0.508 -0.0219 -2.1564 -0.5385
  445SOL     OW31828   0.645   5.179  10.860  0.4437  0.5074  0.1331
  445SOL    HW131829   0.635   5.193  10.766  3.1675  0.5490 -0.2354
  445SOL    HW231830   0.735   5.206  10.879  0.4739 -0.9210  2.4668
  446SOL     OW31831   5.074   4.790  11.269 -0.5058  0.8260 -0.4363
  446SOL    HW131832   5.158   4.751  11.295 -1.0689  0.5621  1.1146
  446SOL    HW231833   5.097   4.857  11.205  0.4843 -2.6036 -4.1216
  447SOL     OW31834   0.325   4.728   1.800 -0.0142  0.5585 -0.1347
  447SOL    HW131835   0.244   4.699   1.758  0.6443  1.8039 -2.4623
  447SOL    HW231836   0.394   4.679   1.756  0.6835  1.5507 -0.1760
  448SOL     OW31837   0.715   3.447  12.192 -0.0150 -0.1827 -0.1712
  448SOL    HW131838   0.636   3.486  12.153  0.0002 -0.7535 -0.7889
  448SOL    HW231839   0.685   3.365  12.231  0.1982 -0.2131 -0.0715
  449SOL     OW31840   5.672   1.290  12.530  0.4254 -0.1282 -0.6170
  449SOL    HW131841   5.630   1.320  12.611  0.5018  0.1202 -0.6685
  449SOL    HW231842   5.637   1.202  12.517  2.1811 -1.1074  0.9220
  450SOL     OW31843   3.128   5.338  12.660  0.5111 -0.1087  0.4017
  450SOL    HW131844   3.156   5.406  12.721 -1.1172  0.0198  1.0667
  450SOL    HW231845   3.140   5.256  12.707 -0.1906 -0.0519  0.6961
  451SOL     OW31846   4.637   5.849   0.004 -0.1320  0.1965 -0.7262
  451SOL    HW131847   4.659   5.848  -0.089  0.9938  1.2967 -0.4999
  451SOL    HW231848   4.722   5.852   0.049 -0.6535 -0.2728  0.3466
  452SOL     OW31849   2.773   5.731   1.603  0.1297 -0.3443  0.4995
  452SOL    HW131850   2.777   5.705   1.511  0.5765  0.2645  0.3358
  452SOL    HW231851   2.852   5.694   1.642 -0.0572 -0.5972  0.6388
  453SOL     OW31852   5.390   3.031  11.568 -0.0866  0.1125  0.1004
  453SOL    HW131853   5.398   3.098  11.636 -1.2197  0.6818 -0.2911
  453SOL    HW231854   5.437   2.955  11.602  0.3001  0.7558  1.0279
  454SOL     OW31855   4.519   2.460   0.407  0.3233  0.3521 -1.1535
  454SOL    HW131856   4.428   2.469   0.435  0.3040 -0.0970 -1.0701
  454SOL    HW231857   4.569   2.512   0.470  0.3054 -0.8257 -0.1423
  455SOL     OW31858   1.624   1.779  11.866 -0.2868  0.0473  0.2864
  455SOL    HW131859   1.621   1.741  11.954  0.2513 -0.6358  0.0251
  455SOL    HW231860   1.647   1.871  11.880 -0.2995 -0.0316  0.8631
  456SOL     OW31861   0.964   5.694   0.753  0.0175 -0.2723 -0.4916
  456SOL    HW131862   0.977   5.729   0.841  0.1893 -0.7683 -0.3136
  456SOL    HW231863   0.875   5.659   0.754  0.5479 -1.7289  0.0186
  457SOL     OW31864   0.435   3.190   1.178  0.0214 -0.0961  0.5086
  457SOL    HW131865   0.523   3.176   1.142 -0.0719  1.0500 -0.1997
  457SOL    HW231866   0.377   3.141   1.120  0.1527 -0.6555  0.8363
  458SOL     OW31867   4.377   5.889   0.557  0.0464  0.3183  0.5168
  458SOL    HW131868   4.453   5.859   0.607  0.7203 -0.6906 -1.0338
  458SOL    HW231869   4.334   5.808   0.528 -1.1412  0.8793  0.6546
  459SOL     OW31870   1.857   4.557   1.261 -0.3923  0.2684 -0.0120
  459SOL    HW131871   1.947   4.567   1.230 -0.5585 -0.5815 -0.8179
  459SOL    HW231872   1.864   4.503   1.340 -0.3133 -1.1359 -0.9535
  460SOL     OW31873   0.124   6.033  11.226 -0.0025  0.0197 -0.2552
  460SOL    HW131874   0.210   6.043  11.267 -0.5721  1.6963  0.6253
  460SOL    HW231875   0.143   6.026  11.133  1.2320 -2.4670  0.1020
  461SOL     OW31876   4.567   2.201   0.077  0.1856 -0.5628  0.2779
  461SOL    HW131877   4.615   2.156   0.008 -1.0699 -3.2200  0.9970
  461SOL    HW231878   4.634   2.247   0.128  1.4247 -0.7376 -1.1486
  462SOL     OW31879   3.454   1.166   0.325 -0.0060 -0.0490  0.6814
  462SOL    HW131880   3.456   1.241   0.384  0.6343  1.5717 -1.2574
  462SOL    HW231881   3.508   1.099   0.368  1.6512  1.5863  1.2793
  463SOL     OW31882   5.309   0.722  12.804  0.7988  0.5282 -0.1305
  463SOL    HW131883   5.217   0.745  12.799  0.2708 -1.3821  0.1423
  463SOL    HW231884   5.338   0.715  12.713  0.0509 -1.0764 -0.2774
  464SOL     OW31885   3.686   4.844  12.051 -0.3562 -0.0407 -0.1113
  464SOL    HW131886   3.616   4.839  12.117 -0.3358  0.5644 -0.0393
  464SOL    HW231887   3.642   4.822  11.969 -0.0698 -2.3365  0.2807
  465SOL     OW31888   6.166   3.133   1.691  0.1871  0.0718 -0.2120
  465SOL    HW131889   6.122   3.116   1.775  0.3181  0.7478  0.0025
  465SOL    HW231890   6.258   3.112   1.708  0.0040 -1.1183 -0.5938
  466SOL     OW31891   3.515   4.415  12.364  0.1216  0.5380  0.0816
  466SOL    HW131892   3.476   4.341  12.317 -0.9740  0.8007  0.5418
  466SOL    HW231893   3.604   4.388  12.382 -0.2180 -0.6099  0.0931
  467SOL     OW31894   5.238   0.511  11.504 -0.0086  0.1829 -0.4410
  467SOL    HW131895   5.282   0.544  11.582  0.2231 -1.5885  0.2127
  467SOL    HW231896   5.309   0.486  11.445 -0.1688  0.0452 -0.5786
  468SOL     OW31897   0.191   2.484   1.162  0.4645 -0.4058  0.4819
  468SOL    HW131898   0.245   2.416   1.201  0.1865 -0.7493  0.2659
  468SOL    HW231899   0.150   2.442   1.086  0.4596  0.0585  0.2228
  469SOL     OW31900   5.569   3.810  12.067  0.0499 -0.3518  0.2868
  469SOL    HW131901   5.622   3.792  11.990  0.0853 -3.1393  0.8368
  469SOL    HW231902   5.489   3.759  12.054 -1.2131  1.3722  0.8565
  470SOL     OW31903   0.382   5.785  12.022 -0.2315 -0.1796  0.3166
  470SOL    HW131904   0.356   5.700  12.058  1.0634 -0.4430  0.6535
  470SOL    HW231905   0.396   5.768  11.929 -1.7038  0.0832  0.0137
  471SOL     OW31906   3.755   4.885   0.711  0.0357  0.7833  0.2404
  471SOL    HW131907   3.719   4.879   0.622 -1.9037 -0.3484  1.0499
  471SOL    HW231908   3.753   4.979   0.730 -0.1293  0.9837 -0.6762
  472SOL     OW31909   2.258   3.373   0.744  0.4404  0.2768  0.0612
  472SOL    HW131910   2.181   3.345   0.793 -0.4482  1.3938 -0.6344
  472SOL    HW231911   2.320   3.301   0.752 -0.4595 -0.4002  1.1207
  473SOL     OW31912   4.544   4.621  12.202  0.3076  0.5301 -0.2139
  473SOL    HW131913   4.610   4.646  12.267  0.2328  0.0346  0.0552
  473SOL    HW231914   4.469   4.678  12.222  0.5298  0.8561 -0.3037
  474SOL     OW31915   0.135   1.257   0.520 -0.1846  0.3551 -0.4299
  474SOL    HW131916   0.059   1.286   0.469 -0.3567  0.9212  0.1381
  474SOL    HW231917   0.204   1.248   0.455 -0.5806  0.4117 -0.8705
  475SOL     OW31918   1.088   3.284  11.802  0.1097 -0.1201 -0.7492
  475SOL    HW131919   1.118   3.341  11.731  2.2191  0.1641  0.2785
  475SOL    HW231920   1.169   3.251  11.841 -1.0279 -2.8740 -0.5229
  476SOL     OW31921   6.297   0.508   0.609  0.5808 -0.3084 -0.4473
  476SOL    HW131922   6.381   0.493   0.652  1.5731  2.8135 -1.0284
  476SOL    HW231923   6.248   0.563   0.670 -0.7839 -1.4573 -0.4532
  477SOL     OW31924   0.529   2.620   0.823 -0.0211 -0.2740 -0.4809
  477SOL    HW131925   0.592   2.567   0.773 -0.1114  0.5633 -1.5340
  477SOL    HW231926   0.467   2.557   0.859  0.4297 -0.9669 -0.8920
  478SOL     OW31927   4.913   4.087  12.435 -0.0348  0.0367  0.2970
  478SOL    HW131928   4.889   4.000  12.403 -0.3227 -0.1522  0.9967
  478SOL    HW231929   4.866   4.147  12.377  1.8053 -0.1779 -1.5341
  479SOL     OW31930   5.799   4.429   1.532  0.0371 -0.0277  0.0789
  479SOL    HW131931   5.796   4.523   1.512 -0.4808  0.4697  2.1978
  479SOL    HW231932   5.889   4.413   1.560 -0.5439  0.5346  2.4666
  480SOL     OW31933   3.339   0.724   1.150  0.0172  0.2181 -0.1295
  480SOL    HW131934   3.294   0.782   1.211 -0.1697  0.0155 -0.0742
  480SOL    HW231935   3.281   0.718   1.074 -0.0633 -0.0628 -0.0476
  481SOL     OW31936   1.805   3.300   0.432 -0.5454 -0.1342  0.0873
  481SOL    HW131937   1.875   3.338   0.485  1.4517 -3.4143  0.0835
  481SOL    HW231938   1.814   3.342   0.347  0.3752  0.6541  0.5541
  482SOL     OW31939   6.232   5.277  12.269  0.2529  0.1000 -0.0035
  482SOL    HW131940   6.164   5.339  12.297  1.0854  0.5450  1.1167
  482SOL    HW231941   6.190   5.224  12.202 -1.1635  0.4548  0.5720
  483SOL     OW31942   3.926   0.751  12.660 -0.1219 -0.4546  0.1455
  483SOL    HW131943   3.927   0.732  12.566  0.0760 -0.8720  0.2291
  483SOL    HW231944   3.925   0.664  12.702 -2.1687 -0.3150  0.5136
  484SOL     OW31945   4.648   1.960  11.017 -0.2738 -0.2789 -0.1438
  484SOL    HW131946   4.588   1.906  11.069  0.7025 -1.1926  0.0934
  484SOL    HW231947   4.718   1.899  10.992  0.6272  0.7836 -0.2740
  485SOL     OW31948   1.882   4.443  11.789 -0.2005  0.2928 -0.2619
  485SOL    HW131949   1.803   4.389  11.784 -0.1292 -0.0042  1.4077
  485SOL    HW231950   1.942   4.403  11.725 -0.5243 -0.9950  0.1997
  486SOL     OW31951   2.154   0.953   1.293  0.0445  0.4174 -0.1536
  486SOL    HW131952   2.208   0.883   1.258  0.6651  0.5024  0.6130
  486SOL    HW231953   2.198   1.033   1.265  0.4040  0.4860  0.5961
  487SOL     OW31954   4.676   0.049  11.813  0.2519 -0.3362 -0.5871
  487SOL    HW131955   4.708   0.004  11.891 -0.4148 -0.3811 -0.3333
  487SOL    HW231956   4.755   0.076  11.766  0.6524 -0.9505 -0.2682
  488SOL     OW31957   0.310   3.326   0.898 -0.0129  0.0747  0.4020
  488SOL    HW131958   0.290   3.293   0.986 -0.5468  0.2800  0.3670
  488SOL    HW231959   0.229   3.314   0.849 -0.2476  1.4326  0.4002
  489SOL     OW31960   4.538   2.535   0.790 -0.2792  0.1762  0.3240
  489SOL    HW131961   4.526   2.443   0.766 -1.1671  0.4486 -0.3302
  489SOL    HW231962   4.595   2.570   0.721  0.1920  0.0907  0.6613
  490SOL     OW31963   5.816   0.824   0.856  0.2651 -0.8820  0.0787
  490SOL    HW131964   5.839   0.914   0.879  0.6162 -0.9515  0.0011
  490SOL    HW231965   5.723   0.816   0.879  0.5264 -0.8503  1.1571
  491SOL     OW31966   3.964   1.027  12.836 -0.6746 -0.2341  0.1034
  491SOL    HW131967   3.951   1.103  12.779 -0.3971 -0.4366 -0.2343
  491SOL    HW231968   3.889   1.029  12.896 -1.0238 -0.0824 -0.3331
  492SOL     OW31969   5.522   3.310   0.033 -0.1857 -0.2991 -0.3413
  492SOL    HW131970   5.600   3.315  -0.022  1.2206 -1.8930  1.3514
  492SOL    HW231971   5.473   3.390   0.014  2.1110  1.0058 -1.1167
  493SOL     OW31972   0.258   4.891   1.393  0.2585 -0.1726  0.0687
  493SOL    HW131973   0.328   4.840   1.352  1.4683 -0.1983  2.0585
  493SOL    HW231974   0.301   4.971   1.422 -1.1663  1.0826 -1.0866
  494SOL     OW31975   3.316   0.026   0.908  0.0713  0.1871  0.0631
  494SOL    HW131976   3.300  -0.025   0.987  0.3411 -1.9269 -1.1662
  494SOL    HW231977   3.389   0.085   0.932 -0.9253  0.7821  1.8178
  495SOL     OW31978   3.129   1.965   0.328  0.1777  0.6096 -0.3252
  495SOL    HW131979   3.104   1.878   0.297  1.9069 -0.1963  0.4099
  495SOL    HW231980   3.150   1.952   0.421  0.4220  1.8030 -0.2034
  496SOL     OW31981   0.684   2.462  12.404 -0.3070 -0.2040  0.2425
  496SOL    HW131982   0.689   2.551  12.370 -0.1355 -0.9822 -1.9374
  496SOL    HW231983   0.666   2.408  12.327  1.9838 -2.3272  1.0547
  497SOL     OW31984   4.584   2.281  12.039  0.0207 -0.2377 -0.5073
  497SOL    HW131985   4.673   2.303  12.012  0.6405 -2.2520 -0.2563
  497SOL    HW231986   4.550   2.228  11.967 -0.4372 -0.7351  0.0729
  498SOL     OW31987   4.207   5.069   0.743  0.0295  0.1427  0.2613
  498SOL    HW131988   4.292   5.081   0.702  0.7572 -1.7572  1.0732
  498SOL    HW231989   4.152   5.029   0.676 -0.3339  1.5971 -0.3399
  499SOL     OW31990   4.499   0.199   0.306  0.3585  0.2958 -0.1191
  499SOL    HW131991   4.543   0.116   0.288  0.9923  0.6700 -0.3238
  499SOL    HW231992   4.563   0.250   0.355  0.1004  0.7954 -0.2944
  500SOL     OW31993   3.390   1.061   1.125  0.1622  0.0063 -0.9260
  500SOL    HW131994   3.333   1.125   1.081  1.5495  0.9771 -1.3997
  500SOL    HW231995   3.335   1.022   1.192 -1.4733 -0.1500 -2.3031
  501SOL     OW31996   3.739   5.147   0.760 -0.0321 -0.2534 -0.2781
  501SOL    HW131997   3.787   5.215   0.807  0.5296 -0.9194  0.1183
  501SOL    HW231998   3.766   5.158   0.669 -1.1048  1.0228 -0.4742
  502SOL     OW31999   2.808   4.405  11.842 -0.6112 -0.3134  0.3861
  502SOL    HW132000   2.900   4.413  11.867 -0.1738  2.5844 -1.6977
  502SOL    HW232001   2.759   4.418  11.924  0.8121  1.3894  1.0159
  503SOL     OW32002   1.986   0.006   0.967  0.2593  0.4441 -0.5215
  503SOL    HW132003   1.897   0.011   0.932  0.6047  1.6393 -1.3019
  503SOL    HW232004   2.023  -0.072   0.927 -0.5135 -0.2321  0.0359
  504SOL     OW32005   5.018   3.888   0.034 -0.0164 -0.4852 -0.4636
  504SOL    HW132006   4.952   3.892  -0.035 -0.2052  0.3291 -0.2523
  504SOL    HW232007   5.099   3.866  -0.011  0.0916  1.1262 -1.1404
  505SOL     OW32008   2.412   5.523   1.343 -0.4720 -0.2952  0.0058
  505SOL    HW132009   2.317   5.528   1.354 -0.4515  0.7741 -0.1282
  505SOL    HW232010   2.447   5.538   1.431 -0.4206 -0.9946  0.1119
  506SOL     OW32011   4.362   2.086   0.618  0.1862 -0.3642  0.0862
  506SOL    HW132012   4.273   2.102   0.649  0.1980  1.7578 -0.7544
  506SOL    HW232013   4.361   2.118   0.527  2.0498  0.7887  0.4143
  507SOL     OW32014   5.163   0.439  12.303 -0.1389  0.7271 -0.2861
  507SOL    HW132015   5.148   0.383  12.226  1.4332  0.6795 -0.5853
  507SOL    HW232016   5.160   0.379  12.377 -2.1668  0.8447 -0.2121
  508SOL     OW32017   4.215   6.333   1.268  0.6639 -0.6488  0.2093
  508SOL    HW132018   4.154   6.260   1.252  0.3655 -1.2983  3.6247
  508SOL    HW232019   4.259   6.310   1.349  1.5526  2.3711  0.6972
  509SOL     OW32020   2.564   5.012  12.519 -0.1550  0.3681  0.4695
  509SOL    HW132021   2.472   4.991  12.507  0.3564 -0.4663 -2.9216
  509SOL    HW232022   2.571   5.105  12.495  0.1309 -0.0675 -1.2430
  510SOL     OW32023   2.047   2.404   1.491  0.1733  0.2225  0.4622
  510SOL    HW132024   1.957   2.373   1.500  0.2105 -0.0568 -0.0480
  510SOL    HW232025   2.100   2.325   1.499  0.2056 -0.0997 -2.0223
  511SOL     OW32026   6.412   3.545  12.282 -0.0099 -0.0098 -0.3199
  511SOL    HW132027   6.358   3.589  12.348 -1.1110  1.2212 -1.9489
  511SOL    HW232028   6.500   3.580  12.294 -0.3532  0.7358  0.0511
  512SOL     OW32029   0.831   3.526  11.726  0.1752  0.3193  0.0468
  512SOL    HW132030   0.755   3.571  11.761  0.8947  0.1555  1.9582
  512SOL    HW232031   0.825   3.437  11.762  0.6814 -0.0222 -0.6888
  513SOL     OW32032   5.494   3.502   0.774 -0.0811  0.2124  0.2023
  513SOL    HW132033   5.466   3.496   0.683  0.6909  2.3337 -0.2179
  513SOL    HW232034   5.478   3.414   0.809 -0.6847 -0.5707 -1.8717
  514SOL     OW32035   4.681   5.860   0.875  0.6292 -0.6201 -0.1649
  514SOL    HW132036   4.701   5.830   0.964  1.7816 -1.1526 -0.5896
  514SOL    HW232037   4.624   5.792   0.839 -0.6630  0.0853  0.4847
  515SOL     OW32038   4.942   4.752   1.224  0.1338  0.7622  0.0263
  515SOL    HW132039   5.001   4.679   1.208  0.0017  0.4054  1.0952
  515SOL    HW232040   4.985   4.805   1.291 -1.8983 -0.9685  2.8976
  516SOL     OW32041   4.676   3.772  11.315  0.2018 -0.0647 -0.2871
  516SOL    HW132042   4.659   3.681  11.338  2.4817 -0.6161 -0.5831
  516SOL    HW232043   4.641   3.822  11.389 -1.1453 -1.1410 -0.1588
  517SOL     OW32044   5.976   4.422  12.447  0.2695 -0.0385 -0.1915
  517SOL    HW132045   6.026   4.483  12.392 -0.9650  0.0633 -1.2524
  517SOL    HW232046   5.903   4.473  12.479  1.5065  0.2082  2.5065
  518SOL     OW32047   6.339   1.680  12.309 -0.3841  0.1257  0.4508
  518SOL    HW132048   6.354   1.773  12.322  1.1708 -0.2253  1.3240
  518SOL    HW232049   6.318   1.672  12.215  2.0924  1.0509 -0.2498
  519SOL     OW32050   0.907   3.986   0.811 -0.0371  0.1592  0.6774
  519SOL    HW132051   0.934   4.023   0.895 -1.1490  2.8306 -0.0390
  519SOL    HW232052   0.812   3.993   0.812 -0.2146 -1.6267 -0.0647
  520SOL     OW32053   2.309   3.841  12.842 -0.0705 -0.1802  0.5088
  520SOL    HW132054   2.290   3.927  12.806  1.4559  0.1476  0.4306
  520SOL    HW232055   2.223   3.798  12.848 -0.6745  0.7312 -0.9819
  521SOL     OW32056   2.470   1.062   1.204  0.1973 -0.3613  0.0099
  521SOL    HW132057   2.447   0.989   1.262 -3.0574  0.4779 -0.0895
  521SOL    HW232058   2.565   1.052   1.192  0.2163 -3.4264  1.5163
  522SOL     OW32059   4.217   1.047  11.877 -0.2109 -0.8683 -0.0391
  522SOL    HW132060   4.236   0.954  11.862  0.4324 -0.7098 -0.2339
  522SOL    HW232061   4.152   1.069  11.810  0.6691 -0.8384 -0.9027
  523SOL     OW32062   2.047   1.961  12.514 -0.7337  0.1339  0.7020
  523SOL    HW132063   2.139   1.971  12.493 -0.2982  0.7215  2.6809
  523SOL    HW232064   2.030   1.867  12.505 -0.1631  0.1232 -0.3984
  524SOL     OW32065   5.780   1.479  12.339  0.1002 -0.0845  0.2598
  524SOL    HW132066   5.759   1.554  12.396 -2.3565 -0.4183 -0.0798
  524SOL    HW232067   5.757   1.403  12.392  0.9134 -0.5296 -0.0248
  525SOL     OW32068   3.608   1.636   0.983  0.3774  0.2464 -0.1475
  525SOL    HW132069   3.656   1.576   0.925  0.6011 -1.1533  1.4047
  525SOL    HW232070   3.605   1.591   1.067 -0.2274  2.0605  0.8678
  526SOL     OW32071   1.377   4.428   0.496 -0.3180  0.1490 -0.0903
  526SOL    HW132072   1.438   4.496   0.465  0.7138 -1.0140 -0.7059
  526SOL    HW232073   1.325   4.472   0.563  2.1196  0.8674  1.4773
  527SOL     OW32074   6.384   2.026  11.419  0.2631 -0.2389 -0.0919
  527SOL    HW132075   6.407   2.000  11.509 -0.5045 -2.0832 -0.3779
  527SOL    HW232076   6.289   2.023  11.418  0.1568  1.8143 -0.4464
  528SOL     OW32077   1.823   1.621   0.605  0.4399  0.2463 -0.2690
  528SOL    HW132078   1.894   1.558   0.606 -0.3837 -0.8119  2.7169
  528SOL    HW232079   1.866   1.706   0.617  1.2884 -0.3961  1.8040
  529SOL     OW32080   2.946   4.980  12.362  0.4043 -0.6750  0.1737
  529SOL    HW132081   2.954   4.942  12.449 -2.3562 -0.2016  0.7338
  529SOL    HW232082   2.865   4.943  12.326  0.9535 -0.1149 -1.8095
  530SOL     OW32083   2.911   6.250  11.940 -0.5456  0.6058  0.4045
  530SOL    HW132084   2.848   6.182  11.965  1.0401 -1.5213 -1.0276
  530SOL    HW232085   2.987   6.234  11.996  0.2561  0.4681 -0.6955
  531SOL     OW32086   6.067   1.276   0.084  0.1828 -0.0825  0.0559
  531SOL    HW132087   6.141   1.330   0.055  1.0798 -0.9012  0.7255
  531SOL    HW232088   5.998   1.339   0.104  0.6069  0.6892 -0.8305
  532SOL     OW32089   5.823   5.225  11.505  0.4550 -0.0093 -0.4713
  532SOL    HW132090   5.816   5.276  11.586  1.6762  2.5592 -1.8308
  532SOL    HW232091   5.780   5.280  11.439 -0.4721 -2.0109 -1.6214
  533SOL     OW32092   5.824   1.462   1.326 -0.0743  0.5029 -0.5958
  533SOL    HW132093   5.833   1.398   1.397  0.1369  1.6765  0.4787
  533SOL    HW232094   5.751   1.430   1.274 -0.5239 -0.1605  0.4099
  534SOL     OW32095   6.440   0.282   0.543  0.0241 -0.3248 -0.2801
  534SOL    HW132096   6.447   0.283   0.638  0.1173 -1.8421 -0.2381
  534SOL    HW232097   6.469   0.369   0.515  0.1114  0.0919  1.0633
  535SOL     OW32098   2.159   3.826   0.996  0.2883  0.0808  0.4384
  535SOL    HW132099   2.240   3.856   1.036  0.9297 -0.1317 -0.6767
  535SOL    HW232100   2.091   3.848   1.060  1.1472  0.8114  1.1157
  536SOL     OW32101   0.799   5.808  11.592  0.6358  0.5786  0.3279
  536SOL    HW132102   0.798   5.847  11.679  0.0223 -1.6481  1.4097
  536SOL    HW232103   0.712   5.769  11.582  1.5328 -1.5034 -0.0988
  537SOL     OW32104   1.107   5.130  12.328 -0.3916  0.0359  0.0313
  537SOL    HW132105   1.079   5.193  12.261  0.7862  1.8199  1.1112
  537SOL    HW232106   1.053   5.053  12.313 -1.8071  1.2444 -1.4669
  538SOL     OW32107   0.438   2.381   0.267  0.6750  0.2731  0.2543
  538SOL    HW132108   0.383   2.328   0.324  0.2329 -0.5555 -0.8957
  538SOL    HW232109   0.517   2.398   0.318  1.0920 -1.9955  0.4922
  539SOL     OW32110   1.988   4.315   0.268  0.1313  0.3231 -0.6790
  539SOL    HW132111   2.048   4.276   0.205 -1.1086 -1.6871 -0.6769
  539SOL    HW232112   2.042   4.378   0.316  2.3882 -1.7335 -0.3441
  540SOL     OW32113   1.774   3.981  12.581  0.2793 -0.0513 -0.1494
  540SOL    HW132114   1.753   4.051  12.642  2.3456 -0.8853  1.6309
  540SOL    HW232115   1.745   3.901  12.625  2.0476 -0.6895 -0.0689
  541SOL     OW32116   3.816   4.189  11.731  0.3001  0.0272  0.7011
  541SOL    HW132117   3.771   4.269  11.706 -0.4378 -1.0860 -1.7686
  541SOL    HW232118   3.906   4.217  11.750  0.2551  1.3332 -0.8604
  542SOL     OW32119   5.001   0.655  11.442 -0.1313 -0.3768  0.5746
  542SOL    HW132120   5.096   0.646  11.433  0.0871  2.1903 -0.5752
  542SOL    HW232121   4.989   0.717  11.513 -0.8661  0.3619 -0.1744
  543SOL     OW32122   4.271   5.095  11.576 -0.2516 -0.2607 -0.0051
  543SOL    HW132123   4.231   5.015  11.610 -0.6947 -1.0731 -2.3004
  543SOL    HW232124   4.358   5.068  11.547  0.1989  0.4706  0.6066
  544SOL     OW32125   2.918   4.498  12.801  0.1327  0.2927 -0.1163
  544SOL    HW132126   3.006   4.536  12.794  0.1956  0.2125  0.2236
  544SOL    HW232127   2.931   4.415  12.847  0.0631 -0.3875 -1.2942
  545SOL     OW32128   0.309   0.551   1.497 -0.0901  0.4512 -0.5079
  545SOL    HW132129   0.325   0.457   1.492  1.9746  0.7775 -1.1817
  545SOL    HW232130   0.227   0.559   1.546 -1.1377 -1.7247 -1.7401
  546SOL     OW32131   0.037   1.416   0.713  0.6343  0.6010  0.1999
  546SOL    HW132132   0.076   1.375   0.636  0.6465  1.2200 -0.1374
  546SOL    HW232133   0.059   1.509   0.703 -1.6483  1.1404 -0.4747
  547SOL     OW32134   4.746   1.903   0.114 -0.1451 -0.6901  0.6006
  547SOL    HW132135   4.825   1.849   0.115  1.0199  0.9349  1.7248
  547SOL    HW232136   4.728   1.919   0.022  1.6442  0.0120  0.3502
  548SOL     OW32137   5.162   0.250  12.100  0.7980 -0.2633  0.4515
  548SOL    HW132138   5.229   0.289  12.044  0.6961  0.3470  0.7418
  548SOL    HW232139   5.115   0.190  12.043  0.5083  0.5664 -0.2098
  549SOL     OW32140   0.548   5.375  12.798  0.3151  0.7211 -0.4647
  549SOL    HW132141   0.588   5.343  12.718  0.4550 -0.6140  0.1102
  549SOL    HW232142   0.622   5.402  12.853  0.1976  2.1075 -0.9524
  550SOL     OW32143   0.294   3.962   0.773  0.4097 -0.5860 -0.3635
  550SOL    HW132144   0.245   3.940   0.852  0.1758 -2.3708 -0.9550
  550SOL    HW232145   0.239   3.931   0.701  1.4142 -0.6053 -1.1518
  551SOL     OW32146   0.118   4.247   0.166  0.0827 -0.0753  0.1332
  551SOL    HW132147   0.161   4.297   0.236 -0.4702 -0.5994  0.8726
  551SOL    HW232148   0.105   4.160   0.205 -2.3292  0.2670  0.2349
  552SOL     OW32149   3.584   1.478   0.577 -0.1052 -0.7538  0.3138
  552SOL    HW132150   3.517   1.509   0.516 -1.6351 -2.3687  1.0658
  552SOL    HW232151   3.538   1.413   0.631  0.9570  1.0015  3.6216
  553SOL     OW32152   2.984   0.520   1.465  0.5315  0.1577  0.4331
  553SOL    HW132153   2.906   0.568   1.491 -0.4302 -0.9670 -0.2839
  553SOL    HW232154   2.980   0.438   1.513  2.5996  1.0420  2.3013
  554SOL     OW32155   2.574   4.004  12.149 -0.3505  0.5721 -0.8171
  554SOL    HW132156   2.617   4.089  12.143 -0.7058  0.8009 -0.1794
  554SOL    HW232157   2.488   4.017  12.108 -0.8655  0.8409  0.3197
  555SOL     OW32158   4.048   2.410  11.794 -0.0667 -1.0678  0.2595
  555SOL    HW132159   4.091   2.399  11.879  1.8397  0.7063 -0.3810
  555SOL    HW232160   3.955   2.420  11.814  0.5871  2.0540  2.4898
  556SOL     OW32161   0.235   4.974  12.763  0.2426  0.0436  0.3426
  556SOL    HW132162   0.205   4.883  12.761  0.7722 -0.1399  0.5991
  556SOL    HW232163   0.329   4.969  12.749  0.1809  0.6064 -0.3472
  557SOL     OW32164   4.391   6.261  11.383  0.3461  0.1290 -0.2422
  557SOL    HW132165   4.301   6.284  11.361  0.0296 -0.3793  0.4806
  557SOL    HW232166   4.409   6.310  11.464  0.4242 -0.4240  0.0828
  558SOL     OW32167   6.304   5.536  12.703  0.3777 -0.3138  0.8164
  558SOL    HW132168   6.297   5.631  12.708  3.4817 -0.0457  2.6477
  558SOL    HW232169   6.296   5.517  12.610  0.5190  1.8293  0.3041
  559SOL     OW32170   0.115   3.553  10.984 -0.0676  0.2580 -0.4829
  559SOL    HW132171   0.198   3.591  11.012  0.6335 -1.3882 -0.2254
  559SOL    HW232172   0.124   3.459  11.001 -2.5527  0.1796  1.0439
  560SOL     OW32173   2.219   5.712  11.880  0.1629 -0.0399 -0.5005
  560SOL    HW132174   2.188   5.757  11.959 -0.5584 -2.3307  0.5993
  560SOL    HW232175   2.175   5.758  11.808  3.0384  4.0018 -0.0083
  561SOL     OW32176   1.003   4.834  11.091 -0.1377 -0.6629 -0.5110
  561SOL    HW132177   0.919   4.809  11.050 -0.2983 -2.8894  1.0214
  561SOL    HW232178   0.984   4.917  11.134 -1.0500 -0.2501 -1.6293
  562SOL     OW32179   2.697   4.233  12.093  0.1925  0.1590  0.2233
  562SOL    HW132180   2.785   4.211  12.122  0.0145 -1.1922 -0.1565
  562SOL    HW232181   2.684   4.180  12.014 -1.4595 -0.7970  1.0802
  563SOL     OW32182   1.499   5.588   1.390 -0.5123 -0.1757 -0.2271
  563SOL    HW132183   1.549   5.669   1.403 -0.1132 -0.5311  0.4918
  563SOL    HW232184   1.537   5.549   1.311  0.8219 -0.7610  0.6640
  564SOL     OW32185   0.821   1.229   0.352  0.1273 -0.1141 -0.1447
  564SOL    HW132186   0.843   1.320   0.371  0.2773 -0.0439 -0.6585
  564SOL    HW232187   0.870   1.179   0.417 -0.9334  0.2252  0.9872
  565SOL     OW32188   2.135   0.400  11.656  0.2790 -0.1830  0.0920
  565SOL    HW132189   2.151   0.387  11.750 -0.9521  0.1737  0.3727
  565SOL    HW232190   2.217   0.436  11.623  0.6374 -0.0381  1.0902
  566SOL     OW32191   3.920   0.457  12.703 -0.0011 -0.0256 -0.0234
  566SOL    HW132192   3.882   0.370  12.716 -0.4251  0.1990  0.2407
  566SOL    HW232193   3.986   0.444  12.635 -0.7546 -0.3603 -0.6982
  567SOL     OW32194   2.500   1.230   0.774  0.2500  0.5897 -0.5715
  567SOL    HW132195   2.428   1.278   0.815  0.9195  0.8589  0.3141
  567SOL    HW232196   2.458   1.155   0.732 -0.5170  0.5950  0.1708
  568SOL     OW32197   5.731   1.735   0.179 -0.7478 -0.4685 -0.1970
  568SOL    HW132198   5.639   1.740   0.205 -0.6245 -1.4039  0.4861
  568SOL    HW232199   5.778   1.776   0.251 -0.7181  1.7917 -1.4198
  569SOL     OW32200   4.110   1.461   0.774 -0.4892 -0.1161  0.7586
  569SOL    HW132201   4.070   1.467   0.687  0.0220 -0.3779  0.4999
  569SOL    HW232202   4.081   1.376   0.808 -0.0556 -0.3656  0.5163
  570SOL     OW32203   0.845   5.061  12.114  0.9165  0.0915 -0.0068
  570SOL    HW132204   0.861   5.023  12.027 -0.9813 -1.1248  0.1291
  570SOL    HW232205   0.801   5.144  12.096 -1.7871 -1.2974 -0.2586
  571SOL     OW32206   3.076   5.193   0.029  0.0747  0.0731 -0.1259
  571SOL    HW132207   3.028   5.112   0.046  1.0000 -0.4255  0.1921
  571SOL    HW232208   3.044   5.255   0.095  0.1691 -0.3736  0.3409
  572SOL     OW32209   1.583   4.355   1.306 -0.3474 -0.4273 -0.1532
  572SOL    HW132210   1.594   4.320   1.395 -1.3844 -1.3603 -0.3695
  572SOL    HW232211   1.667   4.395   1.285  1.0615 -3.1836 -0.0475
  573SOL     OW32212   5.629   3.970   0.750  0.3760 -0.6264 -0.2374
  573SOL    HW132213   5.623   4.021   0.831 -1.9652  0.0534 -0.7887
  573SOL    HW232214   5.613   3.880   0.778 -1.1831 -0.3029 -0.0039
  574SOL     OW32215   3.452   0.455  12.238  0.4029  0.8645  0.6024
  574SOL    HW132216   3.509   0.383  12.266 -2.1348 -1.3291  0.5692
  574SOL    HW232217   3.443   0.444  12.144 -0.7763  0.5521  0.7274
  575SOL     OW32218   6.351   6.203   1.014 -0.1716  0.3496 -0.3207
  575SOL    HW132219   6.440   6.223   1.044  0.2230 -2.0484  0.3674
  575SOL    HW232220   6.356   6.209   0.919  0.3094  1.6732 -0.2346
  576SOL     OW32221   3.809   4.023   0.185  0.1833  1.0441 -0.2702
  576SOL    HW132222   3.734   3.985   0.230  0.7005  1.4116  0.9608
  576SOL    HW232223   3.781   4.032   0.094 -1.4615  1.6848  0.2633
  577SOL     OW32224   3.823   0.980  11.127 -0.0800  0.3588 -0.2441
  577SOL    HW132225   3.751   0.942  11.177 -0.0944 -0.4296 -0.8525
  577SOL    HW232226   3.784   1.001  11.042 -0.2745  2.4467  0.3026
  578SOL     OW32227   3.759   0.412  11.394 -0.2552 -0.0602 -0.8041
  578SOL    HW132228   3.844   0.449  11.416  0.2525 -0.1767 -2.4431
  578SOL    HW232229   3.751   0.335  11.450 -0.3616  1.2409  1.0677
  579SOL     OW32230   4.641   4.012  12.622  0.9449  0.2540  0.0268
  579SOL    HW132231   4.560   4.024  12.673  0.3922  0.2652 -0.8297
  579SOL    HW232232   4.635   4.078  12.553  1.5176  0.0079 -0.2624
  580SOL     OW32233   5.924   2.183   0.056  0.9739  0.8352 -0.5464
  580SOL    HW132234   5.923   2.278   0.055  1.0342  0.8358 -0.5290
  580SOL    HW232235   5.931   2.159   0.148  0.2686  0.8073 -0.4880
  581SOL     OW32236   2.780   1.447  12.648 -0.1737 -0.9268 -0.1740
  581SOL    HW132237   2.729   1.384  12.597 -0.5397  0.7077 -1.9370
  581SOL    HW232238   2.774   1.528  12.598  0.3324  0.5143  1.9775
  582SOL     OW32239   0.276   3.197  12.437  0.5523  0.2135  0.4120
  582SOL    HW132240   0.350   3.141  12.458 -0.4296 -0.5766  1.8858
  582SOL    HW232241   0.273   3.261  12.508 -0.2704  0.1261  0.4652
  583SOL     OW32242   3.255   0.712   0.392  0.2345 -0.4790  0.0198
  583SOL    HW132243   3.217   0.658   0.462  0.9381  0.6630  1.3364
  583SOL    HW232244   3.263   0.800   0.431  0.1697  0.3192 -1.6771
  584SOL     OW32245   0.075   4.639   0.308 -0.3537  0.4048 -0.5652
  584SOL    HW132246   0.127   4.566   0.276 -3.4057 -2.0156 -0.4365
  584SOL    HW232247   0.037   4.678   0.230 -0.3466  0.5801 -0.4831
  585SOL     OW32248   5.995   4.474  11.937 -0.4916  0.1761 -0.7438
  585SOL    HW132249   5.990   4.423  12.018 -1.6450  1.1764 -0.1476
  585SOL    HW232250   6.003   4.409  11.868  0.3938 -0.7055  0.1535
  586SOL     OW32251   5.270   1.680  11.605  0.3354  0.3650 -0.2388
  586SOL    HW132252   5.178   1.682  11.578  0.5890  0.7130 -1.1279
  586SOL    HW232253   5.272   1.621  11.680 -1.1332  2.7224  1.7890
  587SOL     OW32254   3.996   2.788   0.488 -0.3082 -0.3666 -0.0704
  587SOL    HW132255   3.942   2.800   0.410  1.9927 -0.2220 -1.7296
  587SOL    HW232256   3.981   2.697   0.514 -1.1041 -0.4137 -0.6538
  588SOL     OW32257   0.414   5.505   1.624  0.0046  0.2276  0.7602
  588SOL    HW132258   0.504   5.517   1.655  0.5734  0.4395 -0.8771
  588SOL    HW232259   0.364   5.573   1.669  0.6474  0.0993  1.6970
  589SOL     OW32260   3.135   2.992  11.573  0.1007 -0.0578 -0.7554
  589SOL    HW132261   3.074   2.929  11.534 -1.8130  1.1216  0.1513
  589SOL    HW232262   3.219   2.947  11.573 -0.7306 -1.7449 -2.1573
  590SOL     OW32263   5.093   2.058   0.072  0.0464  0.1664 -0.2320
  590SOL    HW132264   5.167   2.056   0.133 -0.9773 -1.5975  1.0418
  590SOL    HW232265   5.037   1.986   0.099 -0.1250 -1.2344 -3.7226
  591SOL     OW32266   4.558   4.680   1.073  1.1927  0.1159  0.1911
  591SOL    HW132267   4.493   4.718   1.014 -0.4308  2.4896  3.2010
  591SOL    HW232268   4.628   4.649   1.015 -0.9799  0.6397 -2.9948
  592SOL     OW32269   5.994   5.893  12.742  0.2550  0.4061  0.0229
  592SOL    HW132270   5.914   5.853  12.776 -0.1362  1.9037  0.9216
  592SOL    HW232271   5.968   5.934  12.659  0.6668 -1.1421 -0.9231
  593SOL     OW32272   5.615   4.216  11.730  0.1089  0.3071 -0.1874
  593SOL    HW132273   5.581   4.289  11.782 -1.4672 -0.2132 -0.4452
  593SOL    HW232274   5.685   4.180  11.784 -0.5496  0.6479  0.9463
  594SOL     OW32275   4.407   4.797   1.725  0.4259 -0.1987 -0.0569
  594SOL    HW132276   4.502   4.786   1.719  0.4880 -0.6879  1.4823
  594SOL    HW232277   4.388   4.870   1.666  1.7090 -0.2695 -0.5983
  595SOL     OW32278   6.121   4.117   0.405  0.2935  0.0750  0.4359
  595SOL    HW132279   6.140   4.100   0.497  0.6168  0.6413  0.4766
  595SOL    HW232280   6.144   4.209   0.391  0.6932 -0.1251 -0.3180
  596SOL     OW32281   2.592   4.536  12.045 -0.5826  0.5114 -0.3114
  596SOL    HW132282   2.544   4.479  11.985 -0.5560 -0.9369  0.9617
  596SOL    HW232283   2.583   4.493  12.130  0.8949  1.5291  0.4028
  597SOL     OW32284   0.967   5.188   1.128 -0.4719  0.1877  0.3279
  597SOL    HW132285   0.879   5.219   1.107 -1.2402 -1.6844  0.6213
  597SOL    HW232286   0.970   5.098   1.096  1.0729 -0.0484  1.0118
  598SOL     OW32287   3.518   1.612  12.371  0.3230 -0.0937  0.0332
  598SOL    HW132288   3.520   1.688  12.429 -0.2372  0.1106 -0.2233
  598SOL    HW232289   3.516   1.537  12.431 -3.4457  0.1271  0.3897
  599SOL     OW32290   3.372   2.719   0.118  0.2205 -0.2961  0.3062
  599SOL    HW132291   3.366   2.748   0.028  0.5889  3.0146  1.2182
  599SOL    HW232292   3.460   2.682   0.126  0.1288 -0.7610 -0.6807
  600SOL     OW32293   5.102   0.132   1.288 -0.1888 -0.5586 -0.2252
  600SOL    HW132294   5.088   0.125   1.194  0.5144 -0.6836 -0.3271
  600SOL    HW232295   5.169   0.066   1.307  1.4998  1.0994 -0.0651
  601SOL     OW32296   3.116   3.786  11.852 -0.0531 -0.2900 -0.5155
  601SOL    HW132297   3.082   3.860  11.802  0.4303  0.0705 -0.3177
  601SOL    HW232298   3.037   3.740  11.882 -0.3550 -0.0543 -0.9205
  602SOL     OW32299   3.204   0.913  11.219 -0.6794 -0.5166  0.1894
  602SOL    HW132300   3.212   1.007  11.235  0.3587 -0.4245 -0.6916
  602SOL    HW232301   3.110   0.897  11.215 -0.9238  0.9457 -1.9681
  603SOL     OW32302   0.002   1.248   0.258 -0.4702 -0.6059 -0.5868
  603SOL    HW132303   0.075   1.186   0.264  0.4179  0.2189 -2.3218
  603SOL    HW232304  -0.072   1.195   0.229 -0.8284 -1.5905  1.8705
  604SOL     OW32305   0.960   4.519  12.118 -0.0369 -0.5644 -0.0607
  604SOL    HW132306   1.039   4.545  12.166 -0.2045 -0.7129  0.3028
  604SOL    HW232307   0.898   4.493  12.187 -0.1530 -1.1322 -0.3756
  605SOL     OW32308   4.459   1.817  11.220 -0.5465 -0.4767 -0.0282
  605SOL    HW132309   4.485   1.777  11.303  0.1452 -0.6233 -0.3049
  605SOL    HW232310   4.382   1.767  11.193 -0.8847 -0.3093  0.6108
  606SOL     OW32311   0.052   0.601   0.908  0.2072  0.6475 -0.1918
  606SOL    HW132312   0.136   0.592   0.863 -1.1192 -1.2681 -2.5895
  606SOL    HW232313   0.024   0.691   0.891  1.3302  1.0148 -0.1513
  607SOL     OW32314   1.199   1.773   1.554 -0.2402 -0.6160  0.1573
  607SOL    HW132315   1.115   1.745   1.518 -0.2417 -2.2365  1.2605
  607SOL    HW232316   1.190   1.867   1.567 -1.2175 -0.4646 -1.4110
  608SOL     OW32317   1.166   4.257   0.483  0.1337  0.3478 -0.0079
  608SOL    HW132318   1.114   4.329   0.519  0.8906  1.6891 -1.4565
  608SOL    HW232319   1.246   4.298   0.453  0.3248 -0.9955 -1.4783
  609SOL     OW32320   0.700   3.433   1.049 -0.0758 -0.6563  0.0702
  609SOL    HW132321   0.693   3.348   1.006 -0.0980 -1.1380  0.9982
  609SOL    HW232322   0.792   3.457   1.040  0.0592 -1.0683  0.3260
  610SOL     OW32323   0.231   1.629  12.329 -0.3866 -1.0145 -0.1332
  610SOL    HW132324   0.149   1.664  12.296  1.2637  1.5693 -1.8844
  610SOL    HW232325   0.259   1.693  12.395  2.2136  0.7307 -2.6810
  611SOL     OW32326   1.972   2.557   0.237  0.7700  0.2003  0.6257
  611SOL    HW132327   2.021   2.476   0.253  1.4967  0.7061  0.9824
  611SOL    HW232328   2.037   2.618   0.203  0.1969  0.6021  0.2337
  612SOL     OW32329   2.233   5.745   0.831  0.3761  0.1509 -0.3349
  612SOL    HW132330   2.212   5.746   0.738  0.5429  0.8551 -0.3747
  612SOL    HW232331   2.328   5.756   0.834  0.4706 -0.6610 -0.0962
  613SOL     OW32332   2.425   2.003  11.963 -0.0374  0.0776  0.0575
  613SOL    HW132333   2.342   2.048  11.975  0.0634 -0.0032  1.2418
  613SOL    HW232334   2.491   2.068  11.990  0.2975  0.1602 -0.9177
  614SOL     OW32335   3.060   2.074   1.148 -0.1527 -0.2307  0.3004
  614SOL    HW132336   3.141   2.121   1.133 -0.5084  0.1684 -0.4153
  614SOL    HW232337   3.005   2.135   1.197 -1.1989  0.7578 -1.9614
  615SOL     OW32338   2.069   6.179   1.151  0.3503 -0.1761 -0.1721
  615SOL    HW132339   2.081   6.095   1.108  0.6574 -0.7079  0.9084
  615SOL    HW232340   2.108   6.167   1.238 -0.1159  0.9000  0.2005
  616SOL     OW32341   2.268   0.212   0.279 -0.3768  0.0936 -0.6592
  616SOL    HW132342   2.230   0.181   0.196 -1.5449 -0.6187  0.1028
  616SOL    HW232343   2.195   0.256   0.323  0.5196  1.4089 -0.4658
  617SOL     OW32344   2.761   5.131   0.304 -0.1556  0.3251  0.4318
  617SOL    HW132345   2.771   5.072   0.379  0.8859  0.4389  0.3968
  617SOL    HW232346   2.797   5.083   0.230  0.3661  0.8471  0.3346
  618SOL     OW32347   1.283   3.905  12.290  0.0844 -0.6846  0.3641
  618SOL    HW132348   1.224   3.969  12.329  0.0018  1.0202 -2.3402
  618SOL    HW232349   1.364   3.913  12.341  0.3017  2.0837 -0.2789
  619SOL     OW32350   5.329   6.049  11.267 -0.3070  0.1423  0.0602
  619SOL    HW132351   5.382   6.058  11.347 -1.5256  1.3867  0.7670
  619SOL    HW232352   5.280   6.131  11.262 -1.7294 -0.7394 -0.8864
  620SOL     OW32353   3.018   0.212   1.009  0.2636 -0.1282 -0.1853
  620SOL    HW132354   2.991   0.270   1.079  3.3809  0.9325  0.2647
  620SOL    HW232355   3.049   0.133   1.053  0.7784 -0.0800 -0.4459
  621SOL     OW32356   0.000   5.766  11.354 -0.0212  0.2982  0.5714
  621SOL    HW132357   0.089   5.741  11.380  0.5761  0.1694 -1.4611
  621SOL    HW232358   0.009   5.853  11.316 -0.8397  0.4261  0.6552
  622SOL     OW32359   4.533   3.291   0.219 -0.7003 -0.0685 -0.5384
  622SOL    HW132360   4.457   3.322   0.269 -0.7460 -1.4097  0.2586
  622SOL    HW232361   4.602   3.280   0.283 -0.4937 -0.9601 -0.8903
  623SOL     OW32362   4.643   3.746   1.377 -0.2977  0.3648 -0.4587
  623SOL    HW132363   4.728   3.757   1.335 -0.1862 -0.0178 -0.3367
  623SOL    HW232364   4.594   3.689   1.318  0.0030 -0.5082  0.1270
  624SOL     OW32365   2.748   5.695   0.930  0.4572 -0.1885  0.5127
  624SOL    HW132366   2.780   5.608   0.952  1.0219 -0.0016  0.4290
  624SOL    HW232367   2.723   5.689   0.838 -1.5928 -0.8758  1.0525
  625SOL     OW32368   1.617   2.919   1.174  0.5455  0.2302  0.5106
  625SOL    HW132369   1.524   2.938   1.159  0.9076  1.4254 -0.3636
  625SOL    HW232370   1.644   2.981   1.242  1.0803  0.9864 -0.3796
  626SOL     OW32371   4.720   4.575  11.678 -0.2334 -0.4677  0.2389
  626SOL    HW132372   4.688   4.537  11.596 -3.8513  1.7473  0.3922
  626SOL    HW232373   4.671   4.530  11.746  0.2983 -0.0354  0.9228
  627SOL     OW32374   1.395   2.086   0.872 -0.2017  0.2901  0.7810
  627SOL    HW132375   1.356   2.000   0.883 -2.6862  1.1057 -0.7507
  627SOL    HW232376   1.377   2.132   0.953 -0.1921 -0.1459  1.0295
  628SOL     OW32377   0.836   1.696   0.679 -0.4942 -0.0579  0.4029
  628SOL    HW132378   0.908   1.637   0.658  0.2766  0.8616  0.3677
  628SOL    HW232379   0.876   1.763   0.734 -0.9725  1.2768 -0.8152
  629SOL     OW32380   4.113   5.106  11.961 -0.4709 -0.1460 -0.1277
  629SOL    HW132381   4.118   5.118  12.055  0.2819 -2.4589  0.2023
  629SOL    HW232382   4.171   5.173  11.925 -0.1165  0.2283  1.1115
  630SOL     OW32383   4.747   4.933  12.526 -0.0390 -0.3156  0.2000
  630SOL    HW132384   4.818   4.938  12.590 -0.3569 -1.8750  0.7329
  630SOL    HW232385   4.682   4.996  12.558 -0.0081 -0.7614  1.2088
  631SOL     OW32386   5.822   2.535  12.095 -0.0936  0.2144 -0.1210
  631SOL    HW132387   5.874   2.612  12.118 -1.9840  1.0961  1.5804
  631SOL    HW232388   5.815   2.486  12.177 -1.7483  0.0292 -0.3419
  632SOL     OW32389   5.538   2.512   1.475 -0.5054 -0.1833  0.6139
  632SOL    HW132390   5.458   2.549   1.439 -0.3022  0.9351  1.2550
  632SOL    HW232391   5.541   2.423   1.440 -1.5756  0.0374 -0.1063
  633SOL     OW32392   3.030   4.619   1.807  0.3829  0.1202 -0.8503
  633SOL    HW132393   3.122   4.614   1.780  0.2680 -0.6070 -1.1264
  633SOL    HW232394   3.023   4.703   1.853  1.4285 -0.2845  0.0776
  634SOL     OW32395   5.189   5.261   1.439  0.6316 -0.0762 -0.2042
  634SOL    HW132396   5.154   5.350   1.445 -1.2139 -0.8585  1.8510
  634SOL    HW232397   5.235   5.260   1.355 -1.1664  2.1561 -1.3456
  635SOL     OW32398   5.667   5.744   1.578 -0.3864 -0.2389 -0.1074
  635SOL    HW132399   5.652   5.714   1.668  1.3526  0.7619  0.5698
  635SOL    HW232400   5.590   5.713   1.530 -1.3857 -0.7847  1.7134
  636SOL     OW32401   5.350   2.727   1.686 -0.4264 -0.3709 -0.3691
  636SOL    HW132402   5.369   2.791   1.755  1.8557  0.6268 -1.8213
  636SOL    HW232403   5.381   2.644   1.721  0.0536 -0.0093  0.0907
  637SOL     OW32404   4.579   3.840  12.343  0.0732 -0.3423 -0.1046
  637SOL    HW132405   4.539   3.921  12.313  0.9639  0.0133 -0.3579
  637SOL    HW232406   4.605   3.857  12.433 -0.0185 -0.4474 -0.0576
  638SOL     OW32407   5.918   4.074   0.999 -0.2644 -0.3082  0.0137
  638SOL    HW132408   5.929   4.155   0.949 -1.9360 -0.9732 -1.5160
  638SOL    HW232409   5.975   4.011   0.957  0.6978 -0.0905  0.9338
  639SOL     OW32410   1.006   3.412  12.715 -0.0485 -0.1713 -0.3531
  639SOL    HW132411   1.079   3.380  12.662  0.2063  0.7700 -0.5975
  639SOL    HW232412   0.929   3.366  12.681  0.3643 -0.8768 -0.3574
  640SOL     OW32413   0.398   5.223  11.300 -0.8875  0.8174  0.2596
  640SOL    HW132414   0.333   5.155  11.314 -1.0969  1.1539  0.9375
  640SOL    HW232415   0.464   5.182  11.244 -1.3503  0.2770  0.1068
  641SOL     OW32416   1.379   3.742   0.026 -0.0073 -0.1167 -0.9059
  641SOL    HW132417   1.402   3.735  -0.067 -1.8064  1.2669 -1.5138
  641SOL    HW232418   1.404   3.831   0.050 -1.9714  0.4537 -0.8265
  642SOL     OW32419   2.856   3.183  11.582 -0.1481 -0.2989  0.1280
  642SOL    HW132420   2.893   3.227  11.506 -1.8357  1.1759  0.0901
  642SOL    HW232421   2.812   3.106  11.546  1.6446 -1.3238  0.0268
  643SOL     OW32422   2.627   2.701   1.313 -0.4086 -1.0563  0.0819
  643SOL    HW132423   2.623   2.720   1.407 -0.2326 -1.2441  0.1272
  643SOL    HW232424   2.578   2.773   1.273  2.5843  1.1707  0.0515
  644SOL     OW32425   0.772   0.679   1.058 -0.5533 -0.4219  0.4891
  644SOL    HW132426   0.860   0.658   1.028  0.4620  2.7398  0.8749
  644SOL    HW232427   0.742   0.747   0.999 -2.6043 -1.1349  0.6367
  645SOL     OW32428   0.494   1.769  12.028  0.0700 -0.1804 -0.4709
  645SOL    HW132429   0.509   1.769  12.122 -0.3419 -3.2463 -0.3032
  645SOL    HW232430   0.578   1.794  11.990  0.3649  0.6507  0.6757
  646SOL     OW32431   4.050   5.881   1.068  0.2002  0.5547 -0.5424
  646SOL    HW132432   4.136   5.847   1.091 -0.9052 -1.2750  1.1110
  646SOL    HW232433   4.044   5.964   1.114 -0.1884 -0.9209  2.2478
  647SOL     OW32434   4.842   2.502  12.334  0.3296  0.5033 -0.2807
  647SOL    HW132435   4.918   2.492  12.276  0.7456  2.9494 -0.2576
  647SOL    HW232436   4.873   2.558  12.405 -0.8362 -0.5095  1.0876
  648SOL     OW32437   6.107   4.428  11.200  0.5290  0.0540 -0.3264
  648SOL    HW132438   6.081   4.388  11.283  1.2569 -4.1666 -1.9289
  648SOL    HW232439   6.202   4.415  11.195  0.5301  0.4347 -1.7526
  649SOL     OW32440   4.966   3.311   0.259 -0.5875  0.2429  0.1827
  649SOL    HW132441   5.052   3.342   0.228  0.1435 -1.4673  0.4298
  649SOL    HW232442   4.906   3.333   0.188 -0.1386  2.2395  0.3607
  650SOL     OW32443   6.328   4.993   0.939 -0.1962 -0.2379 -0.4384
  650SOL    HW132444   6.407   4.978   0.991 -0.1863  1.1207 -0.0300
  650SOL    HW232445   6.341   5.079   0.899 -1.4303 -0.0322 -0.4449
  651SOL     OW32446   0.972   5.115   1.403 -0.6096  0.7911  0.1458
  651SOL    HW132447   0.973   5.154   1.315  1.8730  0.9107  0.1513
  651SOL    HW232448   1.014   5.180   1.458  2.1498 -1.1157  0.4782
  652SOL     OW32449   0.209   3.682  12.259  0.5915  0.2263 -0.0517
  652SOL    HW132450   0.270   3.662  12.330  0.1864  2.5731  1.0496
  652SOL    HW232451   0.246   3.637  12.183  1.0876 -2.2928  1.5667
  653SOL     OW32452   0.562   3.664   0.397  0.0916 -0.2511 -0.1561
  653SOL    HW132453   0.581   3.723   0.324  0.3476  0.2598  0.3169
  653SOL    HW232454   0.491   3.609   0.365 -1.5617  1.6318  0.0670
  654SOL     OW32455   1.182   0.012  12.727 -0.1579 -0.7462  0.1241
  654SOL    HW132456   1.227   0.089  12.693  0.5899 -1.2468 -0.0268
  654SOL    HW232457   1.104   0.004  12.672  1.4196 -2.0262 -2.1092
  655SOL     OW32458   3.489   2.527   1.214 -0.3518  0.2007 -0.1783
  655SOL    HW132459   3.397   2.499   1.208  0.0070 -1.1931  0.3737
  655SOL    HW232460   3.510   2.559   1.126 -1.5167  1.0689 -0.1648
  656SOL     OW32461   1.422   1.960   0.572 -0.2793 -0.2278 -0.4958
  656SOL    HW132462   1.473   1.892   0.617  0.0650  0.5692  0.3497
  656SOL    HW232463   1.455   1.959   0.482  3.0759  1.9184  0.5486
  657SOL     OW32464   2.774   4.922   0.488 -0.3700 -0.4463 -0.1274
  657SOL    HW132465   2.754   4.962   0.573  1.0770  1.8699 -0.7646
  657SOL    HW232466   2.693   4.878   0.462 -1.4125  0.3232  1.6223
  658SOL     OW32467   5.334   2.035   1.256 -0.0480 -0.4552  0.5435
  658SOL    HW132468   5.418   1.989   1.262  0.2961  0.0516 -0.1900
  658SOL    HW232469   5.354   2.125   1.279 -0.0297  0.0388 -1.2548
  659SOL     OW32470   3.553   0.887   0.156  0.2514 -0.5539  0.6702
  659SOL    HW132471   3.610   0.860   0.229  0.3900 -3.6089 -0.4193
  659SOL    HW232472   3.477   0.828   0.162 -0.9091  0.7726 -0.2626
  660SOL     OW32473   3.862   3.893  11.247  0.1970 -0.2217  0.6682
  660SOL    HW132474   3.828   3.940  11.322 -1.2938 -0.5925  0.2540
  660SOL    HW232475   3.953   3.923  11.239  0.3003  0.0248  2.4192
  661SOL     OW32476   4.739   6.121   1.291 -0.1005  0.1504 -0.1642
  661SOL    HW132477   4.770   6.176   1.220 -0.5231 -0.8905 -1.1775
  661SOL    HW232478   4.810   6.059   1.307 -0.9896 -1.2935 -1.4960
  662SOL     OW32479   0.123   0.743  12.210  0.1758 -0.1652 -0.7925
  662SOL    HW132480   0.028   0.757  12.211  0.0790 -0.6946 -1.8237
  662SOL    HW232481   0.154   0.786  12.290 -0.7482  1.2560 -1.1529
  663SOL     OW32482   2.394   0.615  12.542  0.3607 -0.6788 -0.0057
  663SOL    HW132483   2.356   0.679  12.482  0.8867  0.2043  0.6020
  663SOL    HW232484   2.397   0.659  12.626 -1.2976 -2.2459  0.9471
  664SOL     OW32485   2.611   6.305   0.260  0.1611  0.0576 -0.0103
  664SOL    HW132486   2.701   6.316   0.290 -0.0309  0.7771  0.3371
  664SOL    HW232487   2.563   6.281   0.339  0.1894 -1.1661 -0.3591
  665SOL     OW32488   2.384   6.082   0.180 -0.3397 -0.5820 -0.1372
  665SOL    HW132489   2.445   6.014   0.152  0.1689 -0.0697 -0.2983
  665SOL    HW232490   2.357   6.056   0.268 -0.1011 -0.9573 -0.1760
  666SOL     OW32491   5.868   1.090   0.946  0.1467 -0.4048  0.5027
  666SOL    HW132492   5.844   1.126   0.860 -0.6125 -1.8640  0.0577
  666SOL    HW232493   5.959   1.064   0.935 -0.3546 -1.9320 -0.3958
  667SOL     OW32494   6.440   6.223  11.763 -0.2600  0.1492 -0.0574
  667SOL    HW132495   6.478   6.140  11.792  0.1535  0.3233 -0.0973
  667SOL    HW232496   6.510   6.264  11.712 -0.8113  0.0724 -0.8819
  668SOL     OW32497   2.530   3.927   1.130  0.9836 -0.1337  0.3904
  668SOL    HW132498   2.445   3.967   1.147  1.2619  0.1496  1.1798
  668SOL    HW232499   2.528   3.906   1.037 -0.8231 -2.2597  0.8341
  669SOL     OW32500   4.985   0.975  11.812 -0.6765  0.1587 -0.5733
  669SOL    HW132501   4.975   1.020  11.896 -1.5831 -0.1143 -0.5167
  669SOL    HW232502   5.073   0.939  11.814 -0.3830  0.8838 -0.0985
  670SOL     OW32503   6.305   1.276   1.042  0.1106  0.2447  0.0545
  670SOL    HW132504   6.277   1.321   0.962  2.6901 -0.6785 -1.5240
  670SOL    HW232505   6.346   1.344   1.095 -1.4433  0.8291  0.5618
  671SOL     OW32506   6.112   1.764  12.089 -0.4378 -0.7799  0.2785
  671SOL    HW132507   6.132   1.845  12.042  1.1229 -0.7922  0.8747
  671SOL    HW232508   6.054   1.791  12.161  2.1786  0.3452  2.1138
  672SOL     OW32509   3.525   3.368   0.927  0.4067 -0.2448 -0.4061
  672SOL    HW132510   3.469   3.418   0.985 -2.0432 -2.0260 -1.0988
  672SOL    HW232511   3.613   3.380   0.963 -0.6841  0.6588  2.2066
  673SOL     OW32512   3.793   0.904   0.955 -0.1698 -0.1977 -0.0032
  673SOL    HW132513   3.842   0.823   0.942  0.8647  0.2141  1.1424
  673SOL    HW232514   3.745   0.891   1.036 -0.0984  0.2804  0.1209
  674SOL     OW32515   0.131   2.235   0.173 -0.3805 -0.2423 -0.0259
  674SOL    HW132516   0.117   2.237   0.268 -1.6790  3.3213 -0.1303
  674SOL    HW232517   0.197   2.303   0.158  1.8663 -2.5632 -1.5715
  675SOL     OW32518   0.200   4.397  11.750 -0.0360 -0.2264 -0.2954
  675SOL    HW132519   0.246   4.314  11.734 -1.5106 -1.7835  2.6208
  675SOL    HW232520   0.254   4.441  11.816 -0.1820  0.3221 -0.5358
  676SOL     OW32521   5.950   5.823  11.270  0.1189  0.3881 -0.1107
  676SOL    HW132522   6.010   5.789  11.204  1.7964  0.1154  1.5055
  676SOL    HW232523   5.878   5.759  11.272  1.5593 -1.2777  0.4673
  677SOL     OW32524   0.600   0.796   0.215 -0.1962 -0.2676  0.3611
  677SOL    HW132525   0.627   0.844   0.136  1.2891 -1.4997  0.0668
  677SOL    HW232526   0.592   0.864   0.282  0.7278  0.5529 -0.3187
  678SOL     OW32527   4.369   6.225  12.777  0.6435  0.4507  0.4758
  678SOL    HW132528   4.422   6.272  12.713  0.6617 -0.4291 -0.1641
  678SOL    HW232529   4.431   6.166  12.820  0.3276 -0.0716  0.2216
  679SOL     OW32530   1.929   5.873   0.450 -0.0268 -0.3418 -0.4252
  679SOL    HW132531   1.927   5.967   0.471 -0.3322 -0.4947  0.2621
  679SOL    HW232532   1.987   5.867   0.374  0.5278  0.3282 -0.0734
  680SOL     OW32533   2.974   0.748   1.315  0.0369 -0.1993  0.0242
  680SOL    HW132534   2.927   0.711   1.240 -0.3364 -0.3366  0.3248
  680SOL    HW232535   2.979   0.676   1.379 -2.1460  0.6879  1.2937
  681SOL     OW32536   5.099   4.315   0.161 -0.2856 -0.6290 -0.4157
  681SOL    HW132537   5.048   4.332   0.240  0.2912 -2.2469  0.3452
  681SOL    HW232538   5.182   4.361   0.176 -0.3580 -0.5389 -0.2897
  682SOL     OW32539   5.214   6.343  11.384 -0.4798  0.0401  0.3075
  682SOL    HW132540   5.266   6.381  11.313  0.7917 -0.6237  0.8483
  682SOL    HW232541   5.188   6.418  11.438  2.3354  0.2213  1.5999
  683SOL     OW32542   1.038   6.208   1.585 -0.2080 -0.0041 -0.5643
  683SOL    HW132543   1.130   6.201   1.613 -0.3685  0.8489  0.2177
  683SOL    HW232544   1.026   6.133   1.526  0.8465 -0.4197 -0.2880
  684SOL     OW32545   4.331   4.788  12.263 -0.0682 -0.8469  0.6046
  684SOL    HW132546   4.315   4.817  12.353 -0.5902  2.1018 -0.3411
  684SOL    HW232547   4.246   4.792  12.220  0.5154 -0.0952 -0.5398
  685SOL     OW32548   5.432   5.639   1.460  0.2577 -0.4798  0.0374
  685SOL    HW132549   5.363   5.702   1.440  0.7283 -0.1593 -0.6006
  685SOL    HW232550   5.385   5.564   1.497 -0.4085 -0.1783 -0.1690
  686SOL     OW32551   0.304   4.409  12.446 -0.3178 -0.1670  0.6602
  686SOL    HW132552   0.267   4.491  12.413  2.7284  1.2409  0.3722
  686SOL    HW232553   0.228   4.358  12.475 -2.4152  2.2838 -0.1319
  687SOL     OW32554   1.083   3.132   0.111 -0.1408 -0.1391  0.4884
  687SOL    HW132555   0.992   3.124   0.140  0.1827 -0.2185  1.4871
  687SOL    HW232556   1.128   3.176   0.183  0.6182 -0.1026 -0.0003
  688SOL     OW32557   0.634   4.742  12.186  0.6044  0.1264  0.8118
  688SOL    HW132558   0.552   4.767  12.229  0.4766  3.6629 -1.0543
  688SOL    HW232559   0.609   4.674  12.124 -1.0668  1.3226  0.0914
  689SOL     OW32560   4.640   5.581  11.382 -0.2900 -0.2799  0.1874
  689SOL    HW132561   4.595   5.513  11.433 -0.1194  0.0465  0.7810
  689SOL    HW232562   4.570   5.632  11.343 -0.4877  0.7323  1.7678
  690SOL     OW32563   2.548   1.860  11.771  0.0323  0.0333 -0.5444
  690SOL    HW132564   2.607   1.930  11.744 -0.7968  0.7526 -0.5075
  690SOL    HW232565   2.493   1.899  11.839 -0.7724 -0.4956 -0.8755
  691SOL     OW32566   2.082   1.330   1.207  0.0424  0.2089 -0.1122
  691SOL    HW132567   2.089   1.407   1.149 -0.3500 -1.0285 -1.8914
  691SOL    HW232568   1.990   1.330   1.235 -0.3809 -0.4727 -1.4208
  692SOL     OW32569   4.708   1.443  12.064  0.7135 -0.0903 -0.5731
  692SOL    HW132570   4.720   1.538  12.065 -1.6455  0.2935  1.1994
  692SOL    HW232571   4.700   1.421  11.971 -0.6089  1.7971 -0.9831
  693SOL     OW32572   4.516   5.871   1.796 -0.0424  0.8135  0.8757
  693SOL    HW132573   4.538   5.898   1.885 -1.7550  3.0544  0.7105
  693SOL    HW232574   4.460   5.941   1.762  1.6373  0.7377 -2.4698
  694SOL     OW32575   3.968   5.593  11.833  0.4109 -0.4821  0.0799
  694SOL    HW132576   3.975   5.571  11.740 -0.1553  0.6197 -0.2427
  694SOL    HW232577   4.043   5.649  11.850 -0.4804  0.8407 -0.1963
  695SOL     OW32578   5.960   0.121  11.997 -0.0321  0.1322  0.3012
  695SOL    HW132579   5.884   0.169  12.030 -0.2702  1.0923 -1.5629
  695SOL    HW232580   5.938   0.029  12.010 -2.2510  0.3156 -1.6302
  696SOL     OW32581   0.496   3.647  11.589 -0.6032 -0.2627  0.1872
  696SOL    HW132582   0.501   3.710  11.517 -1.7435  0.5648  0.8049
  696SOL    HW232583   0.403   3.642  11.611 -0.1442  0.6254  2.5635
  697SOL     OW32584   4.645   4.025   1.422  0.0841  0.4890 -1.0618
  697SOL    HW132585   4.563   4.033   1.373  1.1257  0.4869 -2.9030
  697SOL    HW232586   4.656   3.931   1.436 -0.4652  0.5220 -0.3366
  698SOL     OW32587   2.087   0.260   1.004 -0.1977  0.1736 -0.3185
  698SOL    HW132588   2.066   0.167   1.005  1.4863 -0.2465 -1.2545
  698SOL    HW232589   2.121   0.277   0.916 -0.5720  1.7121 -0.2106
  699SOL     OW32590   2.591   0.438  12.423 -0.2261 -0.1627 -0.0270
  699SOL    HW132591   2.643   0.487  12.358  1.1328  0.8649  1.7339
  699SOL    HW232592   2.530   0.503  12.459 -1.3895 -0.8748 -0.6692
  700SOL     OW32593   2.137   2.672   0.519  0.0101 -0.0978  0.0732
  700SOL    HW132594   2.090   2.741   0.472  1.6678  0.0070 -1.5269
  700SOL    HW232595   2.119   2.690   0.612  1.0669  3.0348 -0.2192
  701SOL     OW32596   2.073   5.169  12.071 -0.5697 -0.5007  0.7939
  701SOL    HW132597   2.027   5.230  12.127 -2.5001 -2.0303  0.9698
  701SOL    HW232598   2.008   5.102  12.049  0.8124 -1.2902 -1.2266
  702SOL     OW32599   5.621   4.787  11.250 -0.0946  0.2270  0.5639
  702SOL    HW132600   5.681   4.713  11.239 -0.6357 -0.3285  1.1716
  702SOL    HW232601   5.671   4.852  11.298  0.5532  0.4768 -0.4273
  703SOL     OW32602   3.260   0.974   0.592  0.3522  0.4943 -0.1911
  703SOL    HW132603   3.253   0.899   0.651  2.6977 -1.1909 -1.9021
  703SOL    HW232604   3.173   1.016   0.597 -0.3506 -0.9995  2.4503
  704SOL     OW32605   5.029   3.298   0.792  0.1805 -0.1051  0.2833
  704SOL    HW132606   5.104   3.294   0.733  0.0459 -1.5877  0.1626
  704SOL    HW232607   4.991   3.210   0.788 -1.6759  0.6466  0.1863
  705SOL     OW32608   5.947   4.998  12.406  0.1885 -0.0313  0.0118
  705SOL    HW132609   5.855   4.985  12.384  0.3844 -1.4205 -0.0800
  705SOL    HW232610   5.950   4.991  12.502  0.5246 -2.6417 -0.1187
  706SOL     OW32611   2.125   1.783   1.166  0.8276  0.3490  0.3183
  706SOL    HW132612   2.204   1.757   1.214  0.9663 -1.1040 -0.6378
  706SOL    HW232613   2.145   1.763   1.075 -0.8994 -0.7392  0.1436
  707SOL     OW32614   4.191   1.821   1.492 -0.2562 -0.5082 -0.1900
  707SOL    HW132615   4.238   1.803   1.410  0.8913 -0.2517  0.3857
  707SOL    HW232616   4.199   1.916   1.504 -1.2201 -0.4173 -0.2520
  708SOL     OW32617   3.304   4.486  11.338 -0.2711 -0.0062  0.1013
  708SOL    HW132618   3.384   4.482  11.285 -0.2124 -0.4914  0.2194
  708SOL    HW232619   3.329   4.533  11.417 -0.3994  0.8695 -0.3662
  709SOL     OW32620   4.831   6.223  12.844  0.2659  0.2079 -0.0919
  709SOL    HW132621   4.859   6.273  12.920  1.4595 -1.5204  0.6756
  709SOL    HW232622   4.745   6.187  12.868  0.1175  0.5949 -0.0369
  710SOL     OW32623   2.814   2.202   1.275 -0.1192  0.1200 -0.3137
  710SOL    HW132624   2.787   2.294   1.269  0.5298  0.6043  2.8242
  710SOL    HW232625   2.768   2.159   1.203 -3.5817  2.1908  0.4436
  711SOL     OW32626   0.873   3.841  12.208 -0.1077  0.4041 -0.3456
  711SOL    HW132627   0.922   3.760  12.194  0.2885  0.5645  0.0976
  711SOL    HW232628   0.860   3.845  12.302 -1.8199 -0.1230 -0.5372
  712SOL     OW32629   6.447   5.207   1.665 -0.3735 -0.2029  0.1721
  712SOL    HW132630   6.471   5.231   1.576 -2.3157 -0.5781 -0.4990
  712SOL    HW232631   6.488   5.122   1.679  0.2630  0.0299 -0.1961
  713SOL     OW32632   0.952   2.670  12.798 -0.4009 -0.1124 -0.4809
  713SOL    HW132633   1.016   2.705  12.736  1.1887 -1.1352  0.5071
  713SOL    HW232634   1.004   2.641  12.872 -2.1483  0.0441  0.8754
  714SOL     OW32635   2.308   5.306  12.227  0.2007  0.1969 -0.2649
  714SOL    HW132636   2.310   5.342  12.138 -0.1188 -0.9013 -0.7316
  714SOL    HW232637   2.216   5.282  12.241  0.6040 -1.5837 -0.4654
  715SOL     OW32638   6.073   0.356   1.612 -0.3397 -0.0228  0.9070
  715SOL    HW132639   6.003   0.300   1.646  1.2141 -1.7142  1.5115
  715SOL    HW232640   6.080   0.332   1.519 -0.1167 -0.3498  1.0076
  716SOL     OW32641   2.943   5.979   0.849 -0.3368 -0.1761 -0.4114
  716SOL    HW132642   2.896   6.050   0.892  1.0437  0.7796 -0.3938
  716SOL    HW232643   2.948   5.910   0.915  0.3296  0.6369  0.4292
  717SOL     OW32644   4.944   4.503  11.978  0.6456  0.4279  0.2306
  717SOL    HW132645   4.853   4.481  11.958  0.6891 -1.0699  1.4279
  717SOL    HW232646   4.952   4.596  11.959 -1.0103  0.4765 -0.3417
  718SOL     OW32647   4.898   2.650  11.385  0.5068 -0.2845  0.4553
  718SOL    HW132648   4.994   2.657  11.387  0.5672 -1.0568  0.7251
  718SOL    HW232649   4.881   2.569  11.335 -0.0086 -0.0840  0.2995
  719SOL     OW32650   3.540   2.231   1.157 -0.0784  0.0273 -0.6207
  719SOL    HW132651   3.636   2.235   1.154 -0.1333  2.3520 -2.2291
  719SOL    HW232652   3.512   2.322   1.159 -2.3003 -0.5951 -0.0051
  720SOL     OW32653   4.981   6.312  12.615 -0.2397 -0.0015  0.2368
  720SOL    HW132654   4.929   6.304  12.695 -0.5150  0.6073  0.1223
  720SOL    HW232655   5.068   6.339  12.646 -0.6033  1.1810  0.2733
  721SOL     OW32656   0.149   4.117  12.073  0.2568  0.7100 -0.2017
  721SOL    HW132657   0.223   4.076  12.027  1.4712  3.0103 -0.4319
  721SOL    HW232658   0.184   4.200  12.105 -1.7635  1.0506  1.2772
  722SOL     OW32659   0.371   5.376  11.636 -0.8491  0.3020 -0.4081
  722SOL    HW132660   0.344   5.288  11.611  1.9400 -0.5309 -0.7919
  722SOL    HW232661   0.466   5.373  11.635 -0.6493  2.6506  2.0785
  723SOL     OW32662   1.449   1.987   0.310  0.0401 -0.6041 -0.5749
  723SOL    HW132663   1.443   1.920   0.242 -0.5574  0.4237 -1.5700
  723SOL    HW232664   1.382   2.051   0.287  0.6857  0.4168  0.2750
  724SOL     OW32665   5.275   3.665  10.882 -0.2675 -0.0688  0.0290
  724SOL    HW132666   5.229   3.633  10.805 -0.4049 -0.3110  0.2130
  724SOL    HW232667   5.284   3.759  10.867 -0.9806  0.0104  0.0741
  725SOL     OW32668   0.647   6.348   0.158 -0.1181  0.0515  0.4730
  725SOL    HW132669   0.561   6.306   0.152 -0.1139  0.2050 -2.8863
  725SOL    HW232670   0.631   6.438   0.131  1.1074 -0.0127 -0.5607
  726SOL     OW32671   6.401   2.862  12.026  0.1027  0.5620 -0.1449
  726SOL    HW132672   6.366   2.932  12.080  0.8561  0.5020  0.4529
  726SOL    HW232673   6.482   2.898  11.989  1.5907 -0.5973  1.7729
  727SOL     OW32674   0.563   4.169  11.343  0.8033 -0.2764 -0.4226
  727SOL    HW132675   0.485   4.171  11.288  1.3730 -0.1152 -1.2493
  727SOL    HW232676   0.613   4.093  11.311  1.0674 -0.2726 -0.0243
  728SOL     OW32677   5.137   2.381   1.116  0.2736 -0.4054 -0.5275
  728SOL    HW132678   5.085   2.382   1.196  0.5718  0.4555 -0.3303
  728SOL    HW232679   5.076   2.352   1.048 -0.5035  0.6509 -0.3130
  729SOL     OW32680   0.159   6.301  12.227 -0.1949  0.4579 -0.2065
  729SOL    HW132681   0.072   6.270  12.254 -0.7037  1.8455 -0.1556
  729SOL    HW232682   0.186   6.240  12.159 -0.7691 -0.5922  0.4848
  730SOL     OW32683   2.928   4.377  11.521  0.0848  0.9108  0.2144
  730SOL    HW132684   2.953   4.310  11.584 -0.2598  0.3625 -0.2234
  730SOL    HW232685   2.895   4.449  11.574 -3.2691 -0.7485  0.6298
  731SOL     OW32686   6.162   2.738   0.768 -0.3645 -0.3000 -0.6553
  731SOL    HW132687   6.086   2.725   0.823 -0.3298  1.0412 -0.2665
  731SOL    HW232688   6.133   2.799   0.700 -0.0852 -1.0517 -1.4803
  732SOL     OW32689   3.037   1.352   1.535 -0.5788 -0.4731  0.4333
  732SOL    HW132690   2.951   1.314   1.553 -1.1142  0.5357  0.1066
  732SOL    HW232691   3.022   1.447   1.538  0.1201 -0.2694 -1.3855
  733SOL     OW32692   1.165   0.796  12.676 -0.4747  0.4232 -0.3766
  733SOL    HW132693   1.172   0.715  12.726 -0.6795  1.1098  0.8159
  733SOL    HW232694   1.098   0.779  12.611 -1.2147 -0.0715  0.4910
  734SOL     OW32695   1.653   0.531  12.662  0.0360 -0.6065  0.1211
  734SOL    HW132696   1.735   0.574  12.685  0.2591 -0.8557 -0.2181
  734SOL    HW232697   1.588   0.602  12.666  0.6156  0.0868 -1.8059
  735SOL     OW32698   1.198   5.296   0.273 -0.5588 -0.2159  0.0205
  735SOL    HW132699   1.186   5.384   0.236  1.0448 -0.6154 -1.5755
  735SOL    HW232700   1.292   5.290   0.290 -0.3433 -2.1696 -1.5006
  736SOL     OW32701   0.145   2.521   1.508  0.4642 -0.4317 -0.0421
  736SOL    HW132702   0.218   2.582   1.524 -0.5269  0.2841  2.1590
  736SOL    HW232703   0.068   2.577   1.503 -0.1959 -1.3450 -0.3299
  737SOL     OW32704   2.976   5.376   0.388 -0.4310 -0.6117  0.1518
  737SOL    HW132705   2.934   5.390   0.303 -1.1277 -1.2993  0.3708
  737SOL    HW232706   3.032   5.452   0.400 -2.4993  0.9647  0.3698
  738SOL     OW32707   1.159   5.744   1.450 -0.1841  0.2091  0.4909
  738SOL    HW132708   1.071   5.780   1.437 -0.5172  0.1925  2.4378
  738SOL    HW232709   1.166   5.673   1.387 -1.6043  0.1381  0.3941
  739SOL     OW32710   3.777   5.830   0.293  0.5286  0.3664 -0.7856
  739SOL    HW132711   3.724   5.881   0.232  0.8208  1.0440 -0.4855
  739SOL    HW232712   3.718   5.809   0.366  0.3646  0.1356 -0.9843
  740SOL     OW32713   5.775   2.168  11.964 -0.0347  0.5107 -0.1572
  740SOL    HW132714   5.816   2.165  12.050 -2.7242  0.4743  1.2203
  740SOL    HW232715   5.820   2.099  11.914 -1.7138 -3.1331  2.8998
  741SOL     OW32716   0.887   5.034   1.974 -0.2096 -0.3135 -0.4386
  741SOL    HW132717   0.914   5.007   1.886  0.2262  0.2049 -0.4704
  741SOL    HW232718   0.918   5.124   1.982  0.7984 -0.7390  0.6886
  742SOL     OW32719   4.592   1.349  11.765  0.1451  0.0593  0.0099
  742SOL    HW132720   4.672   1.392  11.736 -0.3745  1.7555  0.9559
  742SOL    HW232721   4.524   1.382  11.705 -0.1204 -0.1195  0.2105
  743SOL     OW32722   4.898   3.045   0.826  0.4767 -0.2162 -0.2492
  743SOL    HW132723   4.807   3.076   0.826 -0.2279 -2.1365  0.2325
  743SOL    HW232724   4.911   3.011   0.915  1.5969 -0.1880 -0.3918
  744SOL     OW32725   4.893   0.831  11.596 -0.2189 -0.3056  0.3193
  744SOL    HW132726   4.806   0.868  11.581  0.8444  2.8458  1.2287
  744SOL    HW232727   4.927   0.878  11.671  2.2236 -1.6326  0.1529
  745SOL     OW32728   4.900   6.158  12.371 -0.0577  0.2897 -0.2251
  745SOL    HW132729   4.911   6.209  12.451  1.7293  2.4516 -1.7417
  745SOL    HW232730   4.805   6.149  12.362 -0.3130 -0.5677  2.3924
  746SOL     OW32731   5.994   3.848  11.871  0.3379  0.5023  0.0579
  746SOL    HW132732   6.071   3.858  11.927 -0.3470 -1.7700  1.5441
  746SOL    HW232733   6.020   3.782  11.807  0.1686  0.9962 -0.5279
  747SOL     OW32734   6.200   0.725   0.744  0.3939  0.2996  0.1151
  747SOL    HW132735   6.147   0.793   0.702  0.0179  0.3406  0.6458
  747SOL    HW232736   6.279   0.771   0.773  0.2685  0.4499  0.2206
  748SOL     OW32737   4.335   2.341   0.948 -0.8317  0.0078 -0.1887
  748SOL    HW132738   4.415   2.306   0.908 -1.1821 -0.3454 -0.5976
  748SOL    HW232739   4.349   2.435   0.952  0.3942 -0.2167  1.5371
  749SOL     OW32740   4.680   1.102  12.161 -0.8580 -0.1319  0.0162
  749SOL    HW132741   4.615   1.066  12.099  1.4340 -1.8681 -1.5384
  749SOL    HW232742   4.704   1.028  12.217  0.5507  0.1651 -0.1610
  750SOL     OW32743   2.196   5.285  12.533 -0.0788 -0.7516 -0.2215
  750SOL    HW132744   2.283   5.323  12.539 -0.4847  0.0906  0.4909
  750SOL    HW232745   2.210   5.201  12.490  0.7078  0.5594 -2.6765
  751SOL     OW32746   2.014   1.540  12.228  0.2621  0.0831 -0.0893
  751SOL    HW132747   1.973   1.536  12.141 -1.0477 -1.6404  0.5319
  751SOL    HW232748   1.943   1.565  12.286  1.0333  0.7985  0.5638
  752SOL     OW32749   4.381   2.693   1.238 -0.2563  0.2584 -0.8138
  752SOL    HW132750   4.390   2.696   1.143  2.2399  1.9241 -0.6384
  752SOL    HW232751   4.295   2.731   1.256 -1.0078 -0.6136 -2.3842
  753SOL     OW32752   3.445   2.368  12.299 -0.2975  0.6394  0.1517
  753SOL    HW132753   3.419   2.404  12.214 -2.7046  0.9572  0.9680
  753SOL    HW232754   3.433   2.440  12.360 -1.0167 -0.2996  1.1409
  754SOL     OW32755   5.569   2.421  11.528 -0.3984  0.2038  0.8179
  754SOL    HW132756   5.537   2.333  11.508  0.5692  0.1995 -0.8819
  754SOL    HW232757   5.508   2.479  11.484  0.5332  0.2664 -0.4419
  755SOL     OW32758   1.324   3.603  12.562  0.0782 -0.6273  0.7950
  755SOL    HW132759   1.291   3.603  12.472  3.2854  0.4902 -0.5240
  755SOL    HW232760   1.311   3.514  12.593  0.1092 -1.4112 -1.2884
  756SOL     OW32761   6.430   5.028  11.510 -0.2620 -0.1435 -0.7133
  756SOL    HW132762   6.363   5.080  11.553  0.1934 -0.2101  0.1046
  756SOL    HW232763   6.412   4.938  11.538  0.6996 -0.0591  0.2900
  757SOL     OW32764   5.438   3.325  12.076 -0.1904 -0.1488  0.6293
  757SOL    HW132765   5.489   3.323  12.157  2.1597 -2.0782 -0.7572
  757SOL    HW232766   5.429   3.418  12.056  0.8306  0.3117  2.1176
  758SOL     OW32767   4.183   3.902  12.013 -0.9353 -0.4483 -0.7004
  758SOL    HW132768   4.103   3.875  11.969 -1.6490 -0.8413  0.7476
  758SOL    HW232769   4.214   3.822  12.056  0.4068 -0.3651 -1.4709
  759SOL     OW32770   0.021   4.550  12.543 -0.1592  0.9290 -0.6553
  759SOL    HW132771  -0.069   4.521  12.527 -0.2174  0.3345  0.5921
  759SOL    HW232772   0.064   4.543  12.457 -1.3891  1.6126 -1.3566
  760SOL     OW32773   3.326   6.210   1.109 -0.0488  0.6273 -0.5951
  760SOL    HW132774   3.321   6.115   1.118  0.2201  0.4917 -1.7553
  760SOL    HW232775   3.304   6.243   1.196  0.0004 -0.4952 -0.1375
  761SOL     OW32776   5.741   5.385  11.256  0.8747  0.2642  0.1221
  761SOL    HW132777   5.728   5.480  11.262 -2.4461 -0.1145  1.0306
  761SOL    HW232778   5.662   5.353  11.212  1.4695 -2.1414  0.6667
  762SOL     OW32779   4.904   1.129  12.015 -0.4656 -0.1742 -0.0686
  762SOL    HW132780   4.818   1.122  12.056 -0.3908 -0.4651  0.0410
  762SOL    HW232781   4.948   1.200  12.062 -0.9789  0.6094 -0.7306
  763SOL     OW32782   5.953   2.963  11.589 -0.2741  0.1579  0.0857
  763SOL    HW132783   6.031   2.974  11.645 -0.4978 -1.6861  0.8189
  763SOL    HW232784   5.883   3.005  11.639 -0.0756  0.3738  0.1907
  764SOL     OW32785   3.142   5.200  11.529 -0.2033 -0.5229 -0.3292
  764SOL    HW132786   3.082   5.139  11.486 -0.9547  0.3643 -0.5711
  764SOL    HW232787   3.097   5.227  11.608 -0.3770  0.5751 -0.7925
  765SOL     OW32788   0.175   0.903  12.446  0.2096  0.2613 -0.1100
  765SOL    HW132789   0.264   0.937  12.449  0.9091 -1.1577 -2.1075
  765SOL    HW232790   0.155   0.881  12.537  1.4348  1.6594  0.5449
  766SOL     OW32791   0.287   1.809   0.085 -0.1446  0.0053 -0.1957
  766SOL    HW132792   0.227   1.879   0.059  0.0448 -0.0282 -0.7140
  766SOL    HW232793   0.351   1.853   0.141 -0.9290 -0.0488  0.7758
  767SOL     OW32794   4.114   6.324  11.413 -0.0810  0.3179 -0.1968
  767SOL    HW132795   4.110   6.409  11.459  0.3865 -0.4315  1.3072
  767SOL    HW232796   4.025   6.309  11.383 -0.2139  1.2515 -0.3174
  768SOL     OW32797   0.004   5.126  12.237 -0.7303  0.2888  0.3177
  768SOL    HW132798   0.008   5.061  12.167 -0.3864 -0.9861  1.4708
  768SOL    HW232799  -0.083   5.165  12.228 -0.5465  0.4376 -1.0477
  769SOL     OW32800   1.303   2.709   0.608 -0.2229 -0.2193 -0.0316
  769SOL    HW132801   1.370   2.749   0.664  0.6651 -0.0245 -1.1800
  769SOL    HW232802   1.353   2.658   0.544 -1.1945 -0.3389 -0.7209
  770SOL     OW32803   0.916   5.166  11.594 -0.1471  0.6339 -0.5828
  770SOL    HW132804   0.900   5.155  11.500 -1.1346  1.1763 -0.4881
  770SOL    HW232805   0.973   5.092  11.617  0.4431  0.7195 -1.6792
  771SOL     OW32806   6.314   5.698   0.585  0.5530  0.0263  0.1059
  771SOL    HW132807   6.291   5.638   0.514 -0.6363  0.4166  0.1366
  771SOL    HW232808   6.392   5.659   0.625  0.8865 -0.5146 -1.0302
  772SOL     OW32809   2.518   4.519   1.550 -0.8099 -0.4624  0.6193
  772SOL    HW132810   2.561   4.593   1.594  1.3367 -2.2507  1.7351
  772SOL    HW232811   2.426   4.546   1.543 -0.1986  2.1221  1.3360
  773SOL     OW32812   0.377   3.992  11.971 -0.2203 -0.3473  0.2664
  773SOL    HW132813   0.449   3.965  12.028 -1.0772 -0.2748  1.4244
  773SOL    HW232814   0.357   3.915  11.919  0.4889 -0.4607  0.1585
  774SOL     OW32815   3.788   5.720  12.136  0.1437 -0.0325  0.4497
  774SOL    HW132816   3.785   5.710  12.231  2.2968  0.1302  0.5895
  774SOL    HW232817   3.721   5.661  12.103 -1.1078  0.4187  2.0829
  775SOL     OW32818   2.375   2.363   0.868  0.1066  0.0648  0.8290
  775SOL    HW132819   2.290   2.347   0.826  0.8955  0.8525 -1.1646
  775SOL    HW232820   2.427   2.286   0.846 -0.5669 -1.3914  3.6976
  776SOL     OW32821   1.006   0.876  11.458  0.6403  0.0550 -0.1917
  776SOL    HW132822   0.926   0.908  11.499  1.5628  0.1400  1.6153
  776SOL    HW232823   0.976   0.832  11.378 -1.0325  1.6051 -0.4878
  777SOL     OW32824   6.284   3.990   1.003 -0.1909 -0.5442 -0.0952
  777SOL    HW132825   6.258   4.071   1.047 -0.0378 -1.2382  1.3500
  777SOL    HW232826   6.214   3.928   1.025 -0.2204 -0.8628 -1.0372
  778SOL     OW32827   3.329   2.952   1.179  0.8481  0.1404 -0.0331
  778SOL    HW132828   3.260   2.886   1.165  0.5639  0.5581 -0.6589
  778SOL    HW232829   3.282   3.035   1.186  1.2723  0.3978 -0.2070
  779SOL     OW32830   4.963   1.573   1.122 -0.0251 -0.0826 -0.2476
  779SOL    HW132831   5.037   1.587   1.180  0.1697 -0.3294 -0.4391
  779SOL    HW232832   4.887   1.571   1.180 -0.0217  1.2874 -0.1463
  780SOL     OW32833   0.593   5.813   1.375 -0.3061 -0.6598 -0.2920
  780SOL    HW132834   0.505   5.841   1.399 -0.3942 -1.5239  0.4370
  780SOL    HW232835   0.598   5.722   1.404  1.0533 -0.4309  0.2787
  781SOL     OW32836   6.138   1.073   0.857  0.2909  0.0845 -0.2757
  781SOL    HW132837   6.194   1.150   0.866 -0.7126  0.7756  0.4927
  781SOL    HW232838   6.129   1.059   0.763  3.0912 -1.1137 -0.4446
  782SOL     OW32839   5.941   3.342  11.336 -0.0968 -0.2263  0.0611
  782SOL    HW132840   6.031   3.374  11.343 -0.2537 -0.0294  1.7669
  782SOL    HW232841   5.887   3.421  11.336 -0.3219 -0.3683  0.6767
  783SOL     OW32842   4.329   2.269  12.836 -0.1019 -0.1206 -0.7699
  783SOL    HW132843   4.416   2.235  12.858 -0.7008 -1.4935 -0.4163
  783SOL    HW232844   4.268   2.210  12.881 -1.2089  1.3445 -0.2668
  784SOL     OW32845   4.372   3.848   0.915 -0.7090  0.2844  0.2425
  784SOL    HW132846   4.335   3.779   0.860  0.6811  0.6041 -1.1413
  784SOL    HW232847   4.298   3.907   0.932 -0.9954  0.6495 -2.0347
  785SOL     OW32848   3.448   2.834  12.075 -0.7056 -0.0888 -0.3264
  785SOL    HW132849   3.516   2.899  12.058 -0.9586  0.0247 -0.9116
  785SOL    HW232850   3.443   2.782  11.995 -1.0015 -0.3796 -0.1222
  786SOL     OW32851   2.213   6.317  11.364 -0.1394  0.2754 -0.3036
  786SOL    HW132852   2.191   6.230  11.331  1.6568  0.0182 -0.9071
  786SOL    HW232853   2.217   6.307  11.459  2.6661 -1.0135 -0.4640
  787SOL     OW32854   6.361   3.782   1.432  0.2199 -0.0670  0.8031
  787SOL    HW132855   6.387   3.719   1.365 -1.8773  0.6318 -0.7675
  787SOL    HW232856   6.266   3.787   1.425  0.1832  2.0738  1.9793
  788SOL     OW32857   4.639   0.642  12.040  0.7800  0.8409  0.4707
  788SOL    HW132858   4.695   0.697  11.985  1.1285 -0.5190 -0.6065
  788SOL    HW232859   4.574   0.606  11.979  1.3690 -0.9649  0.8621
  789SOL     OW32860   4.497   3.180  12.005 -0.0386 -0.0124 -0.2285
  789SOL    HW132861   4.490   3.096  12.049  2.0178  0.7463  1.8027
  789SOL    HW232862   4.414   3.192  11.960 -0.7913 -2.6029  0.3457
  790SOL     OW32863   1.350   0.748   0.882  0.0496 -0.7897  0.2779
  790SOL    HW132864   1.363   0.745   0.977  3.3725 -0.3386 -0.0384
  790SOL    HW232865   1.357   0.840   0.859 -1.1989 -0.8417 -0.4046
  791SOL     OW32866   5.338   0.035  11.686 -0.8373 -0.1262  0.2284
  791SOL    HW132867   5.272   0.090  11.644 -1.9034 -0.7114  1.0955
  791SOL    HW232868   5.289  -0.038  11.722  0.3198 -0.6766  0.7396
  792SOL     OW32869   3.566   5.988  12.324  0.2187  0.1805 -0.6411
  792SOL    HW132870   3.554   6.071  12.278 -0.6789  1.4066  1.6782
  792SOL    HW232871   3.641   6.003  12.382  0.2253 -0.7290 -0.3958
  793SOL     OW32872   3.493   2.231  11.780 -0.1475  0.0707 -0.3186
  793SOL    HW132873   3.438   2.295  11.734 -1.8843 -1.2396 -0.1805
  793SOL    HW232874   3.436   2.195  11.848  1.5365  0.0398  1.1503
  794SOL     OW32875   1.838   3.897   0.396 -0.5234  0.3569 -0.6749
  794SOL    HW132876   1.787   3.915   0.476  0.9969  0.1189  0.3975
  794SOL    HW232877   1.819   3.970   0.338  0.8568  2.3570  1.2357
  795SOL     OW32878   2.126   3.551  11.636  0.4451  0.7941 -0.2468
  795SOL    HW132879   2.070   3.576  11.562 -0.4773 -2.4320 -0.7860
  795SOL    HW232880   2.066   3.543  11.710  0.7634  0.6435 -0.0045
  796SOL     OW32881   3.161   0.567  12.698  0.1092 -0.4250  0.1267
  796SOL    HW132882   3.190   0.582  12.608  2.2118 -0.1560  0.7898
  796SOL    HW232883   3.232   0.517  12.738  0.8105  2.1982  2.4905
  797SOL     OW32884   0.306   2.035   0.727 -0.1630  0.2162 -0.2962
  797SOL    HW132885   0.375   2.100   0.741 -0.7177  0.7961 -0.2389
  797SOL    HW232886   0.257   2.033   0.810  0.0803 -0.5578 -0.1599
  798SOL     OW32887   3.578   0.849   1.148  0.5921 -0.1285  0.9132
  798SOL    HW132888   3.497   0.808   1.179  0.6865 -2.1013 -1.1573
  798SOL    HW232889   3.548   0.920   1.092  0.3657  0.5833  1.9087
  799SOL     OW32890   4.509   3.536   0.872  0.1236  0.0689  0.3403
  799SOL    HW132891   4.565   3.463   0.842 -0.6422 -0.5917  0.4764
  799SOL    HW232892   4.453   3.554   0.796 -1.9664 -1.7446  1.3399
  800SOL     OW32893   4.135   2.253   1.139 -0.1415 -0.6867 -0.5072
  800SOL    HW132894   4.169   2.262   1.228 -2.6287 -0.5504  0.5349
  800SOL    HW232895   4.212   2.241   1.084  1.4148 -2.4222  1.8641
  801SOL     OW32896   1.132   2.632  11.609 -0.1974 -0.6110 -0.0733
  801SOL    HW132897   1.052   2.658  11.563  0.3021  0.1687 -0.5239
  801SOL    HW232898   1.170   2.714  11.640  0.6520 -0.9356 -0.2414
  802SOL     OW32899   3.873   3.011  12.540  0.0993  0.0303 -0.6554
  802SOL    HW132900   3.957   2.978  12.572 -0.9376 -1.0242  1.1812
  802SOL    HW232901   3.860   3.094  12.585  0.2701  0.3285 -1.1489
  803SOL     OW32902   0.122   6.003  10.882 -0.6244 -0.7096 -0.3857
  803SOL    HW132903   0.210   5.981  10.912 -1.2320 -1.2089  1.1084
  803SOL    HW232904   0.126   6.097  10.864  0.1524 -0.6784 -0.0986
  804SOL     OW32905   0.133   4.102   1.666 -0.4858 -0.2699  0.3774
  804SOL    HW132906   0.224   4.077   1.649 -0.6745 -0.9536  0.3482
  804SOL    HW232907   0.085   4.019   1.669 -0.9386  0.0042  1.4234
  805SOL     OW32908   6.026   5.259  11.328  0.0504  0.1902 -0.0640
  805SOL    HW132909   6.063   5.346  11.344 -1.4099  0.9904 -0.8313
  805SOL    HW232910   5.943   5.259  11.376 -0.4652 -0.3904 -0.9423
  806SOL     OW32911   2.136   2.379   0.521  0.4216 -0.3174 -0.2530
  806SOL    HW132912   2.222   2.385   0.480  0.5555  0.4782  0.1134
  806SOL    HW232913   2.102   2.468   0.518  1.0055  0.0876  2.5281
  807SOL     OW32914   0.624   1.875   0.863 -0.2206 -0.1481 -0.2940
  807SOL    HW132915   0.714   1.901   0.847 -0.4720  1.5758  0.7450
  807SOL    HW232916   0.603   1.913   0.949 -1.5022 -1.6838  0.1254
  808SOL     OW32917   1.941   5.048   1.095  0.3429 -0.1912 -0.0143
  808SOL    HW132918   1.977   5.103   1.164  0.8170  0.0734 -0.4677
  808SOL    HW232919   1.857   5.018   1.130  1.3617 -1.5372  1.4493
  809SOL     OW32920   5.513   1.602  12.689 -1.0070  0.0705  0.1568
  809SOL    HW132921   5.471   1.686  12.706 -1.5258 -0.3058  0.7612
  809SOL    HW232922   5.590   1.602  12.746 -1.9244 -0.5553  1.4465
  810SOL     OW32923   5.672   3.574   0.207  0.6278 -0.2298  0.5778
  810SOL    HW132924   5.712   3.580   0.294  1.1167 -2.6450  0.6072
  810SOL    HW232925   5.734   3.522   0.157  0.1083  0.7024 -1.0918
  811SOL     OW32926   4.410   4.773  11.685 -0.0882 -0.9271  0.5783
  811SOL    HW132927   4.335   4.772  11.744  0.9647 -2.0514  1.9475
  811SOL    HW232928   4.463   4.848  11.715 -1.3000  0.7921 -1.3092
  812SOL     OW32929   5.455   4.405   0.960  0.0451 -0.3250  0.0266
  812SOL    HW132930   5.466   4.349   1.036  2.0575 -1.4915 -1.0375
  812SOL    HW232931   5.532   4.462   0.961 -1.0304  1.1996  0.0531
  813SOL     OW32932   5.745   2.969  11.811  0.9574  0.3485 -0.1670
  813SOL    HW132933   5.696   2.887  11.801 -0.6084  1.2850 -0.5693
  813SOL    HW232934   5.796   2.957  11.891 -2.2687  0.3715  2.0951
  814SOL     OW32935   5.626   6.111   0.223  0.1470  0.0668 -0.1765
  814SOL    HW132936   5.542   6.092   0.265  0.8798 -0.2117  1.2369
  814SOL    HW232937   5.650   6.198   0.257  0.0654  0.4936 -1.1885
  815SOL     OW32938   2.068   0.789   0.210 -0.0764 -0.5221 -0.0080
  815SOL    HW132939   2.005   0.717   0.208  0.0299 -0.5941 -0.9384
  815SOL    HW232940   2.025   0.856   0.263  0.1114 -1.5093  1.4855
  816SOL     OW32941   0.655   1.322   0.692 -0.3378 -0.3022  0.0614
  816SOL    HW132942   0.742   1.331   0.655 -0.5960 -0.9897 -0.7262
  816SOL    HW232943   0.626   1.412   0.708 -0.3126  0.0257 -1.6195
  817SOL     OW32944   0.119   5.172  11.881  0.0821  0.1686  0.1735
  817SOL    HW132945   0.163   5.151  11.799  2.5127  0.4882  1.3306
  817SOL    HW232946   0.075   5.090  11.907 -1.9047  0.4250 -2.0436
  818SOL     OW32947   2.657   4.729  11.442 -0.8476  0.5928 -0.1403
  818SOL    HW132948   2.631   4.819  11.463 -0.5544  0.2451  1.8623
  818SOL    HW232949   2.720   4.739  11.371 -0.0006  2.0845  0.7739
  819SOL     OW32950   1.764   3.631   0.328  0.1016  0.1444  0.0923
  819SOL    HW132951   1.672   3.650   0.311 -0.5134 -1.0670  1.8501
  819SOL    HW232952   1.794   3.704   0.383 -0.4179 -0.5186  1.2848
  820SOL     OW32953   1.782   0.040   0.808  0.7640 -0.2436  0.0780
  820SOL    HW132954   1.809   0.116   0.757 -2.0154  0.6737 -0.1998
  820SOL    HW232955   1.687   0.038   0.800  0.5977 -2.7806  1.4931
  821SOL     OW32956   4.394   4.331   1.096  0.4281  0.1319  0.1832
  821SOL    HW132957   4.379   4.424   1.112  0.3023  0.1192  0.1411
  821SOL    HW232958   4.370   4.319   1.004  0.3453  0.0372  0.2173
  822SOL     OW32959   0.706   4.568  11.400  0.6579 -0.0088 -0.3703
  822SOL    HW132960   0.711   4.664  11.400 -2.6980  0.2908  0.9295
  822SOL    HW232961   0.618   4.548  11.366  0.6971 -2.5580  0.7997
  823SOL     OW32962   4.446   2.470  11.651  0.3737 -0.5222 -0.3844
  823SOL    HW132963   4.440   2.551  11.600  2.5258  1.8890  2.7652
  823SOL    HW232964   4.368   2.470  11.706 -0.0352 -1.0622 -0.9552
  824SOL     OW32965   4.116   3.645   1.114 -0.5941  0.5570 -0.1994
  824SOL    HW132966   4.176   3.576   1.085  0.3701  0.5692  1.6300
  824SOL    HW232967   4.140   3.721   1.062  0.9227  0.5231  0.4095
  825SOL     OW32968   4.271   3.402   0.053 -0.0207 -0.7681 -0.4247
  825SOL    HW132969   4.360   3.381   0.022 -0.1656  1.1658 -2.3948
  825SOL    HW232970   4.284   3.434   0.142  1.3963  0.0845 -0.8909
  826SOL     OW32971   3.090   0.278  11.586 -0.0794 -0.1649 -0.1158
  826SOL    HW132972   3.057   0.193  11.559  0.7679 -0.7116  0.5013
  826SOL    HW232973   3.014   0.323  11.623 -0.4296 -0.8468  0.0060
  827SOL     OW32974   2.468   2.017   0.957  0.7508  0.1990 -0.3539
  827SOL    HW132975   2.435   2.007   0.868 -0.2496  0.5094 -0.0344
  827SOL    HW232976   2.510   2.103   0.958  0.3189  0.4167 -0.4068
  828SOL     OW32977   6.278   5.961   0.435  0.1598  0.3357  0.1500
  828SOL    HW132978   6.254   5.884   0.488 -0.1823  0.4214  0.1233
  828SOL    HW232979   6.202   6.020   0.444  1.3932  1.7624  2.2018
  829SOL     OW32980   1.230   4.506   1.416 -0.4172  0.1816 -0.0565
  829SOL    HW132981   1.227   4.422   1.462 -0.7963 -1.0243 -2.1446
  829SOL    HW232982   1.297   4.495   1.349  1.8609  2.7258  1.5903
  830SOL     OW32983   3.123   5.764   0.187  0.4116 -0.5452  0.6950
  830SOL    HW132984   3.064   5.821   0.138  1.9949 -0.1970 -0.9274
  830SOL    HW232985   3.081   5.753   0.273 -1.4068  0.5811  0.0044
  831SOL     OW32986   2.244   6.246  11.631 -0.0342  0.2720  0.2708
  831SOL    HW132987   2.231   6.329  11.678 -1.2011  0.5934 -0.5741
  831SOL    HW232988   2.171   6.191  11.658  1.6384 -1.1609  2.1390
  832SOL     OW32989   0.123   3.937  12.376 -0.1893  0.1241  0.3115
  832SOL    HW132990   0.150   3.851  12.344 -0.5211 -0.4868  1.5798
  832SOL    HW232991   0.065   3.972  12.308  0.2295 -0.5027 -0.3719
  833SOL     OW32992   1.729   3.045   0.514  0.1249 -0.2802  0.0226
  833SOL    HW132993   1.652   3.026   0.459  0.8034 -0.1146 -1.0215
  833SOL    HW232994   1.766   3.124   0.476  0.7914 -0.3380  0.5390
  834SOL     OW32995   4.732   3.574   0.004  0.2452  0.1713 -0.0179
  834SOL    HW132996   4.756   3.662  -0.025 -0.9314  0.1965 -0.9881
  834SOL    HW232997   4.791   3.516  -0.044 -0.6210  0.3111 -1.3119
  835SOL     OW32998   2.994   5.880  12.825  0.2707 -0.2617  0.1439
  835SOL    HW132999   2.942   5.960  12.832  1.0129  0.5168 -2.0745
  835SOL    HW233000   3.084   5.911  12.822  0.6847 -1.3500  1.0885
  836SOL     OW33001   3.700   4.870  11.274  0.0028  0.0424 -0.1970
  836SOL    HW133002   3.641   4.824  11.333  0.3734  0.1381  0.2603
  836SOL    HW233003   3.785   4.827  11.286 -0.1591 -0.7066 -1.5353
  837SOL     OW33004   4.899   1.326  12.652  0.2746  0.2512  0.3539
  837SOL    HW133005   4.854   1.288  12.577  0.6350  1.3632 -0.4396
  837SOL    HW233006   4.990   1.334  12.625  0.3025  1.1885  0.6868
  838SOL     OW33007   0.926   4.930   1.055 -0.3997  0.8542  0.2211
  838SOL    HW133008   0.836   4.943   1.027 -0.7174  0.5890  1.0869
  838SOL    HW233009   0.921   4.861   1.120  0.7430 -0.8794 -1.4167
  839SOL     OW33010   0.585   1.550  11.820  0.2479  0.3932  0.5541
  839SOL    HW133011   0.548   1.604  11.890 -0.0333 -0.0588  0.7572
  839SOL    HW233012   0.517   1.550  11.752 -0.1919 -0.5201  0.9688
  840SOL     OW33013   1.858   5.149  12.476 -0.2934 -0.4025  0.0007
  840SOL    HW133014   1.862   5.088  12.549 -2.7958  1.9555  2.3217
  840SOL    HW233015   1.765   5.153  12.452  0.1049  0.8445 -1.5426
  841SOL     OW33016   2.779   6.264  11.691  0.3009  0.6568 -0.5071
  841SOL    HW133017   2.794   6.184  11.741  0.9356  0.1461 -1.4819
  841SOL    HW233018   2.700   6.246  11.640  0.2856  0.7523 -0.5164
  842SOL     OW33019   4.934   2.859  12.387  0.3512 -0.4069  0.4277
  842SOL    HW133020   4.879   2.858  12.309  0.0170 -1.6780  0.6660
  842SOL    HW233021   4.981   2.942  12.382 -0.7962  0.2263 -0.3356
  843SOL     OW33022   4.743   0.603  11.742  0.3268  0.3934 -0.0415
  843SOL    HW133023   4.777   0.556  11.818  1.3647 -2.1671 -1.9533
  843SOL    HW233024   4.747   0.695  11.767  2.7557 -0.2090  2.1852
  844SOL     OW33025   0.491   2.876   0.800  1.0541 -0.3810  0.1671
  844SOL    HW133026   0.396   2.889   0.796  1.2811  1.4094  0.1574
  844SOL    HW233027   0.501   2.781   0.804 -0.7665 -0.5914  0.8899
  845SOL     OW33028   4.423   3.592   0.619 -0.2987 -0.0600  0.1312
  845SOL    HW133029   4.449   3.505   0.587 -1.1077  0.2914 -1.5965
  845SOL    HW233030   4.474   3.653   0.565  0.0828  0.5565  1.1708
  846SOL     OW33031   4.802   2.224   1.497 -0.4707  0.0609 -0.0141
  846SOL    HW133032   4.786   2.131   1.482 -0.5867 -0.2937  1.9758
  846SOL    HW233033   4.837   2.256   1.414  1.0115 -2.0838 -0.3092
  847SOL     OW33034   3.152   6.345  11.727 -0.0381 -0.4320  0.3305
  847SOL    HW133035   3.066   6.305  11.744 -0.2573 -0.2741 -0.3367
  847SOL    HW233036   3.132   6.419  11.669  0.5915 -0.6132 -0.1207
  848SOL     OW33037   6.433   1.191  11.975 -0.2936 -0.1971 -0.0295
  848SOL    HW133038   6.428   1.118  11.914  0.4251  0.7015 -1.2287
  848SOL    HW233039   6.527   1.203  11.990 -0.1701  2.1734 -2.0645
  849SOL     OW33040   3.909   4.556  11.280 -0.1008 -0.2394 -0.0798
  849SOL    HW133041   3.934   4.645  11.257  0.1372  0.0774  1.3410
  849SOL    HW233042   3.985   4.521  11.326 -0.4747 -0.9320  0.0184
  850SOL     OW33043   2.494   5.797  11.824  0.2495 -0.3711 -0.0508
  850SOL    HW133044   2.503   5.885  11.786  1.2789 -1.5295 -2.7733
  850SOL    HW233045   2.400   5.787  11.838  0.0062  0.8306 -0.6128
  851SOL     OW33046   0.566   6.135   1.626  0.2484 -0.0413 -0.0436
  851SOL    HW133047   0.600   6.207   1.679  0.4315 -1.5357  1.9749
  851SOL    HW233048   0.493   6.174   1.578 -0.7857  1.1295  2.3072
  852SOL     OW33049   1.736   3.420   1.368  0.0276 -0.4132  0.2541
  852SOL    HW133050   1.690   3.373   1.299 -2.0107 -1.0196  1.9045
  852SOL    HW233051   1.667   3.469   1.413  1.1448 -0.5404  2.2350
  853SOL     OW33052   6.299   3.393   1.067  0.1314  0.1631  0.0976
  853SOL    HW133053   6.264   3.318   1.017 -2.9704  1.4619  0.0570
  853SOL    HW233054   6.328   3.455   1.000 -0.1433  0.2154  0.0250
  854SOL     OW33055   1.624   1.323   0.822  0.1092  0.3363  0.5372
  854SOL    HW133056   1.562   1.276   0.878 -0.9102 -0.6264 -1.2992
  854SOL    HW233057   1.577   1.403   0.798 -1.2374 -1.1175 -2.1542
  855SOL     OW33058   5.834   6.337  12.076 -0.3079  0.3861  0.5732
  855SOL    HW133059   5.739   6.339  12.066 -0.3057 -2.0030 -0.6171
  855SOL    HW233060   5.856   6.244  12.081  1.9181  0.8949  1.5505
  856SOL     OW33061   5.952   0.791   0.283 -0.1963 -0.0422  0.8484
  856SOL    HW133062   5.923   0.858   0.221 -0.3050  0.0616  1.0098
  856SOL    HW233063   5.890   0.797   0.355 -1.1034 -1.3320  0.2094
  857SOL     OW33064   2.258   4.271  12.156 -0.5157  0.0020  0.0311
  857SOL    HW133065   2.230   4.304  12.242  0.9421  0.4665  0.3476
  857SOL    HW233066   2.208   4.190  12.145 -2.1805  0.9056  0.4362
  858SOL     OW33067   3.964   3.763  11.903  0.3082  0.2512 -0.1341
  858SOL    HW133068   3.978   3.669  11.912  1.9419  0.5246  0.5097
  858SOL    HW233069   3.924   3.789  11.986  0.2515  0.1908 -0.1427
  859SOL     OW33070   6.246   5.803  12.659 -0.5814  0.3132  0.6204
  859SOL    HW133071   6.186   5.864  12.701 -3.2053 -2.3354  1.0834
  859SOL    HW233072   6.192   5.755  12.596  1.2288 -1.6540  0.4241
  860SOL     OW33073   5.766   4.667   1.048 -0.3065 -0.1771  0.3735
  860SOL    HW133074   5.679   4.685   1.085 -0.7300  0.8897 -1.0384
  860SOL    HW233075   5.773   4.571   1.049 -1.8195 -0.3268 -0.1165
  861SOL     OW33076   4.853   5.498   1.621 -0.2878  0.7872  0.2141
  861SOL    HW133077   4.913   5.532   1.689 -2.5977  1.4020  2.0866
  861SOL    HW233078   4.852   5.404   1.635 -0.5486  0.8839  0.8748
  862SOL     OW33079   5.918   2.791   1.295 -0.0200  0.7095  0.1430
  862SOL    HW133080   5.924   2.767   1.203 -0.6274 -0.5775  0.4223
  862SOL    HW233081   5.843   2.850   1.301 -0.2931  0.3845 -0.1048
  863SOL     OW33082   6.114   1.513  11.569 -0.4935  0.1535 -0.2067
  863SOL    HW133083   6.117   1.602  11.533 -1.5626  0.0947 -0.4725
  863SOL    HW233084   6.025   1.483  11.550 -0.8019 -0.2288  1.6843
  864SOL     OW33085   0.010   4.944  12.014 -0.0322  0.0647 -0.0951
  864SOL    HW133086   0.022   4.881  11.943  0.9009 -1.6918  1.5547
  864SOL    HW233087  -0.070   4.916  12.058  2.1027 -2.1873  2.6933
  865SOL     OW33088   4.613   1.238   0.151 -0.0579  0.4913 -0.3269
  865SOL    HW133089   4.652   1.294   0.084  1.0330 -1.3875 -1.3500
  865SOL    HW233090   4.612   1.151   0.111 -2.3786 -0.1140  0.9223
  866SOL     OW33091   3.962   0.998  12.150 -0.4247  0.0056  0.8312
  866SOL    HW133092   3.893   0.969  12.210 -1.7308 -1.8490 -1.3980
  866SOL    HW233093   3.979   0.922  12.094 -0.4545  2.0178 -2.1769
  867SOL     OW33094   2.325   1.237  12.133 -0.0245  0.5627  0.2115
  867SOL    HW133095   2.402   1.228  12.188  1.1799  0.0133 -1.4680
  867SOL    HW233096   2.328   1.328  12.103 -1.0319  1.0475  1.4917
  868SOL     OW33097   1.398   5.870   0.483  0.5015 -0.1329 -0.1435
  868SOL    HW133098   1.442   5.932   0.425  0.1587  0.3972  0.1554
  868SOL    HW233099   1.467   5.809   0.510  1.2142  1.0451  0.7980
  869SOL     OW33100   4.421   1.480   0.189  0.2300 -0.5340  0.7067
  869SOL    HW133101   4.398   1.570   0.211  1.2063  0.1434 -0.9252
  869SOL    HW233102   4.513   1.472   0.212  0.4097 -0.7995 -0.0787
  870SOL     OW33103   4.715   2.923  10.869 -0.0630  0.9050 -0.0648
  870SOL    HW133104   4.705   3.006  10.822  0.9628  0.2674 -1.4610
  870SOL    HW233105   4.810   2.909  10.874 -0.2077  0.0798  0.6625
  871SOL     OW33106   0.350   5.036  12.504  0.7724  0.4647 -0.5159
  871SOL    HW133107   0.369   5.130  12.512 -1.1160  0.7932  0.7355
  871SOL    HW233108   0.258   5.028  12.528  1.0253 -1.7838 -0.1002
  872SOL     OW33109   0.768   2.828  11.740  0.0151  0.0487 -0.9040
  872SOL    HW133110   0.773   2.901  11.802 -1.6654 -0.4724 -0.0861
  872SOL    HW233111   0.678   2.830  11.708 -0.2883 -2.0375 -0.3455
  873SOL     OW33112   0.176   4.701  10.929  0.3183 -0.4181 -0.6108
  873SOL    HW133113   0.151   4.626  10.983  0.8046  0.2416  0.5830
  873SOL    HW233114   0.149   4.778  10.980  0.5850  0.2298 -1.4151
  874SOL     OW33115   5.057   1.004   0.476 -0.2128 -0.0071 -0.7276
  874SOL    HW133116   5.032   1.075   0.534 -1.0491  0.2449 -1.3711
  874SOL    HW233117   4.980   0.990   0.420  0.1052 -1.0941 -0.9271
  875SOL     OW33118   0.614   5.536   0.559  0.0577 -0.2480 -0.1593
  875SOL    HW133119   0.664   5.614   0.536 -0.7038  0.3383  0.1484
  875SOL    HW233120   0.601   5.544   0.654  0.8931 -1.2970  0.0688
  876SOL     OW33121   0.690   0.747  11.766  0.1314  0.1291 -0.3636
  876SOL    HW133122   0.676   0.771  11.858  1.2192  1.2930 -0.4859
  876SOL    HW233123   0.785   0.754  11.753 -0.0834  0.7327 -1.7796
  877SOL     OW33124   0.708   4.331   1.336 -0.7035  0.4944  0.1994
  877SOL    HW133125   0.738   4.356   1.249 -0.0671  0.2529  0.3459
  877SOL    HW233126   0.613   4.321   1.327 -0.5274 -0.5118 -0.7247
  878SOL     OW33127   4.153   5.530   0.062  0.6423  0.2959 -0.4629
  878SOL    HW133128   4.100   5.483   0.126  2.1925  0.5361  1.0705
  878SOL    HW233129   4.110   5.514  -0.022 -1.0035 -0.6848  0.5242
  879SOL     OW33130   5.443   1.322   0.648  0.4460 -0.0474  0.3039
  879SOL    HW133131   5.445   1.242   0.597  1.6198  0.4361 -0.4491
  879SOL    HW233132   5.493   1.385   0.596  1.2505  0.6086  1.8130
  880SOL     OW33133   3.505   3.892  11.545 -0.2996  0.2092  0.4647
  880SOL    HW133134   3.457   3.929  11.471 -1.0860  0.5529  1.1375
  880SOL    HW233135   3.589   3.938  11.544 -1.6560  2.9681  1.9837
  881SOL     OW33136   5.756   5.546  11.592 -0.1713  0.2046  0.5709
  881SOL    HW133137   5.833   5.547  11.535 -0.4799  0.8746  0.1499
  881SOL    HW233138   5.783   5.593  11.670 -0.5422  1.6653 -0.1351
  882SOL     OW33139   5.136   3.225  11.726 -0.0772 -0.5291 -0.0047
  882SOL    HW133140   5.176   3.305  11.692 -1.4264  0.4883  0.7012
  882SOL    HW233141   5.201   3.190  11.787  1.1861 -0.8655 -1.4811
  883SOL     OW33142   4.298   5.179   0.355 -0.1950  0.2575  0.0891
  883SOL    HW133143   4.204   5.181   0.374 -0.4399  2.6331 -1.0203
  883SOL    HW233144   4.338   5.153   0.438 -1.8382 -1.9011  0.3007
  884SOL     OW33145   0.139   5.339   0.784 -0.3520 -0.3388 -0.4421
  884SOL    HW133146   0.161   5.287   0.707 -0.3000 -0.9088 -0.0506
  884SOL    HW233147   0.050   5.314   0.806 -0.1156 -0.7282  0.1077
  885SOL     OW33148   5.951   2.695  11.244  0.0536  0.3500  0.0240
  885SOL    HW133149   6.042   2.688  11.272  0.6260  1.2249 -1.5309
  885SOL    HW233150   5.905   2.732  11.319  1.2550  1.2685  0.3262
  886SOL     OW33151   2.234   2.310   1.245  0.0480 -0.6840 -0.3039
  886SOL    HW133152   2.192   2.227   1.222 -0.9020 -0.0505 -0.9588
  886SOL    HW233153   2.293   2.289   1.317 -2.2660 -1.4241  1.4784
  887SOL     OW33154   4.870   0.872   0.731  0.1272  0.1330 -0.0072
  887SOL    HW133155   4.775   0.881   0.736 -0.1237 -0.9199 -1.9180
  887SOL    HW233156   4.886   0.777   0.739  0.9669  0.2346 -0.3172
  888SOL     OW33157   2.840   1.723   1.199 -0.1324  0.1271  0.2394
  888SOL    HW133158   2.859   1.630   1.214  1.3473  0.4276  0.3487
  888SOL    HW233159   2.763   1.740   1.252  0.9340 -0.5083  2.0885
  889SOL     OW33160   0.900   2.477   0.316 -0.4241 -0.6350 -0.1897
  889SOL    HW133161   0.858   2.448   0.236 -1.1032 -1.4266  0.4368
  889SOL    HW233162   0.912   2.571   0.305 -1.2972 -0.5960 -0.8541
  890SOL     OW33163   1.256   3.318   1.493  0.4497 -0.1333 -0.3111
  890SOL    HW133164   1.240   3.242   1.549 -1.3110 -0.7885 -1.5870
  890SOL    HW233165   1.321   3.287   1.429  0.4631 -0.2633 -0.2352
  891SOL     OW33166   2.798   0.103  12.534  0.2659  0.2932  0.0895
  891SOL    HW133167   2.853   0.063  12.466 -0.5510 -0.0822 -0.3549
  891SOL    HW233168   2.724   0.140  12.487 -1.4824 -1.9233  0.9386
  892SOL     OW33169   0.790   2.795   1.390  0.3587  0.0928  0.0534
  892SOL    HW133170   0.698   2.805   1.365 -0.0199 -1.7047  0.5855
  892SOL    HW233171   0.836   2.862   1.340 -1.1626  0.6422 -0.6702
  893SOL     OW33172   5.827   4.682  11.890 -0.1955  0.1332 -0.5857
  893SOL    HW133173   5.741   4.647  11.915 -0.9164  2.8743  1.2491
  893SOL    HW233174   5.890   4.622  11.930 -1.3014 -0.3388  0.5289
  894SOL     OW33175   3.827   5.520   0.313  0.0673 -0.7934 -0.8788
  894SOL    HW133176   3.817   5.614   0.299 -1.2156  0.2238  4.5430
  894SOL    HW233177   3.741   5.483   0.295 -1.0701  0.1760  1.9194
  895SOL     OW33178   5.776   5.890   0.271 -0.5543 -0.3810 -0.5681
  895SOL    HW133179   5.859   5.924   0.239 -1.3151  0.7529 -1.4396
  895SOL    HW233180   5.714   5.963   0.259 -1.4984 -0.9101  0.8270
  896SOL     OW33181   1.739   2.708   0.203  0.3431 -0.2575 -0.3318
  896SOL    HW133182   1.679   2.673   0.269  0.0916 -0.5173 -0.6973
  896SOL    HW233183   1.821   2.662   0.219  0.7697  0.8694  0.8617
  897SOL     OW33184   4.925   5.367  12.305  0.0790  0.5631 -0.9759
  897SOL    HW133185   4.843   5.390  12.262  0.8835  1.0215 -2.3436
  897SOL    HW233186   4.915   5.276  12.331 -1.0872  0.8037 -0.5299
  898SOL     OW33187   3.065   6.127   0.407  0.0074 -0.3147 -0.5305
  898SOL    HW133188   3.056   6.217   0.376 -2.9102 -0.2722  0.1251
  898SOL    HW233189   3.026   6.074   0.338  0.3915 -0.9579 -0.2634
  899SOL     OW33190   0.710   0.109  11.799  0.0648  0.2938  0.0279
  899SOL    HW133191   0.628   0.059  11.793  0.9429 -1.1281 -0.9524
  899SOL    HW233192   0.759   0.081  11.721  1.1542  1.7199  0.1813
  900SOL     OW33193   3.440   4.942   0.340 -0.3837 -0.4495  0.0704
  900SOL    HW133194   3.429   4.880   0.412  1.6416  0.1096  0.9263
  900SOL    HW233195   3.533   4.934   0.316 -1.1290 -1.1910 -3.0390
  901SOL     OW33196   2.043   6.149   0.109  0.2404  0.1407  0.0382
  901SOL    HW133197   2.035   6.224   0.050 -1.2814 -0.0497 -0.0223
  901SOL    HW233198   2.119   6.101   0.076 -0.5318  0.0774 -1.7489
  902SOL     OW33199   4.700   2.040   1.085  0.0304  0.6089 -0.3644
  902SOL    HW133200   4.788   2.022   1.118  0.0534  1.5308  0.1055
  902SOL    HW233201   4.690   1.981   1.010  1.4121  1.1413 -1.0112
  903SOL     OW33202   2.959   4.268   0.067 -0.0304  0.1643 -0.1822
  903SOL    HW133203   3.046   4.286   0.101 -0.7031  1.3555  1.0217
  903SOL    HW233204   2.921   4.207   0.129  0.4877 -1.6737 -1.5978
  904SOL     OW33205   0.442   4.738   1.268 -0.1461 -0.0694 -0.0832
  904SOL    HW133206   0.502   4.763   1.198  0.1655 -0.2580  0.1143
  904SOL    HW233207   0.406   4.654   1.241  0.3750 -0.3950  0.2332
  905SOL     OW33208   6.405   3.518   0.846 -0.3568 -0.2355  0.1174
  905SOL    HW133209   6.439   3.445   0.793  0.7734  1.4935 -1.6774
  905SOL    HW233210   6.484   3.564   0.876 -1.0585  0.5115  0.8354
  906SOL     OW33211   4.725   5.806   1.321 -0.2573 -0.5275 -0.3797
  906SOL    HW133212   4.738   5.820   1.227 -0.0451 -0.7447 -0.3816
  906SOL    HW233213   4.630   5.804   1.332 -0.3232 -2.7859 -0.9261
  907SOL     OW33214   2.383   4.700  12.650  0.0736 -0.0430 -0.0266
  907SOL    HW133215   2.327   4.714  12.574 -0.1190  0.5746  0.2166
  907SOL    HW233216   2.472   4.694  12.615 -0.1291 -0.8915 -0.4024
  908SOL     OW33217   2.000   0.209  12.056 -0.0222  0.5883  0.2226
  908SOL    HW133218   2.039   0.195  12.142 -0.0248  0.1991  0.1612
  908SOL    HW233219   2.074   0.211  11.996 -0.1560 -1.5940 -0.0894
  909SOL     OW33220   1.967   2.628   0.992  0.1469 -0.3517 -0.0143
  909SOL    HW133221   2.024   2.603   1.064 -0.8319 -0.4263  0.7621
  909SOL    HW233222   1.928   2.711   1.020  0.4868  0.1171 -0.8913
  910SOL     OW33223   0.481   3.160  11.905  0.1306  0.3357 -0.5150
  910SOL    HW133224   0.503   3.067  11.898  1.6642  0.7891 -2.4992
  910SOL    HW233225   0.477   3.176  11.999  4.1423 -0.8355  0.0407
  911SOL     OW33226   1.096   5.543   0.158 -0.0668  0.0885 -0.4463
  911SOL    HW133227   1.059   5.616   0.108 -0.8962 -1.9176 -3.0089
  911SOL    HW233228   1.182   5.529   0.118  1.5912  1.5952  2.2271
  912SOL     OW33229   4.934   1.363   1.476  0.2014  0.5910  0.1018
  912SOL    HW133230   4.953   1.274   1.446  0.2380 -0.1384  2.1353
  912SOL    HW233231   4.871   1.397   1.412  1.3789 -0.2893 -1.5932
  913SOL     OW33232   3.416   2.204   0.602  0.1646 -0.4765  0.0774
  913SOL    HW133233   3.430   2.123   0.552 -1.2744 -1.4791  1.1950
  913SOL    HW233234   3.335   2.240   0.566  0.5694  0.2648 -0.1191
  914SOL     OW33235   0.896   0.723   0.507  0.3251  0.6618 -0.3559
  914SOL    HW133236   0.803   0.744   0.510  0.3725  0.7928  0.6122
  914SOL    HW233237   0.940   0.808   0.515  0.5433  0.6808 -1.5356
  915SOL     OW33238   5.759   1.171   0.298 -0.1230 -0.0654  0.3352
  915SOL    HW133239   5.733   1.259   0.273 -0.6195 -0.6238 -1.2684
  915SOL    HW233240   5.845   1.181   0.339 -0.2090  1.1661  0.2283
  916SOL     OW33241   0.073   5.847  12.690 -0.3124  0.3063  0.0727
  916SOL    HW133242  -0.018   5.818  12.697  0.0322 -0.4477  2.6089
  916SOL    HW233243   0.083   5.874  12.599 -3.0907  0.5249 -0.2566
  917SOL     OW33244   6.298   5.442   0.114 -0.0158  0.3351  0.1076
  917SOL    HW133245   6.284   5.473   0.024 -1.9850 -1.3946 -0.2749
  917SOL    HW233246   6.353   5.364   0.103  1.4570  1.2669  0.6434
  918SOL     OW33247   6.104   5.872   1.181 -0.1703  0.1241  0.0157
  918SOL    HW133248   6.146   5.809   1.240 -3.4076 -0.0720  2.4367
  918SOL    HW233249   6.097   5.827   1.097  0.1439 -1.6452  0.9020
  919SOL     OW33250   1.653   3.514  12.483  0.0105 -0.0600  0.2551
  919SOL    HW133251   1.707   3.475  12.551  1.0757  0.0554 -0.4957
  919SOL    HW233252   1.569   3.532  12.525  0.7560  0.3150  1.6190
  920SOL     OW33253   2.912   4.018   1.371  0.8824  0.1575 -0.3475
  920SOL    HW133254   2.894   4.060   1.286  1.3153  0.4045 -0.3180
  920SOL    HW233255   2.961   4.083   1.420 -0.3524  0.4607  0.5369
  921SOL     OW33256   6.426   3.391  11.542 -0.3679 -0.0341 -0.0740
  921SOL    HW133257   6.417   3.471  11.593 -0.9266 -0.1118 -0.0451
  921SOL    HW233258   6.390   3.413  11.456  0.5773  0.0987 -0.4445
  922SOL     OW33259   4.603   6.325   1.401  0.1004  0.2045 -0.6152
  922SOL    HW133260   4.667   6.394   1.381  1.9145 -1.1834  0.0633
  922SOL    HW233261   4.643   6.245   1.366 -2.5318 -0.3952 -2.5338
  923SOL     OW33262   0.473   5.812  11.583  0.1899 -0.1527 -0.3866
  923SOL    HW133263   0.488   5.837  11.492 -0.4426 -0.6500 -0.6347
  923SOL    HW233264   0.389   5.851  11.605  0.1806 -0.3194 -0.1214
  924SOL     OW33265   5.481   0.809   0.604  0.8774 -0.5364  0.2906
  924SOL    HW133266   5.400   0.824   0.555  1.2548 -0.4864 -0.3301
  924SOL    HW233267   5.507   0.720   0.580  1.3389 -0.3263 -0.0201
  925SOL     OW33268   3.225   4.970  12.251 -0.4709  0.5273 -0.1200
  925SOL    HW133269   3.202   4.890  12.299 -3.1740  2.5407  2.2601
  925SOL    HW233270   3.146   5.023  12.252  1.3964  3.5981 -0.8796
  926SOL     OW33271   6.067   2.076   0.294 -0.1330 -0.3112  0.0476
  926SOL    HW133272   6.110   2.021   0.229 -0.2347 -1.0839  0.6130
  926SOL    HW233273   6.138   2.120   0.340  0.0748 -1.3858  0.8043
  927SOL     OW33274   4.047   5.546   0.501 -0.5160  0.0527  0.2074
  927SOL    HW133275   4.018   5.636   0.515  0.5374  0.4031  0.1910
  927SOL    HW233276   4.032   5.530   0.408  0.2394  0.5622 -0.0073
  928SOL     OW33277   1.174   3.398  11.536  0.1798  1.2682 -0.1111
  928SOL    HW133278   1.089   3.359  11.516  0.3058  0.0194  1.5736
  928SOL    HW233279   1.238   3.332  11.509  0.3823 -0.0768  3.1459
  929SOL     OW33280   1.975   5.339  12.263  0.0500  0.6079 -0.0917
  929SOL    HW133281   1.987   5.285  12.341 -0.1611 -1.3582 -1.3389
  929SOL    HW233282   1.885   5.370  12.269 -0.7835 -1.5322 -0.6754
  930SOL     OW33283   1.952   4.651  11.484 -0.5299 -0.4031 -0.7566
  930SOL    HW133284   2.017   4.590  11.521 -1.0184 -0.6770 -0.3396
  930SOL    HW233285   1.869   4.606  11.493 -0.6766 -0.4886 -2.2313
  931SOL     OW33286   2.985   1.688  12.342 -0.4739  0.2554 -0.2731
  931SOL    HW133287   2.933   1.607  12.339  0.5432 -0.3651 -1.8698
  931SOL    HW233288   2.999   1.711  12.251  1.9022  0.5106  0.1063
  932SOL     OW33289   2.547   2.235  11.661  0.0370 -0.7128  0.3066
  932SOL    HW133290   2.555   2.266  11.571  1.4623 -0.7504  0.3940
  932SOL    HW233291   2.613   2.165  11.667 -2.2382 -2.9786  0.4490
  933SOL     OW33292   3.934   0.756  11.998  0.4024 -0.5129  0.1044
  933SOL    HW133293   4.007   0.695  11.998  0.9696  0.1354  1.3456
  933SOL    HW233294   3.860   0.704  12.030  0.9193 -0.5243  1.3255
  934SOL     OW33295   5.820   4.220  12.814  0.0328 -0.3447  0.4922
  934SOL    HW133296   5.900   4.243  12.765 -1.0720  0.4635 -1.0059
  934SOL    HW233297   5.749   4.234  12.752 -1.3351 -0.5597  1.9508
  935SOL     OW33298   5.558   3.137  12.321  0.2051  0.8177  0.2362
  935SOL    HW133299   5.620   3.102  12.384  1.6137 -0.9204 -1.9696
  935SOL    HW233300   5.571   3.232  12.325 -0.1706  0.8391  2.8632
  936SOL     OW33301   1.239   6.432   1.339 -0.3507 -0.0360  0.1992
  936SOL    HW133302   1.198   6.362   1.390  0.2717 -1.0849 -0.7069
  936SOL    HW233303   1.182   6.442   1.263 -0.6628  0.7404  0.5299
  937SOL     OW33304   5.216   2.732  12.322  0.3674  0.1370 -0.3860
  937SOL    HW133305   5.130   2.752  12.359  0.5720  2.1309 -0.9139
  937SOL    HW233306   5.260   2.682  12.391 -0.9078 -0.2106  0.2109
  938SOL     OW33307   2.110   4.114  11.234 -0.0399  0.1264 -0.0593
  938SOL    HW133308   2.039   4.090  11.293  1.9342  0.6090  2.6929
  938SOL    HW233309   2.124   4.207  11.250  0.2448  0.4012 -1.7266
  939SOL     OW33310   1.396   5.395  11.121 -0.4012  0.6423  1.1479
  939SOL    HW133311   1.394   5.300  11.134 -0.9487  0.3737 -0.6883
  939SOL    HW233312   1.308   5.418  11.094  0.6778  0.9427 -2.6867
  940SOL     OW33313   1.798   4.053   1.302  0.6986 -0.4239  0.6303
  940SOL    HW133314   1.795   4.054   1.206  0.1395 -1.0216  0.6305
  940SOL    HW233315   1.815   3.962   1.324  1.8363 -0.1158  1.0925
  941SOL     OW33316   5.150   2.825  11.486 -0.1251  0.4403  0.0856
  941SOL    HW133317   5.184   2.749  11.440 -0.6439 -0.2399  0.8102
  941SOL    HW233318   5.228   2.879  11.503  0.2755 -0.0353 -0.2160
  942SOL     OW33319   1.560   2.548  12.177 -0.2593 -0.2776 -1.0180
  942SOL    HW133320   1.495   2.556  12.246  0.7108  1.9532 -0.2787
  942SOL    HW233321   1.620   2.620  12.192  0.3938 -0.1341 -3.8050
  943SOL     OW33322   1.109   0.035  12.178 -0.3381  0.2776 -0.2238
  943SOL    HW133323   1.150   0.067  12.098  1.6505 -0.9449  0.2505
  943SOL    HW233324   1.120   0.106  12.241  2.4869 -0.5577  0.3259
  944SOL     OW33325   5.980   2.923  12.419  0.1006  0.4367  0.2146
  944SOL    HW133326   6.051   2.985  12.405  0.0087  0.4316 -0.2940
  944SOL    HW233327   5.974   2.874  12.337  0.4882 -0.5751  0.7682
  945SOL     OW33328   1.485   3.577   1.277  0.2136 -0.7862 -0.0223
  945SOL    HW133329   1.435   3.606   1.200  0.4910  0.9363  0.4014
  945SOL    HW233330   1.418   3.564   1.344  0.0578 -1.3793 -0.2907
  946SOL     OW33331   1.295   3.994  11.390  0.3591 -0.2357 -0.4570
  946SOL    HW133332   1.260   4.042  11.315 -0.4373  0.8207  0.5516
  946SOL    HW233333   1.348   4.059  11.437 -1.0442 -0.1642  1.1471
  947SOL     OW33334   0.361   1.725   1.047 -0.2498 -0.0363  0.1719
  947SOL    HW133335   0.281   1.684   1.082 -1.6352  1.8703 -0.5791
  947SOL    HW233336   0.334   1.761   0.962  2.0482 -1.3013 -1.1790
  948SOL     OW33337   5.351   1.552  12.450  0.6094 -0.1078  0.0259
  948SOL    HW133338   5.402   1.612  12.396 -1.4087  1.9072  0.1994
  948SOL    HW233339   5.392   1.555  12.536  0.4654  1.1955  0.0728
  949SOL     OW33340   2.467   3.675  12.396 -0.4650 -0.1339 -0.1870
  949SOL    HW133341   2.451   3.615  12.324  1.2333 -0.0945 -0.6521
  949SOL    HW233342   2.418   3.639  12.470  0.3813 -2.0412 -0.4854
  950SOL     OW33343   4.220   0.944   0.900  0.0302  0.5599  0.1798
  950SOL    HW133344   4.283   0.969   0.968  1.0786 -0.3234 -0.4357
  950SOL    HW233345   4.229   0.849   0.892 -0.3789  0.6011 -0.8970
  951SOL     OW33346   3.314   0.742   0.118 -0.4501  0.2877 -0.0942
  951SOL    HW133347   3.226   0.745   0.081 -0.4460  3.9755 -0.1690
  951SOL    HW233348   3.300   0.743   0.213 -0.4229 -1.1081 -0.0490
  952SOL     OW33349   2.649   6.028   1.012  0.5630 -0.4849 -0.1336
  952SOL    HW133350   2.644   6.012   1.106 -0.4179 -0.0799 -0.0972
  952SOL    HW233351   2.605   5.953   0.972  2.3852 -1.4763 -0.3874
  953SOL     OW33352   5.405   5.453  12.727  0.2083  1.3067  0.2938
  953SOL    HW133353   5.378   5.375  12.679  0.0945  0.0964  2.2132
  953SOL    HW233354   5.485   5.482  12.684  0.5823 -0.2286 -0.0909
  954SOL     OW33355   5.905   4.329   0.535  0.3814  0.4846  0.2921
  954SOL    HW133356   5.847   4.252   0.533  0.0935  0.6746  0.8448
  954SOL    HW233357   5.889   4.373   0.452 -0.8221  0.9206  0.7279
  955SOL     OW33358   4.130   1.146   0.744 -0.2810  0.0592 -0.4959
  955SOL    HW133359   4.197   1.167   0.679 -1.1663 -1.3147 -1.9344
  955SOL    HW233360   4.176   1.093   0.810  0.7138  1.7970  0.2591
  956SOL     OW33361   1.265   1.030   1.413  0.1102 -0.5697  0.1178
  956SOL    HW133362   1.338   0.968   1.406  1.6577  1.1358  0.4671
  956SOL    HW233363   1.187   0.974   1.413  1.3976 -2.4898  0.0765
  957SOL     OW33364   0.801   4.683  11.806 -0.0977 -0.4650 -0.3425
  957SOL    HW133365   0.851   4.758  11.839 -1.6326  0.7070 -0.5580
  957SOL    HW233366   0.862   4.638  11.748  0.6105  1.1380 -0.9067
  958SOL     OW33367   6.435   2.026  11.694  0.3166 -0.6857 -0.2765
  958SOL    HW133368   6.517   1.991  11.730  0.6895  1.0568  0.6648
  958SOL    HW233369   6.439   2.120  11.712 -0.3325  0.0179 -3.2974
  959SOL     OW33370   3.930   1.632  12.504  0.3258  0.2694  0.2954
  959SOL    HW133371   3.978   1.608  12.424 -0.7035 -0.3656 -0.1646
  959SOL    HW233372   3.975   1.709  12.537  3.3134 -1.7558  1.3761
  960SOL     OW33373   3.917   1.826   0.845 -0.0230  0.7298  0.7570
  960SOL    HW133374   3.864   1.790   0.774  0.0520  1.4482  0.3249
  960SOL    HW233375   3.865   1.812   0.923  0.4313 -1.2050  0.7671
  961SOL     OW33376   6.147   4.031  11.665 -0.1123  0.4202 -0.0726
  961SOL    HW133377   6.117   3.942  11.649  1.2801 -0.0327 -0.3057
  961SOL    HW233378   6.212   4.047  11.596  0.7245  1.0705  0.8449
  962SOL     OW33379   1.718   5.832   1.487 -0.0613 -0.6213 -0.0805
  962SOL    HW133380   1.760   5.818   1.572 -0.0544 -0.1494 -0.0031
  962SOL    HW233381   1.654   5.902   1.503  1.5183  1.1140 -0.9372
  963SOL     OW33382   5.201   3.432  12.398 -0.1224  0.0319 -0.3372
  963SOL    HW133383   5.110   3.408  12.383 -1.2031  3.1512  0.3978
  963SOL    HW233384   5.210   3.519  12.359  2.3545  0.1249  0.2473
  964SOL     OW33385   1.359   1.727  12.303  0.0395 -0.2062 -0.2136
  964SOL    HW133386   1.442   1.701  12.342  0.3374  1.6759  0.5174
  964SOL    HW233387   1.321   1.788  12.367 -1.0651  0.3225 -1.3430
  965SOL     OW33388   2.842   3.002  12.284 -0.2974 -0.5323  0.1670
  965SOL    HW133389   2.924   3.018  12.331  0.0124 -0.5720 -0.3546
  965SOL    HW233390   2.846   2.909  12.260 -1.2247 -0.9685  1.5263
  966SOL     OW33391   3.071   6.424   1.148  0.5861  0.2355  0.8578
  966SOL    HW133392   3.102   6.456   1.232 -0.3826  0.6702  1.0572
  966SOL    HW233393   3.079   6.328   1.155  0.7524  0.2806  1.3348
  967SOL     OW33394   6.391   2.502  11.610 -0.5142  0.0932 -0.3222
  967SOL    HW133395   6.455   2.560  11.570 -0.1542 -0.3880 -0.4514
  967SOL    HW233396   6.399   2.420  11.563 -0.4149 -0.3353  0.4215
  968SOL     OW33397   5.206   3.560   1.255 -0.0366  0.4163 -0.4015
  968SOL    HW133398   5.207   3.484   1.196 -0.8447  0.4804 -0.5016
  968SOL    HW233399   5.122   3.603   1.238 -0.0647  0.7105  0.4499
  969SOL     OW33400   5.502   6.204   1.324 -0.2030  0.4425 -0.5550
  969SOL    HW133401   5.579   6.192   1.380 -0.2336  0.7802 -0.4374
  969SOL    HW233402   5.526   6.162   1.241 -0.6284 -1.1573  0.1060
  970SOL     OW33403   0.812   0.309   0.227 -0.4330 -0.6332  0.3950
  970SOL    HW133404   0.737   0.357   0.262 -0.6911 -0.7177 -0.0351
  970SOL    HW233405   0.809   0.225   0.273 -0.3316 -0.4653  0.7119
  971SOL     OW33406   6.395   4.658   0.087 -0.2105 -0.2829 -0.0239
  971SOL    HW133407   6.348   4.576   0.071 -0.0444 -0.1716 -1.1480
  971SOL    HW233408   6.337   4.726   0.053  0.4682 -0.0950 -0.8428
  972SOL     OW33409   6.275   3.930   0.287 -0.4265 -0.0098  0.4167
  972SOL    HW133410   6.232   4.007   0.324 -0.9848 -0.8187  1.5436
  972SOL    HW233411   6.303   3.880   0.364 -0.8184 -1.3262 -0.2720
  973SOL     OW33412   2.132   5.094  12.343  0.2918 -0.1123  0.5303
  973SOL    HW133413   2.040   5.066  12.342  0.0864  0.5587  0.0021
  973SOL    HW233414   2.173   5.043  12.273  0.4965 -0.9648  1.2615
  974SOL     OW33415   6.436   0.427  12.606 -0.4806  0.1410 -0.1782
  974SOL    HW133416   6.385   0.502  12.637  1.9165  1.2489  1.3257
  974SOL    HW233417   6.451   0.446  12.513 -0.8720  0.9367 -0.0942
  975SOL     OW33418   2.127   4.271   0.027  0.2584  0.3985  0.1394
  975SOL    HW133419   2.112   4.199  -0.035 -0.8658  1.2175 -0.5784
  975SOL    HW233420   2.222   4.274   0.038  0.5719  0.8037 -2.2632
  976SOL     OW33421   3.079   1.111  11.808  0.7444 -0.4597  0.2479
  976SOL    HW133422   3.109   1.202  11.802  0.2044 -0.3517 -1.1453
  976SOL    HW233423   3.093   1.075  11.720  0.9597 -1.7388  0.7821
  977SOL     OW33424   3.898   3.707  12.701 -0.5725 -0.4032 -0.1203
  977SOL    HW133425   3.963   3.771  12.670 -0.9185  0.2871  0.5481
  977SOL    HW233426   3.946   3.651  12.761 -0.0666 -1.3066 -1.3337
  978SOL     OW33427   3.640   5.451   0.989  0.3484  0.1919  0.6349
  978SOL    HW133428   3.584   5.398   0.932  0.0139  1.1210  0.0819
  978SOL    HW233429   3.699   5.496   0.930  0.2490  0.8800  1.0494
  979SOL     OW33430   3.633   0.985  11.677  0.0338 -0.5101  0.3918
  979SOL    HW133431   3.723   0.954  11.672  0.4244  0.5154  0.8978
  979SOL    HW233432   3.635   1.071  11.635 -0.6351 -0.3175  0.7417
  980SOL     OW33433   0.134   1.648   0.923 -0.4590 -0.3058 -0.0671
  980SOL    HW133434   0.056   1.697   0.951 -1.4076 -0.6754 -1.8995
  980SOL    HW233435   0.144   1.670   0.830  2.2783  0.5450  0.3218
  981SOL     OW33436   6.446   0.446   1.417  0.1043 -0.0184 -0.4659
  981SOL    HW133437   6.446   0.537   1.445  0.3399 -0.3203  0.5685
  981SOL    HW233438   6.407   0.447   1.329 -1.0510  0.9083  0.0447
  982SOL     OW33439   3.982   0.525  11.523 -0.5864  0.1336 -0.1182
  982SOL    HW133440   3.982   0.613  11.485 -0.2724  0.2060  0.0480
  982SOL    HW233441   4.073   0.509  11.547 -0.5130 -0.5325 -0.8176
  983SOL     OW33442   5.353   4.685  11.874 -0.1338  0.0697  0.3179
  983SOL    HW133443   5.286   4.635  11.827 -0.3378 -0.2418  0.9320
  983SOL    HW233444   5.419   4.620  11.899  0.8552  0.5123 -1.0524
  984SOL     OW33445   4.325   3.089   0.491  0.0371  0.2104 -0.1270
  984SOL    HW133446   4.257   3.129   0.437 -1.3431 -1.7088  0.0714
  984SOL    HW233447   4.298   3.107   0.581  1.1962  1.5875 -0.0194
  985SOL     OW33448   1.632   0.051  12.586  0.1691 -0.2782 -0.0714
  985SOL    HW133449   1.694   0.058  12.514  1.2382 -0.4447  0.8009
  985SOL    HW233450   1.662   0.117  12.649 -1.9405  1.2899 -0.6095
  986SOL     OW33451   2.978   0.904  11.557  0.0603  0.4614 -0.2432
  986SOL    HW133452   2.935   0.820  11.548  0.9876 -0.1008  0.4585
  986SOL    HW233453   2.920   0.956  11.613  1.0710 -0.8737  2.1584
  987SOL     OW33454   1.320   5.720  11.094 -0.0134 -0.0299 -0.2259
  987SOL    HW133455   1.267   5.662  11.040 -0.0198 -0.4832  0.2519
  987SOL    HW233456   1.404   5.726  11.049  0.2460 -1.0294  0.1074
  988SOL     OW33457   5.805   2.473   1.180 -0.3518  0.0573  0.1133
  988SOL    HW133458   5.716   2.470   1.143  0.0372 -0.2918 -0.8335
  988SOL    HW233459   5.849   2.542   1.130 -0.1361  0.3453  0.6964
  989SOL     OW33460   2.268   4.684   0.245  0.1752  0.5050 -0.1974
  989SOL    HW133461   2.231   4.723   0.165  1.4722  2.0974 -0.0775
  989SOL    HW233462   2.345   4.636   0.214 -1.5587 -2.3395 -0.3764
  990SOL     OW33463   3.492   0.507   0.523  0.5905  0.3982 -0.4460
  990SOL    HW133464   3.543   0.541   0.597 -0.2702  1.9976 -0.5239
  990SOL    HW233465   3.415   0.564   0.520 -0.7620 -1.3681 -0.8928
  991SOL     OW33466   1.668   1.957   0.869 -0.3790 -0.0491  0.1888
  991SOL    HW133467   1.629   2.040   0.897 -0.0380  0.2478 -0.1982
  991SOL    HW233468   1.756   1.981   0.841  0.0739 -0.6993  1.0009
  992SOL     OW33469   5.100   3.236  10.634 -0.4588  0.0059  0.0580
  992SOL    HW133470   5.006   3.242  10.648 -0.1284  1.7102  1.9601
  992SOL    HW233471   5.135   3.317  10.670  1.6864 -0.2093 -1.3363
  993SOL     OW33472   5.444   5.836  12.699 -0.0369 -0.0153  0.4001
  993SOL    HW133473   5.441   5.931  12.710 -1.3698 -0.2223  2.2075
  993SOL    HW233474   5.373   5.817  12.638  0.2093  0.1283  0.0623
  994SOL     OW33475   0.707   5.257   0.971 -0.3501 -0.4269  0.5971
  994SOL    HW133476   0.673   5.345   0.956 -0.3734 -0.7298 -1.3751
  994SOL    HW233477   0.699   5.214   0.887  2.3387 -1.4205  0.7641
  995SOL     OW33478   0.693   1.382   1.192  0.2654  0.1468  0.3452
  995SOL    HW133479   0.629   1.317   1.163  0.7889  0.1162 -0.7915
  995SOL    HW233480   0.653   1.467   1.172  0.7809  0.1244 -0.9021
  996SOL     OW33481   5.901   5.143  11.833  0.0982 -0.3172  0.7506
  996SOL    HW133482   5.837   5.209  11.858  0.8356 -0.1151  2.1680
  996SOL    HW233483   5.850   5.078  11.784 -1.2387 -0.2831  2.0419
  997SOL     OW33484   5.360   5.498  12.414  0.0493  1.0303  0.2094
  997SOL    HW133485   5.268   5.521  12.404 -0.2027  0.3144  0.7828
  997SOL    HW233486   5.385   5.461  12.329 -0.1214  1.4207 -0.0163
  998SOL     OW33487   4.590   1.816   0.900  0.4874 -0.1402  0.0710
  998SOL    HW133488   4.629   1.729   0.893  0.2589 -0.3032  0.7318
  998SOL    HW233489   4.600   1.854   0.813 -0.8826 -1.4386 -0.6965
  999SOL     OW33490   0.600   4.060   0.515 -0.2680  0.1771 -0.6142
  999SOL    HW133491   0.592   4.060   0.610 -2.0306 -0.6489 -0.7117
  999SOL    HW233492   0.662   4.130   0.495 -0.1231  0.5690  1.1118
 1000SOL     OW33493   3.172   4.328   0.660  0.2600 -0.3178  0.2871
 1000SOL    HW133494   3.163   4.412   0.615 -0.1147 -1.1157 -1.2128
 1000SOL    HW233495   3.225   4.275   0.601  0.6598 -1.0882  1.3063
 1001SOL     OW33496   5.018   4.809  11.717 -0.0997  0.1336  0.0268
 1001SOL    HW133497   5.014   4.877  11.650  0.0219  1.6074  1.4384
 1001SOL    HW233498   5.071   4.740  11.679 -1.0465  0.3731 -1.8343
 1002SOL     OW33499   3.240   5.042   1.677  0.7044  0.1591  0.3223
 1002SOL    HW133500   3.326   5.077   1.655  0.9047 -0.3667  0.2474
 1002SOL    HW233501   3.259   4.958   1.720  0.2035 -0.6844 -1.0200
 1003SOL     OW33502   6.001   4.091   1.503  0.2013 -0.0978  0.0038
 1003SOL    HW133503   5.936   4.070   1.571  2.0918 -0.0097  1.9303
 1003SOL    HW233504   5.956   4.071   1.421 -2.7341  1.1576  1.1281
 1004SOL     OW33505   1.425   5.133   0.071  0.2732 -0.7304  0.3635
 1004SOL    HW133506   1.452   5.072   0.139  2.5353  1.0536  1.1995
 1004SOL    HW233507   1.481   5.210   0.084 -2.8271  1.8220 -0.2307
 1005SOL     OW33508   4.715   5.961   0.390  0.4842 -0.2490 -0.7836
 1005SOL    HW133509   4.758   5.982   0.473  1.9555  0.1883 -1.6145
 1005SOL    HW233510   4.639   6.019   0.387  0.3503 -0.3487  0.2915
 1006SOL     OW33511   3.684   4.508  11.387 -0.0256  0.3742 -0.2772
 1006SOL    HW133512   3.768   4.522  11.344 -0.0593 -1.6780 -1.1231
 1006SOL    HW233513   3.649   4.428  11.347 -0.8144 -0.7740  2.4315
 1007SOL     OW33514   2.483   3.485  11.746  0.1000 -0.0093  0.2390
 1007SOL    HW133515   2.549   3.486  11.677  1.0403 -1.3988  1.0751
 1007SOL    HW233516   2.424   3.557  11.724  0.9828  0.2517 -1.4093
 1008SOL     OW33517   2.399   0.856  11.504  1.3684  0.2743  0.6990
 1008SOL    HW133518   2.426   0.774  11.463  2.0619  1.2366 -0.8758
 1008SOL    HW233519   2.441   0.855  11.591 -1.2919 -2.4590  2.1217
 1009SOL     OW33520   5.015   1.142   1.360 -0.2101  0.0179 -0.4692
 1009SOL    HW133521   5.065   1.070   1.398  0.3052  0.1016 -0.9686
 1009SOL    HW233522   4.965   1.102   1.289  0.3408  0.2038 -0.9710
 1010SOL     OW33523   0.364   1.327   0.381  0.3975  0.5022 -0.1491
 1010SOL    HW133524   0.346   1.267   0.309  0.6145  2.3109 -1.7964
 1010SOL    HW233525   0.383   1.411   0.338  0.0674  1.7692  2.0417
 1011SOL     OW33526   0.809   5.391   0.067  0.3541 -0.0520  0.7369
 1011SOL    HW133527   0.904   5.396   0.062  0.4727 -2.0475  0.0771
 1011SOL    HW233528   0.792   5.304   0.104 -1.2318 -0.2599 -0.4031
 1012SOL     OW33529   1.678   0.971  11.524 -0.2869  0.2313 -0.3204
 1012SOL    HW133530   1.710   0.977  11.614 -0.0982  0.1638 -0.3823
 1012SOL    HW233531   1.735   0.907  11.482 -1.0059 -0.4966 -0.2168
 1013SOL     OW33532   5.284   0.109  12.284  0.1604  0.0348 -0.1633
 1013SOL    HW133533   5.245   0.027  12.252  0.5044  0.1267 -0.8446
 1013SOL    HW233534   5.247   0.176  12.227  0.3401  0.2803  0.0100
 1014SOL     OW33535   5.678   1.053  11.937 -0.3985 -0.1769 -0.3168
 1014SOL    HW133536   5.716   1.102  12.011 -0.9854 -1.4188  0.8484
 1014SOL    HW233537   5.612   1.112  11.902  1.1188  1.1737 -1.0559
 1015SOL     OW33538   6.265   3.467   0.515  0.1894  0.2144  0.1182
 1015SOL    HW133539   6.199   3.412   0.556  0.8425  0.6785  1.8965
 1015SOL    HW233540   6.349   3.433   0.547  0.6734  1.3615  0.1387
 1016SOL     OW33541   5.271   3.792  11.302  0.1114  0.4776 -0.1659
 1016SOL    HW133542   5.206   3.754  11.362  0.8757  0.8670  0.9431
 1016SOL    HW233543   5.231   3.874  11.273 -0.7824 -0.2861 -1.1773
 1017SOL     OW33544   4.882   2.064   0.670  0.0747  0.3098 -0.8377
 1017SOL    HW133545   4.790   2.041   0.677  0.1105  0.5625  2.0200
 1017SOL    HW233546   4.921   1.994   0.619 -1.5512 -0.2693 -1.3421
 1018SOL     OW33547   4.880   5.415  11.742  0.0972 -0.5357 -0.6542
 1018SOL    HW133548   4.899   5.488  11.683 -0.9814 -0.0457 -0.4174
 1018SOL    HW233549   4.834   5.351  11.688 -0.7876 -0.1368 -0.3947
 1019SOL     OW33550   2.061   1.943  12.104  0.5908 -0.2202 -0.4865
 1019SOL    HW133551   2.123   1.948  12.177  1.3628  0.4380 -1.1636
 1019SOL    HW233552   2.007   2.021  12.113  0.4460 -0.3301 -0.4057
 1020SOL     OW33553   1.983   3.400   0.592 -0.2447 -0.2035 -0.3388
 1020SOL    HW133554   2.006   3.486   0.626 -0.4796 -0.6665  1.0328
 1020SOL    HW233555   2.055   3.376   0.534  0.5796  0.2567  0.4786
 1021SOL     OW33556   0.448   1.254   0.066 -0.3728  0.0890  0.0757
 1021SOL    HW133557   0.378   1.299   0.019  0.7613 -0.2662 -2.0951
 1021SOL    HW233558   0.439   1.163   0.040  0.2202 -0.1511  0.6884
 1022SOL     OW33559   4.065   4.023   0.073  0.3097 -0.1876 -0.3944
 1022SOL    HW133560   3.982   4.003   0.117  0.0595 -0.8379 -1.1391
 1022SOL    HW233561   4.111   4.081   0.134  0.3352 -1.6992  1.0941
 1023SOL     OW33562   1.913   2.167  12.070  0.4790 -0.0814 -0.0503
 1023SOL    HW133563   1.881   2.194  12.156  0.9955 -0.6855  0.3479
 1023SOL    HW233564   1.921   2.249  12.021 -2.1625  0.0498 -0.3804
 1024SOL     OW33565   3.341   4.138  11.983  0.0905 -0.0101 -0.3217
 1024SOL    HW133566   3.355   4.093  11.899  1.4203 -0.3542  0.0544
 1024SOL    HW233567   3.261   4.099  12.018 -0.2432 -0.1674 -1.2368
 1025SOL     OW33568   3.332   6.223   1.413 -0.3038 -0.4795 -0.4294
 1025SOL    HW133569   3.416   6.270   1.416 -0.1931 -0.3726 -2.8901
 1025SOL    HW233570   3.355   6.132   1.431  0.1910 -0.3143 -0.2076
 1026SOL     OW33571   6.153   4.674  12.065 -0.1334 -0.4836  0.1688
 1026SOL    HW133572   6.240   4.659  12.028 -0.3441  1.6227 -1.4038
 1026SOL    HW233573   6.095   4.620  12.011  0.1622 -1.8569  1.1898
 1027SOL     OW33574   5.449   5.381   1.007 -0.2725 -0.5106  0.2137
 1027SOL    HW133575   5.526   5.350   0.959  1.2231  1.4226  1.1707
 1027SOL    HW233576   5.475   5.468   1.038 -1.9356 -0.7952  2.6711
 1028SOL     OW33577   5.159   2.956   0.943  0.0680  0.1914 -0.0484
 1028SOL    HW133578   5.103   2.948   1.021 -1.5957  1.7806 -0.9948
 1028SOL    HW233579   5.099   2.941   0.869  1.3986 -0.3158 -1.0744
 1029SOL     OW33580   3.180   4.889   1.072  0.2696  0.1576  0.5130
 1029SOL    HW133581   3.213   4.799   1.071  0.1484  0.1078  0.9068
 1029SOL    HW233582   3.180   4.914   1.164  0.2574  0.5460  0.4105
 1030SOL     OW33583   0.630   5.827  12.343 -0.2594 -0.3916 -0.1816
 1030SOL    HW133584   0.698   5.888  12.312 -1.8642  0.5867 -2.0630
 1030SOL    HW233585   0.677   5.763  12.396  1.8098  1.3900  0.2889
 1031SOL     OW33586   0.773   0.095   0.990  0.1137 -0.1897  0.3728
 1031SOL    HW133587   0.776   0.183   1.027 -0.8379 -0.8910  2.2910
 1031SOL    HW233588   0.817   0.102   0.905  0.5798  1.9817  0.7459
 1032SOL     OW33589   5.201   2.067   1.688 -0.1328 -0.0146  0.3147
 1032SOL    HW133590   5.205   1.998   1.754  0.4559  0.7809  1.1450
 1032SOL    HW233591   5.285   2.112   1.695 -1.6899  2.9148  2.1810
 1033SOL     OW33592   6.006   0.028   1.366 -0.1782 -0.2853  0.0519
 1033SOL    HW133593   5.940  -0.029   1.406  1.0201 -2.7079 -1.1595
 1033SOL    HW233594   6.026  -0.015   1.283  2.2911  0.8474 -0.0084
 1034SOL     OW33595   4.806   6.203  12.070  0.0925 -0.3663  0.1228
 1034SOL    HW133596   4.776   6.265  12.136 -0.7788 -2.0789  1.4154
 1034SOL    HW233597   4.734   6.198  12.007 -0.3496 -0.9094  0.6548
 1035SOL     OW33598   0.839   3.257  12.568 -0.4943 -0.3488 -0.9859
 1035SOL    HW133599   0.918   3.253  12.514 -1.0904  0.1682 -1.9109
 1035SOL    HW233600   0.814   3.165  12.581 -0.0549 -0.4910 -1.1485
 1036SOL     OW33601   2.321   4.026   0.335 -0.6001  0.4199  0.7263
 1036SOL    HW133602   2.283   4.093   0.392 -1.6844  0.7918 -0.4050
 1036SOL    HW233603   2.369   4.075   0.269 -1.2570  0.0816 -0.0092
 1037SOL     OW33604   1.183   4.884   1.848 -0.6577  0.6109  0.1614
 1037SOL    HW133605   1.146   4.798   1.825 -0.1118 -0.2077  2.1040
 1037SOL    HW233606   1.256   4.896   1.788  0.4261 -1.1838  1.0529
 1038SOL     OW33607   2.798   0.212   1.421  0.4213  0.0845  0.3247
 1038SOL    HW133608   2.727   0.264   1.459 -1.0089 -1.6291  0.1485
 1038SOL    HW233609   2.753   0.139   1.377  2.2018  0.0000 -1.5124
 1039SOL     OW33610   3.403   3.162   0.831 -0.4751 -0.2623 -0.4873
 1039SOL    HW133611   3.454   3.161   0.750  1.0566 -1.9396  0.4411
 1039SOL    HW233612   3.430   3.242   0.875 -1.0208  0.4556 -1.4127
 1040SOL     OW33613   1.992   4.809   0.971 -0.1063 -0.1753  0.1367
 1040SOL    HW133614   2.027   4.760   1.046 -1.8490 -0.7006  0.6634
 1040SOL    HW233615   1.994   4.900   0.999  1.1428 -0.1484  0.0086
 1041SOL     OW33616   2.750   4.190   0.885 -0.6855 -0.5241  0.6519
 1041SOL    HW133617   2.668   4.239   0.889 -0.0331  0.8848 -1.5151
 1041SOL    HW233618   2.744   4.141   0.803 -0.1157 -1.9131  1.4041
 1042SOL     OW33619   5.966   0.070   0.314  0.1633 -0.1238  0.4423
 1042SOL    HW133620   6.003  -0.011   0.280 -1.7330 -0.5941 -0.6579
 1042SOL    HW233621   5.936   0.048   0.402 -1.6774 -1.1060 -0.3743
 1043SOL     OW33622   2.705   1.869   0.561  0.2549 -0.3454 -0.4227
 1043SOL    HW133623   2.737   1.821   0.484  2.0112 -2.0997  1.2776
 1043SOL    HW233624   2.728   1.813   0.635 -1.9285  0.9787  1.3838
 1044SOL     OW33625   3.575   4.736  11.486 -0.6138 -0.7078  0.1066
 1044SOL    HW133626   3.628   4.657  11.474 -1.3172 -1.2968  0.7747
 1044SOL    HW233627   3.491   4.704  11.520 -1.0497  0.2947  0.0216
 1045SOL     OW33628   0.631   3.331   0.373  0.5250  0.2626  0.0433
 1045SOL    HW133629   0.538   3.350   0.383  0.6135  0.2340  1.0655
 1045SOL    HW233630   0.649   3.265   0.440  1.2973  0.3451 -0.0729
 1046SOL     OW33631   3.171   3.863  11.513  0.3957  0.3816  0.3032
 1046SOL    HW133632   3.114   3.856  11.436  1.2517  0.3504 -0.3511
 1046SOL    HW233633   3.156   3.952  11.545 -0.4882  0.1603  0.5327
 1047SOL     OW33634   5.983   5.683   1.500  0.2487 -0.2047  0.4141
 1047SOL    HW133635   6.066   5.674   1.454  0.5084 -1.3246  1.0636
 1047SOL    HW233636   6.005   5.667   1.592 -0.7030 -0.6610  0.5721
 1048SOL     OW33637   0.505   4.427   0.693  0.6354 -0.3476 -0.1119
 1048SOL    HW133638   0.427   4.376   0.669 -0.0367  1.7875 -3.0320
 1048SOL    HW233639   0.471   4.504   0.738  1.2428 -0.3479  0.3562
 1049SOL     OW33640   2.345   5.196   0.370  0.9905 -0.2275  0.1117
 1049SOL    HW133641   2.399   5.234   0.301  1.7653 -1.1234  0.2012
 1049SOL    HW233642   2.338   5.103   0.346  0.6658 -0.3978  0.8478
 1050SOL     OW33643   3.240   4.712   1.415  0.1221  0.1119 -0.0438
 1050SOL    HW133644   3.166   4.772   1.423 -1.2806 -1.5775  0.1188
 1050SOL    HW233645   3.256   4.682   1.505 -0.0533 -0.7319 -0.2839
 1051SOL     OW33646   4.715   0.287   0.440  0.5397  0.8577  0.7672
 1051SOL    HW133647   4.779   0.251   0.501  0.3282  0.3260  0.6853
 1051SOL    HW233648   4.764   0.352   0.389  0.6467  1.4961  1.6795
 1052SOL     OW33649   4.029   3.185  11.366  0.1778 -0.1016 -0.1318
 1052SOL    HW133650   3.986   3.112  11.322 -1.3962 -0.1634  1.4344
 1052SOL    HW233651   4.036   3.158  11.457 -0.0624  1.5226  0.3991
 1053SOL     OW33652   4.465   5.127   0.600 -0.0660  0.2675 -0.1717
 1053SOL    HW133653   4.535   5.082   0.553 -0.7779  0.3830 -1.3764
 1053SOL    HW233654   4.492   5.124   0.692  1.4148  0.1448 -0.5943
 1054SOL     OW33655   2.856   3.125  11.869  0.2355 -0.3865 -1.0482
 1054SOL    HW133656   2.833   3.032  11.877  0.4469 -0.5121 -1.8005
 1054SOL    HW233657   2.860   3.140  11.774 -0.6228  0.5938 -0.9522
 1055SOL     OW33658   1.478   5.726  12.752 -0.3837  0.1044  0.1366
 1055SOL    HW133659   1.411   5.776  12.706  0.0763  2.2255  1.5745
 1055SOL    HW233660   1.505   5.784  12.824  1.1712 -1.7222  1.1190
 1056SOL     OW33661   2.282   5.217   1.088  0.3537 -0.2696 -0.0525
 1056SOL    HW133662   2.314   5.142   1.038  0.1137 -0.6014  0.2889
 1056SOL    HW233663   2.220   5.180   1.150 -0.6707  0.3641 -0.6755
 1057SOL     OW33664   0.920   0.875  12.843 -0.4502 -0.0231  0.2891
 1057SOL    HW133665   0.962   0.937  12.783  0.7173 -2.2426 -1.3588
 1057SOL    HW233666   0.953   0.899  12.930 -2.8052  3.8018  0.3477
 1058SOL     OW33667   4.333   5.912  11.787 -0.3782  0.0672 -0.3221
 1058SOL    HW133668   4.349   5.996  11.831 -2.4260  0.6153 -0.5154
 1058SOL    HW233669   4.361   5.926  11.697 -0.5482  0.4898 -0.3101
 1059SOL     OW33670   0.378   5.498   0.321  0.6254  0.2172 -0.1691
 1059SOL    HW133671   0.455   5.454   0.357  0.4926 -0.0235 -0.1772
 1059SOL    HW233672   0.328   5.428   0.280 -0.1658  0.1774  0.8183
 1060SOL     OW33673   2.954   1.261  12.169 -0.1294  0.0471  0.0721
 1060SOL    HW133674   3.012   1.186  12.164  0.0249  0.1100  0.8249
 1060SOL    HW233675   2.873   1.231  12.128  0.3506 -0.1150 -0.7628
 1061SOL     OW33676   3.216   3.273  11.566  0.7000  0.1137  0.2404
 1061SOL    HW133677   3.289   3.246  11.511 -0.3096 -1.3471 -0.4445
 1061SOL    HW233678   3.165   3.193  11.579 -1.8687  1.4420 -0.9410
 1062SOL     OW33679   5.830   4.328   1.208  0.6911  0.1372  0.1513
 1062SOL    HW133680   5.771   4.312   1.282  1.9260  1.9632  1.6080
 1062SOL    HW233681   5.908   4.367   1.247  1.9602 -0.0923 -1.9877
 1063SOL     OW33682   6.019   2.353  11.717 -0.0916 -0.0281  0.0845
 1063SOL    HW133683   5.944   2.380  11.665  0.3571 -1.0199 -1.1359
 1063SOL    HW233684   6.064   2.434  11.740 -2.1583  0.7010  1.8965
 1064SOL     OW33685   4.001   3.790   0.296  0.2993  0.3426  0.2315
 1064SOL    HW133686   3.951   3.815   0.218 -1.3500 -1.2603  0.7174
 1064SOL    HW233687   4.083   3.754   0.261 -0.3415 -0.2077 -0.7712
 1065SOL     OW33688   2.820   1.178   1.497  0.0371 -0.1677 -0.1614
 1065SOL    HW133689   2.726   1.193   1.483  0.1047  1.1237  0.6160
 1065SOL    HW233690   2.827   1.083   1.509 -1.3047 -0.1944  0.6881
 1066SOL     OW33691   2.393   1.433   1.262  0.8003 -0.2597  0.5279
 1066SOL    HW133692   2.331   1.426   1.334  2.5308 -1.7966  1.9851
 1066SOL    HW233693   2.339   1.435   1.183 -1.1008 -0.3342  1.7733
 1067SOL     OW33694   1.994   6.391  12.525 -0.4252 -0.7505 -0.6889
 1067SOL    HW133695   1.927   6.411  12.460  0.6582 -0.3261 -1.7299
 1067SOL    HW233696   2.072   6.369  12.472  1.1615  1.8151  0.3914
 1068SOL     OW33697   3.636   1.440   1.212  0.4871 -0.0969  0.2832
 1068SOL    HW133698   3.703   1.457   1.278 -0.5110  1.1362  1.0445
 1068SOL    HW233699   3.637   1.346   1.200 -0.3034 -0.6048  3.2691
 1069SOL     OW33700   0.368   6.078  11.367 -0.2273 -0.3459  0.1835
 1069SOL    HW133701   0.341   6.021  11.438 -1.0182  0.2991  0.4203
 1069SOL    HW233702   0.370   6.166  11.405  0.4307 -0.1400 -0.3053
 1070SOL     OW33703   2.906   4.030   1.763  0.6011 -0.1184  0.3702
 1070SOL    HW133704   2.966   4.092   1.721 -0.5968  0.8437 -0.0085
 1070SOL    HW233705   2.922   4.039   1.857  0.5034  0.7173  0.3107
 1071SOL     OW33706   5.977   3.312  11.759  0.6509 -0.8167 -0.3652
 1071SOL    HW133707   6.029   3.232  11.761  0.0797 -1.1893 -0.0396
 1071SOL    HW233708   5.992   3.353  11.844  0.5992 -0.8032 -0.3623
 1072SOL     OW33709   4.998   3.323  12.228 -0.5240  0.6025  0.1864
 1072SOL    HW133710   5.047   3.361  12.155  0.4710 -2.6579 -0.9980
 1072SOL    HW233711   4.911   3.306  12.192 -0.1357 -0.6930 -0.1800
 1073SOL     OW33712   2.749   5.297  12.301  0.0219 -0.2969  0.0469
 1073SOL    HW133713   2.800   5.347  12.237  0.2378 -0.0189  0.4298
 1073SOL    HW233714   2.773   5.335  12.385  0.9174 -1.6943  0.4389
 1074SOL     OW33715   0.282   0.442   0.001 -0.0566  0.6417 -0.2621
 1074SOL    HW133716   0.332   0.500   0.058 -0.0878  0.5235 -0.1140
 1074SOL    HW233717   0.194   0.478  -0.000 -0.5242 -0.3841  1.2259
 1075SOL     OW33718   5.672   4.185   0.558 -0.1321  0.0941 -0.3376
 1075SOL    HW133719   5.673   4.127   0.635  1.2067  1.6062  0.8533
 1075SOL    HW233720   5.606   4.251   0.579 -1.3555 -0.7154 -1.5070
 1076SOL     OW33721   1.071   1.699  12.156 -0.2510  0.1176 -0.1466
 1076SOL    HW133722   1.143   1.658  12.204 -0.4955 -1.8641 -1.4061
 1076SOL    HW233723   1.110   1.778  12.118  1.6238 -1.4913 -1.7466
 1077SOL     OW33724   1.156   2.194  12.389  0.3869 -0.0804 -0.1056
 1077SOL    HW133725   1.062   2.180  12.382  0.2249  0.1614  1.4051
 1077SOL    HW233726   1.193   2.139  12.319 -0.7086 -2.0619  0.7904
 1078SOL     OW33727   2.269   0.438  11.914 -0.3384  0.7918 -0.3402
 1078SOL    HW133728   2.347   0.449  11.860  0.5406  1.1397  0.9533
 1078SOL    HW233729   2.302   0.423  12.003 -1.7481  1.9881  0.4384
 1079SOL     OW33730   2.553   5.974   1.469 -0.2064  0.5941 -0.3807
 1079SOL    HW133731   2.619   5.938   1.410 -0.7548  1.8648 -1.8522
 1079SOL    HW233732   2.518   5.898   1.516  2.5700 -0.0592  0.7742
 1080SOL     OW33733   4.769   1.662  11.794 -0.3324  0.0385 -0.4129
 1080SOL    HW133734   4.772   1.738  11.736  0.1672 -0.4439 -1.0341
 1080SOL    HW233735   4.681   1.665  11.832 -0.8817  0.0601 -1.6296
 1081SOL     OW33736   3.913   1.143   0.914 -0.6978 -0.3222  0.4607
 1081SOL    HW133737   3.990   1.149   0.857  0.1506  0.4655  1.6361
 1081SOL    HW233738   3.880   1.055   0.900  0.9482 -0.9851  0.5698
 1082SOL     OW33739   3.384   4.063  11.341 -0.4462  0.1683  0.6074
 1082SOL    HW133740   3.371   4.032  11.251  1.7642  0.9930 -0.0662
 1082SOL    HW233741   3.304   4.111  11.362 -1.3713 -0.7868 -0.5813
 1083SOL     OW33742   5.531   1.676  11.836  0.1902  0.2423 -0.1845
 1083SOL    HW133743   5.606   1.642  11.885  0.9231  0.4591 -1.1366
 1083SOL    HW233744   5.455   1.639  11.881  0.8151  0.7353  1.3412
 1084SOL     OW33745   5.779   4.551   0.648 -0.1673  0.2938  0.2200
 1084SOL    HW133746   5.832   4.604   0.709 -1.3484  0.9372  0.7336
 1084SOL    HW233747   5.841   4.492   0.607  0.5158 -1.0701  3.0003
 1085SOL     OW33748   5.853   4.545  11.608 -0.1807 -0.1778 -0.5160
 1085SOL    HW133749   5.851   4.588  11.693  0.3523 -0.9552 -0.0969
 1085SOL    HW233750   5.780   4.482  11.611 -0.2410 -0.1177 -0.6890
 1086SOL     OW33751   5.186   5.801   1.480 -0.0970 -0.3015 -0.6877
 1086SOL    HW133752   5.251   5.861   1.518  0.6033 -1.1208 -0.5580
 1086SOL    HW233753   5.103   5.847   1.488  0.6623  1.4503 -2.2599
 1087SOL     OW33754   1.017   0.292   0.044  0.2642 -0.1455 -0.0939
 1087SOL    HW133755   0.938   0.306   0.096  1.4547  1.7001  1.3046
 1087SOL    HW233756   0.991   0.316  -0.045 -1.6038 -2.6874 -0.3863
 1088SOL     OW33757   0.097   1.891   1.250 -0.3144 -0.1931  0.3404
 1088SOL    HW133758   0.041   1.936   1.313 -1.2534 -0.8716  0.0117
 1088SOL    HW233759   0.058   1.909   1.165 -0.3001 -1.0337  0.1433
 1089SOL     OW33760   3.205   3.004   0.704  0.3224 -0.0929  0.0225
 1089SOL    HW133761   3.252   2.989   0.786 -0.6811 -0.9936  0.4633
 1089SOL    HW233762   3.217   3.097   0.686  0.2054  0.2108  1.4101
 1090SOL     OW33763   3.000   2.026  11.811  0.3576 -0.4090 -0.3939
 1090SOL    HW133764   3.006   1.931  11.801 -0.6459 -0.5063 -0.2454
 1090SOL    HW233765   3.058   2.046  11.885 -1.3712 -1.2759  1.3026
 1091SOL     OW33766   3.354   1.733   0.149  0.0558  0.3975 -0.1483
 1091SOL    HW133767   3.288   1.784   0.103  1.9125  2.1534 -1.0296
 1091SOL    HW233768   3.334   1.642   0.129 -2.5074  0.8124  0.2710
 1092SOL     OW33769   3.645   4.419  11.644  0.2248  0.1316 -0.5129
 1092SOL    HW133770   3.560   4.373  11.640 -0.5011  1.3296  0.3952
 1092SOL    HW233771   3.659   4.450  11.555 -0.2357 -0.1761 -0.7011
 1093SOL     OW33772   6.407   0.599  11.593 -0.3256 -0.8892  0.5695
 1093SOL    HW133773   6.411   0.660  11.519  2.4412 -2.3492 -0.6261
 1093SOL    HW233774   6.371   0.652  11.665  0.2421  1.6287 -0.8580
 1094SOL     OW33775   3.476   5.487   0.025 -0.1516 -0.3596  0.0139
 1094SOL    HW133776   3.446   5.510   0.113 -0.2108  1.1745 -0.3926
 1094SOL    HW233777   3.548   5.426   0.041 -0.3955 -0.3939  1.1169
 1095SOL     OW33778   1.194   1.342  12.700 -0.4768 -0.3472 -0.7175
 1095SOL    HW133779   1.106   1.372  12.724 -0.4146 -1.0057  0.3930
 1095SOL    HW233780   1.251   1.379  12.766  0.1452  0.3392 -1.6141
 1096SOL     OW33781   0.252   3.050   1.871 -0.6130  0.0409  0.9809
 1096SOL    HW133782   0.337   3.091   1.890  0.9670 -1.1585 -2.5868
 1096SOL    HW233783   0.274   2.977   1.814 -3.9622 -1.5396  1.5301
 1097SOL     OW33784   5.348   4.122   0.967  0.7106 -0.0515  0.6068
 1097SOL    HW133785   5.314   4.034   0.986  0.0385  0.4556  1.8424
 1097SOL    HW233786   5.406   4.142   1.040  0.1265  0.8998  0.8301
 1098SOL     OW33787   1.532   3.961  12.394  0.1476  0.3602 -0.2771
 1098SOL    HW133788   1.613   4.006  12.417  0.7499 -0.1655 -1.2972
 1098SOL    HW233789   1.551   3.918  12.310 -0.7089 -0.9966  0.1870
 1099SOL     OW33790   1.411   4.005   1.311  0.7888 -0.0636 -0.3755
 1099SOL    HW133791   1.381   4.023   1.400 -0.9188 -2.7056 -0.3250
 1099SOL    HW233792   1.495   3.959   1.323  1.3653  1.0004 -0.2292
 1100SOL     OW33793   5.076   5.960   0.880  0.0772  0.3173  0.1857
 1100SOL    HW133794   5.066   5.994   0.969  0.9676  0.7655  0.1306
 1100SOL    HW233795   5.120   6.030   0.833 -0.2022 -0.0019 -0.5589
 1101SOL     OW33796   1.997   0.630  11.279 -0.5370 -0.7798 -0.4263
 1101SOL    HW133797   2.066   0.575  11.242 -0.6341 -2.3832  1.6033
 1101SOL    HW233798   2.044   0.701  11.321 -0.1479 -1.3789  0.1764
 1102SOL     OW33799   1.534   1.399   1.230  0.0341  0.2284  0.5279
 1102SOL    HW133800   1.465   1.365   1.288  0.7135 -3.2470 -0.4858
 1102SOL    HW233801   1.553   1.327   1.170  2.0627  2.3365 -1.5853
 1103SOL     OW33802   0.625   4.532  12.014 -0.3074  0.2141  0.4502
 1103SOL    HW133803   0.626   4.439  11.991  1.3079 -0.2717  2.2363
 1103SOL    HW233804   0.659   4.576  11.936 -2.1820 -0.4989 -0.8609
 1104SOL     OW33805   4.485   6.048   1.591 -0.0630  0.3616 -0.1203
 1104SOL    HW133806   4.490   6.023   1.499  0.2431  1.3970 -0.3975
 1104SOL    HW233807   4.440   6.132   1.591  0.8783  0.8955  0.5668
 1105SOL     OW33808   4.241   4.097  11.446  0.2003  0.0951 -0.0465
 1105SOL    HW133809   4.258   4.013  11.488 -0.4791 -0.7411 -1.3827
 1105SOL    HW233810   4.216   4.155  11.518 -0.8929 -1.2619  0.7170
 1106SOL     OW33811   3.072   4.357  11.910  0.0281  0.0220  0.1831
 1106SOL    HW133812   3.073   4.299  11.834  0.1362 -2.0799  1.7054
 1106SOL    HW233813   3.163   4.387  11.918  0.5698 -1.6587  0.8145
 1107SOL     OW33814   4.585   2.869   1.310  0.2682  0.0093  0.4336
 1107SOL    HW133815   4.530   2.801   1.273 -0.8273  1.0097  0.1410
 1107SOL    HW233816   4.651   2.887   1.243 -0.0065 -0.1115  0.1304
 1108SOL     OW33817   6.356   5.514  11.539  0.4700 -0.2700 -0.0937
 1108SOL    HW133818   6.452   5.514  11.532  0.4662  0.1221 -0.1391
 1108SOL    HW233819   6.331   5.604  11.522  0.0115 -0.5906 -1.1404
 1109SOL     OW33820   5.819   0.762  11.291 -0.7492  0.0787  0.1538
 1109SOL    HW133821   5.872   0.773  11.370  0.5254 -0.0168 -0.6536
 1109SOL    HW233822   5.793   0.670  11.292  2.1531 -0.8726 -1.2023
 1110SOL     OW33823   2.399   2.841   1.070 -0.4440 -0.2396  0.5041
 1110SOL    HW133824   2.325   2.791   1.035 -0.7261  0.4892  0.0490
 1110SOL    HW233825   2.375   2.932   1.056  1.7931  0.0380 -2.3519
 1111SOL     OW33826   3.841   1.642  11.480 -0.4371 -0.0952 -0.4999
 1111SOL    HW133827   3.833   1.550  11.454 -0.4886 -0.5700  1.0967
 1111SOL    HW233828   3.755   1.665  11.514 -0.5379  0.6724 -1.2532
 1112SOL     OW33829   1.071   2.917   0.657  0.4408  0.4308  0.2002
 1112SOL    HW133830   1.076   2.823   0.639  3.3126  0.4267  0.6178
 1112SOL    HW233831   1.001   2.948   0.600  0.7880 -1.6335 -1.4830
 1113SOL     OW33832   3.088   4.048  12.055 -0.2697  0.0364 -0.2354
 1113SOL    HW133833   3.026   4.102  12.105  0.2982 -0.6427  1.2683
 1113SOL    HW233834   3.066   4.065  11.963 -1.9987  0.5900  0.2426
 1114SOL     OW33835   5.338   4.668  11.263 -0.4109  0.1713  0.2114
 1114SOL    HW133836   5.428   4.698  11.248 -0.1679 -0.0295  1.2216
 1114SOL    HW233837   5.331   4.586  11.215 -0.1848  0.3853 -0.1942
 1115SOL     OW33838   5.591   1.633  11.216 -0.2552  0.0052 -0.2743
 1115SOL    HW133839   5.585   1.654  11.123  1.9742 -1.6631 -0.8688
 1115SOL    HW233840   5.564   1.541  11.222 -0.1712  0.0340  0.7140
 1116SOL     OW33841   1.909   2.297  11.755 -0.3060 -0.2137 -0.6171
 1116SOL    HW133842   1.885   2.204  11.745 -1.0556 -0.2567  1.2670
 1116SOL    HW233843   1.826   2.340  11.775  0.0658  0.8633 -1.3461
 1117SOL     OW33844   0.964   5.454  11.289  0.8078 -0.1633  0.0193
 1117SOL    HW133845   0.955   5.458  11.384  0.3398  1.0587 -0.0642
 1117SOL    HW233846   0.906   5.522  11.256  0.9917 -0.5507 -1.1473
 1118SOL     OW33847   5.304   0.935  12.446  0.0097 -0.1282  0.0275
 1118SOL    HW133848   5.241   0.934  12.374 -1.8299 -3.8847  1.3866
 1118SOL    HW233849   5.263   0.990  12.512  0.3191  0.9842 -0.6799
 1119SOL     OW33850   1.000   1.732   0.100  0.3927 -0.4766 -0.3663
 1119SOL    HW133851   0.907   1.711   0.110  0.4329  0.1094  1.8447
 1119SOL    HW233852   1.045   1.670   0.158  1.2484  0.1098 -0.3775
 1120SOL     OW33853   3.934   5.255   1.276 -0.1157 -0.2293 -0.2300
 1120SOL    HW133854   3.875   5.298   1.339 -0.7883  2.3486 -2.4483
 1120SOL    HW233855   4.021   5.268   1.312 -0.6128 -1.4929  1.6103
 1121SOL     OW33856   0.638   0.794   0.563  1.0980  0.8054  0.3748
 1121SOL    HW133857   0.551   0.769   0.592  1.7244 -2.1163 -0.0143
 1121SOL    HW233858   0.624   0.865   0.500 -1.1998 -1.0835 -1.3950
 1122SOL     OW33859   2.929   5.318  11.717  0.0151  0.2426 -0.6507
 1122SOL    HW133860   2.847   5.286  11.754  0.1680  0.0880 -0.4441
 1122SOL    HW233861   2.904   5.395  11.666 -0.3655 -0.2070 -1.1641
 1123SOL     OW33862   2.964   1.896   1.434  0.0072  0.1863  0.1848
 1123SOL    HW133863   2.955   1.802   1.421  2.2711 -0.0821  0.1660
 1123SOL    HW233864   3.010   1.927   1.357 -1.2085  1.4504 -0.0804
 1124SOL     OW33865   2.818   3.615  11.631  0.0832 -0.1690 -0.2418
 1124SOL    HW133866   2.863   3.648  11.554 -0.5013  1.8651  0.2443
 1124SOL    HW233867   2.785   3.693  11.676  0.8095 -1.2326  2.3445
 1125SOL     OW33868   4.472   2.311  11.183 -0.4383  0.2114  0.9211
 1125SOL    HW133869   4.565   2.327  11.165  0.2861 -1.9514  2.2853
 1125SOL    HW233870   4.436   2.397  11.204  1.2283  1.1109  0.2956
 1126SOL     OW33871   6.145   2.508   1.392  0.7545 -0.3199  0.1377
 1126SOL    HW133872   6.225   2.561   1.391  0.0169  0.8343  0.9158
 1126SOL    HW233873   6.156   2.449   1.467 -0.0498  1.3720  1.6650
 1127SOL     OW33874   5.381   0.994   1.510  0.4727  0.1409 -0.3114
 1127SOL    HW133875   5.421   1.054   1.573  2.7838 -0.2218 -1.3277
 1127SOL    HW233876   5.346   1.050   1.441  1.0149  0.4164 -0.3700
 1128SOL     OW33877   1.392   3.504   0.164 -0.2911  0.3033 -0.2605
 1128SOL    HW133878   1.333   3.506   0.240  1.4631  1.0505  1.1518
 1128SOL    HW233879   1.375   3.587   0.119  0.1746  0.8831  0.5866
 1129SOL     OW33880   6.040   3.903   0.824  0.0762  0.4955  0.0759
 1129SOL    HW133881   5.977   3.898   0.752  0.6741  0.5578 -0.4664
 1129SOL    HW233882   6.086   3.819   0.821  1.1587  1.0880 -0.6218
 1130SOL     OW33883   4.039   4.580   1.555 -0.1373  0.0947  0.0587
 1130SOL    HW133884   4.124   4.541   1.571  0.5656 -0.1655 -3.5244
 1130SOL    HW233885   3.977   4.507   1.559 -0.0109  0.0338  1.1774
 1131SOL     OW33886   0.980   3.523  12.135  0.0361  0.3290 -0.1365
 1131SOL    HW133887   1.010   3.468  12.063  1.3229  1.9214 -0.8851
 1131SOL    HW233888   0.891   3.492  12.154 -0.0350 -0.6351 -1.8854
 1132SOL     OW33889   5.936   6.397  11.746 -0.4371  0.6154  0.1399
 1132SOL    HW133890   5.950   6.485  11.781 -0.0051  0.3366  0.6862
 1132SOL    HW233891   6.020   6.354  11.756 -0.1955  0.6237 -1.5844
 1133SOL     OW33892   2.479   0.611  11.444 -0.2316 -0.1157  0.0142
 1133SOL    HW133893   2.470   0.524  11.403 -0.8697  0.1787 -0.4800
 1133SOL    HW233894   2.572   0.617  11.465  0.3792  0.1701 -2.4290
 1134SOL     OW33895   2.708   1.686   1.474 -0.5238  0.0446  0.5765
 1134SOL    HW133896   2.639   1.751   1.486 -1.3301 -0.9710  1.7856
 1134SOL    HW233897   2.663   1.610   1.436  0.2498 -0.0655 -0.1350
 1135SOL     OW33898   3.410   5.616   0.792 -0.1036  0.0685 -0.2765
 1135SOL    HW133899   3.476   5.676   0.827 -0.8663  0.9439 -0.3013
 1135SOL    HW233900   3.458   5.561   0.730  0.6598  0.4995 -0.0789
 1136SOL     OW33901   3.255   3.563  12.386 -0.4170  0.1694 -0.6154
 1136SOL    HW133902   3.350   3.547  12.386 -0.0971  1.7221  1.1940
 1136SOL    HW233903   3.216   3.476  12.388  1.0212 -0.4883  0.3323
 1137SOL     OW33904   4.301   4.529  11.611  0.1003  0.0479 -0.4520
 1137SOL    HW133905   4.344   4.452  11.647  0.0855  0.4907  0.5344
 1137SOL    HW233906   4.348   4.604  11.649  0.2663  0.5322 -1.5781
 1138SOL     OW33907   5.765   5.669   1.291  0.9559 -0.4738 -0.1779
 1138SOL    HW133908   5.770   5.716   1.374 -1.5370  0.1876 -0.3289
 1138SOL    HW233909   5.838   5.607   1.294  0.6449 -0.8405  2.7208
 1139SOL     OW33910   0.873   1.525   0.323 -0.2487  0.0932  0.2323
 1139SOL    HW133911   0.814   1.570   0.383 -1.1311  1.3890 -1.5140
 1139SOL    HW233912   0.815   1.477   0.264  0.5613 -0.5982 -0.0289
 1140SOL     OW33913   2.043   5.826  11.705 -0.0145  0.4876 -0.1601
 1140SOL    HW133914   1.999   5.777  11.636  0.3086  1.5174 -1.1402
 1140SOL    HW233915   1.994   5.908  11.711  0.6110  0.8558  0.0511
 1141SOL     OW33916   1.225   4.220  11.259 -0.0531 -0.1753  0.0809
 1141SOL    HW133917   1.188   4.212  11.171  0.0663  0.6505 -0.0550
 1141SOL    HW233918   1.235   4.315  11.272 -0.2082 -0.2779  1.0402
 1142SOL     OW33919   4.500   2.720  11.512  0.1552 -0.4428  0.1242
 1142SOL    HW133920   4.493   2.708  11.418 -0.0785 -0.6105  0.1602
 1142SOL    HW233921   4.593   2.732  11.529  0.0121  2.0891 -0.4263
 1143SOL     OW33922   6.038   5.184   0.687  0.1061  0.2083 -0.1357
 1143SOL    HW133923   6.047   5.148   0.599 -1.4378 -0.4534 -0.0627
 1143SOL    HW233924   6.039   5.107   0.744  0.0575  0.5452  0.3197
 1144SOL     OW33925   4.875   4.626  11.345  0.8112  0.3821 -0.0341
 1144SOL    HW133926   4.946   4.672  11.299 -0.6799 -0.1185 -3.0993
 1144SOL    HW233927   4.795   4.660  11.306 -0.6109 -0.3553  2.0666
 1145SOL     OW33928   2.992   4.150   0.599  0.5655  0.2024 -0.0908
 1145SOL    HW133929   3.067   4.209   0.609 -0.4433  1.2536  1.7511
 1145SOL    HW233930   2.926   4.202   0.553  0.4433 -0.2457 -0.4332
 1146SOL     OW33931   0.014   1.922   0.282 -0.6036  0.3037 -0.7243
 1146SOL    HW133932   0.084   1.954   0.340 -1.1327 -0.2535  0.2557
 1146SOL    HW233933   0.038   1.954   0.195  1.4548 -0.7793 -0.6085
 1147SOL     OW33934   0.048   3.182  12.287 -0.2048 -0.3157 -0.2902
 1147SOL    HW133935   0.007   3.096  12.300 -0.9532  0.2234  1.0850
 1147SOL    HW233936   0.140   3.167  12.311 -0.3442 -0.7131  0.0160
 1148SOL     OW33937   1.601   4.299  11.144  0.2962 -0.6175 -0.2525
 1148SOL    HW133938   1.607   4.277  11.050 -0.4111 -0.8046 -0.2597
 1148SOL    HW233939   1.668   4.367  11.157  0.0918 -0.2604 -0.9946
 1149SOL     OW33940   3.819   5.155  11.953 -0.2377 -0.1030  0.3295
 1149SOL    HW133941   3.787   5.076  11.996 -1.2410  0.4927  0.7132
 1149SOL    HW233942   3.906   5.170  11.991  0.2352 -1.3468 -0.2034
 1150SOL     OW33943   5.677   5.596  11.967  0.0192 -0.0937 -0.0975
 1150SOL    HW133944   5.743   5.640  11.914  1.7445 -2.1105  0.2095
 1150SOL    HW233945   5.704   5.504  11.967 -1.7325 -0.6890  1.6399
 1151SOL     OW33946   4.025   4.043   0.425  0.3045  0.0613  0.3897
 1151SOL    HW133947   4.032   3.952   0.395  0.1526  0.4208 -0.8089
 1151SOL    HW233948   3.955   4.080   0.370  0.6410  1.0064  0.5865
 1152SOL     OW33949   1.833   5.519  12.500 -0.6849 -0.4731  0.6223
 1152SOL    HW133950   1.806   5.581  12.433 -2.3194 -0.8452  0.8963
 1152SOL    HW233951   1.752   5.497  12.547  0.2651 -0.9122  2.1337
 1153SOL     OW33952   2.777   6.007  11.805  0.3925 -0.0204 -0.1791
 1153SOL    HW133953   2.854   5.957  11.778 -0.7162 -2.5505  0.9764
 1153SOL    HW233954   2.716   5.999  11.732  0.5089  0.3612 -0.3210
 1154SOL     OW33955   6.422   2.926   1.429 -0.1496  0.0698  0.6466
 1154SOL    HW133956   6.467   2.984   1.367  1.1411 -0.7744  0.7474
 1154SOL    HW233957   6.330   2.949   1.421  0.0527  0.4133 -1.1463
 1155SOL     OW33958   4.525   3.976   0.624 -0.3774 -0.2360 -0.0150
 1155SOL    HW133959   4.513   3.902   0.565 -0.4228  0.6066 -1.1066
 1155SOL    HW233960   4.441   3.986   0.669 -0.9503  0.2027 -1.1427
 1156SOL     OW33961   2.730   0.612   1.548  0.6682  0.1732 -0.1795
 1156SOL    HW133962   2.679   0.544   1.590  1.7163 -1.1374 -0.9622
 1156SOL    HW233963   2.677   0.640   1.474  0.5266 -0.2822 -0.2508
 1157SOL     OW33964   0.083   5.982  11.822  0.0627  0.1840 -0.1996
 1157SOL    HW133965   0.071   5.890  11.799 -0.9682  0.4181 -0.6373
 1157SOL    HW233966   0.128   5.979  11.907  2.6187 -0.6957 -1.4634
 1158SOL     OW33967   4.740   3.233   0.392  0.5032 -0.0143  0.2332
 1158SOL    HW133968   4.827   3.245   0.355 -0.1355  0.4527 -1.1876
 1158SOL    HW233969   4.712   3.148   0.358  0.2333  0.0387  0.3250
 1159SOL     OW33970   5.433   4.950  12.677  0.2568 -0.2477  0.2435
 1159SOL    HW133971   5.486   4.997  12.612  0.4577 -0.5794  0.1660
 1159SOL    HW233972   5.495   4.928  12.747 -0.4040  2.2650  1.7569
 1160SOL     OW33973   1.295   2.026  12.210  0.3702  0.4659  0.2179
 1160SOL    HW133974   1.324   2.092  12.147  0.2144  0.6695  0.3544
 1160SOL    HW233975   1.283   1.947  12.158 -0.0103  0.6995 -0.0592
 1161SOL     OW33976   0.685   6.003  11.026  0.9831 -0.0482 -0.0520
 1161SOL    HW133977   0.718   5.917  11.000 -1.0560 -0.4394 -1.5360
 1161SOL    HW233978   0.631   5.985  11.103 -1.9055 -0.6694 -2.0936
 1162SOL     OW33979   1.286   1.855   1.156  0.2354  0.2557 -0.3661
 1162SOL    HW133980   1.261   1.788   1.091  0.0398 -0.1613  0.1349
 1162SOL    HW233981   1.214   1.918   1.154  0.1711  0.1806 -0.4657
 1163SOL     OW33982   3.265   4.141   0.499  0.6287 -0.1607  0.1141
 1163SOL    HW133983   3.287   4.137   0.406  0.1993  1.8877 -0.1196
 1163SOL    HW233984   3.258   4.050   0.526  2.1416 -0.8159 -1.5219
 1164SOL     OW33985   2.297   6.249   0.489  0.0862 -0.2781 -0.0671
 1164SOL    HW133986   2.209   6.242   0.451 -0.7535  1.1215  1.4731
 1164SOL    HW233987   2.324   6.339   0.472  1.1986 -0.6681 -0.4385
 1165SOL     OW33988   4.489   5.700   0.179 -0.0254  0.2311 -0.1992
 1165SOL    HW133989   4.534   5.737   0.103 -0.0584 -0.2633 -0.4641
 1165SOL    HW233990   4.457   5.615   0.149 -0.8163  0.4160  0.1040
 1166SOL     OW33991   5.167   2.320  12.840  0.3870  0.1274  0.1470
 1166SOL    HW133992   5.180   2.240  12.890  1.2961  0.7982  1.0301
 1166SOL    HW233993   5.079   2.349  12.865  0.2726 -0.2946  0.2469
 1167SOL     OW33994   3.742   5.161   1.683 -0.3365  0.2001  0.5942
 1167SOL    HW133995   3.660   5.123   1.715 -0.9314  1.2649  0.3649
 1167SOL    HW233996   3.750   5.130   1.593 -0.0774 -0.5463  0.8693
 1168SOL     OW33997   3.745   6.366   0.840  0.2571 -0.1067 -0.2365
 1168SOL    HW133998   3.716   6.298   0.779  3.4324 -1.4252 -0.4707
 1168SOL    HW233999   3.707   6.341   0.924  1.0413 -2.0022 -0.4019
 1169SOL     OW34000   3.865   2.158   1.772  0.2958  0.4200  0.1415
 1169SOL    HW134001   3.850   2.194   1.860 -3.4476  2.1965 -0.9969
 1169SOL    HW234002   3.923   2.221   1.730 -1.2582  1.9389  0.1312
 1170SOL     OW34003   5.414   2.495  12.104  1.2545 -0.0926  0.3841
 1170SOL    HW134004   5.416   2.478  12.198 -0.8493  1.0255  0.6865
 1170SOL    HW234005   5.498   2.462  12.072  2.2016 -0.1250  2.7025
 1171SOL     OW34006   5.491   4.035  12.855  0.7680 -0.0218 -0.3560
 1171SOL    HW134007   5.526   4.071  12.937  0.8948  1.4869 -1.0306
 1171SOL    HW234008   5.501   4.107  12.791 -2.2133  0.0036 -0.9496
 1172SOL     OW34009   0.317   1.987  12.214 -0.7601 -0.0507 -0.2963
 1172SOL    HW134010   0.399   1.941  12.197  0.0543  1.0641  0.4558
 1172SOL    HW234011   0.267   1.928  12.272  0.5604  0.2701  1.2444
 1173SOL     OW34012   1.915   3.600  11.836  0.1641  0.1103 -0.0547
 1173SOL    HW134013   1.931   3.653  11.913  1.6305  0.4872 -0.5877
 1173SOL    HW234014   1.825   3.569  11.846 -0.0516  1.0877  1.2208
 1174SOL     OW34015   2.009   3.362  12.740 -0.4113 -0.3761  0.9320
 1174SOL    HW134016   2.058   3.339  12.819  0.3059 -2.0784  0.0494
 1174SOL    HW234017   1.917   3.352  12.766 -0.2512  0.6662  1.9844
 1175SOL     OW34018   1.943   1.127  12.523  0.4364  0.1836  0.4001
 1175SOL    HW134019   1.918   1.041  12.491 -0.3530  0.0296  1.3671
 1175SOL    HW234020   2.011   1.157  12.463 -0.2239 -0.5386 -0.7413
 1176SOL     OW34021   1.199   1.219   0.295  0.3187  0.2176 -0.3192
 1176SOL    HW134022   1.223   1.141   0.245 -0.3154  0.1898 -0.5967
 1176SOL    HW234023   1.240   1.207   0.380  2.9532  1.0926 -1.3475
 1177SOL     OW34024   3.260   5.784   0.583  0.0840  0.1685 -0.5009
 1177SOL    HW134025   3.336   5.758   0.635  0.3448  0.9031 -0.4994
 1177SOL    HW234026   3.185   5.768   0.640  0.3268  0.4894 -0.0796
 1178SOL     OW34027   0.321   0.682  11.794  0.1799  0.3370  0.3858
 1178SOL    HW134028   0.325   0.708  11.886  1.0474  3.2044 -0.3522
 1178SOL    HW234029   0.402   0.717  11.756 -0.2115 -0.6788 -1.5010
 1179SOL     OW34030   3.323   6.446  12.454  0.0695  0.6952  0.2949
 1179SOL    HW134031   3.270   6.373  12.485  1.3081 -0.4357 -0.1593
 1179SOL    HW234032   3.262   6.520  12.452 -0.3311  0.8039  4.7944
 1180SOL     OW34033   5.612   4.271  12.648 -0.1529  0.2822 -0.5245
 1180SOL    HW134034   5.569   4.338  12.700 -1.5365 -1.4492  0.7097
 1180SOL    HW234035   5.626   4.312  12.562  0.3735  2.5630  0.5800
 1181SOL     OW34036   0.683   1.671   0.456  0.1741 -0.0653 -0.4456
 1181SOL    HW134037   0.718   1.685   0.544  1.5039 -0.5895 -0.8609
 1181SOL    HW234038   0.592   1.645   0.470  0.9097 -2.1457  0.9023
 1182SOL     OW34039   2.883   1.442   1.248  1.0884 -0.1853  0.0584
 1182SOL    HW134040   2.800   1.423   1.293  0.6625  0.3098 -0.4970
 1182SOL    HW234041   2.950   1.408   1.306  0.5278  0.0920  0.8843
 1183SOL     OW34042   1.254   5.050   1.186 -0.6823 -0.2491 -0.4937
 1183SOL    HW134043   1.193   5.092   1.125 -1.0049  0.1282  0.0722
 1183SOL    HW234044   1.274   5.119   1.250  0.7241 -0.2168 -0.9355
 1184SOL     OW34045   4.959   2.277   0.387 -0.3208 -0.3866  0.0153
 1184SOL    HW134046   4.984   2.363   0.420 -2.6124  0.9212 -1.3634
 1184SOL    HW234047   5.041   2.235   0.361  0.8089  1.5843  0.2863
 1185SOL     OW34048   4.014   6.313   0.944 -0.4841 -0.0352  0.1847
 1185SOL    HW134049   4.078   6.303   0.874  1.1217 -0.3831  1.6506
 1185SOL    HW234050   3.929   6.313   0.899  0.5143  0.3696 -1.7936
 1186SOL     OW34051   1.526   6.290   1.401 -0.2994  0.0653 -0.2901
 1186SOL    HW134052   1.502   6.350   1.331  1.0504  1.9285  0.7746
 1186SOL    HW234053   1.565   6.215   1.356 -0.4630  0.7219 -1.5640
 1187SOL     OW34054   3.473   2.115  12.253 -0.3424  0.5769 -0.1647
 1187SOL    HW134055   3.415   2.096  12.179  1.3366 -1.5989 -1.0371
 1187SOL    HW234056   3.455   2.206  12.275 -2.5192  0.6023 -1.7775
 1188SOL     OW34057   1.342   1.212  11.989 -0.0540 -0.3157  0.4524
 1188SOL    HW134058   1.407   1.256  11.935 -2.2128  2.0598 -0.4665
 1188SOL    HW234059   1.303   1.146  11.931  0.1873 -0.3603  0.3419
 1189SOL     OW34060   3.802   3.651  12.446  0.1000  0.7385  0.7648
 1189SOL    HW134061   3.834   3.673  12.534  2.1192  0.5864  0.1099
 1189SOL    HW234062   3.850   3.572  12.422  1.6380  2.2312 -1.4933
 1190SOL     OW34063   1.808   2.052   0.066 -0.6067 -0.7981  0.1923
 1190SOL    HW134064   1.883   2.056   0.124 -1.1417 -0.6494  0.8949
 1190SOL    HW234065   1.842   2.076  -0.020  0.4809 -2.4584  0.1313
 1191SOL     OW34066   0.001   4.109   0.829 -0.5368  0.0974  0.3248
 1191SOL    HW134067  -0.024   4.036   0.886 -2.6876 -1.0319 -1.8603
 1191SOL    HW234068   0.012   4.184   0.889  0.9346 -1.7577  2.5450
 1192SOL     OW34069   2.238   1.118   0.433  0.3845  0.1866  0.1977
 1192SOL    HW134070   2.246   1.124   0.337  1.6456  1.7263  0.3634
 1192SOL    HW234071   2.305   1.177   0.466 -0.8898  0.6693  2.0519
 1193SOL     OW34072   4.116   1.682   0.432 -0.5684  0.4510  0.1692
 1193SOL    HW134073   4.088   1.613   0.372  1.9826  1.8449 -2.9149
 1193SOL    HW234074   4.175   1.638   0.493 -1.2884 -0.5613  0.1776
 1194SOL     OW34075   6.308   0.798  12.257  0.1606  0.0678  0.3795
 1194SOL    HW134076   6.222   0.808  12.296 -0.0846  1.2153 -0.4154
 1194SOL    HW234077   6.292   0.793  12.162  0.8786 -0.9139  0.2891
 1195SOL     OW34078   0.736   3.664   1.444  0.1707 -0.0133  0.1697
 1195SOL    HW134079   0.670   3.637   1.509  2.4048 -1.3826  2.0186
 1195SOL    HW234080   0.760   3.583   1.399 -0.1159  0.6566 -1.2425
 1196SOL     OW34081   4.106   3.983  11.241 -0.2995 -0.0117  0.3138
 1196SOL    HW134082   4.140   4.014  11.325 -1.9622  0.5239  0.8345
 1196SOL    HW234083   4.085   4.063  11.192 -1.2825 -0.3033  0.2352
 1197SOL     OW34084   5.424   5.716  11.811 -0.0464 -0.0756  0.3142
 1197SOL    HW134085   5.476   5.773  11.753 -0.8996 -0.0811 -0.4774
 1197SOL    HW234086   5.477   5.709  11.891  1.5284 -0.6853 -0.7327
 1198SOL     OW34087   5.441   5.964   1.003 -0.1754  0.4862  0.0791
 1198SOL    HW134088   5.511   6.029   1.012  0.4151 -0.1030 -0.2221
 1198SOL    HW234089   5.456   5.901   1.073 -0.6391  0.5663  0.2572
 1199SOL     OW34090   1.205   2.084   1.562 -0.8618  0.3799 -0.5707
 1199SOL    HW134091   1.130   2.105   1.617 -0.7562  1.3430 -0.7773
 1199SOL    HW234092   1.180   2.115   1.474  0.0144  1.3149 -0.5150
 1200SOL     OW34093   4.943   3.583  12.347  0.0576  0.3584  0.7483
 1200SOL    HW134094   5.019   3.636  12.324 -1.3916  2.1874  0.0355
 1200SOL    HW234095   4.949   3.506  12.290  0.6783  1.0967 -0.1929
 1201SOL     OW34096   4.512   4.432   0.153  0.3358 -1.0073 -0.0997
 1201SOL    HW134097   4.544   4.345   0.178 -0.5301 -1.3659 -0.1808
 1201SOL    HW234098   4.443   4.414   0.089 -0.7535 -0.3391  0.8458
 1202SOL     OW34099   1.834   2.679   1.300 -0.2682 -0.7392  0.5781
 1202SOL    HW134100   1.868   2.752   1.352 -0.6863 -0.7581  0.8827
 1202SOL    HW234101   1.897   2.608   1.315  0.0816 -0.4791  0.3668
 1203SOL     OW34102   0.994   4.008   1.110  0.5653  0.1887  0.1389
 1203SOL    HW134103   1.013   4.102   1.112 -1.4082  0.6145  0.3186
 1203SOL    HW234104   0.901   4.002   1.129 -0.0113 -1.6107 -2.6670
 1204SOL     OW34105   3.659   2.926  12.735  0.1133  0.8579 -0.0905
 1204SOL    HW134106   3.732   2.957  12.682  0.2956  0.6900  0.0601
 1204SOL    HW234107   3.653   2.833  12.715  0.2706  0.7656  0.2824
 1205SOL     OW34108   4.721   4.862  11.586  0.4552  0.3541 -0.1994
 1205SOL    HW134109   4.810   4.887  11.560  0.1937  0.2872 -1.2158
 1205SOL    HW234110   4.724   4.767  11.593  0.5273  0.3724  0.0139
 1206SOL     OW34111   6.399   4.396  11.860  0.2491 -0.2315 -0.2262
 1206SOL    HW134112   6.422   4.462  11.925  1.0404  1.9424 -2.5494
 1206SOL    HW234113   6.479   4.382  11.810 -0.2239 -2.1288 -0.5308
 1207SOL     OW34114   4.076   3.073  12.271  0.2726 -0.2084 -0.0637
 1207SOL    HW134115   3.984   3.094  12.286  0.6621  2.0996 -0.4882
 1207SOL    HW234116   4.109   3.046  12.356 -0.5060  0.1243  0.3507
 1208SOL     OW34117   3.956   3.016  11.932  0.0424 -0.3235 -0.2457
 1208SOL    HW134118   4.034   2.994  11.881 -0.9251 -0.7055 -1.6362
 1208SOL    HW234119   3.943   3.110  11.916  0.0371 -0.3272 -0.2635
 1209SOL     OW34120   0.224   5.180   0.565  0.2865  0.6554 -0.0657
 1209SOL    HW134121   0.153   5.184   0.501 -1.1345 -1.5608  1.2596
 1209SOL    HW234122   0.288   5.121   0.526  0.0143  0.3037  0.0222
 1210SOL     OW34123   3.393   1.332  11.599  0.5202  0.4419  0.0221
 1210SOL    HW134124   3.394   1.307  11.692  1.0814  0.3039 -0.0136
 1210SOL    HW234125   3.387   1.248  11.553  1.6898  0.3911 -0.0844
 1211SOL     OW34126   2.851   1.433   0.967  0.3755  0.7616  0.1498
 1211SOL    HW134127   2.873   1.466   1.054 -0.7532  0.5196  0.5409
 1211SOL    HW234128   2.769   1.386   0.979  0.5028  0.2222 -0.9418
 1212SOL     OW34129   2.270   1.954   0.445 -0.4162 -0.3438 -0.2954
 1212SOL    HW134130   2.213   2.017   0.401 -0.0736 -1.1818 -2.0379
 1212SOL    HW234131   2.233   1.869   0.424 -1.0952 -0.7880  2.3407
 1213SOL     OW34132   3.319   5.632   1.352  0.4707  0.0925  0.5030
 1213SOL    HW134133   3.351   5.543   1.365  0.8134  0.0870 -0.3064
 1213SOL    HW234134   3.351   5.657   1.266  0.1391  0.9006  0.5992
 1214SOL     OW34135   2.852   2.104  12.572 -0.0456  0.0259 -0.1348
 1214SOL    HW134136   2.833   2.104  12.478  0.5553 -3.1934 -0.3833
 1214SOL    HW234137   2.791   2.041  12.609  0.7345  0.1242  1.3933
 1215SOL     OW34138   5.482   1.316   1.508 -0.7529  0.1412 -0.0731
 1215SOL    HW134139   5.387   1.312   1.494 -0.7320  0.8804 -0.4779
 1215SOL    HW234140   5.495   1.280   1.596 -1.5046  0.8472  0.3356
 1216SOL     OW34141   2.464   4.787  11.936  0.0946  0.1088  0.9972
 1216SOL    HW134142   2.540   4.740  11.970  0.7216 -0.6675 -1.3015
 1216SOL    HW234143   2.396   4.719  11.927  0.2584  0.0773 -0.1508
 1217SOL     OW34144   1.899   4.793  12.465 -0.5897 -0.8990 -0.0039
 1217SOL    HW134145   1.811   4.825  12.485 -0.4511 -1.1200  1.0666
 1217SOL    HW234146   1.918   4.826  12.378 -0.6919  1.4373  0.7864
 1218SOL     OW34147   1.481   0.818  12.443  0.1329 -0.4950 -0.0106
 1218SOL    HW134148   1.451   0.908  12.434 -2.3715 -1.3735 -1.3336
 1218SOL    HW234149   1.560   0.814  12.388  0.2472  0.8581  0.0208
 1219SOL     OW34150   4.581   2.789  11.244  0.1913  0.0485 -0.3415
 1219SOL    HW134151   4.534   2.763  11.165  1.5216  0.6389 -1.3562
 1219SOL    HW234152   4.669   2.753  11.234  0.9810  1.7968 -0.0839
 1220SOL     OW34153   6.243   2.382   0.292  0.2051 -0.0121 -0.0642
 1220SOL    HW134154   6.221   2.384   0.199  0.7772  0.0939 -0.2020
 1220SOL    HW234155   6.167   2.421   0.336 -0.6120 -1.1883 -0.3643
 1221SOL     OW34156   2.086   5.320   0.416  0.3288 -0.4410  0.7265
 1221SOL    HW134157   2.152   5.279   0.361 -0.1214  0.6489 -0.6904
 1221SOL    HW234158   2.003   5.293   0.377 -0.0082 -0.1144  1.2105
 1222SOL     OW34159   0.959   6.280  11.409  0.0766 -0.2245  0.4610
 1222SOL    HW134160   0.893   6.243  11.351 -0.4897  0.7581  0.4595
 1222SOL    HW234161   1.029   6.309  11.350  0.3695 -0.9453  0.4370
 1223SOL     OW34162   2.079   5.097   0.635  0.0916  0.1900 -0.1423
 1223SOL    HW134163   1.984   5.094   0.620 -0.1375  1.0130  0.9791
 1223SOL    HW234164   2.114   5.142   0.559 -0.0509 -2.5156 -1.9327
 1224SOL     OW34165   5.113   0.030   1.035  0.1170  0.0679 -0.1217
 1224SOL    HW134166   5.135   0.047   0.943 -1.0379 -3.7388 -1.2549
 1224SOL    HW234167   5.186  -0.024   1.067  0.0623  0.6155  0.9645
 1225SOL     OW34168   2.980   2.199   0.374 -0.0750  0.1303  0.2434
 1225SOL    HW134169   2.914   2.150   0.326  0.0952  0.8263 -0.7350
 1225SOL    HW234170   3.056   2.141   0.376  0.4590  0.6920 -1.7807
 1226SOL     OW34171   3.264   5.736   1.580 -0.4086  0.2206 -0.5139
 1226SOL    HW134172   3.304   5.823   1.567 -0.6547  0.5015  0.4991
 1226SOL    HW234173   3.285   5.688   1.500  0.3560  0.9800 -0.7908
 1227SOL     OW34174   3.687   0.814  12.773  0.7865 -0.3245  0.2239
 1227SOL    HW134175   3.690   0.839  12.865 -0.3001 -0.5334  0.3299
 1227SOL    HW234176   3.777   0.823  12.743  1.3401 -1.2179  1.5471
 1228SOL     OW34177   5.538   3.030  12.792  0.0513 -0.0290  0.7870
 1228SOL    HW134178   5.629   3.011  12.816  0.3875  0.9603  0.3336
 1228SOL    HW234179   5.516   3.109  12.841 -0.7802 -0.6017  1.3634
 1229SOL     OW34180   4.844   4.636   0.979 -0.1809  0.0964 -0.3031
 1229SOL    HW134181   4.811   4.547   0.969 -1.1736  0.4537 -0.2539
 1229SOL    HW234182   4.895   4.633   1.061  0.0504 -0.4903 -0.4611
 1230SOL     OW34183   3.319   6.244   0.555 -0.4931 -0.2476  0.4283
 1230SOL    HW134184   3.254   6.208   0.496  0.3801 -0.8045 -0.2206
 1230SOL    HW234185   3.298   6.206   0.641  0.0255 -1.8368 -0.1171
 1231SOL     OW34186   3.321   2.582  12.446 -0.1220  0.6622  0.1660
 1231SOL    HW134187   3.360   2.563  12.532 -1.1983  1.4913  0.8589
 1231SOL    HW234188   3.329   2.677  12.437 -1.8183  0.8339  0.2603
 1232SOL     OW34189   3.272   3.803   1.477  0.3359  0.1372  0.1027
 1232SOL    HW134190   3.272   3.739   1.406  2.3984  0.3367 -0.1458
 1232SOL    HW234191   3.182   3.833   1.482 -0.5227 -2.1309 -0.3473
 1233SOL     OW34192   0.176   2.582  11.400 -0.1545 -0.2630  0.0072
 1233SOL    HW134193   0.202   2.491  11.389 -0.9087 -0.7252  1.7060
 1233SOL    HW234194   0.218   2.628  11.328  1.7125 -1.6569  0.1407
 1234SOL     OW34195   6.265   1.958  11.908  0.8582  0.3503  0.1238
 1234SOL    HW134196   6.310   1.987  11.829  1.0835 -0.1487  0.0676
 1234SOL    HW234197   6.197   2.025  11.923  0.0474 -0.1468 -1.1584
 1235SOL     OW34198   2.336   1.464  12.016 -0.0842 -0.4977 -0.3290
 1235SOL    HW134199   2.422   1.502  11.998 -0.6108 -0.0805 -2.2784
 1235SOL    HW234200   2.274   1.534  11.995 -0.9257 -0.8661  0.8281
 1236SOL     OW34201   2.311   2.252  11.772 -0.1515 -0.3520  0.1738
 1236SOL    HW134202   2.327   2.258  11.867 -1.2375 -0.7178  0.3888
 1236SOL    HW234203   2.399   2.244  11.734  0.2505 -1.0740  1.2121
 1237SOL     OW34204   6.438   3.869  11.572  0.4151 -0.1342  0.0544
 1237SOL    HW134205   6.488   3.949  11.559  0.2121  0.4165  2.3071
 1237SOL    HW234206   6.364   3.877  11.511  1.0715  0.7729 -0.6495
 1238SOL     OW34207   5.023   4.614   1.591  0.3452 -0.2404 -0.5078
 1238SOL    HW134208   4.937   4.578   1.570 -0.3593  0.8695  0.3482
 1238SOL    HW234209   5.004   4.703   1.622  1.9491  0.6518 -1.9299
 1239SOL     OW34210   6.389   3.909  12.630  0.5173 -0.1654 -0.0959
 1239SOL    HW134211   6.463   3.904  12.569  1.6635  0.5707  1.1757
 1239SOL    HW234212   6.428   3.938  12.712 -1.2687  0.6823  0.4943
 1240SOL     OW34213   6.317   5.915  10.914  0.0817  0.7393 -0.2884
 1240SOL    HW134214   6.409   5.935  10.895 -0.1955  2.6413  0.1758
 1240SOL    HW234215   6.279   5.897  10.828  1.5455 -3.6770 -0.2587
 1241SOL     OW34216   3.048   4.184  12.582  0.0499  0.4804 -0.3796
 1241SOL    HW134217   2.956   4.182  12.610 -0.2984  1.0314 -1.4448
 1241SOL    HW234218   3.051   4.251  12.514  1.0342 -0.2452 -1.0704
 1242SOL     OW34219   0.373   0.712  12.514 -0.1069 -0.7995  0.3715
 1242SOL    HW134220   0.359   0.672  12.428 -1.6791  0.4841 -0.0215
 1242SOL    HW234221   0.285   0.718  12.552  0.2064  1.2311  0.8656
 1243SOL     OW34222   2.465   4.358  11.521 -0.4660  0.7037 -0.2711
 1243SOL    HW134223   2.476   4.442  11.567 -0.7108  0.6063 -0.0255
 1243SOL    HW234224   2.528   4.361  11.449  1.0716  0.1960  0.9979
 1244SOL     OW34225   0.404   2.332   1.419 -0.2838  0.1365 -0.3457
 1244SOL    HW134226   0.348   2.260   1.390  0.4009 -0.0347 -1.2859
 1244SOL    HW234227   0.353   2.375   1.488 -1.9728  0.5132 -1.7429
 1245SOL     OW34228   1.293   0.834   0.589 -0.3994  0.3037  0.4335
 1245SOL    HW134229   1.346   0.844   0.668  1.5626 -0.8004 -0.6849
 1245SOL    HW234230   1.209   0.875   0.612  0.7425  1.7351  2.4122
 1246SOL     OW34231   0.547   6.037  12.849 -0.2352 -0.1888 -0.2972
 1246SOL    HW134232   0.632   5.994  12.862 -0.1989 -0.0499 -0.0529
 1246SOL    HW234233   0.570   6.125  12.819 -0.2608  0.1680  0.6985
 1247SOL     OW34234   3.958   0.345  12.101 -0.6435 -0.5526  0.7153
 1247SOL    HW134235   3.959   0.437  12.072  0.1244 -1.3597 -2.0854
 1247SOL    HW234236   4.000   0.347  12.187  0.4369  1.5860  0.2180
 1248SOL     OW34237   3.340   1.441   0.128  0.7888 -0.1152  1.0912
 1248SOL    HW134238   3.407   1.396   0.075  0.5827 -0.6375  1.2712
 1248SOL    HW234239   3.339   1.394   0.211 -0.9545 -1.1846  0.5252
 1249SOL     OW34240   2.900   5.168   1.147 -0.9245  0.3662  0.9481
 1249SOL    HW134241   2.995   5.173   1.154 -0.9042 -0.7065  1.5668
 1249SOL    HW234242   2.882   5.075   1.132 -1.9175  0.4434  1.5752
 1250SOL     OW34243   5.545   1.165  12.250  0.3542 -0.2491 -0.1949
 1250SOL    HW134244   5.459   1.160  12.209  0.2762  0.2120 -0.0961
 1250SOL    HW234245   5.533   1.124  12.336  0.7109 -1.9453 -0.9083
 1251SOL     OW34246   1.086   0.210   1.616 -0.5236  0.3077  0.0377
 1251SOL    HW134247   1.025   0.138   1.632 -0.5706  0.3565  0.0737
 1251SOL    HW234248   1.132   0.221   1.699  1.0348 -1.1500 -0.5515
 1252SOL     OW34249   5.116   3.527   1.635  0.0252 -0.0183  0.4227
 1252SOL    HW134250   5.141   3.440   1.602  1.7885  1.0660 -1.3247
 1252SOL    HW234251   5.198   3.575   1.641 -1.0575  2.1234 -0.5440
 1253SOL     OW34252   4.028   4.044   0.694  0.7999 -0.4829 -0.3523
 1253SOL    HW134253   4.045   4.046   0.599  2.2527 -0.6991 -0.1140
 1253SOL    HW234254   3.973   3.966   0.706  1.5105 -1.0912 -0.8953
 1254SOL     OW34255   0.627   0.887   0.922  0.6057 -0.2238  0.6180
 1254SOL    HW134256   0.609   0.977   0.950  0.4909  0.0059 -0.1625
 1254SOL    HW234257   0.698   0.896   0.859 -1.2726 -0.3247 -1.6380
 1255SOL     OW34258   0.358   2.482  12.407 -0.1253  0.5457 -0.1706
 1255SOL    HW134259   0.395   2.534  12.478  0.9146  0.8035 -0.8777
 1255SOL    HW234260   0.319   2.546  12.348 -0.4644  0.3771 -0.1341
 1256SOL     OW34261   6.212   1.289  12.334  0.2203 -0.2148  0.4868
 1256SOL    HW134262   6.274   1.218  12.350  2.0098  0.5290 -2.3108
 1256SOL    HW234263   6.242   1.328  12.251 -2.4919  1.8697  0.3589
 1257SOL     OW34264   0.654   0.348   0.819 -0.1293 -0.0209 -0.0007
 1257SOL    HW134265   0.729   0.374   0.765 -1.1098  0.5554 -1.1398
 1257SOL    HW234266   0.621   0.430   0.855 -0.0549 -0.3048  0.7237
 1258SOL     OW34267   5.517   3.719  11.392  0.4697  0.0025 -0.0624
 1258SOL    HW134268   5.442   3.767  11.357  1.2521  1.4470  0.1490
 1258SOL    HW234269   5.479   3.640  11.430 -0.8397  0.2951 -0.6905
 1259SOL     OW34270   5.274   1.415  11.431  0.2037 -0.8238  0.4375
 1259SOL    HW134271   5.270   1.495  11.483 -1.0292 -0.1110 -0.7050
 1259SOL    HW234272   5.273   1.345  11.496 -1.4035  0.0269  1.4072
 1260SOL     OW34273   5.451   0.927   0.067 -0.1594 -0.3501 -0.2106
 1260SOL    HW134274   5.414   0.915   0.155  0.0197 -0.8913 -0.2042
 1260SOL    HW234275   5.405   0.862   0.013 -0.7404  0.4125 -0.6666
 1261SOL     OW34276   3.837   4.367  12.539  0.5527 -0.2500  0.9159
 1261SOL    HW134277   3.777   4.411  12.598 -1.0007  0.2862 -0.9566
 1261SOL    HW234278   3.909   4.429  12.527 -1.5712  1.9822 -1.6469
 1262SOL     OW34279   3.590   0.637  11.425  0.0854 -0.1605 -0.0915
 1262SOL    HW134280   3.514   0.601  11.379  0.1605 -0.1943 -0.1874
 1262SOL    HW234281   3.646   0.562  11.441 -0.5598 -0.3860  1.2495
 1263SOL     OW34282   6.125   6.375   0.029  0.7475  0.3924  0.2633
 1263SOL    HW134283   6.112   6.320   0.106  0.4982  1.5462  1.0755
 1263SOL    HW234284   6.108   6.317  -0.045 -0.9533 -0.2680  1.1037
 1264SOL     OW34285   6.336   1.862   0.540  0.3917 -0.4559 -0.0504
 1264SOL    HW134286   6.313   1.941   0.589 -1.0434 -0.8184 -0.0801
 1264SOL    HW234287   6.377   1.895   0.460 -1.5618  0.3825 -0.7755
 1265SOL     OW34288   4.345   1.619   0.590  0.1891 -0.0980  0.9815
 1265SOL    HW134289   4.312   1.661   0.670  1.0964  3.8754 -0.4968
 1265SOL    HW234290   4.437   1.601   0.609  0.2209  0.1661  1.0897
 1266SOL     OW34291   5.918   0.859  11.604 -0.4521  0.6720  0.1551
 1266SOL    HW134292   5.871   0.790  11.651 -0.2483 -0.1179 -0.7629
 1266SOL    HW234293   5.927   0.930  11.668  1.1885 -0.9221  1.8417
 1267SOL     OW34294   5.190   4.669   0.845 -0.1794  0.3437  0.5887
 1267SOL    HW134295   5.188   4.584   0.889 -0.1805 -0.7327 -1.3613
 1267SOL    HW234296   5.121   4.663   0.779  1.4621  0.8674 -1.2687
 1268SOL     OW34297   0.542   0.226  12.179  0.2243  0.9182  0.0445
 1268SOL    HW134298   0.488   0.293  12.135  2.1527  3.5337  1.3784
 1268SOL    HW234299   0.513   0.228  12.270 -0.9780 -1.5499 -0.2086
 1269SOL     OW34300   5.356   2.954  12.613  0.0316  0.2419 -0.0440
 1269SOL    HW134301   5.323   3.019  12.551  3.1174  2.1237  0.0802
 1269SOL    HW234302   5.416   3.004  12.670  0.5121 -2.2354  1.7842
 1270SOL     OW34303   4.123   5.126  12.248  0.1841  0.2390 -0.7328
 1270SOL    HW134304   4.102   5.178  12.325  1.1786 -0.3977 -0.0037
 1270SOL    HW234305   4.217   5.141  12.234  0.2740 -0.5713 -1.0931
 1271SOL     OW34306   1.868   0.982   0.303  0.1892 -0.1370 -0.3220
 1271SOL    HW134307   1.814   0.964   0.226  0.1779  1.8083 -0.8085
 1271SOL    HW234308   1.886   1.076   0.299  1.3745 -0.2488  1.2944
 1272SOL     OW34309   5.305   3.158  11.342  0.1384 -0.4200  0.3928
 1272SOL    HW134310   5.331   3.107  11.419  0.8198 -0.0172  0.4389
 1272SOL    HW234311   5.388   3.183  11.301 -0.2129 -0.3441 -0.2851
 1273SOL     OW34312   6.386   4.506   1.416 -0.3792 -0.3254  0.1281
 1273SOL    HW134313   6.299   4.541   1.401  0.0076  0.3842 -0.5376
 1273SOL    HW234314   6.371   4.422   1.460 -1.4046 -0.4348 -0.4043
 1274SOL     OW34315   1.495   0.561  11.698  0.2313  0.4537 -0.2515
 1274SOL    HW134316   1.514   0.652  11.723  0.7761  0.3571 -0.3072
 1274SOL    HW234317   1.519   0.556  11.606  0.4241  0.1888 -0.1864
 1275SOL     OW34318   5.137   2.039  11.605  0.6014 -0.0538 -0.0223
 1275SOL    HW134319   5.141   1.968  11.541 -2.7294  2.2634 -3.2388
 1275SOL    HW234320   5.207   2.099  11.580  0.2113  0.1705 -0.5779
 1276SOL     OW34321   0.470   4.252   1.405 -0.2501  0.3604 -0.6903
 1276SOL    HW134322   0.378   4.276   1.409 -0.1029  1.0437 -1.1373
 1276SOL    HW234323   0.477   4.172   1.457 -1.0501  0.4298 -0.4680
 1277SOL     OW34324   4.424   2.764  11.906 -0.0082 -0.8826  0.4575
 1277SOL    HW134325   4.439   2.747  11.813  1.9002 -3.6853  1.1386
 1277SOL    HW234326   4.507   2.802  11.937  0.1977 -2.0584  1.4018
 1278SOL     OW34327   3.450   3.627  11.865 -0.5595  0.0175 -0.1401
 1278SOL    HW134328   3.434   3.603  11.957 -0.8822  0.0566 -0.1839
 1278SOL    HW234329   3.544   3.646  11.862 -0.3811 -0.7931 -0.0055
 1279SOL     OW34330   3.786   4.751   1.802  0.1571 -0.6420  0.0902
 1279SOL    HW134331   3.855   4.686   1.817  1.3984  0.7278  0.5246
 1279SOL    HW234332   3.833   4.829   1.771 -1.4491 -0.4188 -1.9807
 1280SOL     OW34333   0.088   5.023   1.217 -0.4164  0.4023  0.4592
 1280SOL    HW134334   0.146   4.993   1.146 -0.4510  0.8339  0.2446
 1280SOL    HW234335   0.110   4.967   1.291 -0.8644 -0.5280 -0.0892
 1281SOL     OW34336   6.369   3.544   1.291  0.3435  0.2582 -0.4093
 1281SOL    HW134337   6.361   3.477   1.223 -2.1837  1.2712 -1.2217
 1281SOL    HW234338   6.292   3.531   1.346  0.2220  1.9975 -0.1248
 1282SOL     OW34339   1.261   5.312   0.797  0.5310 -0.4671 -0.1432
 1282SOL    HW134340   1.322   5.380   0.770 -0.5770  0.7603  0.3685
 1282SOL    HW234341   1.207   5.296   0.719 -0.1244  0.2656  0.1534
 1283SOL     OW34342   0.569   4.198   1.039  0.3326 -0.2062 -0.2414
 1283SOL    HW134343   0.566   4.158   1.126 -2.3839  2.2245  0.9445
 1283SOL    HW234344   0.550   4.126   0.979 -1.9678 -1.2290  1.5659
 1284SOL     OW34345   5.280   3.063   1.583 -0.4246 -0.0322 -0.2863
 1284SOL    HW134346   5.269   2.998   1.513 -2.8534  0.8573 -0.8097
 1284SOL    HW234347   5.209   3.044   1.644 -1.5997  2.4893 -0.7762
 1285SOL     OW34348   2.332   2.462   0.074  0.5230  0.1815 -0.2114
 1285SOL    HW134349   2.359   2.525   0.140 -1.5208  0.9919 -0.0757
 1285SOL    HW234350   2.297   2.515   0.003 -0.0445 -0.7487 -0.6544
 1286SOL     OW34351   4.346   0.355  11.929 -0.1718  0.6536  0.0596
 1286SOL    HW134352   4.366   0.374  12.020 -0.7496 -2.8263  1.0481
 1286SOL    HW234353   4.428   0.321  11.893  0.2962  2.7907 -1.0510
 1287SOL     OW34354   1.903   2.973   1.398  0.4721  0.1534  0.0204
 1287SOL    HW134355   1.910   3.010   1.310  0.1792 -0.9405 -0.4829
 1287SOL    HW234356   1.902   3.049   1.456 -0.4174  0.9541 -0.9912
 1288SOL     OW34357   3.761   5.019   1.374  0.4521  0.1608  0.3172
 1288SOL    HW134358   3.778   4.933   1.335 -1.0519 -0.2388  0.4634
 1288SOL    HW234359   3.816   5.080   1.324 -2.2997 -0.0858 -3.4252
 1289SOL     OW34360   1.975   5.338   1.431 -0.1266  0.0914 -0.2241
 1289SOL    HW134361   1.956   5.409   1.369 -1.5734  0.6189  0.7536
 1289SOL    HW234362   1.977   5.381   1.517  1.9983 -0.5920  0.1383
 1290SOL     OW34363   4.262   6.351   0.441  0.1753 -0.2089  0.5363
 1290SOL    HW134364   4.310   6.274   0.470 -1.3647 -1.6368 -0.5341
 1290SOL    HW234365   4.293   6.367   0.352 -1.4868 -1.3863 -0.3172
 1291SOL     OW34366   5.770   3.217   0.767  0.0285 -0.3909 -0.2351
 1291SOL    HW134367   5.712   3.241   0.838  0.4649  0.8681 -0.2844
 1291SOL    HW234368   5.857   3.214   0.807 -0.0771 -2.8059 -0.0320
 1292SOL     OW34369   4.734   4.396   0.950  0.0993 -0.0908  0.0678
 1292SOL    HW134370   4.694   4.341   1.016  0.6688  0.0808  0.5603
 1292SOL    HW234371   4.676   4.389   0.874 -0.1678 -0.8556  0.3407
 1293SOL     OW34372   2.797   4.188  12.708 -0.2902 -0.3087 -0.0606
 1293SOL    HW134373   2.755   4.105  12.734  2.0914 -1.7400 -0.5019
 1293SOL    HW234374   2.829   4.225  12.791 -1.6758  0.4076  0.1835
 1294SOL     OW34375   1.681   5.771  11.599  0.3164 -0.4091  0.0664
 1294SOL    HW134376   1.665   5.686  11.640  0.4627 -1.3804 -1.8057
 1294SOL    HW234377   1.616   5.777  11.529  1.1854  0.4126 -0.6961
 1295SOL     OW34378   2.661   1.423  12.240  0.5829 -0.5639  0.1681
 1295SOL    HW134379   2.590   1.477  12.275  1.9935  2.0093 -0.7164
 1295SOL    HW234380   2.692   1.373  12.315 -0.6528 -0.0299  1.0702
 1296SOL     OW34381   4.683   4.716   1.315 -0.0898  0.1248  0.2650
 1296SOL    HW134382   4.628   4.707   1.237 -1.9798 -0.7262  1.6389
 1296SOL    HW234383   4.771   4.734   1.280 -0.5752 -1.6369 -2.0884
 1297SOL     OW34384   5.806   1.310  11.691  0.6479 -0.3108 -0.3253
 1297SOL    HW134385   5.837   1.373  11.625 -0.6573 -1.2620 -1.9402
 1297SOL    HW234386   5.713   1.299  11.670  0.3117 -1.0089  1.4278
 1298SOL     OW34387   1.605   6.349   0.308 -0.5750 -0.2805 -0.1991
 1298SOL    HW134388   1.623   6.355   0.214  0.8432  0.5130  0.0863
 1298SOL    HW234389   1.635   6.433   0.343  0.1041 -1.0408  1.1290
 1299SOL     OW34390   4.693   5.686   1.601  0.0341 -0.3313 -0.1306
 1299SOL    HW134391   4.746   5.609   1.623  0.0439 -0.1458  0.5173
 1299SOL    HW234392   4.734   5.721   1.522  0.7684 -0.3149  0.2434
 1300SOL     OW34393   5.970   0.352   0.723  0.1666  0.1561 -0.5843
 1300SOL    HW134394   5.979   0.427   0.782 -2.3323 -1.1166  1.5994
 1300SOL    HW234395   6.019   0.281   0.767 -2.0267 -0.9061  0.2975
 1301SOL     OW34396   1.480   6.056  11.537  0.3288  0.2940  0.6876
 1301SOL    HW134397   1.511   6.132  11.587 -1.1237  0.7949  0.8762
 1301SOL    HW234398   1.403   6.025  11.585 -0.0816 -0.2692 -0.3009
 1302SOL     OW34399   6.234   3.670  12.446  0.1486 -0.3382 -0.3283
 1302SOL    HW134400   6.270   3.756  12.468  1.9943 -1.1061 -0.2042
 1302SOL    HW234401   6.173   3.651  12.518 -0.1268  0.7523 -0.2502
 1303SOL     OW34402   2.703   0.888  12.452  0.3216  0.1661 -0.2604
 1303SOL    HW134403   2.747   0.972  12.454 -0.4458  0.5763 -0.3155
 1303SOL    HW234404   2.702   0.859  12.543  0.2127  0.4195 -0.1797
 1304SOL     OW34405   4.821   5.183   1.544  0.4289 -0.2958 -0.1253
 1304SOL    HW134406   4.777   5.102   1.517 -1.8348  0.5776  0.7742
 1304SOL    HW234407   4.791   5.249   1.482 -0.8532  0.6528  1.4362
 1305SOL     OW34408   1.860   4.412   1.523 -0.3299  0.2547  0.2971
 1305SOL    HW134409   1.917   4.335   1.522 -2.5283 -1.4824  1.1535
 1305SOL    HW234410   1.889   4.463   1.598 -0.4358 -1.0508  1.2485
 1306SOL     OW34411   0.890   3.785  12.483 -0.4656  0.0068  0.3619
 1306SOL    HW134412   0.848   3.747  12.560  0.9176 -2.1752  0.1084
 1306SOL    HW234413   0.957   3.844  12.518 -1.5277  1.0286  0.7607
 1307SOL     OW34414   1.717   6.130   0.833 -0.6113  0.1197 -0.0301
 1307SOL    HW134415   1.657   6.152   0.762  0.1237 -0.2594 -0.7742
 1307SOL    HW234416   1.704   6.200   0.898 -4.0290 -1.4460  1.2375
 1308SOL     OW34417   0.275   6.040   1.161  0.0246 -0.1910  0.3660
 1308SOL    HW134418   0.226   6.122   1.155  1.0195  0.3318 -1.0070
 1308SOL    HW234419   0.268   6.002   1.074  4.4796  1.3726 -0.9270
 1309SOL     OW34420   3.903   2.508   0.462 -0.1552  0.2922  0.2371
 1309SOL    HW134421   3.930   2.417   0.444 -0.1420  0.5484 -1.1778
 1309SOL    HW234422   3.863   2.504   0.548  0.5803 -0.9108  0.5635
 1310SOL     OW34423   2.635   4.306  11.282  0.2348 -0.5396 -0.4747
 1310SOL    HW134424   2.720   4.351  11.281  0.0707 -0.0764  1.4642
 1310SOL    HW234425   2.657   4.213  11.270  1.2609 -0.6670  1.8701
 1311SOL     OW34426   5.086   3.068  12.299  0.4477 -0.7228 -0.1635
 1311SOL    HW134427   5.177   3.084  12.325  0.5356 -0.3299 -0.7020
 1311SOL    HW234428   5.050   3.155  12.283  0.5863 -0.9609 -1.9623
 1312SOL     OW34429   0.602   2.102   0.500 -0.3181  0.3628  0.2635
 1312SOL    HW134430   0.635   2.143   0.580 -1.1583 -0.5684  1.1175
 1312SOL    HW234431   0.673   2.046   0.470 -0.0660  0.5832  0.4519
 1313SOL     OW34432   5.051   3.849   0.456  0.2764 -0.5630  0.0105
 1313SOL    HW134433   5.031   3.874   0.546  0.3260 -0.5812  0.0263
 1313SOL    HW234434   4.984   3.784   0.434 -0.2660  0.0725 -0.2588
 1314SOL     OW34435   4.002   0.695   1.085  0.3580  0.4232 -0.0029
 1314SOL    HW134436   3.946   0.651   1.021  1.3564 -0.9385  0.0035
 1314SOL    HW234437   4.090   0.689   1.047  0.6142  1.8544  0.3249
 1315SOL     OW34438   5.854   0.206   1.679  0.5317  0.3296 -0.1308
 1315SOL    HW134439   5.886   0.166   1.759  1.3165  0.7897 -0.2043
 1315SOL    HW234440   5.778   0.153   1.654 -1.5053  1.7893  2.4142
 1316SOL     OW34441   1.027   0.978   0.998  0.1482 -1.1433 -0.2786
 1316SOL    HW134442   0.986   0.956   0.915  2.0119 -0.1245 -1.5638
 1316SOL    HW234443   0.955   0.990   1.059 -1.3543 -0.7575 -2.0517
 1317SOL     OW34444   5.344   4.127  11.287  0.4296 -0.1673 -0.1651
 1317SOL    HW134445   5.400   4.188  11.334  2.0069 -1.2283 -0.6067
 1317SOL    HW234446   5.255   4.162  11.298  1.1340  1.3849  0.7913
 1318SOL     OW34447   0.294   6.063   0.845 -0.0424  0.0792 -0.1114
 1318SOL    HW134448   0.209   6.106   0.853  0.2085  0.8450 -1.2917
 1318SOL    HW234449   0.277   5.971   0.867 -0.6484  0.6850  2.1886
 1319SOL     OW34450   0.300   6.183   0.205 -0.0997 -0.7724 -0.1706
 1319SOL    HW134451   0.322   6.155   0.294 -0.1128 -0.4240 -0.0533
 1319SOL    HW234452   0.286   6.102   0.156  1.2791 -1.0077 -0.2094
 1320SOL     OW34453   2.625   2.246   0.853  0.2464 -0.0467 -0.4172
 1320SOL    HW134454   2.622   2.229   0.759  0.3244  0.4760 -0.5146
 1320SOL    HW234455   2.701   2.302   0.865  0.7232 -0.7747  0.0674
 1321SOL     OW34456   1.385   5.985  12.037  0.0098 -0.2227  0.9263
 1321SOL    HW134457   1.335   6.059  12.003  0.4918 -0.6820 -0.9306
 1321SOL    HW234458   1.328   5.909  12.022  0.3787 -0.4817  0.8267
 1322SOL     OW34459   3.275   2.715   0.688 -0.3175 -0.3879 -0.0139
 1322SOL    HW134460   3.297   2.806   0.709 -0.8581 -0.4098  0.6945
 1322SOL    HW234461   3.352   2.665   0.714 -0.4923 -0.2659  0.7895
 1323SOL     OW34462   5.336   1.021   1.167 -0.1491  0.4670 -0.5462
 1323SOL    HW134463   5.293   1.104   1.146 -0.2735 -0.0014 -2.2801
 1323SOL    HW234464   5.425   1.030   1.132  0.4914  0.5853  1.0284
 1324SOL     OW34465   0.544   4.488   1.030 -0.2303  0.0789  0.5137
 1324SOL    HW134466   0.455   4.504   1.060 -0.9479 -0.5486 -1.1784
 1324SOL    HW234467   0.555   4.393   1.034  0.0611  0.0794 -0.0716
 1325SOL     OW34468   1.333   1.328   1.372  0.4641  0.1871 -0.0074
 1325SOL    HW134469   1.265   1.390   1.345  0.7286  1.2742  1.6623
 1325SOL    HW234470   1.287   1.244   1.382 -0.0671  0.2888 -1.4746
 1326SOL     OW34471   3.688   2.167   0.910 -0.5783  0.5864  0.4262
 1326SOL    HW134472   3.747   2.190   0.982 -0.7029  0.3453  0.6083
 1326SOL    HW234473   3.681   2.072   0.915  1.1771  0.2904 -1.2861
 1327SOL     OW34474   5.409   6.096  12.649 -0.1193  0.2568  0.0182
 1327SOL    HW134475   5.486   6.150  12.667 -0.0967  0.0294  0.6298
 1327SOL    HW234476   5.400   6.098  12.554 -0.5679  1.9726  0.0633
 1328SOL     OW34477   5.366   0.176  12.541 -0.7687  0.2768 -0.6272
 1328SOL    HW134478   5.311   0.167  12.463 -0.7390  1.7100 -0.8453
 1328SOL    HW234479   5.453   0.196  12.507 -0.5072 -0.2075 -0.2460
 1329SOL     OW34480   4.685   4.506   0.599 -0.4279  0.0265  0.1962
 1329SOL    HW134481   4.663   4.415   0.582 -3.2772  0.4777  0.8551
 1329SOL    HW234482   4.613   4.556   0.561 -0.1989  1.8249  1.9263
 1330SOL     OW34483   0.032   4.923   1.567 -0.1874 -0.0778  0.1454
 1330SOL    HW134484   0.077   4.930   1.651  1.2277 -0.9093 -0.5150
 1330SOL    HW234485   0.099   4.893   1.506 -1.2678  0.1934 -1.2237
 1331SOL     OW34486   3.618   1.365  11.891 -0.2195  0.1634  0.1893
 1331SOL    HW134487   3.704   1.346  11.853 -1.4412  0.5166 -3.0985
 1331SOL    HW234488   3.608   1.460  11.879 -1.4056 -0.0143 -0.3298
 1332SOL     OW34489   1.700   0.514   1.078  0.5380  0.1990 -0.1623
 1332SOL    HW134490   1.778   0.563   1.053  1.4480  0.0787  2.1335
 1332SOL    HW234491   1.719   0.423   1.055  1.1443  0.1559  0.4790
 1333SOL     OW34492   2.558   1.189   1.448 -0.5633 -0.1782  0.3770
 1333SOL    HW134493   2.477   1.175   1.398  0.6660 -2.5091 -1.1411
 1333SOL    HW234494   2.575   1.105   1.490  0.6078  0.5472  1.4079
 1334SOL     OW34495   2.844   4.843   1.267  0.3752  0.1202 -0.6446
 1334SOL    HW134496   2.861   4.756   1.304  0.0126  0.1546 -0.3799
 1334SOL    HW234497   2.912   4.899   1.304 -0.6906  0.4154  0.9867
 1335SOL     OW34498   0.653   2.410   0.426  0.6344  0.2900 -0.1741
 1335SOL    HW134499   0.732   2.463   0.418 -0.1407  1.3117 -1.4050
 1335SOL    HW234500   0.665   2.360   0.506  1.9559  1.3823  0.3306
 1336SOL     OW34501   5.538   0.810  11.445  0.3611  0.2130  0.3950
 1336SOL    HW134502   5.544   0.905  11.436 -1.3816  0.2797 -0.4720
 1336SOL    HW234503   5.610   0.776  11.392  0.5531  1.0269  0.1191
 1337SOL     OW34504   2.851   4.116   0.263 -0.0748  0.2102  0.1918
 1337SOL    HW134505   2.835   4.050   0.331  2.0415  0.4680  1.0123
 1337SOL    HW234506   2.833   4.199   0.306 -1.5390  0.2797 -0.4812
 1338SOL     OW34507   5.888   5.461   1.791 -0.7128 -0.5474  0.6257
 1338SOL    HW134508   5.805   5.482   1.747 -0.3603 -0.8078 -0.1892
 1338SOL    HW234509   5.882   5.368   1.811 -0.6305 -0.5602  0.5914
 1339SOL     OW34510   3.435   3.910   0.010  0.0726  0.4591  0.0326
 1339SOL    HW134511   3.348   3.922  -0.028  0.0635  1.9313  0.4590
 1339SOL    HW234512   3.484   3.987  -0.019  1.0895 -0.1132  0.1957
 1340SOL     OW34513   2.016   0.962   1.032  0.0979 -0.5604 -0.3984
 1340SOL    HW134514   2.017   0.963   1.128 -2.3445  2.8400 -0.1968
 1340SOL    HW234515   2.090   1.017   1.007  0.6720 -1.3615 -0.4830
 1341SOL     OW34516   5.330   6.274   0.996  0.7406 -0.2040 -0.0020
 1341SOL    HW134517   5.366   6.315   1.074 -0.7925  0.6237  0.3188
 1341SOL    HW234518   5.406   6.252   0.943  1.7342  3.3111 -0.3152
 1342SOL     OW34519   1.203   5.144  11.354 -0.2065  0.4716 -0.0872
 1342SOL    HW134520   1.253   5.066  11.330 -1.2103  0.6513 -3.2918
 1342SOL    HW234521   1.267   5.215  11.354  0.1650  0.1395 -0.5126
 1343SOL     OW34522   0.847   5.338  12.397  0.1410  0.0180  0.7165
 1343SOL    HW134523   0.897   5.330  12.317  2.6132  0.1334  2.1639
 1343SOL    HW234524   0.844   5.432  12.415 -1.2546  0.0844  0.3088
 1344SOL     OW34525   5.876   5.433   0.236 -0.0315  0.7519  0.0968
 1344SOL    HW134526   5.861   5.353   0.185  1.1434 -0.1998  1.1591
 1344SOL    HW234527   5.930   5.488   0.180  0.6853  0.0077  0.0450
 1345SOL     OW34528   1.048   2.395  11.858 -0.3598 -0.2790  0.2270
 1345SOL    HW134529   1.115   2.464  11.865 -0.9091  0.0977  3.0712
 1345SOL    HW234530   0.968   2.436  11.891 -1.6746 -1.2164 -1.5827
 1346SOL     OW34531   3.260   0.276   1.125  1.2478  0.0693  0.3881
 1346SOL    HW134532   3.248   0.268   1.220  2.0995 -2.5884  0.3629
 1346SOL    HW234533   3.186   0.228   1.088  1.0711  0.8539 -0.3066
 1347SOL     OW34534   1.756   0.234  12.736  0.5745  0.0949 -1.1432
 1347SOL    HW134535   1.747   0.315  12.686 -1.4005 -0.3780 -1.6392
 1347SOL    HW234536   1.777   0.262  12.825  2.8102  1.0011 -1.9019
 1348SOL     OW34537   3.365   6.377  12.822 -0.3389  0.7382 -0.3163
 1348SOL    HW134538   3.275   6.354  12.845  0.3009  0.3655  2.0739
 1348SOL    HW234539   3.400   6.298  12.779  0.1709 -0.9560  2.9179
 1349SOL     OW34540   4.229   5.449   1.631  0.1822 -0.3838  0.5936
 1349SOL    HW134541   4.199   5.405   1.711  0.7019  0.2139  1.1286
 1349SOL    HW234542   4.310   5.493   1.657 -0.7794  1.6648  0.3529
 1350SOL     OW34543   5.768   1.724   1.908  0.0851  0.5284  0.0628
 1350SOL    HW134544   5.735   1.700   1.994  0.4430  2.1296  0.6798
 1350SOL    HW234545   5.828   1.653   1.884 -0.7067 -0.3826  0.6999
 1351SOL     OW34546   0.174   1.179   1.284 -0.1822 -0.3123  0.1532
 1351SOL    HW134547   0.129   1.258   1.312  0.0514 -0.2754  0.4416
 1351SOL    HW234548   0.267   1.200   1.294 -0.0743 -0.1346 -1.1344
 1352SOL     OW34549   4.471   5.077  12.430 -0.1061  0.4631 -0.3459
 1352SOL    HW134550   4.434   5.029  12.503  0.2133 -0.1985 -0.6104
 1352SOL    HW234551   4.528   5.143  12.470  0.1707  0.0160  0.0008
 1353SOL     OW34552   4.544   6.103   0.101  0.0211  0.1941  0.6462
 1353SOL    HW134553   4.499   6.088   0.184  0.7173  0.1359  1.0290
 1353SOL    HW234554   4.562   6.015   0.067 -0.7813  0.2228  0.1399
 1354SOL     OW34555   0.186   4.297   1.336  0.5400  0.0049 -0.9688
 1354SOL    HW134556   0.101   4.335   1.358  0.5735  0.2849 -1.3199
 1354SOL    HW234557   0.171   4.202   1.337  0.5400 -0.0020  0.2611
 1355SOL     OW34558   5.114   0.045   0.195 -0.3810 -0.1634 -0.2373
 1355SOL    HW134559   5.121   0.130   0.238  1.7185 -0.3675 -0.0605
 1355SOL    HW234560   5.169   0.052   0.117 -0.6060 -1.1952 -0.5111
 1356SOL     OW34561   6.066   5.032   1.067  0.3785 -0.8448 -0.1889
 1356SOL    HW134562   6.070   5.122   1.101 -0.9428 -0.0274 -2.0156
 1356SOL    HW234563   6.153   5.016   1.030 -0.1316  0.7685 -2.2757
 1357SOL     OW34564   2.152   2.450  11.761  0.1558 -0.0183  0.5829
 1357SOL    HW134565   2.217   2.383  11.781 -0.7143 -0.7748  0.9931
 1357SOL    HW234566   2.078   2.401  11.724  0.2765  0.9517 -1.0274
 1358SOL     OW34567   0.214   6.374  11.661 -0.0373  0.2591  0.1901
 1358SOL    HW134568   0.259   6.417  11.733  0.5600  2.0003 -1.1504
 1358SOL    HW234569   0.149   6.438  11.632  0.1280 -0.1635 -1.1748
 1359SOL     OW34570   1.815   6.214   0.495  0.1864 -1.0087  0.4181
 1359SOL    HW134571   1.737   6.219   0.441  0.9197  0.7066 -0.5910
 1359SOL    HW234572   1.782   6.212   0.585 -1.0727  1.6207  0.1127
 1360SOL     OW34573   3.987   2.381   1.644  0.6576 -0.1083 -0.2398
 1360SOL    HW134574   3.993   2.472   1.675 -0.4657 -0.5959  1.5453
 1360SOL    HW234575   3.972   2.388   1.550 -3.3657  1.7466  0.3395
 1361SOL     OW34576   2.526   5.537   0.361  0.4537 -0.0566  0.2416
 1361SOL    HW134577   2.524   5.461   0.304  0.6494  1.7384 -2.3353
 1361SOL    HW234578   2.584   5.511   0.433  3.6780 -1.1656 -2.4728
 1362SOL     OW34579   1.286   5.243  12.553 -0.9216 -0.8129  0.1003
 1362SOL    HW134580   1.236   5.323  12.571 -3.1964 -1.9094 -0.9285
 1362SOL    HW234581   1.249   5.209  12.472  3.2706 -0.4530 -2.2486
 1363SOL     OW34582   4.774   4.963  11.200  0.7244  0.4334 -0.3746
 1363SOL    HW134583   4.771   4.894  11.267  0.4426  0.9737  0.1730
 1363SOL    HW234584   4.785   4.915  11.117  0.8947 -0.2490  0.0330
 1364SOL     OW34585   3.425   2.614  11.898 -0.1832 -0.3649 -0.3878
 1364SOL    HW134586   3.500   2.555  11.889 -0.7669 -1.2372  0.3428
 1364SOL    HW234587   3.380   2.584  11.976 -0.2842  1.3084  0.2368
 1365SOL     OW34588   3.674   5.940   1.459 -0.2466  1.1246 -0.6783
 1365SOL    HW134589   3.763   5.908   1.472 -0.1670  1.5508 -0.1318
 1365SOL    HW234590   3.681   6.000   1.385 -0.0963  1.1010 -0.6837
 1366SOL     OW34591   4.279   6.329   0.167  0.0766  0.1807  0.0124
 1366SOL    HW134592   4.336   6.300   0.096  0.1816  1.7607 -0.5838
 1366SOL    HW234593   4.190   6.313   0.135  0.0659  2.1516 -1.1213
 1367SOL     OW34594   1.087   5.668  11.645 -0.1359 -0.1353  0.3887
 1367SOL    HW134595   1.019   5.735  11.658  0.0412  0.0643  0.3068
 1367SOL    HW234596   1.039   5.590  11.617 -0.1718  0.6570 -2.0102
 1368SOL     OW34597   0.125   0.929  11.884  0.4425 -0.2673  0.2349
 1368SOL    HW134598   0.192   0.980  11.929  0.2441 -1.1707  1.6107
 1368SOL    HW234599   0.164   0.842  11.874 -0.1671 -0.5399  0.1890
 1369SOL     OW34600   0.728   0.108  12.349  0.4873  0.1425 -0.1650
 1369SOL    HW134601   0.758   0.052  12.277 -3.2408  0.0785 -1.9267
 1369SOL    HW234602   0.667   0.169  12.307  0.8567  2.4786  2.4657
 1370SOL     OW34603   5.964   0.312  11.702 -0.0706  0.8073  0.1276
 1370SOL    HW134604   5.925   0.397  11.720 -0.7920  0.3353  0.8624
 1370SOL    HW234605   6.001   0.284  11.786 -0.4759  0.0744  0.0666
 1371SOL     OW34606   4.182   0.362   0.034 -0.1819  0.4024 -0.1951
 1371SOL    HW134607   4.140   0.448   0.031  1.9082  1.5128  0.2253
 1371SOL    HW234608   4.208   0.351   0.126  0.5895 -0.1498 -0.4653
 1372SOL     OW34609   1.638   3.552  11.865  0.1155  0.2272  0.3227
 1372SOL    HW134610   1.639   3.456  11.860 -0.2555  0.2226  0.2840
 1372SOL    HW234611   1.569   3.572  11.929  0.5793  0.4547  0.7608
 1373SOL     OW34612   1.006   3.512   0.614  0.0979 -0.0078 -0.1186
 1373SOL    HW134613   1.101   3.515   0.608  0.1094  2.1587  0.3414
 1373SOL    HW234614   0.976   3.507   0.524  0.6389 -0.2658 -0.2882
 1374SOL     OW34615   2.280   5.425  11.937 -0.4978 -0.5457  0.3310
 1374SOL    HW134616   2.271   5.520  11.927 -0.1383 -0.5882 -0.4245
 1374SOL    HW234617   2.244   5.389  11.857  1.9203 -0.9137 -0.6570
 1375SOL     OW34618   3.610   1.754  11.616 -0.2034  0.9888 -0.4355
 1375SOL    HW134619   3.520   1.753  11.584 -1.1654  0.7974  2.0937
 1375SOL    HW234620   3.626   1.845  11.641 -0.6293  0.5771  1.4599
 1376SOL     OW34621   2.702   1.196  12.106 -0.0140 -0.1714  0.0579
 1376SOL    HW134622   2.689   1.282  12.147 -0.6612  0.3205 -1.1338
 1376SOL    HW234623   2.614   1.164  12.089  0.1910 -1.5407  1.3556
 1377SOL     OW34624   1.063   0.059   1.152  0.2838 -0.2125 -0.2466
 1377SOL    HW134625   1.059   0.152   1.175 -1.2782 -0.2614 -0.2424
 1377SOL    HW234626   1.106   0.058   1.066 -1.2472  0.6776 -1.0606
 1378SOL     OW34627   5.992   3.960  11.194 -0.0274 -0.1226  0.2984
 1378SOL    HW134628   5.973   4.016  11.118 -0.5347 -0.6555  0.0180
 1378SOL    HW234629   5.907   3.920  11.215  0.3764 -0.9834  0.3256
 1379SOL     OW34630   2.436   0.254   1.243 -0.7200  0.4235 -0.0392
 1379SOL    HW134631   2.412   0.170   1.204 -1.8837  1.2755 -1.2399
 1379SOL    HW234632   2.354   0.304   1.243 -0.4640  0.9328  2.3448
 1380SOL     OW34633   1.686   6.058  12.526  1.0655 -0.4720  0.3059
 1380SOL    HW134634   1.752   6.040  12.593  1.2875  0.1845  0.2714
 1380SOL    HW234635   1.640   6.135  12.558  1.7525  0.3903 -0.7045
 1381SOL     OW34636   2.898   3.808  11.401  0.3941  0.2221 -0.2543
 1381SOL    HW134637   2.853   3.795  11.317  1.2855 -1.3819 -0.5165
 1381SOL    HW234638   2.937   3.895  11.393  1.0182 -0.1601 -1.7835
 1382SOL     OW34639   5.422   6.004   0.626  0.2717 -0.1327 -0.4210
 1382SOL    HW134640   5.387   5.942   0.689 -0.2047  0.2467 -0.3016
 1382SOL    HW234641   5.391   6.090   0.657  2.5435  0.4311  0.5550
 1383SOL     OW34642   0.592   3.332  11.626  0.3649  0.3822  0.5733
 1383SOL    HW134643   0.614   3.308  11.716  0.5815  1.3467  0.7901
 1383SOL    HW234644   0.562   3.423  11.633  0.5783  0.5274 -0.3632
 1384SOL     OW34645   5.918   3.985   1.247 -0.4617  0.0112 -0.0991
 1384SOL    HW134646   5.913   4.025   1.160 -0.1653  0.5372  0.1206
 1384SOL    HW234647   5.834   3.942   1.259 -0.8736  0.7543 -0.2600
 1385SOL     OW34648   2.132   3.721  12.368  0.5409  0.1964 -0.2553
 1385SOL    HW134649   2.073   3.764  12.430  0.9172  0.5472 -0.1382
 1385SOL    HW234650   2.212   3.706  12.418  1.0420  0.9800 -0.8106
 1386SOL     OW34651   3.701   1.898   0.306 -0.1571  0.2737 -1.1600
 1386SOL    HW134652   3.782   1.909   0.357  0.0349  2.5897 -1.8675
 1386SOL    HW234653   3.633   1.886   0.372  0.4385  0.7564 -0.4349
 1387SOL     OW34654   3.474   2.588   0.431  0.2657  0.1127  0.3577
 1387SOL    HW134655   3.537   2.655   0.403  0.8397 -0.0632  1.1895
 1387SOL    HW234656   3.389   2.633   0.429  0.4948  0.5360 -0.1777
 1388SOL     OW34657   4.094   0.205   0.822  0.3811 -0.0025  0.0413
 1388SOL    HW134658   4.123   0.167   0.905 -1.8018 -0.0567  0.8459
 1388SOL    HW234659   4.152   0.167   0.757  0.0829 -2.5460  1.1466
 1389SOL     OW34660   1.007   2.194   0.973 -0.2659  0.0049 -0.3015
 1389SOL    HW134661   1.060   2.228   0.900 -0.0724  2.7271  0.9860
 1389SOL    HW234662   0.940   2.261   0.986 -1.4259 -1.3391  0.8617
 1390SOL     OW34663   0.461   5.802  12.669 -0.0749  0.0498  0.1884
 1390SOL    HW134664   0.538   5.778  12.721 -1.5925 -0.0246  2.5230
 1390SOL    HW234665   0.457   5.898  12.675  0.3757  0.1460 -0.8009
 1391SOL     OW34666   3.863   5.939  11.574 -0.2842  0.5276 -0.4591
 1391SOL    HW134667   3.906   5.936  11.659  1.5520  1.0080 -1.3034
 1391SOL    HW234668   3.773   5.965  11.593 -0.2068 -0.4046  1.3999
 1392SOL     OW34669   1.603   1.715   1.009  0.3490 -0.1059 -0.1657
 1392SOL    HW134670   1.602   1.737   1.102 -1.8420 -0.8435  0.0464
 1392SOL    HW234671   1.601   1.799   0.964  2.0801  0.2749  0.3988
 1393SOL     OW34672   5.765   4.406   0.960 -0.0089  0.0187 -0.3395
 1393SOL    HW134673   5.836   4.378   0.901  0.6484  2.3865 -0.7818
 1393SOL    HW234674   5.791   4.373   1.046  0.1586 -1.5493 -0.9496
 1394SOL     OW34675   1.431   5.186   0.591 -0.1683  0.1883  0.4589
 1394SOL    HW134676   1.466   5.157   0.506 -0.3508  0.4095  0.3090
 1394SOL    HW234677   1.341   5.212   0.572 -1.2783 -2.6533  1.2586
 1395SOL     OW34678   0.582   5.966   0.796  0.2674 -0.5368 -0.0308
 1395SOL    HW134679   0.657   6.018   0.769  1.1196 -0.6301  1.9760
 1395SOL    HW234680   0.509   6.028   0.799  0.5122 -0.1994 -0.8550
 1396SOL     OW34681   4.269   1.562  12.482  0.3452 -0.5901  0.0518
 1396SOL    HW134682   4.276   1.645  12.529  1.0191  0.4795 -1.8316
 1396SOL    HW234683   4.311   1.499  12.540 -0.8200  0.2100  1.8477
 1397SOL     OW34684   2.987   5.730   0.407  0.2304  0.0983 -0.6797
 1397SOL    HW134685   3.016   5.729   0.498 -0.7786 -1.4018 -0.3469
 1397SOL    HW234686   2.943   5.815   0.397 -0.1753  0.0295  0.3992
 1398SOL     OW34687   0.051   5.595   1.492 -0.0285  0.1063  0.3881
 1398SOL    HW134688   0.043   5.580   1.586 -1.2212  1.6926  0.5871
 1398SOL    HW234689   0.018   5.683   1.479 -1.8704 -0.8027 -1.7951
 1399SOL     OW34690   4.424   2.085  11.304  0.0334  0.1141  0.1789
 1399SOL    HW134691   4.425   1.999  11.261 -1.6952  0.3307 -0.4010
 1399SOL    HW234692   4.431   2.147  11.232  1.7895  0.4941  0.6371
 1400SOL     OW34693   4.519   4.649  12.712 -0.4011  0.9997 -0.2943
 1400SOL    HW134694   4.455   4.585  12.744 -2.3597  3.2765  0.5683
 1400SOL    HW234695   4.595   4.636  12.768  0.0341 -1.8009 -1.3639
 1401SOL     OW34696   1.657   0.138   0.418 -0.0344  0.1456 -0.3828
 1401SOL    HW134697   1.600   0.215   0.422  0.2044  0.2900  0.5924
 1401SOL    HW234698   1.720   0.152   0.490  0.7786 -0.3574 -0.9844
 1402SOL     OW34699   5.784   3.618   0.455 -0.0908 -0.4142 -0.2022
 1402SOL    HW134700   5.873   3.652   0.458 -0.4077  0.6586 -1.7293
 1402SOL    HW234701   5.729   3.693   0.476 -0.6737 -1.1466  1.0907
 1403SOL     OW34702   0.082   1.491  12.728  0.0721  0.1909  0.1224
 1403SOL    HW134703   0.080   1.409  12.680  1.1334  1.0603 -1.5051
 1403SOL    HW234704   0.139   1.475  12.802  2.0533  0.0022 -1.3595
 1404SOL     OW34705   2.730   0.562  11.569 -0.2145 -0.0107 -0.2035
 1404SOL    HW134706   2.751   0.603  11.653  0.0875 -2.6984  1.1294
 1404SOL    HW234707   2.806   0.579  11.514  0.2783  0.4439  0.5982
 1405SOL     OW34708   5.649   5.740  12.480 -0.2901 -0.8879 -0.2797
 1405SOL    HW134709   5.638   5.647  12.496  0.7104 -0.7300  1.6888
 1405SOL    HW234710   5.567   5.768  12.439 -1.1200 -2.3798  0.2955
 1406SOL     OW34711   1.364   1.021   0.802 -0.1417 -0.3209  0.2527
 1406SOL    HW134712   1.453   1.055   0.813  0.3893 -0.4613 -2.6868
 1406SOL    HW234713   1.309   1.083   0.849  1.3552  0.9820  0.3887
 1407SOL     OW34714   6.131   3.639   0.826  0.0691  0.1635  0.2639
 1407SOL    HW134715   6.206   3.595   0.786 -1.0705  0.2394 -2.1242
 1407SOL    HW234716   6.160   3.658   0.915  2.6372 -0.3760 -0.3563
 1408SOL     OW34717   0.145   1.380   0.999 -0.0939  0.3939  0.3145
 1408SOL    HW134718   0.138   1.475   1.004 -1.1103  0.2919  1.1309
 1408SOL    HW234719   0.160   1.362   0.906  1.5397  1.4065  0.3472
 1409SOL     OW34720   5.310   2.089   0.975 -0.1161  0.4893 -0.4648
 1409SOL    HW134721   5.217   2.105   0.964 -0.0832  0.2696 -1.0855
 1409SOL    HW234722   5.323   2.085   1.070 -0.3084  3.0427 -0.2706
 1410SOL     OW34723   6.199   2.670  12.605  0.1861 -0.0032  0.5840
 1410SOL    HW134724   6.250   2.624  12.539  0.2828  0.8275  0.0726
 1410SOL    HW234725   6.114   2.625  12.605 -0.1204  0.5298 -0.7391
 1411SOL     OW34726   4.555   5.134   0.841 -0.4047 -0.2209 -0.6343
 1411SOL    HW134727   4.650   5.144   0.845 -0.1879 -1.8226 -0.8677
 1411SOL    HW234728   4.530   5.109   0.930 -0.5910  0.0209 -0.6169
 1412SOL     OW34729   0.476   4.888  12.823  0.0295 -0.0192 -0.4696
 1412SOL    HW134730   0.497   4.805  12.865 -1.5716  0.5622  1.7016
 1412SOL    HW234731   0.498   4.954  12.889  1.2703  1.3314 -2.1346
 1413SOL     OW34732   6.367   3.469  11.997 -0.4401 -0.0431 -0.2692
 1413SOL    HW134733   6.413   3.470  12.081  0.0885  0.2744 -0.5638
 1413SOL    HW234734   6.309   3.545  12.000 -0.2060  0.1389 -0.3081
 1414SOL     OW34735   0.830   2.569   0.696  0.5060  0.2354  0.5947
 1414SOL    HW134736   0.845   2.474   0.697  0.8999  0.2876 -0.2864
 1414SOL    HW234737   0.847   2.596   0.786 -0.7206 -0.6955  1.1438
 1415SOL     OW34738   2.978   4.685   0.197  0.0106 -0.0888 -0.0868
 1415SOL    HW134739   2.991   4.622   0.268  0.2096  1.9910  1.8159
 1415SOL    HW234740   3.067   4.710   0.171 -0.0798  0.3786  0.0593
 1416SOL     OW34741   3.548   3.638   0.706  0.1432 -0.3579 -0.5002
 1416SOL    HW134742   3.586   3.692   0.775 -1.9131  2.3948 -1.3129
 1416SOL    HW234743   3.512   3.562   0.752  2.1998 -0.5784  0.8647
 1417SOL     OW34744   1.886   4.041  11.393 -0.5568 -0.6956 -0.0526
 1417SOL    HW134745   1.850   4.101  11.458  1.0469  0.5167 -0.2448
 1417SOL    HW234746   1.817   4.036  11.326 -2.1382 -1.7925  1.5539
 1418SOL     OW34747   4.440   3.015  11.344 -0.1742  0.1386 -0.7898
 1418SOL    HW134748   4.510   3.076  11.320  0.4619  0.7377  2.2169
 1418SOL    HW234749   4.483   2.930  11.348  0.5678  0.5679  1.4560
 1419SOL     OW34750   4.767   3.631  12.556 -0.4811  0.3333 -0.2147
 1419SOL    HW134751   4.828   3.636  12.482  1.3574  1.0363  1.2760
 1419SOL    HW234752   4.745   3.538  12.563 -0.0055  0.1432 -1.1098
 1420SOL     OW34753   6.422   4.858   0.417  0.1332  0.5337  0.5800
 1420SOL    HW134754   6.464   4.773   0.404 -3.0960 -1.3785  1.3773
 1420SOL    HW234755   6.450   4.911   0.342  0.3116 -2.1019 -1.3509
 1421SOL     OW34756   0.291   1.033   1.082  0.2481 -0.4781 -0.0278
 1421SOL    HW134757   0.325   1.092   1.014 -3.2768  0.1378 -1.4388
 1421SOL    HW234758   0.229   1.086   1.132  0.7665 -1.6873  2.0214
 1422SOL     OW34759   1.396   4.435  11.509 -0.0585 -0.3507  0.4403
 1422SOL    HW134760   1.369   4.440  11.417  2.1243  0.0492 -0.2297
 1422SOL    HW234761   1.326   4.479  11.557 -1.1782 -0.4434 -1.0203
 1423SOL     OW34762   5.256   0.330   0.485  0.3308  0.0991  0.4578
 1423SOL    HW134763   5.183   0.388   0.461 -2.0797 -1.7740  2.6055
 1423SOL    HW234764   5.271   0.348   0.577 -1.7434 -3.6079  1.7678
 1424SOL     OW34765   5.425   1.327   0.217  0.2820  0.5256 -0.0397
 1424SOL    HW134766   5.353   1.264   0.225  0.5967  0.2977  1.2372
 1424SOL    HW234767   5.461   1.334   0.305  1.1500  1.4489 -0.4431
 1425SOL     OW34768   0.982   3.000  12.319  0.2490 -0.3212 -0.7353
 1425SOL    HW134769   1.078   3.005  12.319  0.4075 -2.2916 -0.2841
 1425SOL    HW234770   0.959   2.997  12.412 -0.1542 -0.9900 -0.8514
 1426SOL     OW34771   5.536   4.388   0.675 -0.7266 -0.2599 -0.7332
 1426SOL    HW134772   5.605   4.454   0.667 -0.1575 -0.5487  1.2332
 1426SOL    HW234773   5.512   4.389   0.768 -0.9547 -2.5700 -0.7079
 1427SOL     OW34774   3.606   0.460  12.743 -0.2086 -0.3723 -0.2686
 1427SOL    HW134775   3.569   0.375  12.720  0.0158 -0.8784  1.1459
 1427SOL    HW234776   3.697   0.455  12.713 -0.6433  0.0588 -1.7711
 1428SOL     OW34777   4.801   2.802   0.168  0.6561 -0.2490  0.2552
 1428SOL    HW134778   4.786   2.713   0.138 -0.4458  0.1187 -0.3348
 1428SOL    HW234779   4.889   2.800   0.206  1.0154 -1.3618 -0.5793
 1429SOL     OW34780   0.610   3.258  12.832 -0.2565  0.3939 -0.0421
 1429SOL    HW134781   0.592   3.345  12.796 -1.3210 -0.2371 -1.0664
 1429SOL    HW234782   0.601   3.198  12.758  0.5764 -0.5944  0.6235
 1430SOL     OW34783   4.956   5.739  11.843  0.2792  0.2293 -0.6048
 1430SOL    HW134784   4.966   5.715  11.751  0.4836 -0.7981 -0.3346
 1430SOL    HW234785   5.028   5.694  11.887  1.0505  1.8763 -0.1212
 1431SOL     OW34786   5.738   2.210  11.198  0.0282 -0.3423  0.0076
 1431SOL    HW134787   5.771   2.300  11.201 -0.1831 -0.2276 -0.7878
 1431SOL    HW234788   5.669   2.212  11.132  1.3428 -1.4944 -1.4895
 1432SOL     OW34789   1.830   0.176  11.823 -0.0233  0.2273 -0.0617
 1432SOL    HW134790   1.901   0.177  11.888 -0.1637 -1.5766  0.1900
 1432SOL    HW234791   1.858   0.111  11.759  0.0873  1.9531 -1.8388
 1433SOL     OW34792   1.333   5.514   0.031 -0.0651 -0.1744 -0.1201
 1433SOL    HW134793   1.387   5.580  -0.011  2.1412 -0.4916  1.9912
 1433SOL    HW234794   1.395   5.445   0.056 -1.8163 -1.6177  0.4302
 1434SOL     OW34795   0.546   1.828  12.324 -0.3358 -0.2571 -0.2932
 1434SOL    HW134796   0.531   1.771  12.400 -2.6255  0.0911 -0.4195
 1434SOL    HW234797   0.544   1.917  12.359  0.2059 -0.1362 -0.5519
 1435SOL     OW34798   3.465   3.179  11.919 -0.1733  0.0057  0.2882
 1435SOL    HW134799   3.376   3.157  11.890 -0.0561 -0.4798  0.2846
 1435SOL    HW234800   3.452   3.222  12.004 -0.3768 -0.7107  0.6330
 1436SOL     OW34801   2.982   0.379  12.366  0.5196 -0.2195  0.4992
 1436SOL    HW134802   3.058   0.327  12.393 -0.0975 -0.9383  0.9069
 1436SOL    HW234803   3.014   0.434  12.295  1.5086 -0.2543  0.8979
 1437SOL     OW34804   0.489   2.229  12.242  0.2664  0.0059 -0.4120
 1437SOL    HW134805   0.408   2.180  12.256  0.1583  0.3806  0.3225
 1437SOL    HW234806   0.467   2.319  12.267  0.9901  0.0557  0.0553
 1438SOL     OW34807   5.679   0.896   0.261  0.3598  0.0985  0.4680
 1438SOL    HW134808   5.614   0.896   0.191  0.6727  1.4821  0.1526
 1438SOL    HW234809   5.703   0.988   0.272  0.7366 -0.1430  2.0040
 1439SOL     OW34810   3.331   0.392  12.860 -0.0417 -0.2585 -0.0447
 1439SOL    HW134811   3.382   0.328  12.810  1.7741 -0.4753  1.9343
 1439SOL    HW234812   3.262   0.341  12.901  1.0010 -0.8713  0.9914
 1440SOL     OW34813   5.823   2.168  12.641  0.6186  0.4992  0.2579
 1440SOL    HW134814   5.855   2.079  12.624 -0.8426 -0.6743  3.0468
 1440SOL    HW234815   5.874   2.198  12.716 -0.1611  1.2741  0.4890
 1441SOL     OW34816   5.451   5.570  12.112  0.2819 -0.2614 -0.2357
 1441SOL    HW134817   5.412   5.506  12.051 -0.3624 -0.9709  0.8756
 1441SOL    HW234818   5.538   5.586  12.077  0.1108 -1.0387 -1.0752
 1442SOL     OW34819   4.443   5.448  12.159  0.0080 -0.4412 -0.4561
 1442SOL    HW134820   4.388   5.387  12.110 -0.0699  0.1508 -1.1222
 1442SOL    HW234821   4.414   5.440  12.249 -0.5794 -0.7718 -0.6722
 1443SOL     OW34822   3.451   1.696   0.411 -0.8240  0.0481  0.3699
 1443SOL    HW134823   3.427   1.697   0.319 -1.8590  2.6957  0.5568
 1443SOL    HW234824   3.375   1.656   0.455 -0.2409 -1.4105  0.1081
 1444SOL     OW34825   0.759   2.485   0.081  0.1378  0.4434 -0.0811
 1444SOL    HW134826   0.751   2.564   0.133  2.2077  0.7646 -0.1434
 1444SOL    HW234827   0.751   2.515  -0.010  1.0551  0.6466 -0.1119
 1445SOL     OW34828   5.635   3.843   0.510 -0.2052 -0.0922 -0.8119
 1445SOL    HW134829   5.544   3.867   0.493 -0.7612 -0.7670  1.0542
 1445SOL    HW234830   5.663   3.903   0.578  1.4414  1.4351 -2.7035
 1446SOL     OW34831   6.244   6.129  11.545  0.0921 -0.0961  0.2850
 1446SOL    HW134832   6.292   6.135  11.462 -0.3955  0.1816  0.0191
 1446SOL    HW234833   6.311   6.146  11.612  0.2171  1.1278 -0.1159
 1447SOL     OW34834   6.391   6.392  11.056 -0.1888 -0.0817  0.6102
 1447SOL    HW134835   6.391   6.477  11.012  1.8346  0.2326  1.1450
 1447SOL    HW234836   6.470   6.349  11.026 -1.5564 -2.1562 -0.2479
 1448SOL     OW34837   0.603   4.353  11.574 -0.2031 -0.2818  0.4446
 1448SOL    HW134838   0.585   4.277  11.517 -0.6286 -0.6703  1.0817
 1448SOL    HW234839   0.649   4.415  11.517  0.4271 -1.1407 -0.0099
 1449SOL     OW34840   1.560   6.300  10.950  0.4359 -0.0418  0.1510
 1449SOL    HW134841   1.519   6.223  10.990  1.5522 -0.5828  0.3101
 1449SOL    HW234842   1.548   6.288  10.856  2.5243 -1.6139  0.0086
 1450SOL     OW34843   4.455   1.398  12.215  0.1043 -0.0316  0.3041
 1450SOL    HW134844   4.536   1.441  12.189 -0.9312  1.1899 -1.0358
 1450SOL    HW234845   4.482   1.336  12.283  2.4561 -1.1673 -1.5254
 1451SOL     OW34846   5.205   3.371   0.145  0.5469 -0.3422 -0.4312
 1451SOL    HW134847   5.194   3.289   0.096  0.1557  0.2837 -1.4325
 1451SOL    HW234848   5.229   3.435   0.078 -0.1762  0.5792  0.1658
 1452SOL     OW34849   0.473   0.959  12.111  0.1958  0.1722  0.6577
 1452SOL    HW134850   0.437   0.872  12.089 -0.0177  0.0035  1.6026
 1452SOL    HW234851   0.558   0.940  12.151 -0.4224  0.2797  2.0931
 1453SOL     OW34852   4.451   2.754  12.773  0.4851 -0.3976  0.4247
 1453SOL    HW134853   4.423   2.759  12.865 -0.6788  1.6037  0.0238
 1453SOL    HW234854   4.376   2.714  12.728 -0.9155  2.7522 -0.2780
 1454SOL     OW34855   4.494   4.159   0.222  0.0017  0.4671 -0.0310
 1454SOL    HW134856   4.403   4.188   0.218  0.6806  2.8439  0.0676
 1454SOL    HW234857   4.529   4.201   0.301  0.8851 -1.4097  0.6189
 1455SOL     OW34858   5.600   1.083  12.749 -0.1930 -0.0489  0.6646
 1455SOL    HW134859   5.613   1.167  12.792 -0.3275 -1.0077  2.6740
 1455SOL    HW234860   5.557   1.028  12.814 -0.0918 -1.6941 -0.5764
 1456SOL     OW34861   2.965   6.248   1.522 -0.0994  0.0886 -0.2639
 1456SOL    HW134862   3.003   6.162   1.504  0.2275  0.3089 -0.6333
 1456SOL    HW234863   2.872   6.230   1.535 -0.2950 -0.1527 -1.7740
 1457SOL     OW34864   0.110   4.212  12.742 -0.3253  0.2168  0.4879
 1457SOL    HW134865   0.121   4.140  12.804  1.4848  0.2429  0.2546
 1457SOL    HW234866   0.086   4.287  12.797  1.5857  0.3268  1.2719
 1458SOL     OW34867   3.184   0.473   0.922  0.1953  0.0603 -0.2089
 1458SOL    HW134868   3.092   0.496   0.926 -0.5497 -2.5489 -0.2188
 1458SOL    HW234869   3.202   0.434   1.008  1.7782  1.9791  0.4065
 1459SOL     OW34870   5.598   2.655   0.368 -0.5087 -0.4282  0.2509
 1459SOL    HW134871   5.586   2.723   0.435 -0.8570 -1.8708  1.7024
 1459SOL    HW234872   5.594   2.573   0.416 -3.2881 -1.6568 -1.8641
 1460SOL     OW34873   3.576   4.985   0.989 -0.1489  0.3463  0.8578
 1460SOL    HW134874   3.629   5.039   0.931 -1.7508  0.1255 -0.9037
 1460SOL    HW234875   3.557   5.042   1.064  1.1355  0.9709  0.7429
 1461SOL     OW34876   5.727   5.331  11.968 -0.3793  0.5395 -0.3447
 1461SOL    HW134877   5.649   5.276  11.973  0.2397 -0.2358  2.5449
 1461SOL    HW234878   5.782   5.302  12.041  1.9009  2.1545 -1.3059
 1462SOL     OW34879   4.391   3.403  12.122  0.0582 -0.0874 -0.1689
 1462SOL    HW134880   4.458   3.342  12.090  0.1901  0.0886 -0.2281
 1462SOL    HW234881   4.429   3.442  12.200 -0.5136 -0.9843  0.5900
 1463SOL     OW34882   0.474   4.376   0.093  0.1801 -0.1029 -0.0672
 1463SOL    HW134883   0.392   4.364   0.045  0.5977  0.9318 -1.0873
 1463SOL    HW234884   0.524   4.296   0.078 -0.5019 -0.6190  0.3230
 1464SOL     OW34885   0.487   6.285  11.572 -0.1220  0.1230 -0.2451
 1464SOL    HW134886   0.473   6.287  11.477 -1.1162  0.0328 -0.1108
 1464SOL    HW234887   0.432   6.355  11.606 -0.9326 -0.8060  0.3975
 1465SOL     OW34888   2.121   3.556   1.545  0.3473  0.3214  0.0471
 1465SOL    HW134889   2.133   3.464   1.521 -0.9599  0.1169  0.0883
 1465SOL    HW234890   2.031   3.576   1.517 -0.2248  0.9067  2.1542
 1466SOL     OW34891   6.335   3.232   1.285  0.1489 -0.2100 -0.5013
 1466SOL    HW134892   6.302   3.286   1.214 -0.6596  2.1046  1.5004
 1466SOL    HW234893   6.267   3.165   1.298 -1.4807  1.5018  0.3156
 1467SOL     OW34894   0.923   0.063  12.524  0.5395 -0.6052  0.0778
 1467SOL    HW134895   1.001   0.114  12.501  1.8184 -2.4225  0.1031
 1467SOL    HW234896   0.856   0.093  12.463  2.0651 -0.8887 -1.8614
 1468SOL     OW34897   0.302   0.567   0.797 -0.2096  0.6317 -0.6417
 1468SOL    HW134898   0.366   0.511   0.841 -0.5111 -0.5242 -1.6301
 1468SOL    HW234899   0.314   0.653   0.837 -0.5392 -0.3557  1.7740
 1469SOL     OW34900   2.887   2.710   0.920 -0.9193 -0.4830  0.7160
 1469SOL    HW134901   2.919   2.763   0.846  0.8992 -1.4649  0.7362
 1469SOL    HW234902   2.792   2.720   0.917 -0.7113  2.0516  0.1927
 1470SOL     OW34903   1.935   4.401  12.684  0.2428  0.7944  0.1375
 1470SOL    HW134904   2.027   4.382  12.700  0.3247  0.5133 -0.6661
 1470SOL    HW234905   1.888   4.324  12.716  0.3379  0.6343 -0.1108
 1471SOL     OW34906   6.191   0.189   0.104  0.3100  0.5760 -0.3279
 1471SOL    HW134907   6.201   0.096   0.124 -0.8077  0.5628  0.2809
 1471SOL    HW234908   6.223   0.198   0.014 -0.4231 -0.5736 -0.7292
 1472SOL     OW34909   2.916   1.737   0.334  0.2036  0.2955 -0.6674
 1472SOL    HW134910   2.890   1.702   0.248  0.3666  2.2281 -1.5554
 1472SOL    HW234911   2.956   1.663   0.379 -3.3798 -1.8907 -0.6839
 1473SOL     OW34912   4.235   3.661  12.095  0.2845  0.2001 -0.2523
 1473SOL    HW134913   4.195   3.576  12.079  0.6635  0.2454 -1.6485
 1473SOL    HW234914   4.315   3.642  12.143  0.9779 -0.3902 -1.5772
 1474SOL     OW34915   3.458   4.585   0.119  0.0178  0.3675  0.4216
 1474SOL    HW134916   3.547   4.620   0.110  0.3384 -0.6913 -0.8935
 1474SOL    HW234917   3.460   4.535   0.201  0.9833 -0.5470 -0.1337
 1475SOL     OW34918   2.462   5.872  12.861 -0.4965  0.2139  0.4974
 1475SOL    HW134919   2.424   5.855  12.775 -1.8665  3.6498  0.2284
 1475SOL    HW234920   2.549   5.908  12.843 -0.1908 -0.4325  0.6588
 1476SOL     OW34921   1.547   6.311   0.703 -0.3936 -0.2071  0.0233
 1476SOL    HW134922   1.494   6.299   0.624 -2.3413 -1.9415  1.4748
 1476SOL    HW234923   1.546   6.406   0.719 -2.6207 -0.1088 -0.3698
 1477SOL     OW34924   0.707   2.191  12.557 -0.1769 -0.1353 -0.0255
 1477SOL    HW134925   0.630   2.136  12.540 -0.6972  0.6089 -0.1725
 1477SOL    HW234926   0.673   2.281  12.551  0.7616  0.2077 -0.3341
 1478SOL     OW34927   1.107   0.611   1.405 -0.1429 -0.7565 -0.1690
 1478SOL    HW134928   1.053   0.533   1.416  0.8073 -1.4789 -0.5619
 1478SOL    HW234929   1.197   0.582   1.419  0.0732  0.7403  2.0257
 1479SOL     OW34930   0.048   5.155   0.366  0.3594  0.4326  0.2962
 1479SOL    HW134931  -0.044   5.176   0.382 -0.1040  0.6945 -2.2827
 1479SOL    HW234932   0.048   5.103   0.286  2.4635  0.2810  0.3157
 1480SOL     OW34933   1.499   2.280   1.357 -0.0374 -0.5990 -0.1505
 1480SOL    HW134934   1.444   2.213   1.316 -0.2603 -0.9122  0.6276
 1480SOL    HW234935   1.552   2.315   1.286 -1.4392 -0.0905 -0.9836
 1481SOL     OW34936   4.270   3.662  12.453 -0.0493  0.4301  0.1457
 1481SOL    HW134937   4.316   3.702  12.527 -2.9989  2.1758  1.1857
 1481SOL    HW234938   4.210   3.599  12.493  0.0209 -0.4008 -1.0094
 1482SOL     OW34939   5.511   1.179  11.733 -0.6435  0.6875 -0.4407
 1482SOL    HW134940   5.425   1.176  11.690 -1.9288 -2.0862  1.9284
 1482SOL    HW234941   5.494   1.222  11.817  0.4341  0.6405 -0.1903
 1483SOL     OW34942   1.564   5.373   0.078  0.6103  0.2500 -0.0422
 1483SOL    HW134943   1.600   5.419   0.153 -0.1156  0.8181 -0.0358
 1483SOL    HW234944   1.633   5.376   0.012  0.2348  2.1871 -0.3875
 1484SOL     OW34945   4.074   5.036   2.001 -0.3698 -0.4949  0.1230
 1484SOL    HW134946   4.155   4.987   2.018 -0.7516 -1.3043 -0.3519
 1484SOL    HW234947   4.006   4.985   2.044 -0.7766 -0.4023 -0.4025
 1485SOL     OW34948   6.267   0.124  12.343  0.1193  0.9713  0.0536
 1485SOL    HW134949   6.311   0.088  12.421 -2.1709  0.0370  0.9906
 1485SOL    HW234950   6.280   0.058  12.276  0.9465  1.1562  0.0151
 1486SOL     OW34951   5.213   4.961   1.058  0.7805  0.2302 -0.2554
 1486SOL    HW134952   5.292   4.959   1.005  0.8698 -0.7138 -0.0965
 1486SOL    HW234953   5.152   4.903   1.012  0.7643 -0.3769  0.5106
 1487SOL     OW34954   5.583   4.514  11.606 -0.5998  0.8812  0.2902
 1487SOL    HW134955   5.582   4.527  11.701  1.8765  3.7590  0.0942
 1487SOL    HW234956   5.558   4.599  11.571  0.9928  0.6315 -1.5897
 1488SOL     OW34957   3.595   0.053  12.477 -0.4182 -0.5670 -0.5022
 1488SOL    HW134958   3.502   0.033  12.491 -0.8854  0.0417 -2.4360
 1488SOL    HW234959   3.627   0.083  12.562 -2.3366  0.5120 -0.1182
 1489SOL     OW34960   1.267   5.032  12.717 -0.2003  0.7043 -0.3419
 1489SOL    HW134961   1.335   5.040  12.783  0.8639  0.7162 -1.4056
 1489SOL    HW234962   1.296   5.089  12.646 -0.3004 -0.8335 -1.6543
 1490SOL     OW34963   2.805   3.893  12.385 -0.4747 -0.7770  0.2317
 1490SOL    HW134964   2.783   3.986  12.395  0.1479 -0.8550  4.1573
 1490SOL    HW234965   2.760   3.850  12.458  3.0360 -2.7249  1.4862
 1491SOL     OW34966   1.440   0.444  12.506  0.6151  0.0867  0.6991
 1491SOL    HW134967   1.469   0.423  12.417  0.5647  2.4305  0.0563
 1491SOL    HW234968   1.520   0.467  12.553  0.7454 -1.9448  1.5581
 1492SOL     OW34969   5.250   5.577  11.662 -0.1500 -0.2192  0.1463
 1492SOL    HW134970   5.307   5.643  11.702 -0.0984 -0.0380 -0.2295
 1492SOL    HW234971   5.309   5.505  11.641  0.1351  0.3933 -1.2193
 1493SOL     OW34972   4.440   3.744  12.674 -0.3537 -0.2227 -0.0752
 1493SOL    HW134973   4.527   3.762  12.710 -0.1989 -1.0774  0.0069
 1493SOL    HW234974   4.380   3.766  12.745  0.0301 -3.3976  1.3979
 1494SOL     OW34975   1.233   3.811  11.584 -0.5899 -0.0217 -0.0190
 1494SOL    HW134976   1.141   3.785  11.589 -0.5592 -0.3503 -0.9105
 1494SOL    HW234977   1.238   3.863  11.504 -0.2254  0.9723  0.6386
 1495SOL     OW34978   6.418   2.301  12.539  0.7055  0.3068  0.6212
 1495SOL    HW134979   6.429   2.320  12.633 -1.6953 -2.3940  1.6171
 1495SOL    HW234980   6.379   2.381  12.503  2.0184  1.5393  1.8028
 1496SOL     OW34981   5.029   6.039  11.713 -0.1844 -0.7690  0.1716
 1496SOL    HW134982   5.099   5.974  11.712 -0.3884 -0.9897 -0.0475
 1496SOL    HW234983   4.961   6.001  11.657 -0.3546 -0.4199  0.1417
 1497SOL     OW34984   1.250   5.636   1.685 -0.2831 -0.2622  0.2790
 1497SOL    HW134985   1.225   5.678   1.602  0.4164  2.6677  1.4392
 1497SOL    HW234986   1.172   5.646   1.740 -0.5434 -1.6861  0.1978
 1498SOL     OW34987   2.078   2.706  12.072 -0.4079 -0.6233 -0.2166
 1498SOL    HW134988   2.072   2.712  12.167  1.6901 -1.5299  0.0256
 1498SOL    HW234989   2.007   2.761  12.040 -0.4730  0.5967  1.8659
 1499SOL     OW34990   0.473   3.498   0.762  1.0257 -0.3123  0.1487
 1499SOL    HW134991   0.430   3.434   0.819  1.4820 -2.1198 -1.4367
 1499SOL    HW234992   0.431   3.487   0.677  0.7920  1.8787 -0.0874
 1500SOL     OW34993   4.022   5.531  12.691 -0.3101  0.2427 -0.2520
 1500SOL    HW134994   3.934   5.495  12.683 -0.7287  0.5125  2.2405
 1500SOL    HW234995   4.014   5.620  12.657 -1.6192  1.0140  1.8552
 1501SOL     OW34996   2.381   3.620   1.360 -0.0878 -0.1077 -0.3400
 1501SOL    HW134997   2.388   3.557   1.288 -0.0223 -1.8918  1.1590
 1501SOL    HW234998   2.287   3.640   1.364 -0.6620 -2.6360  1.1314
 1502SOL     OW34999   2.137   5.176   1.830  0.0776 -0.5865 -0.1037
 1502SOL    HW135000   2.131   5.088   1.792 -0.5036  0.4726 -2.7308
 1502SOL    HW235001   2.050   5.194   1.866 -0.6033 -0.2230 -1.8229
 1503SOL     OW35002   4.320   0.894   0.600 -0.4336  0.3673 -0.0055
 1503SOL    HW135003   4.257   0.915   0.669  0.5784  1.7938  0.5501
 1503SOL    HW235004   4.362   0.813   0.629  0.6015  1.4121  1.5512
 1504SOL     OW35005   6.343   3.170  11.967  0.1415 -0.6390 -0.4976
 1504SOL    HW135006   6.320   3.156  12.059 -0.0147 -1.3712 -0.6464
 1504SOL    HW235007   6.374   3.261  11.964 -0.9978 -0.2146  0.0560
 1505SOL     OW35008   5.972   3.271  12.506 -0.4857  0.6480 -0.0302
 1505SOL    HW135009   5.929   3.240  12.427 -0.8993  1.7971 -0.2689
 1505SOL    HW235010   6.040   3.205  12.524  1.0389  1.3901 -2.5095
 1506SOL     OW35011   1.138   1.819   0.765 -0.0484 -0.0504  1.1362
 1506SOL    HW135012   1.217   1.802   0.714 -0.0686  2.1691  0.3015
 1506SOL    HW235013   1.143   1.756   0.838  2.6799  0.2923  1.3345
 1507SOL     OW35014   0.926   3.474   1.591 -0.3784  0.1838  0.1393
 1507SOL    HW135015   0.951   3.383   1.607 -1.7354 -0.3208 -0.4485
 1507SOL    HW235016   0.982   3.501   1.518  1.6188  0.5941  1.7099
 1508SOL     OW35017   2.280   1.169   0.162  0.0354  0.2639 -0.2935
 1508SOL    HW135018   2.373   1.153   0.143  0.5179  1.2230  1.1585
 1508SOL    HW235019   2.240   1.182   0.076  1.0249 -1.1775 -1.0182
 1509SOL     OW35020   5.197   1.052  12.660  0.2251  0.1660 -0.0352
 1509SOL    HW135021   5.168   1.113  12.728 -1.5269  0.9839 -1.4578
 1509SOL    HW235022   5.147   0.972  12.678 -1.0599  0.7363 -0.9638
 1510SOL     OW35023   2.636   0.192  11.463 -0.0022 -0.1369 -0.2292
 1510SOL    HW135024   2.616   0.176  11.555  1.6056  1.1326  0.3749
 1510SOL    HW235025   2.731   0.181  11.456  0.3351  2.5860 -1.0983
 1511SOL     OW35026   3.785   4.364   0.118  0.0398 -0.0497 -0.1143
 1511SOL    HW135027   3.768   4.438   0.059  1.3782 -0.2136 -0.7441
 1511SOL    HW235028   3.816   4.294   0.061 -0.7622 -0.9617  0.5393
 1512SOL     OW35029   5.828   0.500  12.461  0.3866  0.2557  0.3168
 1512SOL    HW135030   5.835   0.432  12.529 -1.0787  0.2544  0.5009
 1512SOL    HW235031   5.899   0.561  12.481  1.5566 -1.0376  0.3267
 1513SOL     OW35032   0.184   1.915  12.516  0.0261  0.0324  0.0391
 1513SOL    HW135033   0.206   1.857  12.589  0.9530  0.2581 -0.0494
 1513SOL    HW235034   0.100   1.954  12.540  1.1808  1.5381  1.8859
 1514SOL     OW35035   5.642   4.075   1.016  0.2059  0.0093  0.0887
 1514SOL    HW135036   5.737   4.086   1.025  0.2432  3.0323 -2.5056
 1514SOL    HW235037   5.604   4.136   1.079  0.1321  1.8368 -1.6375
 1515SOL     OW35038   1.096   0.602  12.141  0.3992 -0.1249  0.6105
 1515SOL    HW135039   1.130   0.540  12.206  2.0873  0.3111  0.2110
 1515SOL    HW235040   1.171   0.660  12.123 -1.2829  2.4867  1.4797
 1516SOL     OW35041   2.771   3.519   1.265 -0.2297 -0.7232  0.0595
 1516SOL    HW135042   2.720   3.524   1.184  0.7296 -0.7472 -0.5662
 1516SOL    HW235043   2.816   3.603   1.269 -1.2268 -0.2197  1.2400
 1517SOL     OW35044   1.284   3.945  12.027  0.5657 -0.0466  0.7658
 1517SOL    HW135045   1.223   3.881  11.991  0.3278  1.1454 -1.1091
 1517SOL    HW235046   1.286   3.926  12.121 -0.5466 -1.8769  0.4756
 1518SOL     OW35047   0.009   0.968   0.002 -0.1559 -0.2529 -0.3835
 1518SOL    HW135048  -0.023   1.027  -0.067 -1.0953 -1.9768 -1.4887
 1518SOL    HW235049  -0.068   0.950   0.056  0.1666 -0.3312  0.0536
 1519SOL     OW35050   6.449   1.953  12.295  0.1283  0.5066 -0.6111
 1519SOL    HW135051   6.524   1.985  12.345 -0.3710  3.3125 -1.4583
 1519SOL    HW235052   6.384   2.023  12.302 -0.9206 -0.1083 -3.0509
 1520SOL     OW35053   3.985   4.239   1.134 -0.1813  0.4437 -0.3725
 1520SOL    HW135054   4.050   4.241   1.205 -0.5123  1.0041 -0.0688
 1520SOL    HW235055   3.905   4.206   1.175 -0.3915  0.8254 -0.4607
 1521SOL     OW35056   5.557   1.029  12.488 -0.1166 -0.5762 -0.4559
 1521SOL    HW135057   5.584   1.029  12.580 -0.2578  2.6083 -0.2865
 1521SOL    HW235058   5.478   0.975  12.486 -0.1962 -0.5853  1.3548
 1522SOL     OW35059   1.143   2.853   1.240 -0.1065  0.0130  0.3013
 1522SOL    HW135060   1.068   2.801   1.210  0.5114  0.3653 -2.0744
 1522SOL    HW235061   1.214   2.790   1.251 -0.7696 -0.3880  2.9800
 1523SOL     OW35062   5.652   4.911  12.817 -0.4147  0.3547 -0.0544
 1523SOL    HW135063   5.711   4.890  12.889 -2.6489  0.6264  1.9815
 1523SOL    HW235064   5.688   4.864  12.742  2.6753  0.9937  0.8784
 1524SOL     OW35065   3.195   1.271   1.164  0.3283  0.5446  0.4961
 1524SOL    HW135066   3.205   1.246   1.256 -0.4465 -1.5141  0.0724
 1524SOL    HW235067   3.125   1.336   1.164 -0.9147 -0.7433  1.2164
 1525SOL     OW35068   5.266   2.687  12.000  0.5002 -0.2918  0.0695
 1525SOL    HW135069   5.211   2.716  12.073  1.0259 -0.8878  0.7206
 1525SOL    HW235070   5.314   2.612  12.035 -0.3726 -1.5716 -1.3618
 1526SOL     OW35071   5.766   6.089  12.828  0.3908  0.0363 -0.3325
 1526SOL    HW135072   5.745   6.103  12.921  0.4213 -0.7637 -0.1948
 1526SOL    HW235073   5.728   6.003  12.808  0.5953  0.0985 -0.9942
 1527SOL     OW35074   2.089   5.535  12.131 -0.4756  0.1768  0.2949
 1527SOL    HW135075   2.106   5.493  12.046 -0.6753  0.5907  0.0501
 1527SOL    HW235076   2.054   5.464  12.185  1.1699 -0.4938  0.5422
 1528SOL     OW35077   4.512   1.029   0.942  0.2856 -0.0617 -0.1591
 1528SOL    HW135078   4.521   0.944   0.985 -0.1840 -0.7903 -1.4415
 1528SOL    HW235079   4.524   1.011   0.849  1.0329  1.4300 -0.3838
 1529SOL     OW35080   1.000   2.628  12.168 -0.1493  0.3643 -0.1111
 1529SOL    HW135081   0.987   2.606  12.260  1.0952  0.4304  0.0932
 1529SOL    HW235082   1.083   2.586  12.145 -0.5873  0.1117 -1.2875
 1530SOL     OW35083   2.924   0.661  11.398 -0.4311  0.3777 -0.4207
 1530SOL    HW135084   2.933   0.718  11.322  2.0023 -0.5215 -0.8820
 1530SOL    HW235085   3.006   0.613  11.402 -0.7855 -0.1512  2.3513
 1531SOL     OW35086   3.046   2.961  12.039  0.3403 -0.0721  0.2625
 1531SOL    HW135087   2.959   2.960  12.000 -0.2733  1.2556  1.5215
 1531SOL    HW235088   3.082   2.874  12.019 -1.4196 -0.7975  0.0514
 1532SOL     OW35089   1.062   2.835  12.016 -0.8016 -0.2619 -0.2113
 1532SOL    HW135090   1.052   2.781  12.095  1.3376 -1.4911 -0.6846
 1532SOL    HW235091   1.010   2.913  12.033 -1.2246 -0.9546  1.9792
 1533SOL     OW35092   1.118   6.187  12.362 -0.4611 -0.3938  0.4472
 1533SOL    HW135093   1.145   6.177  12.453  0.9940  0.2651  0.1151
 1533SOL    HW235094   1.185   6.244  12.323 -2.1203  0.9628 -0.5463
 1534SOL     OW35095   5.571   6.307  12.647 -0.0301 -0.1672 -0.0930
 1534SOL    HW135096   5.543   6.319  12.556 -0.4326  0.1878  0.0754
 1534SOL    HW235097   5.660   6.342  12.650  0.0522 -0.3428 -0.3882
 1535SOL     OW35098   0.327   3.084  11.708 -0.4398 -0.4492  0.0980
 1535SOL    HW135099   0.247   3.115  11.667 -0.0956  0.0799 -0.1838
 1535SOL    HW235100   0.345   3.147  11.778 -0.6725 -0.9864  0.6618
 1536SOL     OW35101   6.195   5.753  11.745 -0.3278  0.1266  0.6756
 1536SOL    HW135102   6.229   5.743  11.834 -0.7998 -1.1696  0.7227
 1536SOL    HW235103   6.273   5.763  11.690  0.1612 -2.1772  0.8644
 1537SOL     OW35104   6.186   4.097   0.694 -0.2129  0.5174  0.2113
 1537SOL    HW135105   6.159   4.025   0.752 -0.1350 -0.7926 -1.3325
 1537SOL    HW235106   6.281   4.089   0.687 -0.3095  0.1382 -0.7614
 1538SOL     OW35107   0.428   3.564  12.472  0.0856 -0.1868  0.1701
 1538SOL    HW135108   0.427   3.593  12.563  0.0238  1.7951 -0.4269
 1538SOL    HW235109   0.487   3.488  12.472 -0.8979 -1.0135  2.0545
 1539SOL     OW35110   1.395   1.729  12.600 -0.1733  0.0180 -0.4099
 1539SOL    HW135111   1.308   1.734  12.640  0.1318  0.4421  0.2068
 1539SOL    HW235112   1.417   1.819  12.577  0.6596  0.1102  0.6569
 1540SOL     OW35113   5.000   3.448  11.280 -0.6258  0.2532  0.3139
 1540SOL    HW135114   5.020   3.506  11.207 -1.3612  0.8592  0.5825
 1540SOL    HW235115   4.940   3.383  11.243  0.9555 -0.9640 -0.2371
 1541SOL     OW35116   2.440   3.953  12.424 -0.0550 -0.3580  0.5306
 1541SOL    HW135117   2.503   3.996  12.366 -0.3142  1.7793  1.7054
 1541SOL    HW235118   2.422   3.869  12.383  1.0518  0.3644 -1.5636
 1542SOL     OW35119   5.339   4.432   0.176  0.3934 -0.4335 -0.2683
 1542SOL    HW135120   5.332   4.480   0.094  0.8601 -1.3283 -0.8508
 1542SOL    HW235121   5.398   4.484   0.230 -0.0466  0.2419 -0.4242
 1543SOL     OW35122   1.015   5.848   0.523 -0.3738 -0.2164 -0.4712
 1543SOL    HW135123   0.980   5.833   0.611  1.6662  1.3200  0.7180
 1543SOL    HW235124   1.008   5.764   0.479 -4.1512 -0.3379  0.0622
 1544SOL     OW35125   4.296   4.891   0.211 -0.1373 -0.1973  0.1723
 1544SOL    HW135126   4.371   4.865   0.158 -0.4240 -0.9701  0.1442
 1544SOL    HW235127   4.316   4.981   0.237  1.4564 -0.8324  1.2937
 1545SOL     OW35128   1.885   5.259   0.223  0.3273 -0.6189  0.5689
 1545SOL    HW135129   1.816   5.200   0.254 -0.4783  0.4399  0.8447
 1545SOL    HW235130   1.952   5.201   0.186 -0.6272 -1.6744  0.4652
 1546SOL     OW35131   3.655   0.189  11.649  0.5857  0.1052 -0.5117
 1546SOL    HW135132   3.714   0.224  11.715 -0.0413  0.4429 -0.1230
 1546SOL    HW235133   3.713   0.157  11.580  1.2127  0.8322 -0.3394
 1547SOL     OW35134   6.101   3.306   0.684  0.1146  0.1086  0.6697
 1547SOL    HW135135   6.120   3.272   0.771 -0.4774  0.2204  0.8532
 1547SOL    HW235136   6.009   3.334   0.689 -0.5928 -1.7384 -0.5515
 1548SOL     OW35137   5.438   2.486   1.719  0.2766 -0.5332 -0.4592
 1548SOL    HW135138   5.477   2.491   1.632  1.1797 -0.2772 -0.0518
 1548SOL    HW235139   5.505   2.442   1.773  0.4297  0.7841  0.4737
 1549SOL     OW35140   4.315   5.793   1.198  0.2371 -0.3081 -0.2114
 1549SOL    HW135141   4.358   5.871   1.231  3.0929 -0.7449 -2.5119
 1549SOL    HW235142   4.321   5.730   1.269  0.3227  0.7094  0.7107
 1550SOL     OW35143   5.152   6.078  11.966 -0.2885 -0.3574 -0.1046
 1550SOL    HW135144   5.089   6.057  12.035  0.0546  0.5505  0.4967
 1550SOL    HW235145   5.099   6.090  11.887 -0.9488  0.9947  0.5162
 1551SOL     OW35146   0.045   2.945  11.367 -0.3049 -0.0233 -0.2302
 1551SOL    HW135147   0.088   2.927  11.283  0.8641  1.8343 -0.0817
 1551SOL    HW235148  -0.031   2.998  11.344 -0.9357 -0.9256 -0.2473
 1552SOL     OW35149   1.894   4.842  11.639 -0.1358 -0.4093  0.0488
 1552SOL    HW135150   1.813   4.830  11.688 -1.5450  1.7843 -1.5480
 1552SOL    HW235151   1.901   4.763  11.585 -1.1152 -0.7104  0.3451
 1553SOL     OW35152   5.808   0.654  12.008 -0.0117 -0.8093 -0.4632
 1553SOL    HW135153   5.891   0.660  12.054 -1.5924  2.5962  2.4899
 1553SOL    HW235154   5.748   0.614  12.071 -1.3525  0.1158 -1.0907
 1554SOL     OW35155   5.591   4.036  12.248 -0.0298 -0.0829 -0.5419
 1554SOL    HW135156   5.681   4.023  12.278 -0.7300 -1.3957  1.1791
 1554SOL    HW235157   5.572   3.958  12.196 -0.2079  0.1721 -0.8632
 1555SOL     OW35158   5.540   1.816   1.244 -0.2400 -0.2346  0.0232
 1555SOL    HW135159   5.560   1.730   1.279  1.7717 -0.1133 -0.7161
 1555SOL    HW235160   5.490   1.799   1.164 -1.4373 -0.6148  0.8165
 1556SOL     OW35161   1.477   4.000   0.046 -0.1961  0.1563  0.3127
 1556SOL    HW135162   1.519   4.076   0.088  1.9622  0.2288 -1.7729
 1556SOL    HW235163   1.430   4.037  -0.028  0.7689 -0.4903 -0.6469
 1557SOL     OW35164   3.759   1.680   0.677 -0.1190  0.1686  0.2937
 1557SOL    HW135165   3.710   1.598   0.671  0.4560 -0.1000 -0.9625
 1557SOL    HW235166   3.692   1.746   0.700 -0.5226 -0.6764  1.6875
 1558SOL     OW35167   2.668   6.273   0.886  0.6143  0.5318  0.0285
 1558SOL    HW135168   2.691   6.322   0.964  0.2463  0.8938 -0.0865
 1558SOL    HW235169   2.669   6.182   0.913  1.2724  0.6029  0.2519
 1559SOL     OW35170   5.782   1.258  12.157  0.7189  0.1784  0.5050
 1559SOL    HW135171   5.692   1.252  12.189 -0.1316  0.8422 -1.6218
 1559SOL    HW235172   5.787   1.342  12.113  2.0611 -0.3323 -0.3761
 1560SOL     OW35173   2.221   1.700  11.934  0.0417 -0.0321 -0.0730
 1560SOL    HW135174   2.128   1.716  11.951 -0.4422 -0.0162 -2.3166
 1560SOL    HW235175   2.255   1.786  11.905  0.6861 -0.1058  0.4437
 1561SOL     OW35176   1.169   6.314  11.647  0.1800 -0.2117  0.2853
 1561SOL    HW135177   1.243   6.261  11.677 -1.3223 -1.5600  1.8031
 1561SOL    HW235178   1.195   6.343  11.560  1.9928 -1.6657  0.2704
 1562SOL     OW35179   4.861   2.458  11.168 -0.2617  0.0091  0.4083
 1562SOL    HW135180   4.794   2.396  11.139 -0.7966  0.4096  0.7770
 1562SOL    HW235181   4.849   2.535  11.112  1.0991 -0.5930 -0.7891
 1563SOL     OW35182   4.590   4.999  11.819 -0.2514 -0.5340  0.1523
 1563SOL    HW135183   4.579   4.921  11.874  3.2994 -0.5182  1.1154
 1563SOL    HW235184   4.638   4.967  11.742  2.1664  0.7632  1.0243
 1564SOL     OW35185   1.162   6.085   1.278  0.2400 -0.2602 -0.3499
 1564SOL    HW135186   1.131   6.175   1.270 -0.3451 -0.4422 -0.1702
 1564SOL    HW235187   1.099   6.033   1.229 -0.0348 -0.6918  0.4386
 1565SOL     OW35188   5.449   2.483   0.131  0.2841 -0.0828  0.1741
 1565SOL    HW135189   5.433   2.566   0.084  1.0718 -0.2833 -0.4762
 1565SOL    HW235190   5.524   2.502   0.187 -1.2246  0.4348  2.1224
 1566SOL     OW35191   5.945   2.751   0.418  0.5305 -0.1228  0.0808
 1566SOL    HW135192   6.008   2.812   0.458  2.2525 -1.6726 -0.1068
 1566SOL    HW235193   5.893   2.805   0.359 -2.1240  2.3282  4.1519
 1567SOL     OW35194   1.519   0.721   1.411  0.0478 -0.2047  0.6763
 1567SOL    HW135195   1.593   0.681   1.365  1.0374 -0.7356  2.6104
 1567SOL    HW235196   1.558   0.792   1.461 -0.9126  0.0793  1.0354
 1568SOL     OW35197   0.208   4.726   0.556 -0.2246 -0.0849 -0.4964
 1568SOL    HW135198   0.157   4.655   0.516  1.4404 -1.4507 -0.3559
 1568SOL    HW235199   0.285   4.734   0.499  1.3779 -0.9338  1.4233
 1569SOL     OW35200   1.453   1.842   1.353 -0.5586 -0.1879  0.2284
 1569SOL    HW135201   1.393   1.855   1.279  0.3766  1.1785 -0.3309
 1569SOL    HW235202   1.523   1.788   1.317 -0.2889  0.1699  0.2139
 1570SOL     OW35203   2.569   4.904   0.091 -0.6310  0.3119 -0.7252
 1570SOL    HW135204   2.590   4.811   0.102 -0.0800  0.5334  0.1108
 1570SOL    HW235205   2.628   4.934   0.021  0.0073  0.3097 -0.1887
 1571SOL     OW35206   4.913   6.128  11.379  0.0331  0.1133 -0.2931
 1571SOL    HW135207   4.885   6.158  11.466  2.7531  2.7193 -0.1824
 1571SOL    HW235208   4.869   6.187  11.318  0.3015  0.0940 -0.5072
 1572SOL     OW35209   5.747   3.029  12.502 -0.2060 -0.4503  0.1703
 1572SOL    HW135210   5.773   2.979  12.580  2.1305  0.3285 -0.0629
 1572SOL    HW235211   5.811   3.006  12.436 -0.4407  1.1189 -0.6385
 1573SOL     OW35212   4.424   4.889  12.742  0.0082  0.2904 -0.8109
 1573SOL    HW135213   4.491   4.913  12.806 -0.6870 -0.7029  0.3095
 1573SOL    HW235214   4.452   4.804  12.708  0.6560  1.0341 -2.2712
 1574SOL     OW35215   3.865   0.250   0.180 -0.1125  0.5509  0.1071
 1574SOL    HW135216   3.896   0.163   0.152 -1.8320 -0.2087  0.4564
 1574SOL    HW235217   3.846   0.296   0.099 -0.3156  0.1698 -0.0664
 1575SOL     OW35218   4.906   5.777  12.350 -0.4816 -0.6719 -0.0834
 1575SOL    HW135219   4.922   5.852  12.293  1.7819 -1.5049 -0.6350
 1575SOL    HW235220   4.942   5.702  12.303  0.7690 -1.5166  2.0554
 1576SOL     OW35221   6.356   0.282   1.629 -0.3050 -0.0281  0.2123
 1576SOL    HW135222   6.272   0.319   1.657  0.0279  0.0207  1.1963
 1576SOL    HW235223   6.388   0.343   1.562  0.6844  2.1153  2.4705
 1577SOL     OW35224   4.585   2.847   0.821  0.3389  0.4119  0.2194
 1577SOL    HW135225   4.609   2.900   0.744  2.5756  2.0677  1.8997
 1577SOL    HW235226   4.492   2.863   0.833  0.7644  3.5120  0.2076
 1578SOL     OW35227   5.374   3.424  12.618  0.1355 -0.5730 -0.3299
 1578SOL    HW135228   5.313   3.464  12.556 -0.1205 -1.9601 -1.0231
 1578SOL    HW235229   5.353   3.331  12.615  1.6010 -0.9460  0.2046
 1579SOL     OW35230   3.440   6.450   0.253 -0.5059 -0.2023 -0.2477
 1579SOL    HW135231   3.420   6.532   0.209 -1.6545 -0.6141 -0.5267
 1579SOL    HW235232   3.454   6.387   0.182  0.7635 -0.1897 -0.0474
 1580SOL     OW35233   6.165   1.835   1.237 -0.1305 -0.1543 -0.4376
 1580SOL    HW135234   6.078   1.873   1.251  0.3015  0.7579 -0.1518
 1580SOL    HW235235   6.199   1.821   1.325 -0.0415 -0.6527 -0.5493
 1581SOL     OW35236   1.709   3.317   1.127  0.0393  0.4985 -0.2979
 1581SOL    HW135237   1.700   3.403   1.087 -2.8131  0.8190  0.7790
 1581SOL    HW235238   1.642   3.264   1.085 -2.0775  0.4430  2.8174
 1582SOL     OW35239   2.816   5.791  12.596 -0.2875 -0.0841  0.4444
 1582SOL    HW135240   2.866   5.842  12.660 -1.1093  0.7962  0.4113
 1582SOL    HW235241   2.748   5.851  12.565 -0.7147 -0.9150 -0.2881
 1583SOL     OW35242   3.065   3.037  12.448  0.7851  0.1708 -0.3417
 1583SOL    HW135243   3.144   2.989  12.474  0.7597 -0.4779 -1.4240
 1583SOL    HW235244   3.088   3.129  12.461  1.4009 -0.0505  0.2082
 1584SOL     OW35245   2.960   4.796  11.908 -0.3196  0.1113  0.0744
 1584SOL    HW135246   2.889   4.761  11.961 -1.7970  0.2878 -1.6942
 1584SOL    HW235247   2.971   4.886  11.937 -0.4749 -0.0620  0.6792
 1585SOL     OW35248   4.998   1.718  11.530  0.1848  0.3635  0.3868
 1585SOL    HW135249   4.952   1.790  11.575  0.3216  0.1090  0.9401
 1585SOL    HW235250   4.929   1.672  11.483 -0.1312 -0.0001  1.1923
 1586SOL     OW35251   4.942   2.421   1.322 -0.5304  0.3971 -0.2010
 1586SOL    HW135252   4.873   2.475   1.285  0.0623  0.4783 -1.2260
 1586SOL    HW235253   4.970   2.468   1.400 -0.0517  1.5660 -1.0504
 1587SOL     OW35254   5.597   5.951  11.223  0.0680 -0.1082  0.1613
 1587SOL    HW135255   5.503   5.962  11.210  0.2507  2.0941  0.2940
 1587SOL    HW235256   5.632   5.945  11.134  0.0724  2.4629 -0.0962
 1588SOL     OW35257   0.114   5.317   1.448 -0.4572  0.0826  0.7491
 1588SOL    HW135258   0.114   5.413   1.445  0.4841  0.1343  1.6431
 1588SOL    HW235259   0.204   5.293   1.423 -0.4957 -0.5335  1.1894
 1589SOL     OW35260   0.669   3.920  11.268 -0.5154 -0.3308  0.9166
 1589SOL    HW135261   0.739   3.907  11.332 -0.0257  0.1386  0.4830
 1589SOL    HW235262   0.684   3.853  11.202 -0.3401 -0.0884  0.7089
 1590SOL     OW35263   4.357   3.822  11.496  0.2281  0.4402 -0.2973
 1590SOL    HW135264   4.334   3.757  11.430  0.8084  0.4175 -0.4879
 1590SOL    HW235265   4.332   3.782  11.579 -0.0106  0.2460 -0.4614
 1591SOL     OW35266   1.921   4.400   0.997 -0.7594  0.0782 -0.0172
 1591SOL    HW135267   2.007   4.428   1.028  0.7698 -2.3838 -1.6462
 1591SOL    HW235268   1.861   4.422   1.068  1.8675 -1.6097  2.9818
 1592SOL     OW35269   6.331   1.732  11.531  0.0095  0.4419  0.3297
 1592SOL    HW135270   6.314   1.791  11.604  0.3196  0.9145  0.0190
 1592SOL    HW235271   6.274   1.762  11.461  0.0898  0.3040  0.2044
 1593SOL     OW35272   5.567   6.358  11.951  0.6581 -0.7436 -0.0722
 1593SOL    HW135273   5.527   6.423  12.008  0.5723 -1.6472  0.9134
 1593SOL    HW235274   5.564   6.398  11.864  0.8448  0.6732  0.5417
 1594SOL     OW35275   2.355   5.095   0.031  0.0728 -0.1582 -0.3420
 1594SOL    HW135276   2.425   5.038   0.063  0.3071  1.2566  1.8707
 1594SOL    HW235277   2.336   5.063  -0.057  0.7280 -3.1091  0.4995
 1595SOL     OW35278   0.974   4.088  12.036 -0.1603 -0.1177  0.0776
 1595SOL    HW135279   0.883   4.118  12.044 -0.3406 -0.6316 -0.0391
 1595SOL    HW235280   0.975   4.002  12.077 -0.5688 -1.8026 -3.1577
 1596SOL     OW35281   4.708   2.233  11.125  0.2648 -0.4673 -0.3985
 1596SOL    HW135282   4.673   2.158  11.078  2.2350 -1.1832 -0.8251
 1596SOL    HW235283   4.771   2.195  11.187 -0.1194  0.6982  0.7648
 1597SOL     OW35284   4.044   3.927  12.569  0.4783  0.0260 -0.0572
 1597SOL    HW135285   4.091   3.900  12.490  1.1756  0.9593  0.0322
 1597SOL    HW235286   3.973   3.982  12.537  0.1140 -0.4650 -0.1061
 1598SOL     OW35287   3.490   0.199  12.752 -0.5157  0.0702 -0.4280
 1598SOL    HW135288   3.443   0.116  12.757 -0.3727 -0.0937 -1.6576
 1598SOL    HW235289   3.582   0.175  12.753 -0.2976  0.4585  3.4751
 1599SOL     OW35290   5.058   4.412  12.368 -0.4558  0.2306 -0.0757
 1599SOL    HW135291   5.049   4.444  12.278 -3.3414  0.6565  0.2657
 1599SOL    HW235292   4.994   4.462  12.418  1.1553  0.1038  2.3113
 1600SOL     OW35293   5.614   5.403   0.671 -0.8852 -0.0185  0.2512
 1600SOL    HW135294   5.568   5.401   0.587  0.0621  0.4237 -0.2976
 1600SOL    HW235295   5.707   5.405   0.647 -0.5169 -2.0097  1.3386
 1601SOL     OW35296   3.820   0.578   0.901 -0.6294  0.0007  0.0506
 1601SOL    HW135297   3.886   0.553   0.836  0.0003  2.3125 -0.2649
 1601SOL    HW235298   3.746   0.520   0.882  1.4316 -3.1521  0.8303
 1602SOL     OW35299   4.327   1.878   1.027 -0.0996  0.4565  0.5007
 1602SOL    HW135300   4.264   1.840   0.966 -1.4593  0.8426  1.6072
 1602SOL    HW235301   4.413   1.860   0.987 -0.7243 -2.3411  0.1584
 1603SOL     OW35302   5.415   2.707  12.515 -0.4323  0.4810 -0.1548
 1603SOL    HW135303   5.503   2.687  12.484 -0.8927 -0.1626 -1.1084
 1603SOL    HW235304   5.422   2.795  12.551  1.1109 -0.3966  1.8999
 1604SOL     OW35305   0.744   1.579  12.182  0.3737  0.0254  0.0872
 1604SOL    HW135306   0.649   1.567  12.181  0.7199 -4.1749 -1.5621
 1604SOL    HW235307   0.763   1.612  12.269 -2.5527  1.5859  0.2971
 1605SOL     OW35308   5.828   6.279   1.427 -0.2170 -0.7029 -0.4526
 1605SOL    HW135309   5.830   6.210   1.361 -1.3408 -2.0326  0.8219
 1605SOL    HW235310   5.867   6.239   1.504 -0.7553  0.1360  0.2748
 1606SOL     OW35311   5.381   0.177  12.808  0.3223  0.6985 -0.2642
 1606SOL    HW135312   5.342   0.174  12.721  0.2505  1.6403 -0.2674
 1606SOL    HW235313   5.459   0.121  12.801 -0.7448 -0.8390 -0.3767
 1607SOL     OW35314   4.994   2.694  12.071 -0.5479 -0.5609  0.1999
 1607SOL    HW135315   4.913   2.688  12.020 -0.8404 -0.6943  0.6690
 1607SOL    HW235316   4.981   2.771  12.127  1.0275  1.5268 -2.0776
 1608SOL     OW35317   0.942   5.466   1.860 -0.0957  0.7220  0.3913
 1608SOL    HW135318   0.947   5.560   1.877 -2.0002  0.8892  0.2930
 1608SOL    HW235319   0.875   5.458   1.792  0.4912 -0.6753 -0.0619
 1609SOL     OW35320   1.372   5.505   0.369  0.0860  0.1168  0.1450
 1609SOL    HW135321   1.341   5.562   0.299  0.7567  1.3627  0.8246
 1609SOL    HW235322   1.451   5.548   0.402  1.7635 -2.2025 -0.5919
 1610SOL     OW35323   6.043   5.461  11.526  0.4500 -0.7059  0.4610
 1610SOL    HW135324   6.108   5.529  11.507  0.3433 -0.6939  0.1411
 1610SOL    HW235325   6.081   5.413  11.600  0.0822  0.3087  1.3465
 1611SOL     OW35326   5.936   3.867  12.386 -1.1802 -0.3382 -0.1046
 1611SOL    HW135327   5.861   3.813  12.361 -0.7197 -0.5179 -1.1676
 1611SOL    HW235328   5.997   3.806  12.428 -0.9540 -0.5127 -0.6813
 1612SOL     OW35329   4.480   4.657   0.508  0.2727 -0.4428  0.3851
 1612SOL    HW135330   4.402   4.711   0.499  0.7502  0.4453  1.2756
 1612SOL    HW235331   4.548   4.705   0.460  0.3181 -1.1172 -0.2383
 1613SOL     OW35332   4.269   0.752  11.377  0.6217 -0.1580  0.1930
 1613SOL    HW135333   4.295   0.670  11.419  1.4908  0.3858  0.7396
 1613SOL    HW235334   4.174   0.749  11.374  0.6696 -1.7474 -0.9337
 1614SOL     OW35335   2.896   4.958   0.109 -0.0311 -0.5484  0.9229
 1614SOL    HW135336   2.894   4.946   0.014  1.0197 -1.5506  0.9996
 1614SOL    HW235337   2.936   4.878   0.143  1.6676  0.6774  2.0325
 1615SOL     OW35338   0.247   0.120  11.102  0.0148 -0.3777 -0.2405
 1615SOL    HW135339   0.186   0.187  11.134 -0.0032 -0.5300  0.0463
 1615SOL    HW235340   0.192   0.057  11.056 -0.4301 -1.9039  2.2309
 1616SOL     OW35341   5.047   0.934  12.260 -0.1098  0.2649  0.9213
 1616SOL    HW135342   4.963   0.903  12.294 -0.1734 -0.7131 -0.0447
 1616SOL    HW235343   5.073   0.867  12.197  0.4735  1.4882 -0.1903
 1617SOL     OW35344   6.129   1.649   0.943  0.1436  0.6014  0.0399
 1617SOL    HW135345   6.080   1.566   0.940  3.5370 -1.5704 -0.8527
 1617SOL    HW235346   6.124   1.683   0.854  0.6531  0.0921 -0.1914
 1618SOL     OW35347   2.740   1.615  12.048  0.3501 -0.6113 -0.3709
 1618SOL    HW135348   2.715   1.554  12.117 -1.2647 -1.5375 -1.6930
 1618SOL    HW235349   2.680   1.596  11.976  1.0291  1.2878 -1.5225
 1619SOL     OW35350   3.314   5.992   0.413 -0.3557  0.5971 -0.5042
 1619SOL    HW135351   3.297   5.923   0.476  1.4784  0.8078  0.2858
 1619SOL    HW235352   3.233   6.042   0.410 -0.9235 -0.2014  0.6743
 1620SOL     OW35353   3.902   4.729  12.377 -0.3758  0.1422 -0.0221
 1620SOL    HW135354   3.837   4.772  12.434  0.7093  0.5005  0.9772
 1620SOL    HW235355   3.959   4.682  12.438  0.4681  0.0573 -0.8613
 1621SOL     OW35356   5.827   5.210  12.213  0.2013 -0.7451  0.1320
 1621SOL    HW135357   5.863   5.221  12.301  0.3505  2.7377 -0.2367
 1621SOL    HW235358   5.884   5.145  12.172  1.8917 -0.3473  1.7000
 1622SOL     OW35359   5.113   5.818   1.138 -0.3575 -0.2190  0.2315
 1622SOL    HW135360   5.135   5.907   1.166 -1.0529 -0.1298  0.5067
 1622SOL    HW235361   5.071   5.778   1.214  0.1272 -0.8567  0.1751
 1623SOL     OW35362   1.643   5.786  12.480  0.6747 -0.1045 -0.5147
 1623SOL    HW135363   1.590   5.748  12.550  2.5354 -0.3979  0.8277
 1623SOL    HW235364   1.669   5.872  12.514  2.7230 -0.8027 -0.1793
 1624SOL     OW35365   3.629   2.013  11.666  0.7857  0.0544 -0.4783
 1624SOL    HW135366   3.561   2.072  11.700 -1.5822 -1.7455 -1.8189
 1624SOL    HW235367   3.710   2.063  11.676 -0.4857  1.8589  2.3455
 1625SOL     OW35368   0.022   0.557   0.056  0.1160  0.2866 -0.0836
 1625SOL    HW135369  -0.063   0.600   0.052 -0.7118 -0.8756  2.3979
 1625SOL    HW235370   0.014   0.497   0.130  2.3588 -1.5394 -1.1965
 1626SOL     OW35371   0.088   4.694  11.829 -0.5423 -0.2364  0.5490
 1626SOL    HW135372   0.160   4.744  11.866 -0.4923  0.2176 -0.1316
 1626SOL    HW235373   0.099   4.606  11.863  0.9108 -0.4133 -0.3178
 1627SOL     OW35374   2.986   0.610  11.715 -0.2501 -0.3286 -0.0710
 1627SOL    HW135375   2.949   0.522  11.717 -0.5816 -0.1920 -0.1014
 1627SOL    HW235376   3.071   0.600  11.672 -0.5152 -0.5487 -0.5435
 1628SOL     OW35377   5.600   3.216  10.972 -0.0631 -0.0872 -0.2538
 1628SOL    HW135378   5.598   3.264  10.890  0.8965 -0.8726 -0.7506
 1628SOL    HW235379   5.509   3.216  11.002 -0.4889 -0.1159 -1.5094
 1629SOL     OW35380   2.265   3.377  12.303 -0.1261  0.2935 -0.5420
 1629SOL    HW135381   2.217   3.294  12.307 -0.2832  0.4221  1.4844
 1629SOL    HW235382   2.229   3.429  12.375  2.1118  0.8902  0.2449
 1630SOL     OW35383   6.021   1.480  12.217  0.2430  0.0649  0.4747
 1630SOL    HW135384   5.925   1.472  12.221  0.1572  0.7777 -0.0091
 1630SOL    HW235385   6.053   1.410  12.273 -0.5805  0.3155  1.2750
 1631SOL     OW35386   4.510   6.189  11.985  0.1179  0.1055 -0.3231
 1631SOL    HW135387   4.489   6.112  12.038 -1.1561  0.0101 -0.9167
 1631SOL    HW235388   4.439   6.251  12.003  0.5486  0.7153 -0.6767
 1632SOL     OW35389   4.658   3.388  11.573  0.0123 -0.1303  0.2154
 1632SOL    HW135390   4.618   3.410  11.657 -1.9223 -0.8629 -0.4476
 1632SOL    HW235391   4.735   3.445  11.567 -0.7380  1.1332  1.7423
 1633SOL     OW35392   4.246   6.298  11.899 -0.3155 -0.3142 -0.2515
 1633SOL    HW135393   4.158   6.335  11.892 -0.4417 -0.6459 -0.4131
 1633SOL    HW235394   4.250   6.232  11.830 -0.0736 -0.5763  0.0143
 1634SOL     OW35395   1.393   6.030   1.104 -0.2899 -0.0403  0.3771
 1634SOL    HW135396   1.327   6.033   1.173 -0.4412 -0.7758  0.2646
 1634SOL    HW235397   1.474   6.059   1.147 -0.5030  0.0490  0.7198
 1635SOL     OW35398   4.658   1.936  11.880 -0.0092  0.4583 -0.7001
 1635SOL    HW135399   4.589   2.001  11.865  0.4368  0.7378 -1.5798
 1635SOL    HW235400   4.611   1.860  11.915 -1.0022  0.1235 -2.5950
 1636SOL     OW35401   3.020   5.601   1.620 -0.1623  0.0824  0.3033
 1636SOL    HW135402   3.108   5.635   1.634  0.3625 -1.5785  1.4081
 1636SOL    HW235403   3.032   5.506   1.610 -1.7691 -0.1094 -0.1677
 1637SOL     OW35404   1.707   3.764  12.720 -0.1320  0.0478 -0.7335
 1637SOL    HW135405   1.776   3.780  12.784  0.6082 -0.2807 -1.4272
 1637SOL    HW235406   1.670   3.679  12.745 -1.3414  0.9080  0.5443
 1638SOL     OW35407   4.218   2.378   1.468 -0.1336  0.7973  0.2674
 1638SOL    HW135408   4.135   2.403   1.428 -0.6783 -1.5755 -0.2068
 1638SOL    HW235409   4.206   2.397   1.562 -1.7203 -0.6734  0.4104
 1639SOL     OW35410   3.434   4.779   0.556 -0.3145  0.1021  0.6032
 1639SOL    HW135411   3.358   4.722   0.567  0.1052 -0.6471 -0.2432
 1639SOL    HW235412   3.461   4.801   0.645 -0.4701 -1.0433  0.9429
 1640SOL     OW35413   3.969   2.710   1.423  0.0108 -0.4996 -0.3709
 1640SOL    HW135414   3.918   2.649   1.368  1.6141 -0.1478 -2.3710
 1640SOL    HW235415   3.926   2.795   1.411 -0.3277 -0.6346 -0.1360
 1641SOL     OW35416   5.174   5.224  12.480  0.2507  0.4830 -0.3599
 1641SOL    HW135417   5.134   5.183  12.403  1.5700 -0.6148 -0.5129
 1641SOL    HW235418   5.137   5.176  12.555  1.1744 -0.4862 -0.4962
 1642SOL     OW35419   0.865   0.637  12.678 -0.0555 -0.0735  0.5120
 1642SOL    HW135420   0.895   0.638  12.768  0.1167 -1.4767  0.4942
 1642SOL    HW235421   0.776   0.674  12.682  0.6146  1.5987  0.9468
 1643SOL     OW35422   0.535   3.071  12.430  0.5617  0.1616  0.1098
 1643SOL    HW135423   0.588   3.039  12.502  0.2328  0.4845  0.5001
 1643SOL    HW235424   0.525   2.995  12.372  2.0141  0.2803 -0.3225
 1644SOL     OW35425   6.368   3.728  11.025 -0.2056  0.2837 -0.3893
 1644SOL    HW135426   6.440   3.673  10.998 -0.8818 -0.6001 -0.4341
 1644SOL    HW235427   6.307   3.726  10.951  0.8710  3.1840 -1.5089
 1645SOL     OW35428   4.288   1.234   0.539 -0.5416  0.6929 -0.2040
 1645SOL    HW135429   4.232   1.267   0.469 -0.7118 -0.4859 -0.6519
 1645SOL    HW235430   4.358   1.187   0.493  0.8482  2.1506  0.3464
 1646SOL     OW35431   3.287   2.016  11.513 -0.6505 -0.5829  0.2826
 1646SOL    HW135432   3.371   2.047  11.481 -0.4763 -2.4660 -1.2952
 1646SOL    HW235433   3.297   2.011  11.608  0.0204  1.8772  0.4006
 1647SOL     OW35434   2.755   1.705   0.018  0.0952 -0.1599  0.3063
 1647SOL    HW135435   2.720   1.634   0.073 -1.8293  0.8987  0.5725
 1647SOL    HW235436   2.766   1.666  -0.068 -0.5195 -0.9055  0.5503
 1648SOL     OW35437   5.239   1.421  12.235 -0.3256  0.2201 -0.0705
 1648SOL    HW135438   5.151   1.386  12.249  0.2129 -0.4343  1.9396
 1648SOL    HW235439   5.259   1.469  12.315  1.8149 -1.1601  0.3158
 1649SOL     OW35440   1.609   4.304  11.796  0.0501  0.5744  0.2498
 1649SOL    HW135441   1.517   4.331  11.794 -0.2433 -0.3709 -1.1274
 1649SOL    HW235442   1.611   4.229  11.855 -0.2617 -0.0093 -0.4721
 1650SOL     OW35443   0.286   5.566  12.161 -0.0586  0.1448  0.4505
 1650SOL    HW135444   0.212   5.510  12.185 -1.0647  0.7877 -0.9884
 1650SOL    HW235445   0.361   5.507  12.156 -0.8965 -0.8936 -0.0593
 1651SOL     OW35446   4.937   1.930  11.327  0.2857 -0.6550 -0.0129
 1651SOL    HW135447   4.981   2.015  11.324 -0.3105 -0.3536 -0.6306
 1651SOL    HW235448   4.955   1.897  11.415  0.0963  0.3542  0.4279
 1652SOL     OW35449   1.879   4.039  11.999 -0.2715 -1.0917 -0.1488
 1652SOL    HW135450   1.802   3.997  12.036 -1.0836  0.3580 -0.1430
 1652SOL    HW235451   1.880   4.010  11.907 -1.7075  0.0635 -0.5577
 1653SOL     OW35452   0.471   2.001  12.540  0.4742  0.0699  0.4548
 1653SOL    HW135453   0.382   1.972  12.521  1.8555 -3.0606 -2.0239
 1653SOL    HW235454   0.485   1.977  12.632 -0.8505 -0.4532  0.5382
 1654SOL     OW35455   5.838   5.918  12.495 -0.1487 -0.2686 -0.6646
 1654SOL    HW135456   5.788   5.837  12.481  0.2274 -0.2130 -2.6654
 1654SOL    HW235457   5.772   5.987  12.492 -0.2362 -0.3623 -1.0455
 1655SOL     OW35458   1.655   4.746   0.223 -0.1039  0.9971  0.7243
 1655SOL    HW135459   1.657   4.834   0.259  2.2470  1.4630 -0.3391
 1655SOL    HW235460   1.642   4.759   0.129 -2.6847 -0.0088  0.8553
 1656SOL     OW35461   5.634   5.378   1.365 -0.5155 -0.1454  0.6229
 1656SOL    HW135462   5.631   5.473   1.377 -0.8907 -0.0237 -0.3135
 1656SOL    HW235463   5.604   5.365   1.275  0.2197 -1.1034  0.5056
 1657SOL     OW35464   5.614   4.554   1.343 -0.1365 -0.0294  0.4453
 1657SOL    HW135465   5.657   4.476   1.378  0.1847  0.1438  0.4339
 1657SOL    HW235466   5.647   4.626   1.396  0.9579  0.3411 -0.6915
 1658SOL     OW35467   5.981   6.114  11.220  0.0630 -0.3738 -1.1101
 1658SOL    HW135468   5.969   6.024  11.249  0.7572 -0.7026 -1.8090
 1658SOL    HW235469   6.050   6.109  11.153 -1.6416  0.2839 -3.0292
 1659SOL     OW35470   0.203   1.071   0.235 -0.2776  0.1145  0.1158
 1659SOL    HW135471   0.225   1.068   0.141 -0.6365  1.1928 -0.0189
 1659SOL    HW235472   0.176   0.982   0.256  0.1249 -0.2197 -0.7295
 1660SOL     OW35473   2.557   0.176  12.711 -0.4319 -0.2657  0.1627
 1660SOL    HW135474   2.638   0.208  12.750 -0.5291 -1.4544  1.4439
 1660SOL    HW235475   2.576   0.169  12.618  0.7515  0.0360  0.3619
 1661SOL     OW35476   2.096   5.545  12.500  0.3386 -0.1427  0.4112
 1661SOL    HW135477   2.137   5.459  12.514  1.1513 -0.2900 -2.4023
 1661SOL    HW235478   2.004   5.525  12.486  0.8737 -0.9762 -2.7061
 1662SOL     OW35479   3.821   2.465   0.933 -0.4892 -0.1420 -0.1878
 1662SOL    HW135480   3.890   2.484   0.995 -0.6474 -0.0030 -0.0526
 1662SOL    HW235481   3.836   2.527   0.861 -2.0947  1.8630  1.0756
 1663SOL     OW35482   1.352   3.170   0.654  0.2142 -0.3973 -0.3219
 1663SOL    HW135483   1.273   3.186   0.602 -1.7728 -1.3024  2.2267
 1663SOL    HW235484   1.384   3.258   0.675 -0.6013 -0.0044 -0.6743
 1664SOL     OW35485   1.315   4.264  12.116  0.5534 -0.0582 -0.2116
 1664SOL    HW135486   1.286   4.336  12.172 -0.2161  0.8347 -1.6637
 1664SOL    HW235487   1.406   4.251  12.139  0.8813  1.7841 -0.2676
 1665SOL     OW35488   3.298   4.725  11.512 -0.3354  0.4877  0.3262
 1665SOL    HW135489   3.236   4.775  11.459  1.1816  1.1472 -0.8988
 1665SOL    HW235490   3.257   4.721  11.599 -1.7626  1.4645 -0.2590
 1666SOL     OW35491   2.861   1.453  11.715 -0.6480 -0.6931  0.1659
 1666SOL    HW135492   2.804   1.526  11.689 -0.0786  0.2212  1.3777
 1666SOL    HW235493   2.921   1.442  11.642 -2.3626 -1.7064 -1.1602
 1667SOL     OW35494   2.604   0.399   1.430 -0.1136  0.1140  0.1042
 1667SOL    HW135495   2.526   0.381   1.377 -0.8557 -0.4544  1.3544
 1667SOL    HW235496   2.663   0.445   1.370 -1.0693 -0.1757 -1.1060
 1668SOL     OW35497   0.516   2.375  11.495  0.1906 -0.7740  0.7732
 1668SOL    HW135498   0.485   2.455  11.538 -1.0598  0.0570 -1.5103
 1668SOL    HW235499   0.483   2.304  11.550 -1.7890  0.2189  0.9716
 1669SOL     OW35500   0.836   0.040  12.795  0.4123  0.1418  0.4611
 1669SOL    HW135501   0.871   0.021  12.708 -1.1229 -1.5175  0.1520
 1669SOL    HW235502   0.816   0.134  12.792 -0.1937  0.0004 -1.2299
 1670SOL     OW35503   4.109   5.339  11.268 -0.0644 -0.3449 -0.0252
 1670SOL    HW135504   4.046   5.270  11.247  0.9207 -2.1631  2.4952
 1670SOL    HW235505   4.104   5.348  11.363  3.1495 -0.3014  0.2483
 1671SOL     OW35506   5.339   2.946  12.164  0.2081 -0.1501 -0.0380
 1671SOL    HW135507   5.317   2.871  12.219 -1.4684  1.2294  1.2901
 1671SOL    HW235508   5.434   2.956  12.175  0.2234 -1.1615  0.9771
 1672SOL     OW35509   2.823   2.602  11.964  0.0157 -0.6639 -0.1231
 1672SOL    HW135510   2.800   2.543  11.893 -0.7950 -0.2866 -0.1786
 1672SOL    HW235511   2.906   2.567  11.998  2.1377  0.8467 -3.1993
 1673SOL     OW35512   4.517   5.689   0.709  0.2363 -1.3347 -0.2275
 1673SOL    HW135513   4.451   5.623   0.730 -1.4435  0.1902 -0.4073
 1673SOL    HW235514   4.563   5.654   0.633  0.8585 -3.2308  0.9640
 1674SOL     OW35515   4.681   5.924  11.185 -0.3417  0.7352 -0.4546
 1674SOL    HW135516   4.631   5.844  11.203 -0.0920 -0.1530 -3.2036
 1674SOL    HW235517   4.614   5.992  11.177 -0.5805  0.7835  1.6382
 1675SOL     OW35518   2.285   3.615  12.588 -0.2150  0.1462 -0.0802
 1675SOL    HW135519   2.211   3.659  12.630 -0.1298  0.0763  0.1445
 1675SOL    HW235520   2.298   3.535  12.639 -0.6589 -0.3731 -0.7597
 1676SOL     OW35521   3.020   5.744   0.685  0.3198  0.0037  0.2687
 1676SOL    HW135522   2.965   5.822   0.688  0.8756  0.4066  0.1317
 1676SOL    HW235523   2.988   5.690   0.757  0.1287  0.4920  0.5553
 1677SOL     OW35524   1.610   6.119  12.245  0.8907 -0.2853  0.0055
 1677SOL    HW135525   1.664   6.174  12.302  1.1516 -0.7997  0.2631
 1677SOL    HW235526   1.568   6.057  12.305 -0.7831  0.7418 -0.0685
 1678SOL     OW35527   2.313   2.874   0.716  0.0055  0.9834 -0.2360
 1678SOL    HW135528   2.346   2.792   0.679  0.8834  0.7639  0.9872
 1678SOL    HW235529   2.223   2.853   0.742  0.8508 -0.2962  1.9900
 1679SOL     OW35530   3.779   4.520  11.859 -0.1662 -0.0188  0.3051
 1679SOL    HW135531   3.750   4.501  11.770 -0.0080 -0.9207  0.4454
 1679SOL    HW235532   3.709   4.574  11.896  0.4910  1.7716 -0.8780
 1680SOL     OW35533   3.541   1.706  11.902  0.2081 -0.2669  0.0410
 1680SOL    HW135534   3.552   1.732  11.811  1.2549 -0.7656  0.0120
 1680SOL    HW235535   3.618   1.739  11.947 -0.5099  0.3577  0.8529
 1681SOL     OW35536   3.208   0.100  11.925  0.3503  0.2712  0.0215
 1681SOL    HW135537   3.177   0.013  11.897 -0.1214 -0.1295  1.6730
 1681SOL    HW235538   3.303   0.095  11.916  0.3988 -0.7155  0.8265
 1682SOL     OW35539   0.363   0.817   0.903  0.2547 -1.0019  0.5985
 1682SOL    HW135540   0.456   0.837   0.887 -0.0038  0.0223  0.2673
 1682SOL    HW235541   0.336   0.883   0.967 -1.0895  1.0121 -1.8287
 1683SOL     OW35542   2.432   4.163  11.712 -0.6751  0.0107  0.6867
 1683SOL    HW135543   2.438   4.234  11.648  0.1227 -0.6206  0.0318
 1683SOL    HW235544   2.378   4.096  11.669 -0.3636 -0.3045  0.7781
 1684SOL     OW35545   6.043   5.125   0.223  0.0308  0.4013  0.0245
 1684SOL    HW135546   5.957   5.154   0.190  0.4880  0.8287 -0.8214
 1684SOL    HW235547   6.100   5.127   0.146  0.9832  0.8407  0.7259
 1685SOL     OW35548   2.580   5.644   0.681  0.3981  0.0471 -0.0208
 1685SOL    HW135549   2.515   5.602   0.738 -1.8936  0.8263 -1.9241
 1685SOL    HW235550   2.618   5.572   0.630 -0.8498 -0.1567 -0.6870
 1686SOL     OW35551   5.549   0.581   0.455  0.0002  0.3960 -0.0670
 1686SOL    HW135552   5.570   0.492   0.425  0.1436  0.9940 -1.8852
 1686SOL    HW235553   5.569   0.636   0.380  0.0589  2.0020  1.0812
 1687SOL     OW35554   2.251   4.413  12.550 -0.7022  0.0035 -0.0548
 1687SOL    HW135555   2.289   4.326  12.536 -1.1713 -0.5306  1.7998
 1687SOL    HW235556   2.308   4.455  12.614 -0.4259  1.1243 -1.0048
 1688SOL     OW35557   2.707   4.494   1.093  0.0090  0.0423 -0.4337
 1688SOL    HW135558   2.748   4.513   1.177  0.3900 -0.2687 -0.5457
 1688SOL    HW235559   2.613   4.487   1.113 -0.2312  2.4055 -0.4568
 1689SOL     OW35560   1.834   4.931   1.490  0.1627  0.7170  0.2320
 1689SOL    HW135561   1.813   5.021   1.468  0.4604  0.2270 -2.3547
 1689SOL    HW235562   1.756   4.881   1.466  1.3570 -0.1447 -2.1338
 1690SOL     OW35563   1.820   2.872   1.000  0.1856 -0.0073  0.5857
 1690SOL    HW135564   1.823   2.946   0.939 -0.7130 -0.3657  0.0870
 1690SOL    HW235565   1.757   2.897   1.066  0.4412 -0.0225  0.8386
 1691SOL     OW35566   2.038   3.096   0.575 -0.0852  0.5771  0.7854
 1691SOL    HW135567   2.006   3.186   0.577  0.8575  0.9740 -0.6476
 1691SOL    HW235568   2.072   3.082   0.664  1.2249  2.2170  0.5983
 1692SOL     OW35569   0.870   5.396   0.544  0.2103 -0.2776  0.2125
 1692SOL    HW135570   0.816   5.323   0.514  1.0633 -0.1942 -1.6503
 1692SOL    HW235571   0.838   5.415   0.632 -0.6863 -2.2499  0.3656
 1693SOL     OW35572   0.147   0.212   1.776  0.0666 -0.1464  0.9234
 1693SOL    HW135573   0.112   0.239   1.861  1.1823  3.0361  0.4974
 1693SOL    HW235574   0.081   0.240   1.712  0.4355 -0.1094  0.5542
 1694SOL     OW35575   2.730   1.940  12.750 -0.4192  0.4354 -0.1713
 1694SOL    HW135576   2.655   1.987  12.787  1.2976  2.4139  0.9701
 1694SOL    HW235577   2.745   1.868  12.810 -1.1375  0.2697 -0.1837
 1695SOL     OW35578   5.037   5.209   1.750 -0.0355  0.4363 -0.6037
 1695SOL    HW135579   5.111   5.158   1.717  0.7684  0.4311  1.0868
 1695SOL    HW235580   4.969   5.199   1.683  0.9023 -0.9436 -1.4063
 1696SOL     OW35581   2.929   0.044  11.589  0.1577  0.2409 -0.1602
 1696SOL    HW135582   2.877   0.043  11.669  1.1183 -1.2423  0.4974
 1696SOL    HW235583   2.888  -0.021  11.532  0.2889  0.2846 -0.3066
 1697SOL     OW35584   2.781   1.281   0.698  0.3224  0.1610 -0.5875
 1697SOL    HW135585   2.814   1.198   0.665 -0.2422 -0.5455  0.5500
 1697SOL    HW235586   2.687   1.265   0.712  0.2855  0.8599  0.0224
 1698SOL     OW35587   3.249   0.595  11.678  0.3533 -0.5353  0.0882
 1698SOL    HW135588   3.333   0.640  11.671  0.6415 -1.2945 -1.9372
 1698SOL    HW235589   3.263   0.528  11.745  0.7715  0.4784  1.0592
 1699SOL     OW35590   0.913   4.043   0.502  0.0722  0.0696  0.1689
 1699SOL    HW135591   0.852   3.988   0.550  0.1167  0.2568  0.4423
 1699SOL    HW235592   0.944   3.987   0.430  0.0761 -0.2428  0.4107
 1700SOL     OW35593   5.987   0.602   0.871 -0.2336  0.3070  0.0679
 1700SOL    HW135594   6.069   0.644   0.845 -0.3302  1.2553  1.1797
 1700SOL    HW235595   5.921   0.671   0.864 -0.4913  0.2424  1.4225
 1701SOL     OW35596   4.048   0.417   0.494  0.0476 -0.2745 -0.0683
 1701SOL    HW135597   4.013   0.330   0.510 -0.5323 -0.1417 -0.5658
 1701SOL    HW235598   4.130   0.402   0.448  0.1105 -0.5642  0.1366
 1702SOL     OW35599   1.118   3.412   1.095 -0.0933  0.1830  0.0085
 1702SOL    HW135600   1.098   3.474   1.165 -0.1001  0.7980 -0.5262
 1702SOL    HW235601   1.141   3.331   1.140  0.9658  0.8753  0.7597
 1703SOL     OW35602   1.090   2.045   0.036 -0.7093  0.1655  0.3464
 1703SOL    HW135603   1.049   2.125   0.003  0.9769  1.2364  0.7591
 1703SOL    HW235604   1.126   2.068   0.121  0.8924 -0.6581 -0.0638
 1704SOL     OW35605   0.772   2.013   0.049 -0.3913 -0.3091  0.0493
 1704SOL    HW135606   0.860   2.007   0.086 -0.2449 -0.1566 -0.2677
 1704SOL    HW235607   0.740   2.098   0.078 -1.6555 -1.6020  2.7840
 1705SOL     OW35608   2.897   4.216   1.137 -0.4804 -0.7815 -0.3793
 1705SOL    HW135609   2.820   4.242   1.187  0.4586  1.5019  0.0070
 1705SOL    HW235610   2.863   4.197   1.050 -1.7190 -1.7907  0.2878
 1706SOL     OW35611   4.127   0.419   0.985 -0.3071 -0.4211  0.2249
 1706SOL    HW135612   4.109   0.336   0.942 -1.6926 -0.0525  0.0488
 1706SOL    HW235613   4.086   0.411   1.071 -2.2257  0.7754 -0.5126
 1707SOL     OW35614   4.568   2.573   1.702  0.2347  0.2697  0.6787
 1707SOL    HW135615   4.506   2.550   1.634 -0.0180  0.8262  0.7170
 1707SOL    HW235616   4.652   2.538   1.671  0.2990  1.2681 -0.3436
 1708SOL     OW35617   0.645   4.165   0.032 -0.4203  0.5654  0.2586
 1708SOL    HW135618   0.700   4.119   0.095 -2.2855  0.2126  1.7430
 1708SOL    HW235619   0.684   4.145  -0.053  0.1722 -1.9355  1.0190
 1709SOL     OW35620   4.664   2.490   1.239 -0.6766 -0.4338  0.2145
 1709SOL    HW135621   4.666   2.405   1.196 -1.4881 -0.6463  0.5792
 1709SOL    HW235622   4.581   2.492   1.286 -0.3519  0.2777  0.7937
 1710SOL     OW35623   3.834   2.271   0.715 -0.5385  0.2933  0.0929
 1710SOL    HW135624   3.757   2.250   0.767 -0.8558  1.3786  0.0848
 1710SOL    HW235625   3.896   2.308   0.778 -0.4831  0.5152 -0.0878
 1711SOL     OW35626   3.933   6.308   1.379  0.2901  0.2448 -0.2505
 1711SOL    HW135627   3.857   6.342   1.332  0.5531  0.4043 -0.5658
 1711SOL    HW235628   3.996   6.381   1.378 -0.2163  0.7676  1.5599
 1712SOL     OW35629   4.287   1.993  12.368  0.3488  0.0148 -0.1632
 1712SOL    HW135630   4.298   2.077  12.324  2.7314  1.2897  2.4895
 1712SOL    HW235631   4.376   1.959  12.379 -0.3916 -1.8333  0.6641
 1713SOL     OW35632   3.528   1.035   0.593 -0.0665  0.4101 -0.0747
 1713SOL    HW135633   3.443   0.990   0.600 -0.6723  1.4487 -0.6451
 1713SOL    HW235634   3.591   0.969   0.623 -0.9813 -0.6539 -0.3876
 1714SOL     OW35635   0.406   0.614   0.201  0.7557  0.3455 -0.1995
 1714SOL    HW135636   0.480   0.675   0.208 -0.7277  2.1210  1.0416
 1714SOL    HW235637   0.329   0.667   0.220 -0.8234 -1.5621 -0.8766
 1715SOL     OW35638   0.806   5.589  12.178 -0.0393  0.4041  0.6666
 1715SOL    HW135639   0.807   5.681  12.153  1.9467 -0.3091 -2.2793
 1715SOL    HW235640   0.868   5.584  12.251 -0.9212  1.4907  1.5385
 1716SOL     OW35641   1.657   6.046   1.753 -0.8410  0.5621 -0.2761
 1716SOL    HW135642   1.565   6.019   1.761 -1.2944  1.8748 -0.7656
 1716SOL    HW235643   1.653   6.141   1.741  0.6442  0.7930  0.7840
 1717SOL     OW35644   6.147   2.292   0.588 -0.2876 -0.4314  0.6858
 1717SOL    HW135645   6.095   2.350   0.531  0.2787  0.4772  1.0738
 1717SOL    HW235646   6.212   2.350   0.628  0.7015 -1.4524  0.6054
 1718SOL     OW35647   5.688   6.010   1.418  0.0035  0.2750 -0.0894
 1718SOL    HW135648   5.780   5.987   1.404 -0.5598 -2.3763  0.0236
 1718SOL    HW235649   5.669   5.981   1.507 -1.1188  0.1077 -0.3679
 1719SOL     OW35650   5.059   3.256   1.425 -0.4512 -0.0427 -0.1225
 1719SOL    HW135651   5.039   3.166   1.399  0.6772 -0.2817 -0.1820
 1719SOL    HW235652   5.002   3.310   1.371 -2.9145 -0.7739  1.5497
 1720SOL     OW35653   5.474   3.673   1.139  0.2133 -0.4426 -0.3572
 1720SOL    HW135654   5.570   3.674   1.134  0.3428 -1.5201  1.2160
 1720SOL    HW235655   5.451   3.581   1.148 -0.8517 -0.0856  0.8937
 1721SOL     OW35656   2.377   6.377   1.293  0.4715  0.4462 -0.2639
 1721SOL    HW135657   2.396   6.417   1.208  0.5874 -0.6727 -0.7769
 1721SOL    HW235658   2.309   6.432   1.331 -0.3975  0.3119 -1.5732
 1722SOL     OW35659   5.774   1.702  12.494  0.6187 -0.2684  0.2287
 1722SOL    HW135660   5.865   1.724  12.474  0.2529  0.2647 -0.9154
 1722SOL    HW235661   5.760   1.735  12.583  1.2333  0.5951  0.0099
 1723SOL     OW35662   5.287   2.807   0.638 -0.7494  0.6733 -0.0600
 1723SOL    HW135663   5.279   2.751   0.561  1.4225  1.9561 -1.3171
 1723SOL    HW235664   5.207   2.791   0.687 -1.5794 -1.2362 -1.8628
 1724SOL     OW35665   5.179   1.205   0.274  0.3182  0.0925 -0.2988
 1724SOL    HW135666   5.141   1.187   0.189  0.4783 -0.4772 -0.2503
 1724SOL    HW235667   5.148   1.134   0.330 -0.4623  0.9015  0.3348
 1725SOL     OW35668   2.642   3.683   1.601  0.2156 -0.2842 -0.1530
 1725SOL    HW135669   2.601   3.725   1.525  2.2024  0.0653 -1.0822
 1725SOL    HW235670   2.717   3.738   1.622  0.1398 -0.7856  1.6434
 1726SOL     OW35671   1.159   5.298   0.551 -0.0945  0.3516  0.4034
 1726SOL    HW135672   1.166   5.305   0.456 -0.8813  2.2843  0.4346
 1726SOL    HW235673   1.065   5.288   0.567 -0.1489  1.6691  1.0237
 1727SOL     OW35674   2.066   5.803   1.558 -0.1642 -0.3306 -0.0775
 1727SOL    HW135675   2.107   5.735   1.504 -0.0836 -0.1059 -0.3017
 1727SOL    HW235676   1.975   5.774   1.569 -0.3282 -0.1020 -0.7983
 1728SOL     OW35677   4.087   6.364  12.663  0.0886  0.0096  0.2770
 1728SOL    HW135678   4.144   6.354  12.738  0.6727 -1.8670 -0.3644
 1728SOL    HW235679   4.113   6.294  12.603 -2.8133 -0.9285 -0.0635
 1729SOL     OW35680   6.368   4.761  11.599 -0.4269 -0.4750  0.1675
 1729SOL    HW135681   6.413   4.736  11.679 -2.7150  0.7741  1.9682
 1729SOL    HW235682   6.289   4.707  11.598 -0.0905 -1.0197 -1.6995
 1730SOL     OW35683   0.802   0.503  11.294  0.0384  0.0814  0.3570
 1730SOL    HW135684   0.805   0.410  11.318 -2.2872  0.1325  1.0528
 1730SOL    HW235685   0.765   0.546  11.371 -0.4126  1.3533 -0.5476
 1731SOL     OW35686   6.360   6.303   1.360  0.6225  0.2090 -0.1226
 1731SOL    HW135687   6.289   6.252   1.322 -0.4332  0.9358  0.7812
 1731SOL    HW235688   6.330   6.394   1.353  1.2535  0.4953  0.6997
 1732SOL     OW35689   6.154   5.503   0.996 -0.1559  0.3017  0.4123
 1732SOL    HW135690   6.116   5.587   0.970 -0.9862 -0.8085 -2.2888
 1732SOL    HW235691   6.246   5.522   1.014  0.0123  1.5871 -1.5815
 1733SOL     OW35692   0.197   0.982  11.609  0.2213 -0.2435 -0.1423
 1733SOL    HW135693   0.210   0.971  11.703 -2.4912  0.3806  0.3936
 1733SOL    HW235694   0.285   0.998  11.574  1.1510  0.8898  2.4633
 1734SOL     OW35695   6.236   4.228  11.408  0.1102 -0.1661 -0.1128
 1734SOL    HW135696   6.274   4.281  11.478  0.5407  0.8633 -1.0919
 1734SOL    HW235697   6.142   4.247  11.411  0.1686  0.1078 -0.0110
 1735SOL     OW35698   0.024   0.109  11.564 -0.7004 -0.6161  0.3885
 1735SOL    HW135699  -0.064   0.078  11.543 -1.3314  1.2560  0.0655
 1735SOL    HW235700   0.010   0.189  11.615  0.8139 -0.2836  0.3291
 1736SOL     OW35701   1.330   6.331  12.300 -0.1846 -0.1038  0.2359
 1736SOL    HW135702   1.264   6.391  12.264  0.1673  0.7087  0.9073
 1736SOL    HW235703   1.408   6.346  12.248 -0.3415 -0.6241 -0.1607
 1737SOL     OW35704   0.867   4.545   1.447  0.7930  0.3314 -0.3659
 1737SOL    HW135705   0.898   4.512   1.531  0.5416 -0.0272 -0.4099
 1737SOL    HW235706   0.823   4.470   1.407  0.7088  0.5661 -0.7160
 1738SOL     OW35707   1.972   0.594   0.761  0.1460  0.6689  0.2331
 1738SOL    HW135708   2.031   0.649   0.710 -2.7664  2.6163 -1.3217
 1738SOL    HW235709   1.942   0.527   0.700 -0.1886  0.4400  0.6424
 1739SOL     OW35710   5.618   1.070  11.511 -0.3158 -0.3373 -0.3086
 1739SOL    HW135711   5.667   1.029  11.582  0.5098 -0.4791 -0.9365
 1739SOL    HW235712   5.552   1.124  11.554  0.3223 -0.2396  0.5589
 1740SOL     OW35713   5.474   3.367  11.199 -0.5441  1.0182 -0.5625
 1740SOL    HW135714   5.528   3.320  11.136 -0.3807  0.0728  0.2617
 1740SOL    HW235715   5.449   3.448  11.153  1.1928  1.2897 -1.1099
 1741SOL     OW35716   4.951   1.150  12.388  0.3608 -0.2951  0.3302
 1741SOL    HW135717   5.000   1.109  12.318 -0.4927 -0.5677 -0.1241
 1741SOL    HW235718   4.874   1.094  12.400  0.8079 -0.6237  1.9294
 1742SOL     OW35719   2.500   6.224  12.662 -0.1868  0.4827  0.2487
 1742SOL    HW135720   2.486   6.236  12.568 -1.0713 -0.9331  0.1598
 1742SOL    HW235721   2.412   6.230  12.700  0.0475  0.1017  0.8606
 1743SOL     OW35722   6.388   0.602   0.361 -0.2098 -0.1508  0.0184
 1743SOL    HW135723   6.359   0.588   0.450  0.4659  0.2519  0.3146
 1743SOL    HW235724   6.387   0.515   0.320  1.6249 -0.7334  1.0912
 1744SOL     OW35725   5.195   1.835  12.000 -0.1144  0.4489  0.1715
 1744SOL    HW135726   5.107   1.874  11.992 -0.5194  0.0858  2.2093
 1744SOL    HW235727   5.254   1.902  11.968 -1.0684  1.1501 -0.1660
 1745SOL     OW35728   4.633   0.036   1.083 -0.0229  0.0369  0.2191
 1745SOL    HW135729   4.556  -0.010   1.116  0.9404 -1.0706  1.0094
 1745SOL    HW235730   4.705   0.007   1.139  1.2972 -0.3008 -1.5286
 1746SOL     OW35731   1.772   1.733  12.322  0.0693  0.0621  0.0088
 1746SOL    HW135732   1.768   1.824  12.293 -1.5889  0.5108  1.4331
 1746SOL    HW235733   1.823   1.735  12.403 -1.0560 -0.0057  0.7564
 1747SOL     OW35734   1.048   4.675  11.374  0.0895 -0.1548  0.7478
 1747SOL    HW135735   1.061   4.651  11.466 -0.8937 -0.6626  0.7692
 1747SOL    HW235736   0.958   4.708  11.370  0.5160  1.0130  0.1850
 1748SOL     OW35737   0.372   5.273  12.302  0.0729 -0.1890 -0.4718
 1748SOL    HW135738   0.449   5.321  12.271 -0.8107  1.5249 -0.1166
 1748SOL    HW235739   0.363   5.298  12.394  0.7082 -2.6008  0.3200
 1749SOL     OW35740   2.039   3.446  12.498 -0.6551  0.7680 -0.1337
 1749SOL    HW135741   1.968   3.395  12.459 -0.2821  0.6198 -0.6279
 1749SOL    HW235742   2.037   3.423  12.591 -0.2867 -0.4214 -0.3958
 1750SOL     OW35743   5.671   3.520  12.670 -0.0274 -0.3675 -0.0454
 1750SOL    HW135744   5.703   3.430  12.675 -0.7898 -0.6629 -0.3624
 1750SOL    HW235745   5.581   3.512  12.638 -0.4171  0.4450  0.7995
 1751SOL     OW35746   4.215   0.188  12.705 -0.4462 -0.2658 -0.8164
 1751SOL    HW135747   4.200   0.254  12.773  0.2695 -1.3148  0.3795
 1751SOL    HW235748   4.308   0.170  12.708 -0.7401 -1.8694 -0.6166
 1752SOL     OW35749   6.146   2.653   0.004 -0.2037 -0.0593  0.2425
 1752SOL    HW135750   6.177   2.657  -0.086 -1.2345 -1.7153 -0.2174
 1752SOL    HW235751   6.226   2.658   0.057  0.6098 -1.2134 -0.8149
 1753SOL     OW35752   3.961   3.656   0.559  0.7642  0.8557  0.4821
 1753SOL    HW135753   3.968   3.691   0.470 -0.8973  0.7111  0.2651
 1753SOL    HW235754   4.000   3.569   0.553  0.3463  0.7063 -0.2076
 1754SOL     OW35755   6.290   4.407  11.599  0.0799  0.0518  0.0149
 1754SOL    HW135756   6.299   4.370  11.687  0.3554 -1.2950 -0.5561
 1754SOL    HW235757   6.234   4.484  11.611 -0.0236 -0.2017  1.3349
 1755SOL     OW35758   2.527   4.296  12.297  0.1140 -0.4157  0.3555
 1755SOL    HW135759   2.575   4.284  12.215 -0.9261  0.4376 -0.3931
 1755SOL    HW235760   2.435   4.290  12.273 -0.3598  3.0318  0.8453
 1756SOL     OW35761   1.147   5.940   1.868  0.1161  0.3289 -0.0312
 1756SOL    HW135762   1.111   6.028   1.877 -0.1975  0.1909  0.0623
 1756SOL    HW235763   1.230   5.953   1.822  0.1974  0.7018  0.2118
 1757SOL     OW35764   1.308   1.837   0.127 -0.2162 -0.2759 -0.7453
 1757SOL    HW135765   1.213   1.833   0.126 -0.4063  0.6935  2.4630
 1757SOL    HW235766   1.330   1.905   0.063 -1.9252  1.5096  0.4528
 1758SOL     OW35767   0.355   0.693  12.084 -0.3051  0.4378  0.7507
 1758SOL    HW135768   0.375   0.605  12.117 -0.5321  0.3617  0.6891
 1758SOL    HW235769   0.272   0.716  12.126 -1.9258 -0.6762 -1.6202
 1759SOL     OW35770   1.873   3.877   0.729  0.2465 -0.4379 -0.0161
 1759SOL    HW135771   1.784   3.894   0.698  0.3538 -1.9975 -1.3231
 1759SOL    HW235772   1.882   3.781   0.723  0.5548 -0.8634  4.2138
 1760SOL     OW35773   3.899   6.196  11.762  0.2675  0.3018 -0.4026
 1760SOL    HW135774   3.878   6.109  11.796 -1.5013 -0.3551 -2.9064
 1760SOL    HW235775   3.839   6.255  11.808  1.0268  0.1537  0.8302
 1761SOL     OW35776   3.870   1.612  11.952  0.0302  0.3897  0.1798
 1761SOL    HW135777   3.874   1.706  11.934  0.3488  0.5206  0.8635
 1761SOL    HW235778   3.839   1.607  12.043 -0.4897 -0.1838 -0.0286
 1762SOL     OW35779   2.063   4.751   0.714  0.2318 -0.0461 -0.5801
 1762SOL    HW135780   1.998   4.680   0.713 -0.7014  0.7646  0.6927
 1762SOL    HW235781   2.063   4.782   0.804  1.6008  0.7107 -0.8261
 1763SOL     OW35782   2.062   6.328  12.785  0.2846 -0.9845 -0.3179
 1763SOL    HW135783   2.016   6.363  12.709  0.3702 -3.2270 -1.4821
 1763SOL    HW235784   2.148   6.303  12.753 -0.0964 -3.0972  0.1578
 1764SOL     OW35785   2.638   5.802   0.345 -0.1999 -0.6284 -0.4652
 1764SOL    HW135786   2.637   5.728   0.406  1.0813 -0.8290 -0.6556
 1764SOL    HW235787   2.576   5.776   0.276 -0.9887 -0.7898  0.2808
 1765SOL     OW35788   5.135   2.871  11.821  0.1448  0.1311 -0.2736
 1765SOL    HW135789   5.046   2.903  11.803  0.7348  1.7085 -0.4957
 1765SOL    HW235790   5.123   2.777  11.836 -1.3191 -0.0305 -2.0366
 1766SOL     OW35791   3.141   4.682  11.749 -0.3708  0.6793 -0.3441
 1766SOL    HW135792   3.064   4.728  11.782 -2.7163 -2.8300 -0.3443
 1766SOL    HW235793   3.185   4.648  11.827  0.1489  1.1576 -0.4234
 1767SOL     OW35794   1.473   3.616  12.120  0.2023 -0.3552 -0.5790
 1767SOL    HW135795   1.397   3.563  12.144  1.1038 -0.9322  1.1469
 1767SOL    HW235796   1.548   3.567  12.153  1.1233  1.6688  0.4843
 1768SOL     OW35797   0.633   5.304  11.654  0.0010 -0.3036  0.9853
 1768SOL    HW135798   0.665   5.374  11.711 -1.4166  0.3297  1.0503
 1768SOL    HW235799   0.712   5.270  11.611  0.5715  4.1450 -2.2567
 1769SOL     OW35800   2.348   1.012  11.968 -0.0450 -0.1966 -0.2733
 1769SOL    HW135801   2.331   1.101  12.000 -0.3063 -0.2665 -0.2172
 1769SOL    HW235802   2.265   0.985  11.928 -0.3841 -0.9056  0.8562
 1770SOL     OW35803   0.869   0.140  12.015 -0.4870 -0.0537 -0.6701
 1770SOL    HW135804   0.802   0.119  11.949 -1.2550 -2.1615  0.6855
 1770SOL    HW235805   0.918   0.058  12.026 -0.3701  0.2486  1.3549
 1771SOL     OW35806   1.375   5.124  12.041 -0.5618 -0.0130 -0.5271
 1771SOL    HW135807   1.293   5.074  12.031 -1.6725  1.9130 -1.7121
 1771SOL    HW235808   1.348   5.216  12.034  1.4390  0.7841  1.2225
 1772SOL     OW35809   3.121   6.267   0.071 -0.2185  0.0874  0.4207
 1772SOL    HW135810   3.041   6.246   0.021  0.4443  1.0160 -1.1063
 1772SOL    HW235811   3.089   6.305   0.152 -1.3578  1.2952 -0.5456
 1773SOL     OW35812   3.085   1.624   0.909 -0.5126  0.0950  0.3842
 1773SOL    HW135813   3.152   1.582   0.963 -0.4440 -1.3635 -0.7716
 1773SOL    HW235814   3.054   1.697   0.962  1.7556  0.6283  1.0875
 1774SOL     OW35815   6.066   4.400   1.329  0.1070  0.1398 -0.2136
 1774SOL    HW135816   6.087   4.493   1.320 -0.0272  0.1801 -0.1111
 1774SOL    HW235817   6.068   4.384   1.423  0.0185  0.0643 -0.2249
 1775SOL     OW35818   1.659   5.528  11.131  0.6313 -0.2064 -0.5082
 1775SOL    HW135819   1.582   5.474  11.116  0.7767 -0.2710 -1.0371
 1775SOL    HW235820   1.714   5.477  11.190 -0.1077  0.2012  0.5660
 1776SOL     OW35821   2.878   2.322   0.090  0.7890  0.5466 -0.2631
 1776SOL    HW135822   2.816   2.297   0.158  1.8252  2.4196  1.4690
 1776SOL    HW235823   2.918   2.239   0.063 -1.7032 -0.5857 -0.7556
 1777SOL     OW35824   2.308   4.950  12.150 -0.0164  0.5620 -0.3643
 1777SOL    HW135825   2.372   4.890  12.113 -1.0989 -0.0779 -1.2658
 1777SOL    HW235826   2.295   5.017  12.083 -1.5302 -0.2643 -0.9421
 1778SOL     OW35827   5.065   2.092  11.889  0.3590  0.5581 -0.1068
 1778SOL    HW135828   5.114   2.170  11.915  0.4781 -0.1002  1.8444
 1778SOL    HW235829   5.096   2.072  11.801  1.7689  1.5827  0.1255
 1779SOL     OW35830   5.460   5.037  11.149  0.4254 -0.2939  0.0986
 1779SOL    HW135831   5.531   4.986  11.188  0.8461 -0.3684 -0.7283
 1779SOL    HW235832   5.453   5.003  11.060  0.6667  1.0195 -0.4512
 1780SOL     OW35833   4.860   3.686  10.812  0.6680 -0.0043  0.2189
 1780SOL    HW135834   4.868   3.774  10.777  2.5444 -0.1389  0.2427
 1780SOL    HW235835   4.838   3.699  10.905  0.2725  0.4122  0.0699
 1781SOL     OW35836   0.704   6.252  11.263  0.1137 -0.1928 -0.2121
 1781SOL    HW135837   0.668   6.327  11.310 -0.5989 -1.2825  1.0601
 1781SOL    HW235838   0.769   6.290  11.205 -0.2736  1.4170  0.3327
 1782SOL     OW35839   4.244   0.521  11.632  0.1946  0.5845 -0.1243
 1782SOL    HW135840   4.277   0.549  11.718  1.1359  0.6138 -0.4870
 1782SOL    HW235841   4.260   0.427  11.630 -0.1891  0.5205 -0.1082
 1783SOL     OW35842   6.039   4.587   0.456  0.4005 -0.3402  0.5864
 1783SOL    HW135843   6.033   4.659   0.394 -0.9425 -0.8298  0.1127
 1783SOL    HW235844   6.047   4.630   0.542 -0.7815  0.3876  0.3508
 1784SOL     OW35845   3.367   2.221  12.731 -0.2743  0.5317  0.3412
 1784SOL    HW135846   3.443   2.273  12.703 -0.1521  1.1340  1.7288
 1784SOL    HW235847   3.402   2.160  12.795 -0.5783 -0.7486 -0.6652
 1785SOL     OW35848   3.763   1.379   0.381  0.2997 -0.2195  0.5667
 1785SOL    HW135849   3.764   1.418   0.294 -1.4389  0.1066  0.6521
 1785SOL    HW235850   3.686   1.419   0.424 -0.4412 -2.3237  1.3142
 1786SOL     OW35851   4.375   5.234  11.971  0.1995  0.7285  0.0188
 1786SOL    HW135852   4.434   5.189  11.911 -1.3161 -2.4700  0.6914
 1786SOL    HW235853   4.383   5.185  12.053 -1.4990  1.7672  0.8668
 1787SOL     OW35854   5.292   3.864   1.052 -0.2409  0.6146 -0.2677
 1787SOL    HW135855   5.204   3.830   1.036 -0.7504  1.2991  0.9548
 1787SOL    HW235856   5.337   3.794   1.098 -0.6932  0.8663  0.5855
 1788SOL     OW35857   1.959   4.975  12.680  0.3111  0.0109 -0.1623
 1788SOL    HW135858   1.886   4.982  12.742 -0.6124 -0.2755 -1.1970
 1788SOL    HW235859   1.943   4.894  12.631  0.0799  1.0667 -1.9285
 1789SOL     OW35860   4.649   5.219  12.576  0.1374 -0.0273  0.2264
 1789SOL    HW135861   4.730   5.259  12.609 -0.8492  3.7831 -1.5140
 1789SOL    HW235862   4.582   5.247  12.638 -0.5290  0.8340 -0.8513
 1790SOL     OW35863   1.117   1.073  12.702 -0.2193 -0.6781  0.4370
 1790SOL    HW135864   1.183   1.136  12.674 -0.5914 -1.0791 -1.4960
 1790SOL    HW235865   1.162   0.988  12.703 -0.5107 -0.8414 -0.1176
 1791SOL     OW35866   2.712   3.856   0.372 -0.0495  0.8161  0.2368
 1791SOL    HW135867   2.638   3.838   0.431  0.7431  0.1734  1.0628
 1791SOL    HW235868   2.790   3.832   0.423  0.6722  0.4123 -1.0147
 1792SOL     OW35869   0.080   5.336   1.147  0.6448 -0.1409  0.3178
 1792SOL    HW135870  -0.001   5.313   1.192 -0.1394  1.3472 -0.2615
 1792SOL    HW235871   0.138   5.261   1.162  0.0539 -0.1690  2.8702
 1793SOL     OW35872   2.979   0.841  12.160 -0.1587  0.2452  0.0054
 1793SOL    HW135873   2.970   0.903  12.087 -0.0501  0.4318  0.1489
 1793SOL    HW235874   3.050   0.877  12.213 -0.4225  0.2569  0.3541
 1794SOL     OW35875   5.759   1.513   1.614  0.0005 -0.1561 -0.1757
 1794SOL    HW135876   5.681   1.507   1.559  0.0865  2.8462 -0.8221
 1794SOL    HW235877   5.806   1.590   1.581  2.1122 -0.5670  1.6039
 1795SOL     OW35878   2.880   0.570   0.037  0.2984 -0.4638  0.0067
 1795SOL    HW135879   2.876   0.508  -0.036 -0.5549 -1.0089  0.5084
 1795SOL    HW235880   2.932   0.525   0.103  0.5567 -0.2178 -0.0290
 1796SOL     OW35881   5.865   6.205   1.130  0.1572  0.3087 -0.2621
 1796SOL    HW135882   5.917   6.283   1.150 -0.3650  0.4171  0.7510
 1796SOL    HW235883   5.924   6.147   1.083  0.2491  1.7714 -2.0341
 1797SOL     OW35884   1.142   3.058   1.550 -0.0945  0.3129 -0.2120
 1797SOL    HW135885   1.209   3.017   1.496  0.2229  0.1629  0.2970
 1797SOL    HW235886   1.116   2.991   1.613 -0.0636  0.6689  0.1827
 1798SOL     OW35887   5.905   2.919  12.691 -0.3496 -0.1116  0.3104
 1798SOL    HW135888   5.946   2.982  12.750 -0.2455 -1.1354  1.3680
 1798SOL    HW235889   5.975   2.894  12.631  0.3740 -1.1639  1.5385
 1799SOL     OW35890   3.135   6.277  12.567  0.2896  0.0325 -0.3172
 1799SOL    HW135891   3.203   6.210  12.579 -0.5077 -0.2690  4.8464
 1799SOL    HW235892   3.062   6.229  12.528  1.5365 -0.6635 -1.9325
 1800SOL     OW35893   1.332   3.602   1.499 -0.3010 -0.1309  0.2950
 1800SOL    HW135894   1.273   3.526   1.488 -0.4256  0.0949 -0.7873
 1800SOL    HW235895   1.277   3.669   1.539 -0.1955 -0.6050  1.2465
 1801SOL     OW35896   0.619   5.036   1.101  0.3598  0.0942  0.2358
 1801SOL    HW135897   0.648   5.107   1.044  0.4122  0.3378  0.5638
 1801SOL    HW235898   0.605   4.962   1.042 -1.2032  0.7963 -0.3295
 1802SOL     OW35899   2.489   4.498   1.242 -0.5010 -0.2853 -0.1001
 1802SOL    HW135900   2.507   4.533   1.329  1.0903  0.5527 -0.7249
 1802SOL    HW235901   2.394   4.508   1.232 -0.5126  0.9952  0.9697
 1803SOL     OW35902   2.718   5.317   1.304 -0.0361 -0.1242  0.4788
 1803SOL    HW135903   2.634   5.338   1.263 -0.3950 -2.8434 -0.3680
 1803SOL    HW235904   2.753   5.245   1.253  1.6975 -0.6579  2.2779
 1804SOL     OW35905   3.860   0.950   1.305  0.0240  0.0948 -0.1990
 1804SOL    HW135906   3.894   0.967   1.393 -0.0149  0.3226 -0.2268
 1804SOL    HW235907   3.935   0.919   1.255 -0.1468 -0.9406  0.1604
 1805SOL     OW35908   3.730   0.654   1.331  0.0331 -0.4115 -0.6754
 1805SOL    HW135909   3.717   0.748   1.324 -0.3357 -0.5259 -1.6748
 1805SOL    HW235910   3.679   0.617   1.259 -0.1246 -1.4029 -0.0793
 1806SOL     OW35911   4.763   1.498   1.295 -0.4782 -0.1748 -0.3685
 1806SOL    HW135912   4.704   1.438   1.250  0.1295 -0.2475 -1.0899
 1806SOL    HW235913   4.711   1.535   1.366 -1.5549  0.1893 -1.3279
 1807SOL     OW35914   5.258   6.209   0.718 -0.4498 -0.3024 -0.5258
 1807SOL    HW135915   5.279   6.277   0.654  1.1514  1.0128  1.2926
 1807SOL    HW235916   5.250   6.256   0.801 -1.8531 -2.0352  0.3805
 1808SOL     OW35917   0.428   2.466  12.070  0.2403 -0.0036  0.2230
 1808SOL    HW135918   0.352   2.468  12.011 -0.2890 -1.7052  0.7956
 1808SOL    HW235919   0.443   2.372  12.087  3.5885  0.1011 -1.2999
 1809SOL     OW35920   2.684   4.671   0.171  0.7647  0.0082  0.0747
 1809SOL    HW135921   2.651   4.650   0.259  0.7006  0.5527  0.1881
 1809SOL    HW235922   2.778   4.657   0.177  0.7585  0.0230  0.2265
 1810SOL     OW35923   0.170   0.904   1.364  0.5352 -0.1957  0.5695
 1810SOL    HW135924   0.096   0.874   1.417 -1.2858  0.7335 -1.2859
 1810SOL    HW235925   0.157   0.999   1.356  1.2296 -0.1889 -0.8014
 1811SOL     OW35926   0.565   4.867  12.567 -0.4742 -0.2460  0.3914
 1811SOL    HW135927   0.510   4.939  12.539  0.6759  1.5730  2.4375
 1811SOL    HW235928   0.550   4.860  12.662  3.2438  0.9464  1.2688
 1812SOL     OW35929   0.747   0.392  12.037 -0.4127 -0.0292  0.1432
 1812SOL    HW135930   0.803   0.316  12.056 -0.9469 -0.8549 -1.4140
 1812SOL    HW235931   0.659   0.355  12.028 -0.6659  0.7538 -0.7158
 1813SOL     OW35932   0.382   5.945  11.034  0.0229 -0.1865  0.4986
 1813SOL    HW135933   0.405   6.035  11.011  0.5473 -0.0455  1.5280
 1813SOL    HW235934   0.445   5.892  10.986 -1.0072 -0.0928 -1.0346
 1814SOL     OW35935   1.649   6.320  11.211 -0.0642 -0.6041  0.0395
 1814SOL    HW135936   1.630   6.336  11.119  1.1370 -4.2481 -0.9952
 1814SOL    HW235937   1.568   6.284  11.247 -1.3026  2.8609  1.2058
 1815SOL     OW35938   1.759   4.439   0.098  0.0747 -0.2947 -0.3516
 1815SOL    HW135939   1.715   4.520   0.072 -0.2756 -0.8476 -1.5768
 1815SOL    HW235940   1.851   4.456   0.080  0.5470  1.0413  2.6730
 1816SOL     OW35941   5.042   0.498   0.336  0.4843 -0.1889 -0.0948
 1816SOL    HW135942   5.016   0.543   0.417  0.5656  1.8620 -1.1267
 1816SOL    HW235943   4.959   0.471   0.297  0.2914  0.5658 -0.2403
 1817SOL     OW35944   1.611   4.679  11.687 -0.0451 -0.1156 -0.1673
 1817SOL    HW135945   1.556   4.755  11.707 -1.8970 -1.3770 -0.3059
 1817SOL    HW235946   1.641   4.648  11.773 -0.2579  0.0604 -0.0284
 1818SOL     OW35947   2.844   3.404  11.845 -0.1284 -0.2500  0.0219
 1818SOL    HW135948   2.862   3.313  11.823  3.0751  0.6428 -1.7709
 1818SOL    HW235949   2.835   3.448  11.760 -0.8287  1.2434  0.8259
 1819SOL     OW35950   4.562   0.281  11.781 -0.3356 -0.5959 -0.5811
 1819SOL    HW135951   4.585   0.191  11.805  1.8000 -0.0010 -0.1480
 1819SOL    HW235952   4.642   0.316  11.741 -1.1108  1.1143 -0.7304
 1820SOL     OW35953   3.795   2.862  12.079 -0.4950 -0.1114  0.1664
 1820SOL    HW135954   3.841   2.937  12.041 -2.3422  1.7285  1.3562
 1820SOL    HW235955   3.857   2.826  12.143  0.3068  0.5841 -0.1990
 1821SOL     OW35956   2.476   4.255   0.577  0.5563 -0.0841 -0.8925
 1821SOL    HW135957   2.551   4.288   0.527  1.5177 -0.2534  0.3861
 1821SOL    HW235958   2.492   4.285   0.667 -0.2614 -1.1927 -0.3533
 1822SOL     OW35959   4.946   5.894  11.237  0.2837 -0.6835 -0.3572
 1822SOL    HW135960   4.854   5.916  11.222  0.6896  0.7936 -0.8149
 1822SOL    HW235961   4.979   5.965  11.292  0.8442 -1.8793  0.9202
 1823SOL     OW35962   5.024   1.768  12.549 -0.2104  0.4938  0.3075
 1823SOL    HW135963   5.072   1.805  12.624 -1.7288  1.4219  0.8798
 1823SOL    HW235964   5.044   1.827  12.477 -0.7027  1.0665  0.6234
 1824SOL     OW35965   1.537   2.731  11.942 -0.0221 -0.1717  0.3806
 1824SOL    HW135966   1.607   2.782  11.902  0.9662 -2.8185 -1.5178
 1824SOL    HW235967   1.575   2.644  11.957 -2.0583 -0.8730  2.0206
 1825SOL     OW35968   4.178   2.558  11.585 -0.2098  0.2924  0.0096
 1825SOL    HW135969   4.186   2.501  11.508  0.7386  1.1092 -0.5148
 1825SOL    HW235970   4.148   2.499  11.654  0.8738 -0.9046 -0.4804
 1826SOL     OW35971   0.384   5.573   0.043 -0.2642 -0.0986 -0.3669
 1826SOL    HW135972   0.398   5.574   0.138  0.0588 -0.0517 -0.4144
 1826SOL    HW235973   0.447   5.509   0.009  0.3380  0.6285 -0.6541
 1827SOL     OW35974   2.970   0.344   0.725  0.0416  0.4190  0.5056
 1827SOL    HW135975   3.054   0.331   0.682  1.4166  2.2203  2.4579
 1827SOL    HW235976   2.987   0.324   0.817 -2.1302 -0.8271  0.7003
 1828SOL     OW35977   0.930   2.651   1.199  0.0007  0.1420  0.1310
 1828SOL    HW135978   0.959   2.638   1.290 -0.2715  1.0690  0.3615
 1828SOL    HW235979   0.871   2.726   1.204  2.1819  2.0790 -1.2453
 1829SOL     OW35980   1.006   5.095  11.170 -0.2672  0.8608  0.1683
 1829SOL    HW135981   1.040   5.089  11.081 -1.3434 -2.0825 -0.1460
 1829SOL    HW235982   1.083   5.115  11.224  0.9242 -0.0761 -1.1166
 1830SOL     OW35983   5.368   5.420   1.651  0.3198 -0.3263 -0.0256
 1830SOL    HW135984   5.279   5.396   1.626  0.2247 -0.1172  0.1093
 1830SOL    HW235985   5.420   5.341   1.635 -0.1256 -0.8731  1.1006
 1831SOL     OW35986   2.114   3.843   0.284 -0.1687  0.0863 -0.4501
 1831SOL    HW135987   2.187   3.901   0.303 -0.3648  0.0178  0.5708
 1831SOL    HW235988   2.040   3.880   0.332 -0.4623 -0.6125 -0.3456
 1832SOL     OW35989   4.881   1.671  12.181 -0.5119  0.5641 -0.0479
 1832SOL    HW135990   4.875   1.759  12.143 -0.8936 -0.5277 -2.6632
 1832SOL    HW235991   4.970   1.666  12.216  0.9929  0.6956 -3.4785
 1833SOL     OW35992   3.781   4.770   1.263 -0.2314  0.1330  0.0857
 1833SOL    HW135993   3.761   4.784   1.170 -0.9678  0.2655  0.2555
 1833SOL    HW235994   3.764   4.677   1.276  0.1636  0.0500  0.0228
 1834SOL     OW35995   5.023   4.160  11.336  0.3037 -0.9126 -0.1910
 1834SOL    HW135996   4.996   4.232  11.278 -0.0167 -0.0137  1.0465
 1834SOL    HW235997   4.957   4.159  11.405  1.4247 -1.0767  0.8980
 1835SOL     OW35998   4.680   3.449  11.885 -0.6017 -0.0223  0.9257
 1835SOL    HW135999   4.766   3.407  11.874 -1.4065 -1.3942 -0.4859
 1835SOL    HW236000   4.640   3.402  11.959 -0.9060 -0.7236  0.3178
 1836SOL     OW36001   4.053   4.855  12.175  0.0095  0.5133 -0.0938
 1836SOL    HW136002   3.990   4.820  12.238 -1.1270  1.9495 -0.3571
 1836SOL    HW236003   4.094   4.929  12.221  1.9860 -0.7362  0.2824
 1837SOL     OW36004   3.303   5.105  12.613 -0.1582 -0.2042 -0.5486
 1837SOL    HW136005   3.356   5.114  12.534 -0.6287  1.8177 -0.6966
 1837SOL    HW236006   3.228   5.053  12.586  1.0175 -1.9165 -0.6808
 1838SOL     OW36007   1.016   2.950   0.942  0.1925 -0.5291 -0.1813
 1838SOL    HW136008   1.094   2.966   0.995 -0.2009  0.1521  0.2178
 1838SOL    HW236009   1.037   2.986   0.856 -0.0390  0.6101  0.2178
 1839SOL     OW36010   0.640   2.236   0.141 -0.8737 -0.0654 -0.2244
 1839SOL    HW136011   0.677   2.321   0.120 -0.7012 -0.3389 -1.1025
 1839SOL    HW236012   0.567   2.254   0.200  1.0163  0.4433  2.1222
 1840SOL     OW36013   2.804   0.783  11.774 -0.7008 -0.2230  0.6254
 1840SOL    HW136014   2.877   0.721  11.764 -1.5111 -1.0804 -0.1385
 1840SOL    HW236015   2.836   0.847  11.838  2.0141  1.2921 -1.9101
 1841SOL     OW36016   2.353   4.728  11.509  0.4820  0.1788  0.3614
 1841SOL    HW136017   2.339   4.820  11.532  0.4149  1.0669 -2.7853
 1841SOL    HW236018   2.443   4.710  11.538  0.7058  1.4387  0.5192
 1842SOL     OW36019   4.266   2.429   0.509 -0.3104 -0.2271  0.3759
 1842SOL    HW136020   4.235   2.374   0.581  0.2370  0.0359  0.8166
 1842SOL    HW236021   4.246   2.379   0.430  4.3767 -3.3990  0.8165
 1843SOL     OW36022   3.422   2.022   0.413  1.0199  0.4326 -0.5757
 1843SOL    HW136023   3.371   1.961   0.360  0.9021  0.6072 -0.6657
 1843SOL    HW236024   3.455   2.086   0.350  0.6534  0.7960 -0.4086
 1844SOL     OW36025   4.551   5.932  11.598  0.1611 -0.0330 -0.0963
 1844SOL    HW136026   4.636   5.891  11.580  0.1716  0.2664 -0.7872
 1844SOL    HW236027   4.573   6.014  11.643  0.4553  1.3200 -2.4963
 1845SOL     OW36028   5.862   6.254   0.749 -0.5154 -0.0209 -0.3333
 1845SOL    HW136029   5.831   6.335   0.789  0.3760  0.8011 -1.2562
 1845SOL    HW236030   5.914   6.212   0.816 -1.8646 -0.3907  0.5267
 1846SOL     OW36031   5.339   4.410  12.443  0.2260  0.7070  0.2271
 1846SOL    HW136032   5.248   4.440  12.438  0.2053  0.7322  0.6542
 1846SOL    HW236033   5.377   4.462  12.514  0.5712  0.6858  0.0600
 1847SOL     OW36034   6.320   4.927  11.084 -0.5289  0.1680  0.2181
 1847SOL    HW136035   6.280   4.841  11.076  0.0531 -0.0497 -0.3877
 1847SOL    HW236036   6.253   4.980  11.128 -1.1423 -0.4164  0.0061
 1848SOL     OW36037   0.346   0.199  12.833 -0.0897 -0.0676  0.4821
 1848SOL    HW136038   0.270   0.142  12.846 -0.1983 -0.1940 -0.6258
 1848SOL    HW236039   0.316   0.286  12.859 -1.1991  0.2281 -1.6370
 1849SOL     OW36040   6.105   3.588  12.670 -0.7585 -0.1630  0.3599
 1849SOL    HW136041   6.035   3.623  12.725  0.0541  0.2855  1.1463
 1849SOL    HW236042   6.185   3.604  12.721 -0.1214 -0.9656 -0.3646
 1850SOL     OW36043   0.978   3.733  11.644  0.1228 -0.4339 -0.1974
 1850SOL    HW136044   0.923   3.783  11.584 -1.0427  0.1980  1.3277
 1850SOL    HW236045   0.918   3.674  11.689  0.6043  0.4394  1.6886
 1851SOL     OW36046   1.335   5.483  11.610  0.0717 -0.0578 -0.0062
 1851SOL    HW136047   1.312   5.526  11.528 -1.7185 -1.8145 -0.5081
 1851SOL    HW236048   1.293   5.535  11.677 -0.0794  0.3183 -0.3875
 1852SOL     OW36049   1.570   4.310  12.226  0.7065  0.2937 -0.2793
 1852SOL    HW136050   1.564   4.314  12.322  0.5749  1.2359 -0.3157
 1852SOL    HW236051   1.659   4.281  12.209  1.4278  2.1213  0.1315
 1853SOL     OW36052   3.568   1.193  11.330  0.4005  0.1530  0.0444
 1853SOL    HW136053   3.647   1.227  11.374 -0.6037 -0.0569  2.1403
 1853SOL    HW236054   3.594   1.106  11.299  1.1152  0.2419  0.3629
 1854SOL     OW36055   1.152   4.897   1.527 -0.1062 -0.0881  0.3153
 1854SOL    HW136056   1.104   4.976   1.551  1.1435  0.9170 -0.4076
 1854SOL    HW236057   1.240   4.910   1.563  0.2843 -0.8830 -0.3085
 1855SOL     OW36058   3.696   5.389   1.400 -0.2751  0.6630  0.2142
 1855SOL    HW136059   3.670   5.449   1.331 -0.1431  0.4221 -0.0449
 1855SOL    HW236060   3.704   5.445   1.478 -1.0528  0.8283  0.1883
 1856SOL     OW36061   2.880   0.074  11.877 -0.1528  0.0021 -0.1695
 1856SOL    HW136062   2.895  -0.018  11.898 -0.8265 -0.0188  0.2588
 1856SOL    HW236063   2.961   0.118  11.903  1.1599 -0.7796 -2.6583
 1857SOL     OW36064   5.255   3.585  12.822 -0.2700  0.2050 -0.1460
 1857SOL    HW136065   5.266   3.520  12.753  0.4767  1.8219 -1.6347
 1857SOL    HW236066   5.273   3.669  12.779 -0.4758  1.3438  1.8561
 1858SOL     OW36067   4.072   0.127   0.432  0.1453  0.6798 -0.2112
 1858SOL    HW136068   3.997   0.096   0.381 -0.6860 -0.1855  1.4567
 1858SOL    HW236069   4.130   0.052   0.438  0.5512  0.9731 -0.4270
 1859SOL     OW36070   6.059   0.531   0.201 -0.0700 -0.1431 -0.0326
 1859SOL    HW136071   6.043   0.607   0.257 -0.2900 -0.8638  0.9225
 1859SOL    HW236072   6.112   0.564   0.129 -0.0266  0.8762  0.4542
 1860SOL     OW36073   1.513   2.360   0.039 -0.4704  0.0268  0.2670
 1860SOL    HW136074   1.599   2.380   0.001  0.6019 -2.3237  1.2698
 1860SOL    HW236075   1.459   2.335  -0.036  0.3975 -0.6549 -0.1384
 1861SOL     OW36076   6.158   1.725  12.761  0.3527 -0.0148  0.1867
 1861SOL    HW136077   6.173   1.679  12.678  1.0589 -0.6889  0.6802
 1861SOL    HW236078   6.180   1.661  12.828 -0.5959  0.4002  0.9069
 1862SOL     OW36079   6.234   6.420  11.426 -0.4923  0.0026 -0.7074
 1862SOL    HW136080   6.145   6.417  11.390 -0.8857 -2.4257  0.2876
 1862SOL    HW236081   6.280   6.349  11.381  0.2438 -0.2715  0.4608
 1863SOL     OW36082   2.486   5.371   1.149  0.4853  0.5383 -0.1031
 1863SOL    HW136083   2.458   5.430   1.219  1.2678  1.3054 -0.4058
 1863SOL    HW236084   2.413   5.311   1.137  0.7081 -0.2447  2.0373
 1864SOL     OW36085   1.729   0.934  12.573  0.1778 -0.1328  0.0055
 1864SOL    HW136086   1.702   0.868  12.509  1.3087 -1.1093  0.4964
 1864SOL    HW236087   1.810   0.900  12.609  0.8678  1.6248  0.1795
 1865SOL     OW36088   6.352   2.751   0.238  0.3205  0.0113 -0.0299
 1865SOL    HW136089   6.361   2.767   0.332 -0.8097  3.0235 -0.3244
 1865SOL    HW236090   6.436   2.781   0.201  0.8680 -1.4225  0.0088
 1866SOL     OW36091   1.569   5.574  11.737 -0.1308  0.4435 -0.6167
 1866SOL    HW136092   1.492   5.544  11.689 -0.3559  0.4813 -0.2841
 1866SOL    HW236093   1.560   5.536  11.824  1.5879 -1.7750 -1.3288
 1867SOL     OW36094   5.707   5.713   0.472 -0.5222  0.0648  0.2153
 1867SOL    HW136095   5.709   5.625   0.435 -3.1211  0.0276  0.0080
 1867SOL    HW236096   5.734   5.769   0.399  1.6891 -0.5291  0.5034
 1868SOL     OW36097   5.021   5.008   0.225 -0.2560  0.3082  0.1641
 1868SOL    HW136098   5.115   4.995   0.214 -0.4899 -1.4552 -0.1189
 1868SOL    HW236099   4.983   4.924   0.200 -1.8850  0.8850  0.6071
 1869SOL     OW36100   0.406   6.386  11.339  0.2335  0.1392  0.5122
 1869SOL    HW136101   0.321   6.428  11.328 -0.0378 -0.4468  0.3499
 1869SOL    HW236102   0.456   6.411  11.261  0.2046  0.4550  0.5929
 1870SOL     OW36103   4.477   0.698   0.681  0.0780  0.0252 -0.3522
 1870SOL    HW136104   4.552   0.664   0.730 -1.6398 -2.3297  0.8731
 1870SOL    HW236105   4.447   0.624   0.628 -3.0630 -0.1791  1.4278
 1871SOL     OW36106   3.417   4.939  12.053  0.1074  0.3112  0.0823
 1871SOL    HW136107   3.366   4.945  12.134  0.3710 -1.3228  0.3949
 1871SOL    HW236108   3.436   5.030  12.031 -0.7710  0.8359  1.3405
 1872SOL     OW36109   0.902   1.184   0.016 -0.4672 -0.1269 -0.0862
 1872SOL    HW136110   0.923   1.158   0.105  1.4521  2.4332  0.3473
 1872SOL    HW236111   0.976   1.152  -0.036 -0.8114 -0.2887 -0.4780
 1873SOL     OW36112   0.049   3.173   0.377  0.2354  0.5819 -0.5945
 1873SOL    HW136113  -0.041   3.146   0.400 -0.1100  1.5586 -0.7487
 1873SOL    HW236114   0.081   3.218   0.456  0.7871 -0.2089 -0.3560
 1874SOL     OW36115   1.179   0.073   0.473 -0.6046 -0.2244 -0.1011
 1874SOL    HW136116   1.123   0.073   0.395  1.1509 -0.6673 -1.4183
 1874SOL    HW236117   1.257   0.024   0.447  0.9965  1.4638  1.2388
 1875SOL     OW36118   2.900   4.611   1.367 -0.4304  0.1041 -0.6571
 1875SOL    HW136119   2.990   4.578   1.360 -0.7485 -0.9547 -0.0830
 1875SOL    HW236120   2.893   4.643   1.457 -0.2196  1.4991 -1.1232
 1876SOL     OW36121   2.390   2.620   0.718  0.4702 -0.4247  0.0144
 1876SOL    HW136122   2.467   2.634   0.663  0.9189 -2.1573  0.1668
 1876SOL    HW236123   2.421   2.566   0.791 -0.9958 -1.6887 -0.2528
 1877SOL     OW36124   1.867   4.227  12.219  0.2798  0.0723  0.0237
 1877SOL    HW136125   1.912   4.158  12.266  4.5504  1.4730 -1.5256
 1877SOL    HW236126   1.889   4.211  12.127  0.4208  2.7432 -0.4805
 1878SOL     OW36127   4.007   4.672   0.012 -0.0626 -0.0298  0.4668
 1878SOL    HW136128   4.044   4.759  -0.005 -1.3356  0.6109  0.8229
 1878SOL    HW236129   4.082   4.613   0.009  0.7836  1.0374 -0.1038
 1879SOL     OW36130   1.255   5.994  11.685  0.1947  0.3035 -0.0727
 1879SOL    HW136131   1.176   5.993  11.632 -2.1223 -1.9372  3.0532
 1879SOL    HW236132   1.224   6.006  11.774  3.5775  0.8911  1.1700
 1880SOL     OW36133   2.969   1.606   1.585  0.5048  0.0142 -0.7400
 1880SOL    HW136134   2.965   1.622   1.680  0.4708 -2.2456 -0.3008
 1880SOL    HW236135   2.880   1.626   1.554  1.2091  3.5381 -0.8863
 1881SOL     OW36136   5.185   4.414  12.107 -0.0548 -0.4567 -0.1982
 1881SOL    HW136137   5.231   4.353  12.049  0.2828 -1.8062  1.4223
 1881SOL    HW236138   5.098   4.423  12.066  0.6585 -0.1252 -1.7322
 1882SOL     OW36139   1.072   3.583   1.358  0.0155  0.5233  0.0657
 1882SOL    HW136140   1.066   3.632   1.275  2.1174  0.6382 -0.0802
 1882SOL    HW236141   1.074   3.650   1.425 -0.0694  0.5075  0.0837
 1883SOL     OW36142   2.659   4.107  11.848 -0.0060 -0.3212  0.4336
 1883SOL    HW136143   2.723   4.169  11.812  0.5530 -2.0556 -1.8307
 1883SOL    HW236144   2.582   4.118  11.792  0.1052 -1.6110 -0.0035
 1884SOL     OW36145   1.034   1.170  11.756  0.0649  0.9971 -0.2385
 1884SOL    HW136146   1.010   1.165  11.663  0.7118 -0.7098 -0.3547
 1884SOL    HW236147   0.971   1.113  11.800  1.5740 -0.6394 -0.0714
 1885SOL     OW36148   4.431   6.176   0.508 -0.2492  0.3229  0.0601
 1885SOL    HW136149   4.419   6.081   0.512 -0.0167  0.3334  1.4198
 1885SOL    HW236150   4.523   6.190   0.530  0.3337  0.7443 -2.4058
 1886SOL     OW36151   0.930   3.065  11.296 -0.1005  0.2105  0.0760
 1886SOL    HW136152   0.914   3.026  11.382  4.0989 -1.2090  0.4302
 1886SOL    HW236153   0.916   2.993  11.235 -1.4810  0.7897 -0.3318
 1887SOL     OW36154   1.200   0.069   0.918  0.0194 -0.4507 -0.4164
 1887SOL    HW136155   1.227   0.108   0.835  0.9901  0.2266  0.1877
 1887SOL    HW236156   1.282   0.038   0.958 -0.3634 -0.3388  0.4966
 1888SOL     OW36157   4.426   3.197   1.376 -0.0246 -0.7459 -0.2526
 1888SOL    HW136158   4.477   3.117   1.392 -0.0137 -0.9702 -1.3365
 1888SOL    HW236159   4.445   3.253   1.452  2.3822 -0.5483 -0.9286
 1889SOL     OW36160   1.527   3.726   0.377 -0.0719 -0.1325  0.2885
 1889SOL    HW136161   1.548   3.785   0.306  2.5879 -0.3907  0.7537
 1889SOL    HW236162   1.463   3.774   0.430 -0.0601  1.1535 -0.8057
 1890SOL     OW36163   1.740   5.344  12.077 -0.0541  0.2722 -0.2839
 1890SOL    HW136164   1.694   5.388  12.149 -1.7479 -1.1670 -0.4047
 1890SOL    HW236165   1.684   5.360  12.000 -0.5295 -1.6671 -0.4061
 1891SOL     OW36166   4.883   4.533  12.566  0.1777  0.1354  0.0161
 1891SOL    HW136167   4.876   4.470  12.638  0.2930  1.0169  0.8230
 1891SOL    HW236168   4.901   4.617  12.610 -0.1494  0.7587 -1.0218
 1892SOL     OW36169   1.716   0.967   0.063 -0.0713  0.2956  0.3470
 1892SOL    HW136170   1.674   0.886   0.033  0.8387  0.2076 -0.7148
 1892SOL    HW236171   1.655   1.036   0.037  0.2320  0.1348 -0.8497
 1893SOL     OW36172   2.093   6.361   1.448 -0.6270 -0.6687 -0.6917
 1893SOL    HW136173   2.013   6.358   1.501 -1.1212  0.3430 -1.3482
 1893SOL    HW236174   2.163   6.336   1.509 -1.2920 -0.4456  0.1873
 1894SOL     OW36175   3.464   5.535   1.710 -0.0580 -0.1627 -0.1692
 1894SOL    HW136176   3.423   5.525   1.623  0.1482  1.1627 -0.4309
 1894SOL    HW236177   3.421   5.611   1.748  1.9310  1.1195 -0.3412
 1895SOL     OW36178   3.999   6.032   1.523 -0.5205 -0.1422  0.1747
 1895SOL    HW136179   3.978   6.105   1.465 -0.2485 -0.1714  0.0382
 1895SOL    HW236180   3.964   6.058   1.608  1.1993  0.9881  0.5877
 1896SOL     OW36181   4.910   2.409   0.917  0.2138 -0.5987  0.6983
 1896SOL    HW136182   4.900   2.399   0.822  0.2197  2.2519  0.3207
 1896SOL    HW236183   4.820   2.404   0.951  0.1893 -1.3939  0.5319
 1897SOL     OW36184   3.835   5.456   0.767 -0.5748 -0.9596  0.2625
 1897SOL    HW136185   3.905   5.517   0.788  0.2824 -2.5773  2.5220
 1897SOL    HW236186   3.874   5.393   0.706 -0.9051 -0.3336 -0.6105
 1898SOL     OW36187   0.076   5.648   0.159 -0.8662  0.0359  0.3775
 1898SOL    HW136188  -0.015   5.617   0.159 -1.3394  1.3488  1.4980
 1898SOL    HW236189   0.088   5.688   0.245 -0.0074  2.0818 -0.6250
 1899SOL     OW36190   6.118   5.162  12.023 -0.0130  0.0589  0.1084
 1899SOL    HW136191   6.085   5.076  12.049 -1.0213  0.3819 -0.0626
 1899SOL    HW236192   6.081   5.177  11.936  0.0842  0.7101  0.1750
 1900SOL     OW36193   4.049   1.624  12.809 -0.0281 -0.5742 -0.0076
 1900SOL    HW136194   4.121   1.683  12.783  0.8084 -1.2141  0.7913
 1900SOL    HW236195   3.971   1.679  12.805  0.3050 -0.1604 -2.0719
 1901SOL     OW36196   4.062   5.479   1.112  0.5406 -0.1094  0.4210
 1901SOL    HW136197   4.058   5.391   1.148  0.2205  0.1546  1.0600
 1901SOL    HW236198   4.034   5.536   1.185 -0.0179  0.4493 -0.2091
 1902SOL     OW36199   3.975   2.748   1.107  0.1610 -0.6608 -0.4284
 1902SOL    HW136200   3.994   2.793   1.025 -0.3875 -0.1367 -0.2789
 1902SOL    HW236201   4.019   2.664   1.100 -1.5115 -1.4520 -2.0944
 1903SOL     OW36202   1.473   2.154   1.600 -0.3538  0.2988 -0.1953
 1903SOL    HW136203   1.385   2.118   1.596 -0.4668  0.7284 -2.3509
 1903SOL    HW236204   1.476   2.221   1.532  0.9803  1.8485  1.2743
 1904SOL     OW36205   2.475   3.945   0.854 -0.1044 -0.3029 -0.5046
 1904SOL    HW136206   2.516   3.989   0.780  0.4030 -1.0508 -0.6848
 1904SOL    HW236207   2.383   3.934   0.829  0.5538 -2.8006 -2.1511
 1905SOL     OW36208   2.417   4.188  12.589  0.2448  0.4954  0.0121
 1905SOL    HW136209   2.479   4.160  12.656  0.8585 -0.0470 -0.7634
 1905SOL    HW236210   2.404   4.111  12.535  0.7649  1.2688 -1.2600
 1906SOL     OW36211   2.056   0.058   0.605  0.1049  0.3230  0.5554
 1906SOL    HW136212   2.112  -0.018   0.620  2.4344  1.6046 -0.9548
 1906SOL    HW236213   1.969   0.022   0.592  0.8439 -1.9327  1.3221
 1907SOL     OW36214   5.424   1.981  11.870 -0.1274 -0.3411  0.0906
 1907SOL    HW136215   5.461   1.894  11.886 -0.6348 -0.4599  0.6412
 1907SOL    HW236216   5.409   1.984  11.776 -0.2282 -0.8951  0.0888
 1908SOL     OW36217   6.253   4.011  11.903  0.5901 -0.1431 -0.0584
 1908SOL    HW136218   6.201   4.045  11.831  0.0455  0.4280  0.5810
 1908SOL    HW236219   6.260   4.085  11.964  0.4312 -0.8200  0.8015
 1909SOL     OW36220   4.803   2.436   1.689  0.4433 -0.6831  0.3421
 1909SOL    HW136221   4.816   2.366   1.624 -0.4514 -0.4202 -0.1431
 1909SOL    HW236222   4.821   2.395   1.773  0.2367 -1.4230  0.0342
 1910SOL     OW36223   3.227   1.439  12.547  0.8356 -0.4600 -0.5299
 1910SOL    HW136224   3.206   1.447  12.640 -0.3795 -0.8756 -0.7479
 1910SOL    HW236225   3.298   1.502  12.533  0.1348  0.5762  0.3977
 1911SOL     OW36226   2.187   3.463  11.274 -0.0707 -0.2089 -0.1103
 1911SOL    HW136227   2.234   3.475  11.357 -1.8801  2.0691  0.6949
 1911SOL    HW236228   2.203   3.371  11.251  0.8924 -0.8029  2.5091
 1912SOL     OW36229   1.878   3.935  11.757 -0.0676  0.4884  0.8667
 1912SOL    HW136230   1.842   3.848  11.773 -0.5361  0.9355  2.4901
 1912SOL    HW236231   1.825   3.971  11.686  0.8363 -0.9242 -0.5953
 1913SOL     OW36232   0.584   3.873  12.111  0.3348 -0.5612 -0.3136
 1913SOL    HW136233   0.677   3.891  12.124  0.2722  0.7505 -1.5591
 1913SOL    HW236234   0.559   3.822  12.189  1.3585  1.7594  1.6674
 1914SOL     OW36235   1.065   5.327   1.538 -0.1474 -0.1077  0.0381
 1914SOL    HW136236   1.000   5.397   1.532  0.7470  0.8776  1.2348
 1914SOL    HW236237   1.061   5.300   1.630  0.6926 -0.4643 -0.0278
 1915SOL     OW36238   4.476   0.502   0.030 -0.5649  0.2065  1.0313
 1915SOL    HW136239   4.429   0.545  -0.042 -1.3408 -1.8850  0.2092
 1915SOL    HW236240   4.447   0.549   0.109 -1.9797  0.6857  0.2668
 1916SOL     OW36241   4.945   3.399  10.896  0.1050 -0.0981  0.0174
 1916SOL    HW136242   4.956   3.485  10.855  2.0981 -0.0519  0.5415
 1916SOL    HW236243   4.899   3.347  10.830  0.5776  0.8294 -1.0844
 1917SOL     OW36244   1.080   2.580   0.525  0.4989 -0.2585 -0.2286
 1917SOL    HW136245   1.157   2.615   0.569 -0.2232  2.8489 -1.1076
 1917SOL    HW236246   1.006   2.609   0.580 -0.1610 -0.9796 -0.7089
 1918SOL     OW36247   5.608   5.588   1.077 -0.5373  0.3771 -0.1140
 1918SOL    HW136248   5.656   5.622   1.152  1.0155 -2.1754  0.1377
 1918SOL    HW236249   5.630   5.648   1.006 -0.4950  1.7264  0.9832
 1919SOL     OW36250   5.309   2.529  11.621  0.1798 -0.1309  0.2664
 1919SOL    HW136251   5.362   2.601  11.655 -0.1487 -0.2980  1.1592
 1919SOL    HW236252   5.360   2.450  11.641  1.3638 -0.0875 -2.2371
 1920SOL     OW36253   5.124   3.396  12.011 -0.2758  0.0681  0.7290
 1920SOL    HW136254   5.203   3.419  11.963 -0.0474  1.3505  1.6829
 1920SOL    HW236255   5.095   3.314  11.971  1.0261  0.0448 -0.2238
 1921SOL     OW36256   1.952   5.686  11.502  0.2050  0.0025 -0.0903
 1921SOL    HW136257   1.858   5.701  11.515  0.5567  1.7957  0.7867
 1921SOL    HW236258   1.972   5.730  11.420  0.6566  1.7677  0.8984
 1922SOL     OW36259   4.407   1.771  11.480  0.5328  0.2765 -0.5080
 1922SOL    HW136260   4.433   1.860  11.501 -0.9918  1.0212 -1.5468
 1922SOL    HW236261   4.353   1.743  11.554 -0.5341  0.9496 -1.0028
 1923SOL     OW36262   0.512   3.557  12.027 -0.3627 -0.5783  1.0219
 1923SOL    HW136263   0.560   3.628  11.984  0.1956 -1.2566  0.4918
 1923SOL    HW236264   0.421   3.570  12.000 -0.1809 -0.3727  0.4916
 1924SOL     OW36265   0.626   6.259  12.702 -0.4545 -0.0641 -1.0600
 1924SOL    HW136266   0.669   6.338  12.734  1.0205 -1.4450  0.5029
 1924SOL    HW236267   0.638   6.263  12.607  1.9063  0.3202 -0.8063
 1925SOL     OW36268   2.153   2.845   1.425  0.9079  0.2682 -0.4824
 1925SOL    HW136269   2.133   2.804   1.341  0.0879  1.0202 -0.6701
 1925SOL    HW236270   2.075   2.897   1.445  0.2541 -1.3916  1.6721
 1926SOL     OW36271   5.314   4.293  11.861 -0.9217  0.1455  0.1117
 1926SOL    HW136272   5.366   4.368  11.832 -1.6507  1.1594  1.3313
 1926SOL    HW236273   5.249   4.281  11.791  0.2804 -0.5170 -0.9465
 1927SOL     OW36274   1.954   0.701  11.713  0.1561 -0.4880 -1.0184
 1927SOL    HW136275   1.948   0.625  11.770  1.3492 -0.1800 -0.4486
 1927SOL    HW236276   1.882   0.691  11.651  0.7074 -2.4501 -1.4052
 1928SOL     OW36277   2.697   2.451   1.224  0.0230  0.3871 -0.7220
 1928SOL    HW136278   2.680   2.535   1.268  0.4280  0.1647 -0.1317
 1928SOL    HW236279   2.612   2.424   1.191  0.0771  1.5906 -1.9332
 1929SOL     OW36280   2.226   2.039   1.131  0.2151 -0.1167  0.4071
 1929SOL    HW136281   2.176   1.960   1.152 -0.7781  0.5113  0.4738
 1929SOL    HW236282   2.295   2.009   1.072 -1.7581 -0.6420 -1.7937
 1930SOL     OW36283   4.174   6.014   0.168 -0.0723  0.0529  0.5409
 1930SOL    HW136284   4.115   5.971   0.229  0.6499  0.6944  1.7326
 1930SOL    HW236285   4.259   6.012   0.212  0.3633  0.9666 -0.2344
 1931SOL     OW36286   5.946   2.499  12.640 -0.2512  0.1349 -0.3347
 1931SOL    HW136287   5.891   2.576  12.623 -0.5645 -0.3328 -1.5870
 1931SOL    HW236288   5.923   2.471  12.728 -0.1895  1.4225  0.1137
 1932SOL     OW36289   1.558   1.571  12.424  0.3495  0.5672  0.0865
 1932SOL    HW136290   1.645   1.612  12.419 -0.2785  1.9271 -0.2136
 1932SOL    HW236291   1.524   1.597  12.510  1.0343 -1.7082  1.1223
 1933SOL     OW36292   0.566   3.833   1.299  0.0499 -0.1306 -0.4402
 1933SOL    HW136293   0.621   3.777   1.352 -0.2146  0.0538  0.0320
 1933SOL    HW236294   0.546   3.781   1.221  0.3639 -0.4300 -0.3207
 1934SOL     OW36295   6.092   6.135   0.537 -0.1375 -0.0286 -0.0978
 1934SOL    HW136296   6.014   6.109   0.585 -1.2322  0.8536 -1.3160
 1934SOL    HW236297   6.125   6.211   0.584 -0.2715 -0.1326  0.1677
 1935SOL     OW36298   3.119   1.955   0.784 -0.6380 -0.1949  0.3736
 1935SOL    HW136299   3.090   1.901   0.710 -0.8476 -0.3131  0.5399
 1935SOL    HW236300   3.059   1.932   0.855  0.1257 -0.7596  0.8574
 1936SOL     OW36301   1.689   2.044   1.469 -0.7385 -0.0621 -0.1244
 1936SOL    HW136302   1.619   2.061   1.531 -0.8963 -2.0921  0.3029
 1936SOL    HW236303   1.645   2.004   1.394 -0.2104 -0.0171 -0.4610
 1937SOL     OW36304   0.947   2.994   0.421  0.3474 -0.0268  0.1705
 1937SOL    HW136305   0.858   3.019   0.398  0.5967  1.2004  0.4762
 1937SOL    HW236306   0.955   2.903   0.392 -1.2895 -0.4581  0.9727
 1938SOL     OW36307   3.428   0.099   0.621 -0.4292 -0.2885  0.2493
 1938SOL    HW136308   3.480   0.170   0.660 -0.0873 -0.3990 -0.0011
 1938SOL    HW236309   3.394   0.051   0.696 -2.8140  1.6359  0.5255
 1939SOL     OW36310   3.702   4.852  12.612  0.1023 -0.2119 -0.0130
 1939SOL    HW136311   3.674   4.918  12.675  0.7529 -0.7402  0.8516
 1939SOL    HW236312   3.623   4.832  12.561  0.2528  2.4519 -1.4927
 1940SOL     OW36313   5.376   4.871   0.454 -0.0347 -0.0877  0.1568
 1940SOL    HW136314   5.399   4.779   0.466  2.7052  0.2773 -1.5285
 1940SOL    HW236315   5.337   4.875   0.367  0.3528  0.4379  0.0069
 1941SOL     OW36316   6.185   1.659   0.659 -0.1318  0.4735  0.1235
 1941SOL    HW136317   6.172   1.606   0.581 -1.8276 -0.1911  0.7996
 1941SOL    HW236318   6.207   1.746   0.626  1.8122 -0.3887 -1.0162
 1942SOL     OW36319   5.885   0.011   0.551 -0.5231  0.3865 -0.2175
 1942SOL    HW136320   5.830   0.079   0.590  2.1393  1.1072  2.7141
 1942SOL    HW236321   5.864  -0.068   0.600  1.5850  0.9086  1.7412
 1943SOL     OW36322   5.424   5.996  12.020  0.0822 -0.3948 -0.1107
 1943SOL    HW136323   5.429   6.038  11.934 -1.6792  1.1358  0.4616
 1943SOL    HW236324   5.330   5.995  12.041  0.2972 -2.3889  1.0299
 1944SOL     OW36325   0.375   2.306  11.262 -0.7048 -0.5234 -0.0370
 1944SOL    HW136326   0.413   2.307  11.350 -2.1809  0.8540  0.6163
 1944SOL    HW236327   0.321   2.227  11.260 -2.4760  0.5791  1.1554
 1945SOL     OW36328   3.509   1.512  12.664 -0.0584  0.4832  0.2119
 1945SOL    HW136329   3.493   1.593  12.712 -0.6698  0.1906  0.5151
 1945SOL    HW236330   3.604   1.498  12.671 -0.0328  0.8620  0.6500
 1946SOL     OW36331   6.158   4.683  11.042 -0.1004  0.2149 -0.2129
 1946SOL    HW136332   6.122   4.599  11.071  1.7738 -0.2377  0.9834
 1946SOL    HW236333   6.148   4.681  10.947 -0.2689 -1.2967 -0.1965
 1947SOL     OW36334   1.377   3.206  12.417  0.0033  0.8142  0.1966
 1947SOL    HW136335   1.409   3.268  12.351 -0.2719  1.3850  0.5920
 1947SOL    HW236336   1.365   3.124  12.369  0.0548  1.1527 -0.4065
 1948SOL     OW36337   5.240   6.199   0.024 -0.4317  0.1872  0.5087
 1948SOL    HW136338   5.323   6.213   0.069  0.2663 -1.3082 -0.2631
 1948SOL    HW236339   5.261   6.202  -0.069 -1.2728  0.0068  0.3007
 1949SOL     OW36340   4.900   3.286  11.867 -0.6200 -0.2453 -0.3456
 1949SOL    HW136341   4.963   3.253  11.802  0.2362  2.0973 -0.8178
 1949SOL    HW236342   4.895   3.217  11.933  0.7056 -1.4697 -1.4574
 1950SOL     OW36343   4.504   3.341  12.686 -0.1590 -0.0189  0.0209
 1950SOL    HW136344   4.509   3.435  12.704  2.2590 -0.1756  0.5003
 1950SOL    HW236345   4.564   3.328  12.613  2.1124 -1.5939  2.0211
 1951SOL     OW36346   2.106   1.640   1.449  0.1200 -0.1578  0.0872
 1951SOL    HW136347   2.063   1.630   1.363  0.9256 -0.3262 -0.3063
 1951SOL    HW236348   2.173   1.706   1.434 -1.5262  1.8798  1.2972
 1952SOL     OW36349   5.953   6.011   0.884 -0.0499 -0.2932 -0.2367
 1952SOL    HW136350   5.893   5.976   0.818 -0.3729  0.1417 -0.1757
 1952SOL    HW236351   5.997   5.933   0.919 -0.6801 -0.6350 -0.1802
 1953SOL     OW36352   3.830   0.280   0.769  0.6066  0.1958 -0.3526
 1953SOL    HW136353   3.796   0.222   0.701  2.4858  0.3566 -1.5063
 1953SOL    HW236354   3.923   0.260   0.773  0.6835  0.7375  1.6683
 1954SOL     OW36355   1.703   2.423   1.115  0.2179  0.7168  0.1653
 1954SOL    HW136356   1.662   2.387   1.036  0.3075  2.0588 -0.5157
 1954SOL    HW236357   1.765   2.355   1.141 -0.5664 -0.2156 -0.2846
 1955SOL     OW36358   5.180   1.943  12.700  0.4836 -0.1169 -0.4746
 1955SOL    HW136359   5.168   2.021  12.646  2.3964  0.4661 -0.1487
 1955SOL    HW236360   5.144   1.967  12.786 -0.1642 -0.1012 -0.7453
 1956SOL     OW36361   6.226   1.367   0.801  0.4367  0.0411 -0.1624
 1956SOL    HW136362   6.315   1.367   0.766  0.7821  0.0501  0.7088
 1956SOL    HW236363   6.199   1.459   0.798  0.4012  0.0229 -0.5369
 1957SOL     OW36364   4.205   1.714   0.816  0.7207 -0.3196 -0.1236
 1957SOL    HW136365   4.188   1.622   0.794  1.0936  0.0097 -1.8634
 1957SOL    HW236366   4.121   1.758   0.804  0.6015 -0.3614  0.4805
 1958SOL     OW36367   5.922   2.246   0.935  0.2934 -0.2167  0.0522
 1958SOL    HW136368   5.881   2.178   0.881  3.6514 -1.0438 -1.7623
 1958SOL    HW236369   5.895   2.328   0.896 -1.0058 -0.6285  0.0484
 1959SOL     OW36370   0.780   6.295  11.932 -0.0899 -0.0590 -0.4263
 1959SOL    HW136371   0.691   6.269  11.911  0.2799  0.5428 -3.0895
 1959SOL    HW236372   0.818   6.323  11.849  1.9600  1.6323  0.9433
 1960SOL     OW36373   3.192   4.336   0.201 -0.4039  0.3914 -0.5534
 1960SOL    HW136374   3.258   4.291   0.253 -0.7524 -0.5900 -0.9351
 1960SOL    HW236375   3.238   4.363   0.121 -0.4805 -0.3949 -0.8706
 1961SOL     OW36376   1.061   2.534   1.404 -0.1283 -0.3853  0.3018
 1961SOL    HW136377   1.064   2.536   1.500  0.7327  1.2825  0.2828
 1961SOL    HW236378   1.153   2.539   1.377 -0.4091  0.0930 -0.6082
 1962SOL     OW36379   0.431   5.895   1.769 -0.0902 -0.6173 -0.2751
 1962SOL    HW136380   0.480   5.970   1.736  0.7775 -1.1397 -0.2238
 1962SOL    HW236381   0.359   5.933   1.818  0.3552  0.1849 -0.2235
 1963SOL     OW36382   2.308   0.662   1.503  0.4185 -0.1133  0.4050
 1963SOL    HW136383   2.239   0.724   1.527  0.2336  0.1004 -0.6081
 1963SOL    HW236384   2.334   0.689   1.415  1.0374 -0.8625  0.3503
 1964SOL     OW36385   4.090   5.223  12.726 -0.1225  0.1357  0.1653
 1964SOL    HW136386   4.172   5.227  12.776  0.3791 -1.4425 -0.4895
 1964SOL    HW236387   4.104   5.284  12.653 -0.6648  2.0612  1.5717
 1965SOL     OW36388   5.651   1.848   0.833 -0.4032 -0.1792 -0.0065
 1965SOL    HW136389   5.557   1.867   0.829 -0.2651  0.7538  0.6587
 1965SOL    HW236390   5.666   1.783   0.764 -1.2424  0.9350 -1.2969
 1966SOL     OW36391   4.248   4.088  11.839  0.1740 -0.1795  0.0677
 1966SOL    HW136392   4.337   4.066  11.814  0.8759  2.0602  0.3414
 1966SOL    HW236393   4.224   4.022  11.904  1.2457 -1.3958 -0.7470
 1967SOL     OW36394   3.564   6.104   0.433 -0.0584  0.0170 -0.0933
 1967SOL    HW136395   3.472   6.084   0.446  0.3213 -1.1034  1.1051
 1967SOL    HW236396   3.568   6.199   0.428 -1.4444  0.0478 -1.7595
 1968SOL     OW36397   6.261   1.567   0.102 -0.2789  0.0748  0.1310
 1968SOL    HW136398   6.290   1.485   0.061 -1.3291 -1.3238  2.0207
 1968SOL    HW236399   6.325   1.583   0.172 -0.8922  0.0318  0.7178
 1969SOL     OW36400   0.187   3.360   0.204  0.5211  0.1038 -0.0364
 1969SOL    HW136401   0.141   3.310   0.271  0.5784  2.2849  1.7603
 1969SOL    HW236402   0.173   3.310   0.123 -0.7077 -1.9209  1.3272
 1970SOL     OW36403   0.032   1.617   0.302 -0.1587 -0.4925 -0.1471
 1970SOL    HW136404   0.095   1.625   0.374 -1.5982  0.5763  1.0749
 1970SOL    HW236405   0.037   1.701   0.257 -0.1109 -0.7158 -0.5538
 1971SOL     OW36406   5.569   1.599   1.397 -0.1763 -0.2787  0.5352
 1971SOL    HW136407   5.502   1.546   1.440  1.9183 -3.5107  0.2083
 1971SOL    HW236408   5.625   1.535   1.352  1.5772  2.4209 -1.4703
 1972SOL     OW36409   3.580   0.457   0.812  0.1301 -0.3815  0.3718
 1972SOL    HW136410   3.637   0.380   0.804 -1.6120 -1.5462 -2.4609
 1972SOL    HW236411   3.496   0.421   0.839 -0.3910  0.7208  0.2724
 1973SOL     OW36412   5.861   3.526  12.474 -0.1587  0.2009 -0.2649
 1973SOL    HW136413   5.831   3.537  12.564 -2.8583 -2.0545 -0.7710
 1973SOL    HW236414   5.919   3.450  12.478 -0.3197  0.0695 -0.4322
 1974SOL     OW36415   2.216   3.551   0.279  0.4116  0.6946  0.0691
 1974SOL    HW136416   2.256   3.535   0.365  1.8802 -0.4336 -0.7929
 1974SOL    HW236417   2.190   3.643   0.283 -0.2284  0.4928  1.9703
 1975SOL     OW36418   3.690   6.095   0.142  0.3817 -0.2388 -0.4480
 1975SOL    HW136419   3.736   6.111   0.060  0.9142 -2.0506 -0.5477
 1975SOL    HW236420   3.738   6.146   0.207  0.3613  0.6778 -1.1229
 1976SOL     OW36421   4.158   5.341   1.380  0.0215  0.3357 -0.4829
 1976SOL    HW136422   4.250   5.336   1.356 -0.3171 -0.4402 -1.7018
 1976SOL    HW236423   4.158   5.378   1.468  1.5033  0.1151 -0.3720
 1977SOL     OW36424   0.138   1.590  11.975  0.1785 -0.4567 -0.3461
 1977SOL    HW136425   0.103   1.583  11.886 -1.1998 -1.5665  0.2478
 1977SOL    HW236426   0.117   1.680  12.002  0.2804 -0.2302 -1.0055
 1978SOL     OW36427   2.390   0.030   0.410  0.4276  0.4091  0.4240
 1978SOL    HW136428   2.446   0.006   0.336  1.0364  1.6449  0.4673
 1978SOL    HW236429   2.339   0.104   0.379  0.4012  0.6866  1.1104
 1979SOL     OW36430   3.437   0.745  12.695  0.7319 -0.1501 -0.3506
 1979SOL    HW136431   3.530   0.768  12.698  1.4052 -2.5373 -0.8747
 1979SOL    HW236432   3.415   0.745  12.602  0.9361 -2.0933 -0.4246
 1980SOL     OW36433   4.138   0.948   1.170 -0.2334 -0.4614 -0.2170
 1980SOL    HW136434   4.218   0.901   1.193  0.3828  1.1034  1.1040
 1980SOL    HW236435   4.092   0.890   1.110  2.4638 -0.9353 -2.0315
 1981SOL     OW36436   4.787   6.426   0.386 -0.1655 -0.5718 -0.9885
 1981SOL    HW136437   4.751   6.357   0.442 -0.5974 -1.3769 -2.2175
 1981SOL    HW236438   4.814   6.494   0.447 -3.1880 -0.1689  0.0940
 1982SOL     OW36439   2.720   0.821   0.489 -0.0983  0.1942 -0.3507
 1982SOL    HW136440   2.786   0.887   0.510  1.0192 -0.5335 -1.4373
 1982SOL    HW236441   2.769   0.739   0.483 -1.0780 -0.3556 -1.2279
 1983SOL     OW36442   0.760   3.005  12.632  0.1774  0.1633 -0.0810
 1983SOL    HW136443   0.840   2.995  12.684  1.0047  1.2206 -1.0872
 1983SOL    HW236444   0.689   2.989  12.694  1.0960  1.8163  1.5056
 1984SOL     OW36445   4.265   0.312   0.343 -0.5562 -0.1637  0.3629
 1984SOL    HW136446   4.218   0.239   0.383 -1.6808  0.6204  0.5258
 1984SOL    HW236447   4.347   0.274   0.313 -0.6923 -1.2708  1.3312
 1985SOL     OW36448   2.178   5.981   0.968  0.0193 -0.6898  0.3388
 1985SOL    HW136449   2.196   5.915   0.901  0.6655 -0.1636 -0.0164
 1985SOL    HW236450   2.254   6.040   0.965 -0.3932 -0.1170  0.8778
 1986SOL     OW36451   2.927   0.852  12.712 -0.0757 -0.2945  0.5466
 1986SOL    HW136452   2.953   0.764  12.686 -0.2380 -0.4798  1.0010
 1986SOL    HW236453   2.834   0.844  12.735  0.3949 -0.4689  2.5706
 1987SOL     OW36454   3.763   1.584  12.216  0.5309  0.0603  0.6613
 1987SOL    HW136455   3.711   1.641  12.273 -0.7069  1.2465 -1.5138
 1987SOL    HW236456   3.702   1.516  12.188  1.0825 -0.4318  0.6429
 1988SOL     OW36457   3.980   4.174   1.449 -0.2356  0.0967 -0.4089
 1988SOL    HW136458   4.061   4.209   1.412 -0.4092 -0.0650 -0.9593
 1988SOL    HW236459   3.919   4.247   1.447 -0.0044  0.3218  0.3460
 1989SOL     OW36460   0.503   4.586   1.618  0.2490 -0.2962  0.0466
 1989SOL    HW136461   0.431   4.586   1.555 -0.2618  0.3193  0.6219
 1989SOL    HW236462   0.545   4.500   1.607  0.2296 -0.1604 -1.1957
 1990SOL     OW36463   4.566   5.003   1.936  0.5638 -1.0208  0.3396
 1990SOL    HW136464   4.523   4.928   1.977 -1.4369  0.9653  2.2167
 1990SOL    HW236465   4.501   5.038   1.876  0.5352  0.4567  1.1774
 1991SOL     OW36466   5.529   3.674  12.442  0.4425  0.1208  0.4563
 1991SOL    HW136467   5.453   3.731  12.455 -0.0856 -0.1095 -1.4196
 1991SOL    HW236468   5.583   3.688  12.520 -1.1823  0.8052  1.5051
 1992SOL     OW36469   6.329   2.894  12.670  0.7853  0.1142 -0.4796
 1992SOL    HW136470   6.280   2.817  12.644  0.0582  0.8366 -1.3008
 1992SOL    HW236471   6.406   2.894  12.613  0.1190  0.6959 -1.4056
 1993SOL     OW36472   4.669   0.463  11.517 -0.5494  0.1757  0.2959
 1993SOL    HW136473   4.697   0.506  11.597  0.5791 -0.6679  0.3822
 1993SOL    HW236474   4.673   0.532  11.450  0.6380  0.3841  0.5459
 1994SOL     OW36475   6.191   4.634  12.385  0.1304 -0.1769 -0.2362
 1994SOL    HW136476   6.211   4.704  12.448  0.5929 -0.7783  0.3019
 1994SOL    HW236477   6.175   4.680  12.303 -0.6379  0.6414  0.3493
 1995SOL     OW36478   0.289   3.492   1.146  0.3841 -0.1539 -0.0767
 1995SOL    HW136479   0.313   3.402   1.127  0.8903 -0.4456  1.6839
 1995SOL    HW236480   0.369   3.543   1.129 -0.0986  0.1059 -1.7373
 1996SOL     OW36481   4.677   5.679   0.396 -0.4672 -0.2375 -0.5616
 1996SOL    HW136482   4.704   5.771   0.397 -0.5734 -0.1978 -0.9745
 1996SOL    HW236483   4.670   5.657   0.303  1.6214 -1.2664 -0.5362
 1997SOL     OW36484   3.845   1.978   1.575 -0.0743 -0.1299 -0.5121
 1997SOL    HW136485   3.874   1.900   1.621 -0.6417 -0.8578 -1.3484
 1997SOL    HW236486   3.865   2.050   1.634  0.3544 -0.9168  0.3212
 1998SOL     OW36487   5.976   1.145  12.609 -0.2266  0.4580  0.1881
 1998SOL    HW136488   5.904   1.199  12.578 -1.3988 -0.8697  0.4816
 1998SOL    HW236489   5.934   1.064  12.640  1.3446 -0.1785  0.7753
 1999SOL     OW36490   1.576   6.042   0.338  0.2740 -0.2120 -0.0243
 1999SOL    HW136491   1.659   6.056   0.293  0.5034 -2.3795 -0.4134
 1999SOL    HW236492   1.519   6.112   0.306  1.8024  1.0830 -0.0547
 2000SOL     OW36493   4.733   2.105  12.755  0.5104  0.0316  0.2972
 2000SOL    HW136494   4.747   2.172  12.688  0.7787 -2.1984 -2.0399
 2000SOL    HW236495   4.818   2.060  12.762 -0.4568 -2.1062 -0.6640
 2001SOL     OW36496   5.423   1.187   1.736 -0.0057 -0.2027  0.8558
 2001SOL    HW136497   5.338   1.228   1.752  0.8209  3.1167 -2.0516
 2001SOL    HW236498   5.477   1.215   1.809 -0.5332  0.5485  0.9689
 2002SOL     OW36499   3.743   0.266   1.060  0.2864 -0.0415  0.3521
 2002SOL    HW136500   3.803   0.232   0.993  0.3220  0.7719 -0.0322
 2002SOL    HW236501   3.772   0.356   1.075 -1.3717  0.6740 -0.4905
 2003SOL     OW36502   1.788   5.734   0.654  0.6835  0.0758  0.2433
 2003SOL    HW136503   1.778   5.796   0.727 -1.1498  0.1640 -0.0348
 2003SOL    HW236504   1.820   5.788   0.582  0.4599  0.4196  0.3942
 2004SOL     OW36505   2.924   5.229   1.725  0.3625 -0.2181  0.3511
 2004SOL    HW136506   2.962   5.226   1.813  2.2545 -0.2559 -0.4288
 2004SOL    HW236507   2.982   5.287   1.676 -0.9186  0.1528 -0.7691
 2005SOL     OW36508   1.453   2.918   0.787 -0.5958 -0.4516  0.2199
 2005SOL    HW136509   1.434   3.000   0.741 -0.2430 -1.3935 -1.7004
 2005SOL    HW236510   1.398   2.921   0.865 -1.0256  1.3484 -0.1154
 2006SOL     OW36511   0.074   2.305  11.175 -0.2212 -0.2467 -0.1186
 2006SOL    HW136512   0.116   2.331  11.093 -1.0144  0.6129 -0.2627
 2006SOL    HW236513   0.122   2.227  11.203  0.2388 -0.3781 -1.2501
 2007SOL     OW36514   1.735   5.255  11.269 -0.1616  0.3944 -0.1894
 2007SOL    HW136515   1.758   5.304  11.348  1.1339  1.4543 -1.1867
 2007SOL    HW236516   1.778   5.170  11.280  0.5367  0.7599 -0.0237
 2008SOL     OW36517   0.297   2.847  12.534  0.0192 -0.7283 -0.0990
 2008SOL    HW136518   0.370   2.795  12.566 -0.4402 -0.9910  0.5347
 2008SOL    HW236519   0.308   2.933  12.576 -0.5540 -1.0567  0.7389
 2009SOL     OW36520   3.981   6.255   0.101 -0.3069 -0.4773  0.2318
 2009SOL    HW136521   4.010   6.173   0.061  1.8717  0.1414  0.4391
 2009SOL    HW236522   3.987   6.239   0.196  1.5767  0.3480  0.2877
 2010SOL     OW36523   2.527   0.909  11.745  0.4172 -0.1003  0.3408
 2010SOL    HW136524   2.485   0.959  11.815  0.4620  1.2136 -0.5372
 2010SOL    HW236525   2.569   0.836  11.790  0.1962  0.5450  1.6433
 2011SOL     OW36526   0.909   6.322   0.353  0.3591 -0.3843  0.1892
 2011SOL    HW136527   0.865   6.294   0.273  1.1568 -0.8134 -0.1135
 2011SOL    HW236528   0.991   6.361   0.323  0.7431 -0.6921  0.7978
 2012SOL     OW36529   2.106   2.190  12.813 -0.2443 -0.6276  0.2967
 2012SOL    HW136530   2.142   2.255  12.753 -0.7109 -0.5868  0.0593
 2012SOL    HW236531   2.138   2.106  12.780  0.1229 -0.5468  0.4388
 2013SOL     OW36532   5.703   5.990   0.728 -0.2615  0.4157  0.7697
 2013SOL    HW136533   5.631   6.021   0.672  0.3358 -0.5018 -0.5530
 2013SOL    HW236534   5.739   6.070   0.767 -0.4989  1.1259 -0.4090
 2014SOL     OW36535   4.968   5.649  11.584 -0.1024  0.6556 -0.2947
 2014SOL    HW136536   5.061   5.652  11.605  0.3822 -1.8059 -1.6703
 2014SOL    HW236537   4.965   5.638  11.489 -1.7911  0.6879 -0.2732
 2015SOL     OW36538   4.714   1.540  12.402 -0.3326 -0.5334 -0.2811
 2015SOL    HW136539   4.668   1.456  12.405 -0.6058 -0.3960 -0.5508
 2015SOL    HW236540   4.740   1.549  12.310 -0.3108 -0.3206 -0.2544
 2016SOL     OW36541   4.269   4.846  12.530  0.4795  0.4610  0.1450
 2016SOL    HW136542   4.182   4.814  12.555  0.3882 -0.2784 -1.0578
 2016SOL    HW236543   4.322   4.832  12.609 -0.1022 -0.6208  0.3695
 2017SOL     OW36544   1.566   0.752   0.121  0.7910  0.1912  0.2544
 2017SOL    HW136545   1.495   0.708   0.074  0.2725  3.0826 -1.9141
 2017SOL    HW236546   1.529   0.771   0.207 -0.0102 -0.8562  0.1634
 2018SOL     OW36547   5.328   4.027   0.708 -0.1198  0.6170  0.4098
 2018SOL    HW136548   5.335   4.091   0.779 -0.4081 -0.3266  1.3255
 2018SOL    HW236549   5.401   3.967   0.723 -0.8106 -0.2067  0.5637
 2019SOL     OW36550   4.440   5.627   1.676  0.3593 -0.3005  0.8459
 2019SOL    HW136551   4.434   5.683   1.754  1.4422 -1.2070  1.6135
 2019SOL    HW236552   4.530   5.637   1.647 -0.2887  0.8251 -0.9530
 2020SOL     OW36553   2.707   6.098  12.073 -0.1258 -0.3632  0.3129
 2020SOL    HW136554   2.706   6.033  12.002  1.1480 -0.3450  0.2615
 2020SOL    HW236555   2.776   6.068  12.132  0.3289  0.8058  0.4025
 2021SOL     OW36556   0.559   5.232   1.309  0.3639 -0.3451 -0.5942
 2021SOL    HW136557   0.587   5.157   1.258 -4.2305 -2.4900 -0.4414
 2021SOL    HW236558   0.499   5.196   1.374 -1.2334  3.3237  0.2257
 2022SOL     OW36559   0.170   1.596   1.260 -0.3082 -0.8454  0.7542
 2022SOL    HW136560   0.131   1.682   1.275  0.2988 -0.6622  1.3498
 2022SOL    HW236561   0.106   1.534   1.294 -0.1910 -0.5594  1.5254
 2023SOL     OW36562   0.823   2.928   1.156 -0.2715 -0.1903 -0.4163
 2023SOL    HW136563   0.877   2.936   1.078 -1.4896 -1.8203 -1.4897
 2023SOL    HW236564   0.739   2.966   1.131 -0.5353 -0.3141  0.2681
 2024SOL     OW36565   1.485   0.094  12.180  0.5121 -0.6618 -0.9791
 2024SOL    HW136566   1.527   0.106  12.095 -1.2315  0.8070 -1.6891
 2024SOL    HW236567   1.520   0.164  12.234 -0.3465  0.0559 -1.3250
 2025SOL     OW36568   4.969   2.878   1.630 -0.1757  0.3975 -0.0381
 2025SOL    HW136569   4.876   2.866   1.652  0.2282 -0.6393  1.2724
 2025SOL    HW236570   4.999   2.789   1.609  0.5297  0.7240 -0.4070
 2026SOL     OW36571   5.184   1.354  11.079  0.7802 -0.7910  0.0016
 2026SOL    HW136572   5.276   1.351  11.104  0.9200 -1.5079 -0.5408
 2026SOL    HW236573   5.175   1.433  11.026  0.5879  0.4746  1.8480
 2027SOL     OW36574   4.215   4.857  11.831  0.6463  0.0689 -0.2540
 2027SOL    HW136575   4.141   4.799  11.852  0.6028  0.8753  2.1310
 2027SOL    HW236576   4.198   4.936  11.882  2.5854  0.7413 -0.5738
 2028SOL     OW36577   5.867   0.021   0.920  0.4234 -0.2009 -0.0988
 2028SOL    HW136578   5.949   0.067   0.897  0.6038 -0.3249  0.2797
 2028SOL    HW236579   5.814   0.088   0.963  0.1876 -0.0346 -0.6364
 2029SOL     OW36580   0.412   4.731   0.771  0.2043 -0.1489 -0.6610
 2029SOL    HW136581   0.326   4.734   0.730  0.3170 -1.0258 -0.9915
 2029SOL    HW236582   0.473   4.713   0.699  0.7604  1.1486 -0.5418
 2030SOL     OW36583   0.684   5.484  11.843  0.0121  0.3161 -0.2980
 2030SOL    HW136584   0.619   5.554  11.854  1.1492  1.3320  0.2984
 2030SOL    HW236585   0.706   5.459  11.933  1.4623  1.0026 -0.4306
 2031SOL     OW36586   3.088   2.600  12.208 -0.1347 -0.4554  0.2396
 2031SOL    HW136587   3.101   2.530  12.272  1.1104 -2.0679 -1.6454
 2031SOL    HW236588   3.151   2.667  12.233 -0.6410 -0.4252  1.4955
 2032SOL     OW36589   0.764   0.089   0.457 -0.0416  0.4323 -0.0354
 2032SOL    HW136590   0.679   0.051   0.480 -0.1900  0.4157 -0.6035
 2032SOL    HW236591   0.813   0.017   0.417 -0.6200  0.9972 -1.8833
 2033SOL     OW36592   2.051   1.095   0.623 -0.4834  0.5663  0.4860
 2033SOL    HW136593   1.985   1.146   0.575 -0.9446 -0.9445 -0.5569
 2033SOL    HW236594   2.116   1.071   0.556 -0.8231 -1.0766  0.7087
 2034SOL     OW36595   5.807   2.717   0.653 -0.2929 -0.0740  0.4644
 2034SOL    HW136596   5.851   2.743   0.572 -0.8349 -0.9497 -0.1244
 2034SOL    HW236597   5.786   2.800   0.696 -0.8774  0.4512 -0.7629
 2035SOL     OW36598   5.395   4.179  10.990 -0.2932 -0.1455 -0.7377
 2035SOL    HW136599   5.318   4.235  10.990  0.4347  0.8801 -1.2163
 2035SOL    HW236600   5.388   4.128  11.071 -0.6847  1.0273 -0.0154
 2036SOL     OW36601   5.235   5.059   1.618 -0.3208 -0.6905  0.1888
 2036SOL    HW136602   5.315   5.009   1.604  0.1078 -0.2932  1.1624
 2036SOL    HW236603   5.236   5.125   1.548 -0.0065 -0.9282 -0.0352
 2037SOL     OW36604   4.178   5.924   0.730  0.5124 -0.6165  0.1943
 2037SOL    HW136605   4.247   5.894   0.671 -0.6711 -1.7135 -0.6667
 2037SOL    HW236606   4.178   5.860   0.801  0.0698 -0.8938 -0.0523
 2038SOL     OW36607   0.540   1.577  12.772  0.6312  0.3685 -0.3483
 2038SOL    HW136608   0.569   1.486  12.786 -0.3379  0.0172 -0.5315
 2038SOL    HW236609   0.596   1.629  12.829  0.2874 -0.4943  0.8181
 2039SOL     OW36610   4.624   6.125  12.353  0.6352 -0.1339  0.3593
 2039SOL    HW136611   4.571   6.072  12.412  0.7882 -0.8520 -0.1392
 2039SOL    HW236612   4.623   6.077  12.270 -0.1171  1.1770 -0.4285
 2040SOL     OW36613   2.326   1.888  12.732 -0.2011 -0.2134 -0.7335
 2040SOL    HW136614   2.373   1.938  12.666 -0.7108  1.3487  0.0305
 2040SOL    HW236615   2.338   1.796  12.707  0.2915  0.3087 -2.5039
 2041SOL     OW36616   1.289   3.114  11.551 -0.2402  0.2064 -0.9646
 2041SOL    HW136617   1.373   3.079  11.522 -1.1997 -2.1639 -1.1171
 2041SOL    HW236618   1.267   3.061  11.628 -0.3517  2.6555  0.8177
 2042SOL     OW36619   0.706   3.170  11.214 -0.2294 -0.0863 -0.0824
 2042SOL    HW136620   0.780   3.110  11.227  0.0583 -0.0601 -1.4712
 2042SOL    HW236621   0.746   3.255  11.200 -0.6166  0.3251  1.1454
 2043SOL     OW36622   2.485   6.312  12.400  0.5760 -0.0079  0.1002
 2043SOL    HW136623   2.549   6.383  12.402 -0.3199  0.8049  1.2737
 2043SOL    HW236624   2.533   6.238  12.363  1.8213  0.9203 -0.2273
 2044SOL     OW36625   5.336   0.252  11.368 -0.1522  0.5295  0.2752
 2044SOL    HW136626   5.406   0.261  11.433 -0.2232  0.3933  0.3718
 2044SOL    HW236627   5.377   0.277  11.285  0.3972 -0.8495  0.0998
 2045SOL     OW36628   4.257   2.545   0.027  0.1844 -0.2429 -0.2995
 2045SOL    HW136629   4.229   2.586  -0.054  0.7416  0.2228 -0.2597
 2045SOL    HW236630   4.285   2.457   0.002  1.0465  0.1481 -0.7307
 2046SOL     OW36631   4.138   0.806  11.727 -0.2281 -0.5298 -0.2128
 2046SOL    HW136632   4.149   0.746  11.654 -0.3521 -0.9227  0.0870
 2046SOL    HW236633   4.064   0.771  11.777 -0.9383  0.4311 -0.5765
 2047SOL     OW36634   5.071   5.512   1.465 -0.3815 -0.3005  0.5785
 2047SOL    HW136635   5.122   5.593   1.475  1.2933 -1.1338 -0.6127
 2047SOL    HW236636   4.995   5.524   1.522  0.2349  1.7630  1.0569
 2048SOL     OW36637   6.352   3.620  12.810  0.1188 -0.3681 -0.5907
 2048SOL    HW136638   6.406   3.541  12.816 -0.9900 -1.0833  0.3927
 2048SOL    HW236639   6.414   3.691  12.796  1.1132 -1.4614 -2.0465
 2049SOL     OW36640   5.260   2.498  12.575  0.7415  0.2961 -0.2928
 2049SOL    HW136641   5.316   2.574  12.557  0.8982 -0.2023 -2.1373
 2049SOL    HW236642   5.320   2.432  12.609  0.8619  0.5274 -0.0516
 2050SOL     OW36643   1.556   3.515  12.777 -0.0351 -0.8994  0.3541
 2050SOL    HW136644   1.499   3.483  12.706  2.1472  0.0295 -1.9545
 2050SOL    HW236645   1.500   3.514  12.855 -2.2798 -2.9150 -1.1441
 2051SOL     OW36646   6.429   3.078   1.745  0.6149  0.1085  0.6226
 2051SOL    HW136647   6.437   3.146   1.677  2.0448 -0.5646  0.0629
 2051SOL    HW236648   6.509   3.087   1.797  1.1564 -1.5275  0.1448
 2052SOL     OW36649   5.995   1.396   1.083  0.4624  0.3743  0.8803
 2052SOL    HW136650   5.934   1.418   1.013 -0.5041 -2.5071  0.6706
 2052SOL    HW236651   5.944   1.406   1.163  0.7871  1.2540  0.9795
 2053SOL     OW36652   5.276   2.862   0.236  0.1291  0.1238 -0.0296
 2053SOL    HW136653   5.335   2.935   0.222  0.5170  0.0908  1.2735
 2053SOL    HW236654   5.249   2.835   0.148  2.6151 -0.3405 -0.7217
 2054SOL     OW36655   2.305   5.014   1.429 -0.5594 -0.0558  0.4588
 2054SOL    HW136656   2.398   4.999   1.415 -0.5791 -0.1363  0.4123
 2054SOL    HW236657   2.274   4.934   1.471 -0.9640 -0.7803 -1.1362
 2055SOL     OW36658   1.068   0.079   0.194  0.1148  0.7774  0.6849
 2055SOL    HW136659   1.163   0.091   0.197 -0.0042  1.7126  0.8586
 2055SOL    HW236660   1.037   0.143   0.130 -0.1186 -1.5264 -1.6581
 2056SOL     OW36661   6.369   0.524   1.154 -0.2808 -0.1266 -0.2033
 2056SOL    HW136662   6.381   0.543   1.061  1.3477 -0.2772 -0.0548
 2056SOL    HW236663   6.330   0.604   1.189 -0.9673 -0.0901 -1.0180
 2057SOL     OW36664   3.273   2.227   0.986  0.3349  0.0937 -0.0978
 2057SOL    HW136665   3.294   2.268   0.902  2.1797 -0.7354 -0.0754
 2057SOL    HW236666   3.357   2.198   1.021 -0.5634 -0.9138  1.3526
 2058SOL     OW36667   0.308   2.919  12.044  0.2320  0.5045  0.3788
 2058SOL    HW136668   0.260   2.883  11.970 -0.7718  0.6136  0.9537
 2058SOL    HW236669   0.401   2.912  12.019 -0.0820  0.5352 -0.8684
 2059SOL     OW36670   4.105   4.309   0.651 -0.0662  0.5002  0.0407
 2059SOL    HW136671   4.061   4.226   0.635 -0.1281  0.5563 -0.0827
 2059SOL    HW236672   4.091   4.327   0.744 -1.1136  0.9839 -0.2009
 2060SOL     OW36673   0.116   5.720   0.422 -0.1215 -0.0156  0.3969
 2060SOL    HW136674   0.116   5.652   0.490 -0.2458 -0.0452  0.3676
 2060SOL    HW236675   0.109   5.802   0.471  1.4023  0.0635  0.5188
 2061SOL     OW36676   6.295   4.789  12.590 -0.0794 -0.6291 -0.2586
 2061SOL    HW136677   6.276   4.834  12.672  1.1260  0.1526 -0.3845
 2061SOL    HW236678   6.352   4.716  12.616 -0.4138 -0.9050 -0.2965
 2062SOL     OW36679   6.237   5.209   0.430 -0.6075 -0.5936  1.2844
 2062SOL    HW136680   6.255   5.160   0.511  0.0504 -0.3295  1.2994
 2062SOL    HW236681   6.172   5.156   0.384 -0.8606 -0.8326  1.9072
 2063SOL     OW36682   1.302   5.536  12.261  0.3106  0.0956  0.2055
 2063SOL    HW136683   1.216   5.575  12.247  0.2447 -0.3620 -0.7746
 2063SOL    HW236684   1.316   5.540  12.355 -0.9709 -0.2165  0.4248
 2064SOL     OW36685   1.719   2.094  11.860  0.0200  0.1727 -0.5554
 2064SOL    HW136686   1.788   2.089  11.927  1.0648 -0.7927 -1.6496
 2064SOL    HW236687   1.647   2.141  11.903  0.0660 -1.6711  1.7276
 2065SOL     OW36688   4.828   3.309  11.128  0.2928 -0.0089 -0.1906
 2065SOL    HW136689   4.765   3.239  11.112 -2.6506  2.2393  0.7000
 2065SOL    HW236690   4.851   3.342  11.041  1.9357 -2.1277 -0.6394
 2066SOL     OW36691   1.446   5.454   1.618 -0.2335  0.0769  0.4460
 2066SOL    HW136692   1.476   5.502   1.541  1.4702 -0.7558  0.5514
 2066SOL    HW236693   1.367   5.500   1.645  0.2070  1.5616 -0.6609
 2067SOL     OW36694   2.238   4.577  11.321 -0.2730 -0.2457  0.4088
 2067SOL    HW136695   2.275   4.631  11.390  0.2166  2.1819 -1.6120
 2067SOL    HW236696   2.312   4.555  11.265 -0.2667 -3.9239  1.5636
 2068SOL     OW36697   1.331   5.099  10.919  0.2115 -0.4552  0.2726
 2068SOL    HW136698   1.334   5.158  10.843 -1.1594  1.6984  1.7895
 2068SOL    HW236699   1.411   5.117  10.967 -0.4164  0.5467  0.9690
 2069SOL     OW36700   5.168   3.538   0.359  0.0996  0.5982  0.2052
 2069SOL    HW136701   5.089   3.593   0.355  0.7207  1.4766 -0.2540
 2069SOL    HW236702   5.165   3.485   0.279 -0.3967  0.0834  0.5523
 2070SOL     OW36703   4.714   0.853  12.648  0.2291  0.1878  0.5031
 2070SOL    HW136704   4.726   0.855  12.553  1.2381 -2.9985  0.4354
 2070SOL    HW236705   4.803   0.859  12.683  0.0460 -0.4781  1.1188
 2071SOL     OW36706   4.829   3.027  10.491 -0.3637  0.7068  0.5140
 2071SOL    HW136707   4.901   2.980  10.534  0.1845  1.7795  0.7850
 2071SOL    HW236708   4.868   3.063  10.411 -0.8346  0.5509  0.2062
 2072SOL     OW36709   4.893   5.105  12.327 -0.3874 -0.5480 -0.0733
 2072SOL    HW136710   4.799   5.090  12.316 -0.4088 -1.8988  1.5540
 2072SOL    HW236711   4.934   5.024  12.298  0.4225  0.4026 -1.7894
 2073SOL     OW36712   5.608   1.863   1.589  0.2551 -0.5720  0.1381
 2073SOL    HW136713   5.586   1.815   1.509 -0.5063  1.5797 -1.0395
 2073SOL    HW236714   5.702   1.880   1.581  0.2501 -0.6720 -0.1451
 2074SOL     OW36715   2.272   4.041  11.508  0.7418 -0.4100 -1.0570
 2074SOL    HW136716   2.252   3.961  11.460 -0.7152 -0.9588  0.3791
 2074SOL    HW236717   2.237   4.111  11.453 -0.3271 -0.9794 -1.1262
 2075SOL     OW36718   0.229   5.017   1.766 -0.4067 -0.1346  0.3200
 2075SOL    HW136719   0.292   5.089   1.757 -1.8669  1.1743 -0.0691
 2075SOL    HW236720   0.273   4.953   1.821  0.3101  1.8769  2.2593
 2076SOL     OW36721   4.584   3.984   1.057  0.2813 -0.2758 -0.4910
 2076SOL    HW136722   4.533   3.967   1.136 -0.9041  1.2848 -0.8715
 2076SOL    HW236723   4.531   3.949   0.986  0.5916 -0.2508 -0.7385
 2077SOL     OW36724   4.266   2.114   1.430  0.0028  0.5229 -0.2585
 2077SOL    HW136725   4.267   2.208   1.449  3.3670  0.2446  1.7034
 2077SOL    HW236726   4.340   2.101   1.370 -0.1444 -0.9375 -0.1577
 2078SOL     OW36727   4.040   4.175  12.172 -0.1245 -0.0733 -0.1078
 2078SOL    HW136728   3.950   4.151  12.193 -0.8152  1.1750 -1.4907
 2078SOL    HW236729   4.032   4.251  12.115  1.7976 -0.2013 -0.6098
 2079SOL     OW36730   2.641   4.215   1.263  0.3373  0.3104 -0.1045
 2079SOL    HW136731   2.583   4.283   1.230  0.2014 -0.0214 -0.5577
 2079SOL    HW236732   2.613   4.135   1.218  1.4246  0.2259 -0.6819
 2080SOL     OW36733   3.483   0.254  12.002 -0.5201  0.8527  0.6264
 2080SOL    HW136734   3.445   0.337  11.973 -0.6091  1.0935  1.4131
 2080SOL    HW236735   3.477   0.197  11.925  0.4844  1.8770 -0.2400
 2081SOL     OW36736   4.211   1.338   0.306  0.1434 -0.0015  0.3100
 2081SOL    HW136737   4.137   1.381   0.264  0.0167 -1.0234 -0.5383
 2081SOL    HW236738   4.285   1.396   0.287  0.1554 -0.5864 -1.6514
 2082SOL     OW36739   4.065   6.151   0.651 -0.4457 -0.2278 -0.8793
 2082SOL    HW136740   4.095   6.069   0.691 -0.1382  0.2122 -0.1733
 2082SOL    HW236741   3.970   6.145   0.655 -0.4411 -0.9166 -1.6130
 2083SOL     OW36742   5.066   5.438   1.209 -0.5035 -1.0440 -0.0443
 2083SOL    HW136743   5.067   5.463   1.301  0.9527  0.3464 -0.3890
 2083SOL    HW236744   5.125   5.362   1.204  0.2745 -0.4579  0.0314
 2084SOL     OW36745   4.893   3.448   1.257 -0.5968  0.2408 -0.0327
 2084SOL    HW136746   4.815   3.408   1.217  0.6735 -1.4234 -0.9470
 2084SOL    HW236747   4.963   3.431   1.194  0.6293  1.2016  1.0452
 2085SOL     OW36748   0.667   5.734   1.729 -0.3383  1.0377 -0.0953
 2085SOL    HW136749   0.591   5.793   1.726 -0.4165  0.9361 -0.1277
 2085SOL    HW236750   0.725   5.773   1.795 -0.6450  0.8476  0.2941
 2086SOL     OW36751   4.267   5.463  11.526  0.0435 -0.4915 -0.5167
 2086SOL    HW136752   4.310   5.378  11.538  1.5300  0.1336 -1.2247
 2086SOL    HW236753   4.316   5.523  11.583  0.2212  0.2653 -1.4413
 2087SOL     OW36754   1.063   4.678   1.668 -0.1374 -0.2162 -0.1712
 2087SOL    HW136755   1.048   4.584   1.679  0.9372 -0.3403  0.3796
 2087SOL    HW236756   0.984   4.719   1.704 -0.5215 -0.8990 -0.2176
 2088SOL     OW36757   6.187   4.884  12.256 -0.3669 -0.0407  0.4504
 2088SOL    HW136758   6.114   4.925  12.303 -1.7697 -0.3502 -1.3328
 2088SOL    HW236759   6.147   4.848  12.177  1.5769 -1.1084 -0.1104
 2089SOL     OW36760   3.675   2.755   0.365 -0.2604 -0.2899  0.0687
 2089SOL    HW136761   3.743   2.692   0.341 -0.8018 -0.2847 -1.6673
 2089SOL    HW236762   3.690   2.830   0.307 -1.5018 -0.1351 -0.0874
 2090SOL     OW36763   4.249   2.706   0.544  0.1993 -0.2910 -0.2640
 2090SOL    HW136764   4.158   2.732   0.531 -0.2999 -2.4256 -1.4498
 2090SOL    HW236765   4.250   2.612   0.525  2.2727 -0.7431  1.6417
 2091SOL     OW36766   2.445   0.309   0.583 -0.2332 -0.4034  0.2351
 2091SOL    HW136767   2.467   0.222   0.618  1.2627 -0.7359 -1.4167
 2091SOL    HW236768   2.428   0.294   0.490  0.1437  1.0933 -0.1007
 2092SOL     OW36769   5.989   2.270   1.216 -0.3744  0.2744 -0.1787
 2092SOL    HW136770   5.978   2.243   1.125 -1.4602  1.3142 -0.3866
 2092SOL    HW236771   5.930   2.345   1.226 -1.2516 -0.6030  1.7406
 2093SOL     OW36772   3.948   4.233  11.393 -0.0781  0.0295  0.1239
 2093SOL    HW136773   3.987   4.312  11.355  0.5820  0.1686  1.0609
 2093SOL    HW236774   3.989   4.226  11.479 -2.1382  0.1819  1.1559
 2094SOL     OW36775   4.539   6.152  11.148  0.1841  0.1011 -0.8215
 2094SOL    HW136776   4.481   6.142  11.224  1.4007  0.0188  0.1249
 2094SOL    HW236777   4.514   6.236  11.110 -1.7358 -0.7226 -1.4890
 2095SOL     OW36778   5.317   2.573   0.956  0.4621  0.5983  0.2535
 2095SOL    HW136779   5.252   2.527   1.008 -0.1610  1.4313  0.2309
 2095SOL    HW236780   5.355   2.506   0.900 -0.3364  0.0903  0.3088
 2096SOL     OW36781   0.210   4.945   1.001  0.0864 -0.0367 -0.0714
 2096SOL    HW136782   0.305   4.953   1.009  0.3596 -1.9541 -0.7599
 2096SOL    HW236783   0.195   4.925   0.908 -1.3027  3.1621 -0.6671
 2097SOL     OW36784   2.646   4.907  12.226 -0.3866  0.5864  0.1482
 2097SOL    HW136785   2.570   4.899  12.284 -2.0466  0.9710 -1.8515
 2097SOL    HW236786   2.634   4.991  12.182 -0.7255 -0.8266 -2.7002
 2098SOL     OW36787   1.650   1.610  11.542  0.6767 -0.3341  0.9839
 2098SOL    HW136788   1.634   1.519  11.518  0.0741  0.0219 -0.0239
 2098SOL    HW236789   1.563   1.651  11.543  1.1141  0.8316 -1.2165
 2099SOL     OW36790   1.950   1.080  12.807 -0.6647 -0.2932 -0.0936
 2099SOL    HW136791   1.882   1.050  12.867 -0.2142 -1.0070  0.0754
 2099SOL    HW236792   1.910   1.071  12.720 -0.2987 -2.1587 -0.1165
 2100SOL     OW36793   5.803   2.710   1.541  0.0818 -0.0122  0.0931
 2100SOL    HW136794   5.759   2.708   1.626 -0.1073  1.1074  0.0392
 2100SOL    HW236795   5.742   2.757   1.484  1.1226  1.1261 -0.1146
 2101SOL     OW36796   2.787   2.411   0.524  0.3246  0.2003 -0.5831
 2101SOL    HW136797   2.800   2.468   0.447 -1.9509  0.3305 -0.9399
 2101SOL    HW236798   2.841   2.334   0.506  1.8117  1.3073 -1.0879
 2102SOL     OW36799   5.949   3.627  12.193 -0.3616  0.2576  0.1597
 2102SOL    HW136800   5.949   3.601  12.285  2.6072  0.1653  0.2327
 2102SOL    HW236801   5.879   3.692  12.186 -1.1762 -0.3146  2.2831
 2103SOL     OW36802   0.375   0.799   0.619  0.2410  0.1665 -0.1177
 2103SOL    HW136803   0.380   0.799   0.715 -0.4280  1.5361 -0.0455
 2103SOL    HW236804   0.281   0.799   0.600  0.3396  1.4160 -0.7227
 2104SOL     OW36805   4.718   5.488   0.589 -0.0681 -0.4912 -0.4873
 2104SOL    HW136806   4.627   5.472   0.611 -0.3442  2.2628  0.7625
 2104SOL    HW236807   4.715   5.535   0.506  0.2830 -0.9573 -0.7728
 2105SOL     OW36808   4.018   2.302  12.335  0.0326 -0.5432 -0.9392
 2105SOL    HW136809   4.031   2.387  12.293 -1.8021  1.2721  1.8702
 2105SOL    HW236810   4.096   2.289  12.388 -0.1778 -0.0629 -0.5106
 2106SOL     OW36811   1.265   4.434  12.334 -0.4546 -0.2199  0.1373
 2106SOL    HW136812   1.193   4.495  12.320  0.2504  0.6748  0.2673
 2106SOL    HW236813   1.290   4.448  12.426 -0.6992 -1.1739  0.3562
 2107SOL     OW36814   1.955   5.290  12.706  0.1027  0.3435  0.0492
 2107SOL    HW136815   1.926   5.249  12.624 -0.3668  1.6634 -0.4801
 2107SOL    HW236816   2.041   5.252  12.723  0.2240  0.0706 -1.0862
 2108SOL     OW36817   3.337   5.416  12.147  0.1213 -0.3571  0.4225
 2108SOL    HW136818   3.334   5.378  12.235 -2.1279  0.1099  0.6037
 2108SOL    HW236819   3.247   5.442  12.129  0.3848 -1.0417 -2.3087
 2109SOL     OW36820   4.959   1.941   1.128 -0.0776  0.0635  0.2662
 2109SOL    HW136821   5.001   1.976   1.049  1.4673 -1.9516  0.0924
 2109SOL    HW236822   5.002   1.857   1.142  0.8542  0.9746  4.1464
 2110SOL     OW36823   5.369   3.580   1.482  0.1859 -0.2924 -0.6939
 2110SOL    HW136824   5.394   3.489   1.473 -1.0225 -0.6176 -0.9231
 2110SOL    HW236825   5.339   3.606   1.394 -0.4327  0.0094 -0.4045
 2111SOL     OW36826   1.369   5.216   1.364  0.1018 -0.6586  0.3068
 2111SOL    HW136827   1.388   5.182   1.452 -1.4051 -0.2538  0.8292
 2111SOL    HW236828   1.363   5.311   1.376 -0.0251 -0.5951 -0.2411
 2112SOL     OW36829   4.898   2.229  11.362  0.3268  0.6431  0.3751
 2112SOL    HW136830   4.928   2.274  11.441  1.0387 -0.1627  0.5749
 2112SOL    HW236831   4.822   2.179  11.390 -0.9782  2.3108 -0.0244
 2113SOL     OW36832   5.741   3.347  11.989 -0.2409  0.7620 -0.1509
 2113SOL    HW136833   5.730   3.430  11.943 -0.9311 -0.1903 -1.8067
 2113SOL    HW236834   5.652   3.312  11.998  0.0942 -0.1330 -0.1645
 2114SOL     OW36835   4.228   5.600  11.194 -0.0774 -0.3648  0.5318
 2114SOL    HW136836   4.221   5.568  11.284  0.4815 -1.0200  0.3524
 2114SOL    HW236837   4.142   5.582  11.156 -0.9851  1.6521  1.4536
 2115SOL     OW36838   1.312   1.463  11.783  0.1238 -0.2054 -0.5123
 2115SOL    HW136839   1.300   1.409  11.705 -0.6455 -0.8155  0.0166
 2115SOL    HW236840   1.386   1.422  11.828 -1.9028 -2.3717  1.1069
 2116SOL     OW36841   2.399   1.637   0.181  0.3264  0.0156 -0.2341
 2116SOL    HW136842   2.348   1.577   0.127  0.7083  0.3965 -1.0401
 2116SOL    HW236843   2.483   1.593   0.194  0.0554 -0.2963  0.4821
 2117SOL     OW36844   0.818   4.638  12.466  0.3447  0.0192  0.0255
 2117SOL    HW136845   0.791   4.550  12.493  0.2570  0.1910  0.5119
 2117SOL    HW236846   0.752   4.664  12.402 -0.9109  0.5744  1.4610
 2118SOL     OW36847   4.017   4.469   0.297  0.1608  0.0516 -0.6230
 2118SOL    HW136848   3.952   4.538   0.307 -0.7013 -0.3537 -2.8005
 2118SOL    HW236849   4.028   4.461   0.202  3.7701  0.4243 -0.3978
 2119SOL     OW36850   2.591   6.038   0.545 -0.5242 -0.3958  0.2789
 2119SOL    HW136851   2.611   6.128   0.517  1.2015  0.1135  2.7751
 2119SOL    HW236852   2.676   5.995   0.549 -1.2614 -1.9471 -0.1468
 2120SOL     OW36853   1.362   6.174  11.302  0.2610  0.5238 -0.0861
 2120SOL    HW136854   1.415   6.162  11.381  1.3318  0.2071 -0.8373
 2120SOL    HW236855   1.322   6.089  11.286  0.7664  0.3401 -0.3886
 2121SOL     OW36856   0.548   4.601  11.715 -0.3706  0.5089  0.1170
 2121SOL    HW136857   0.538   4.518  11.668 -1.8806  0.7917 -0.0957
 2121SOL    HW236858   0.640   4.601  11.742 -0.5213 -1.6344  0.8671
 2122SOL     OW36859   3.363   3.937  12.326 -0.3475 -0.0190 -0.1420
 2122SOL    HW136860   3.418   3.887  12.386  3.0046  1.8180 -1.3952
 2122SOL    HW236861   3.303   3.873  12.289  1.1635 -2.2926  1.1000
 2123SOL     OW36862   5.591   6.412  11.669  0.0014  0.1368  0.0348
 2123SOL    HW136863   5.497   6.423  11.657 -0.3388 -3.3736 -1.8976
 2123SOL    HW236864   5.627   6.501  11.664 -2.8756  1.3387 -2.5860
 2124SOL     OW36865   4.418   2.082  11.594  0.4336 -0.7445  0.3844
 2124SOL    HW136866   4.323   2.095  11.601  0.5088 -1.1038  2.5785
 2124SOL    HW236867   4.433   2.067  11.501 -1.7788 -1.5550  0.1011
 2125SOL     OW36868   5.798   3.946  12.600 -0.1101 -0.2402  0.6140
 2125SOL    HW136869   5.840   4.013  12.655 -0.3131  1.1386 -0.8342
 2125SOL    HW236870   5.858   3.933  12.527 -1.9981  1.6641 -1.4300
 2126SOL     OW36871   4.033   5.058   0.162  0.0134  0.7066 -0.5457
 2126SOL    HW136872   4.075   4.976   0.136  1.6664  1.9232 -1.9596
 2126SOL    HW236873   3.959   5.031   0.216  1.3890 -1.6473  0.3301
 2127SOL     OW36874   5.588   3.169  11.712  0.0287  0.0514  0.5592
 2127SOL    HW136875   5.641   3.226  11.656  0.6426 -1.1917 -0.1580
 2127SOL    HW236876   5.648   3.100  11.740 -0.5861  0.0001  1.7985
 2128SOL     OW36877   5.820   4.592  11.315 -0.1630  0.8596  0.1164
 2128SOL    HW136878   5.903   4.640  11.319  1.0308 -1.0516 -0.3682
 2128SOL    HW236879   5.810   4.555  11.402 -0.5362  1.0880  0.1746
 2129SOL     OW36880   0.837   2.481  12.020 -0.1776  0.0234  0.0716
 2129SOL    HW136881   0.891   2.532  12.080 -1.2660  1.6366 -0.2551
 2129SOL    HW236882   0.795   2.415  12.075  1.3006 -0.5934  0.4960
 2130SOL     OW36883   5.628   0.132  12.446  0.1419  0.0959 -0.1904
 2130SOL    HW136884   5.688   0.071  12.488  0.4013 -1.3797 -2.5378
 2130SOL    HW236885   5.679   0.212  12.435  1.7368 -1.0864 -2.0177
 2131SOL     OW36886   6.273   2.574  11.310 -0.3998  0.0283  0.5364
 2131SOL    HW136887   6.320   2.652  11.341 -1.0096  0.9526 -0.7827
 2131SOL    HW236888   6.312   2.502  11.360  1.3676  0.9422  0.5796
 2132SOL     OW36889   2.456   5.823  12.274  0.4963  0.0035  0.3417
 2132SOL    HW136890   2.368   5.786  12.279  0.3492  0.0184 -1.6569
 2132SOL    HW236891   2.513   5.749  12.253  0.3961  0.5819 -2.2196
 2133SOL     OW36892   3.645   1.760   1.425 -0.0158 -0.6596  0.2286
 2133SOL    HW136893   3.666   1.808   1.344  0.1220  1.3467  1.3929
 2133SOL    HW236894   3.730   1.731   1.458 -0.1418 -2.2930 -0.7634
 2134SOL     OW36895   1.889   2.116  12.657  0.7355  0.3744  0.2193
 2134SOL    HW136896   1.882   2.204  12.619 -1.2131 -0.7173 -2.2603
 2134SOL    HW236897   1.954   2.072  12.603  0.7695 -0.0822  0.6287
 2135SOL     OW36898   1.101   3.899  12.633  0.1368 -0.0923 -0.6960
 2135SOL    HW136899   1.195   3.889  12.618  0.2285 -0.4573  0.0493
 2135SOL    HW236900   1.090   3.882  12.727 -0.6460  0.1486 -0.7344
 2136SOL     OW36901   1.999   0.229   1.616 -0.0101 -0.4722 -0.3339
 2136SOL    HW136902   2.090   0.231   1.646 -0.3920  0.7839  0.8677
 2136SOL    HW236903   2.000   0.277   1.533  0.1301  1.5257  0.7427
 2137SOL     OW36904   6.405   2.316  11.411 -0.2531 -0.3296 -0.2483
 2137SOL    HW136905   6.459   2.343  11.337 -2.2553 -0.9677 -2.0422
 2137SOL    HW236906   6.404   2.221  11.407  1.4813 -0.5370  2.0871
 2138SOL     OW36907   1.156   4.484  11.001 -0.3062 -0.2567  0.1215
 2138SOL    HW136908   1.198   4.535  10.932  0.2628 -2.7351 -1.5218
 2138SOL    HW236909   1.064   4.510  10.998 -0.0283  0.6873 -0.6116
 2139SOL     OW36910   1.564   3.476   1.603  0.2778 -1.2981  0.3068
 2139SOL    HW136911   1.542   3.460   1.694 -0.6815  0.2827  0.3905
 2139SOL    HW236912   1.492   3.530   1.570  2.3358  1.2497 -0.3567
 2140SOL     OW36913   0.604   3.719   0.776 -0.2945  0.4528 -0.7201
 2140SOL    HW136914   0.563   3.633   0.770  1.2429 -0.3378 -0.5013
 2140SOL    HW236915   0.665   3.721   0.702 -0.6356  1.5567 -0.9953
 2141SOL     OW36916   2.573   1.138   0.413 -0.0508 -0.0253 -0.1585
 2141SOL    HW136917   2.548   1.117   0.323  1.1534 -0.7875 -0.3442
 2141SOL    HW236918   2.669   1.137   0.412 -0.0035 -1.5641  1.4607
 2142SOL     OW36919   2.376   0.752  12.776 -0.1717  0.1520 -0.1454
 2142SOL    HW136920   2.430   0.738  12.853 -0.5610 -1.1413 -0.0762
 2142SOL    HW236921   2.302   0.805  12.807 -1.1246 -1.6139  0.7722
 2143SOL     OW36922   0.213   2.281   0.426 -0.2786  0.6963  0.9688
 2143SOL    HW136923   0.265   2.303   0.504 -0.0452  0.3641  0.9089
 2143SOL    HW236924   0.139   2.342   0.429  0.0781  1.1326  1.0886
 2144SOL     OW36925   0.497   2.601  11.630 -0.2635  0.3546 -0.4261
 2144SOL    HW136926   0.571   2.581  11.688 -0.0644  0.4327 -0.6527
 2144SOL    HW236927   0.465   2.685  11.661 -1.0019 -0.2101  0.4257
 2145SOL     OW36928   3.794   5.326  12.316 -0.3509 -0.2859 -0.1597
 2145SOL    HW136929   3.740   5.263  12.269  0.1903 -0.7181 -0.2120
 2145SOL    HW236930   3.877   5.326  12.268 -0.8832  1.7206 -1.2105
 2146SOL     OW36931   3.179   5.328   1.137  0.4285 -0.0555  0.3551
 2146SOL    HW136932   3.216   5.403   1.089  1.2139 -0.6177  0.0656
 2146SOL    HW236933   3.153   5.267   1.068 -0.7557  0.1734  0.5649
 2147SOL     OW36934   3.961   0.411   1.210  0.0142 -0.0474  0.1470
 2147SOL    HW136935   3.963   0.366   1.295  0.7559  0.0268  0.1777
 2147SOL    HW236936   3.908   0.489   1.226  0.5565  0.2226  0.6836
 2148SOL     OW36937   3.285   4.637   1.013 -0.0146  0.0015  0.3379
 2148SOL    HW136938   3.342   4.618   1.088  0.5601 -0.7338 -0.2710
 2148SOL    HW236939   3.244   4.553   0.992 -2.7256  0.8141  1.8476
 2149SOL     OW36940   1.800   0.267   1.043 -0.0638 -0.2470 -0.2656
 2149SOL    HW136941   1.894   0.247   1.041 -0.0587 -0.1792 -0.8245
 2149SOL    HW236942   1.775   0.252   1.134  0.5299 -0.0861 -0.0682
 2150SOL     OW36943   5.037   6.154   0.237 -0.2267 -0.5623  0.4597
 2150SOL    HW136944   5.078   6.223   0.185  0.5470 -0.6111  0.9791
 2150SOL    HW236945   5.086   6.075   0.213 -0.3726 -0.7205  0.6863
 2151SOL     OW36946   5.671   4.916  12.455  0.1495  0.7691 -0.2852
 2151SOL    HW136947   5.593   4.861  12.448 -0.7653  1.7991  1.2039
 2151SOL    HW236948   5.738   4.858  12.491 -0.6461  0.4609  0.7637
 2152SOL     OW36949   6.182   1.569  12.515  0.2447 -0.1077 -0.3319
 2152SOL    HW136950   6.152   1.479  12.503 -2.3323  0.5120  0.8811
 2152SOL    HW236951   6.266   1.573  12.469  0.9681 -3.4072  0.4737
 2153SOL     OW36952   1.563   4.968  11.515 -0.3119  0.8007 -0.0006
 2153SOL    HW136953   1.508   4.909  11.566  2.1831 -0.7639  1.0425
 2153SOL    HW236954   1.501   5.018  11.462 -2.7400 -0.4568  1.4781
 2154SOL     OW36955   1.185   1.069  12.374  0.4817 -0.3274 -0.1101
 2154SOL    HW136956   1.236   1.081  12.294  0.4204 -0.8988 -0.2372
 2154SOL    HW236957   1.245   1.092  12.444  1.0371 -1.3148 -0.2373
 2155SOL     OW36958   2.879   6.164  12.535  0.2574 -0.0057 -0.6595
 2155SOL    HW136959   2.888   6.189  12.627 -0.6751 -0.8467 -0.3306
 2155SOL    HW236960   2.800   6.110  12.532 -0.2661  0.7934 -2.1242
 2156SOL     OW36961   3.020   1.048  12.861  0.1541  0.8513  0.7119
 2156SOL    HW136962   3.018   0.977  12.798 -1.2254  0.9866  0.5687
 2156SOL    HW236963   3.091   1.025  12.921 -1.8153 -2.0412  2.2063
 2157SOL     OW36964   5.262   5.751  12.545 -0.0804 -0.3039  0.2230
 2157SOL    HW136965   5.305   5.743  12.460  1.1436 -2.6748  0.9626
 2157SOL    HW236966   5.202   5.676  12.548 -1.4753  0.7752  0.7822
 2158SOL     OW36967   4.313   1.001  11.325  0.2298 -0.3436  0.0514
 2158SOL    HW136968   4.227   1.038  11.308  0.7718  1.0046  0.1472
 2158SOL    HW236969   4.296   0.911  11.354 -1.0885 -0.3185 -0.6060
 2159SOL     OW36970   4.196   3.124  11.083 -0.3616 -0.3412 -0.2635
 2159SOL    HW136971   4.150   3.178  11.147 -0.9245 -0.6309 -0.4166
 2159SOL    HW236972   4.288   3.149  11.091 -0.3819 -0.5898  0.8705
 2160SOL     OW36973   5.637   4.236   1.397 -0.6431  1.0354 -0.1450
 2160SOL    HW136974   5.578   4.292   1.447 -0.4590 -0.4298  1.8354
 2160SOL    HW236975   5.677   4.179   1.462  0.6734 -0.0617 -1.8233
 2161SOL     OW36976   1.004   4.981   0.701  0.0807  0.4902 -0.4427
 2161SOL    HW136977   0.919   4.949   0.731 -0.1435  0.1595 -1.3903
 2161SOL    HW236978   1.051   5.003   0.782 -0.7861  0.3944  0.1051
 2162SOL     OW36979   0.144   0.107  12.361 -0.5707 -0.3048 -0.0840
 2162SOL    HW136980   0.172   0.187  12.318  1.3605 -1.4704 -1.1053
 2162SOL    HW236981   0.131   0.044  12.290 -3.1415 -0.6570  0.5943
 2163SOL     OW36982   1.239   0.535  12.741  0.5882  0.2031 -0.4868
 2163SOL    HW136983   1.231   0.543  12.836  1.2917 -0.3864 -0.3738
 2163SOL    HW236984   1.315   0.589  12.718 -0.3257  1.3702 -0.8865
 2164SOL     OW36985   0.910   3.490   0.333  0.2092  0.1319  0.1500
 2164SOL    HW136986   0.931   3.499   0.240  0.6856 -1.0896  0.1157
 2164SOL    HW236987   0.816   3.473   0.334  0.5610 -2.1651 -0.3268
 2165SOL     OW36988   5.972   4.682   0.115 -0.4797 -0.5074  0.3514
 2165SOL    HW136989   6.060   4.715   0.102  0.0625 -1.6681  0.8828
 2165SOL    HW236990   5.932   4.743   0.177  1.0797 -1.6927  2.6833
 2166SOL     OW36991   2.930   0.352   0.219  0.2743  0.0180 -0.1352
 2166SOL    HW136992   2.893   0.303   0.146  1.2277 -1.5209  0.3462
 2166SOL    HW236993   2.888   0.314   0.296  0.3478  0.6164  0.2001
 2167SOL     OW36994   1.794   2.300   1.486 -0.0707  0.3771 -0.0504
 2167SOL    HW136995   1.735   2.362   1.529 -0.4785  0.8220 -1.2226
 2167SOL    HW236996   1.748   2.216   1.493  0.2530  0.2764  1.0993
 2168SOL     OW36997   1.788   5.139   0.842 -0.5077  0.2060  0.2732
 2168SOL    HW136998   1.834   5.158   0.760 -0.4654 -1.5704 -0.1650
 2168SOL    HW236999   1.855   5.147   0.910 -0.6310  2.0687  0.2229
 2169SOL     OW37000   0.434   1.778   0.696  0.4102 -0.1763 -0.0238
 2169SOL    HW137001   0.365   1.844   0.697  0.0344 -0.5638  1.2826
 2169SOL    HW237002   0.507   1.819   0.741  1.1130  0.2804 -1.5196
 2170SOL     OW37003   3.306   2.938  12.473 -0.0244  0.5954  0.5610
 2170SOL    HW137004   3.384   2.994  12.467 -0.1790  0.8317  0.7051
 2170SOL    HW237005   3.299   2.896  12.388  0.5540  0.1803  0.7154
 2171SOL     OW37006   5.060   4.124   0.882 -0.0502 -0.0339 -0.4701
 2171SOL    HW137007   5.025   4.061   0.819  1.6936 -1.9734  0.3949
 2171SOL    HW237008   5.141   4.085   0.914  0.6022  2.2101  0.8834
 2172SOL     OW37009   4.742   3.610  12.150  0.1270 -0.2354 -0.1188
 2172SOL    HW137010   4.743   3.648  12.062 -0.0554 -2.0285 -0.9317
 2172SOL    HW237011   4.655   3.631  12.185  0.5528  1.3489  0.0656
 2173SOL     OW37012   4.753   3.040  12.807 -0.0741 -0.7454 -0.4224
 2173SOL    HW137013   4.660   3.040  12.830  0.4941 -0.4943  2.2716
 2173SOL    HW237014   4.785   2.955  12.838  0.8267 -0.2975 -0.0857
 2174SOL     OW37015   5.281   5.149   0.195 -0.2713  0.1240 -0.1097
 2174SOL    HW137016   5.317   5.237   0.184  1.1756 -0.4587 -0.1868
 2174SOL    HW237017   5.194   5.164   0.232 -0.7425  1.6595 -1.6974
 2175SOL     OW37018   5.657   0.195   0.600  0.1919  0.6138 -0.6598
 2175SOL    HW137019   5.721   0.260   0.573  0.2217  0.2410 -1.5306
 2175SOL    HW237020   5.578   0.245   0.620  0.0704  0.8827 -1.7726
 2176SOL     OW37021   3.220   3.918  12.688 -0.3370 -0.2384  0.0346
 2176SOL    HW137022   3.144   3.975  12.679  0.3641  0.6095 -0.7092
 2176SOL    HW237023   3.271   3.934  12.609  0.1359 -1.5215  0.0609
 2177SOL     OW37024   2.613   0.404   1.115  0.0606  0.2387  0.1286
 2177SOL    HW137025   2.541   0.453   1.076  0.3241 -0.2354 -1.0087
 2177SOL    HW237026   2.573   0.323   1.148  0.2196 -0.5881 -1.5959
 2178SOL     OW37027   4.256   1.595  11.308 -0.3095  0.9825  0.5707
 2178SOL    HW137028   4.270   1.527  11.374  0.7713  1.5823  0.9726
 2178SOL    HW237029   4.220   1.668  11.358 -1.5383  0.7145  0.1250
 2179SOL     OW37030   5.774   2.072   0.771 -0.2095  0.0299  0.2280
 2179SOL    HW137031   5.732   1.995   0.810  2.5961 -0.7046  2.1043
 2179SOL    HW237032   5.702   2.122   0.733 -2.2393 -3.0841 -0.3521
 2180SOL     OW37033   6.135   0.912   1.675  0.2443 -0.0106 -0.0827
 2180SOL    HW137034   6.109   0.819   1.678  0.2796 -0.0202 -0.0730
 2180SOL    HW237035   6.078   0.950   1.607  0.0296  0.0256  0.1146
 2181SOL     OW37036   3.500   5.310   0.776 -0.5660 -0.0316 -0.4234
 2181SOL    HW137037   3.577   5.256   0.759 -0.3095  0.1492  0.1447
 2181SOL    HW237038   3.426   5.250   0.768 -0.2262 -0.7273  1.2109
 2182SOL     OW37039   3.233   1.181   1.429 -0.2714  0.6747 -0.1783
 2182SOL    HW137040   3.265   1.110   1.485 -0.6790 -2.0873 -3.1567
 2182SOL    HW237041   3.155   1.215   1.475  0.7234  0.1954  1.9800
 2183SOL     OW37042   4.387   3.579  11.118 -0.3972 -0.7963  0.4548
 2183SOL    HW137043   4.334   3.629  11.179 -1.7430 -2.7763  0.9859
 2183SOL    HW237044   4.469   3.562  11.166 -0.2252  0.2199  0.5381
 2184SOL     OW37045   1.240   2.190  11.972 -0.2300  0.1611 -0.7144
 2184SOL    HW137046   1.165   2.241  11.940 -0.7648  0.5032  0.9831
 2184SOL    HW237047   1.313   2.252  11.972 -0.9028  1.0213  1.4553
 2185SOL     OW37048   4.015   3.163  12.860 -0.1201 -0.4606  0.6559
 2185SOL    HW137049   4.055   3.196  12.941  0.1721  0.3443  0.1988
 2185SOL    HW237050   4.002   3.070  12.876 -0.1499 -0.2949  1.6674
 2186SOL     OW37051   1.414   5.187   1.669 -0.0098 -0.6910 -0.2711
 2186SOL    HW137052   1.325   5.165   1.696  0.7804  0.4398  4.0160
 2186SOL    HW237053   1.413   5.281   1.656  0.3785 -0.8039 -1.1671
 2187SOL     OW37054   2.866   0.361  11.802 -0.5138 -0.0744 -0.0758
 2187SOL    HW137055   2.905   0.345  11.888 -0.9087 -0.8539 -0.0291
 2187SOL    HW237056   2.792   0.301  11.798 -0.8713  0.3982 -0.7180
 2188SOL     OW37057   2.874   5.404  12.092 -0.5258  0.2930  0.8429
 2188SOL    HW137058   2.968   5.401  12.074 -0.6755 -2.3467 -0.0591
 2188SOL    HW237059   2.838   5.457  12.022  0.1468 -0.0953  0.1869
 2189SOL     OW37060   4.746   4.056   0.762  0.4142  0.6337 -0.1172
 2189SOL    HW137061   4.684   4.008   0.706  1.1474  0.4431 -0.7848
 2189SOL    HW237062   4.690   4.105   0.822 -0.4095  0.9292 -1.0875
 2190SOL     OW37063   0.122   0.769  12.694  0.0615 -0.0577 -0.3012
 2190SOL    HW137064   0.095   0.803  12.780 -1.3960  0.6681 -0.9908
 2190SOL    HW237065   0.046   0.720  12.664  0.2867  0.2991 -1.4775
 2191SOL     OW37066   5.790   3.157   0.310 -0.2179 -0.2932  0.3406
 2191SOL    HW137067   5.774   3.211   0.387 -1.8361 -0.2724  0.0428
 2191SOL    HW237068   5.709   3.165   0.258  2.1998  3.0994 -3.4854
 2192SOL     OW37069   5.798   4.083  11.877  0.2503  0.1705 -0.5243
 2192SOL    HW137070   5.847   4.005  11.853  0.4819 -0.1466  0.9052
 2192SOL    HW237071   5.746   4.057  11.952  0.4386  1.4311  0.0703
 2193SOL     OW37072   1.525   0.837  11.762  0.0622  0.4262  0.0085
 2193SOL    HW137073   1.543   0.896  11.689 -1.6754  0.1675 -0.6617
 2193SOL    HW237074   1.466   0.886  11.819 -0.0981 -0.0759  0.2796
 2194SOL     OW37075   2.385   2.082  12.521  0.1192  0.2852 -0.0153
 2194SOL    HW137076   2.325   2.156  12.507 -0.1233  0.1980  0.5366
 2194SOL    HW237077   2.447   2.088  12.449 -0.6735  0.2624 -0.7170
 2195SOL     OW37078   6.082   2.936   0.065 -0.5506 -0.1615 -0.2243
 2195SOL    HW137079   6.167   2.963   0.098 -0.8447  0.6178 -0.0753
 2195SOL    HW237080   6.091   2.843   0.046  0.2734 -0.1209 -0.0326
 2196SOL     OW37081   0.532   4.910  11.757  0.5417  0.6966 -0.1715
 2196SOL    HW137082   0.523   4.972  11.685  0.7417  0.4095 -0.4520
 2196SOL    HW237083   0.543   4.825  11.714  1.8820  0.6733  0.1617
 2197SOL     OW37084   2.518   1.895   0.253 -0.5155  0.1453  0.6196
 2197SOL    HW137085   2.435   1.922   0.294 -2.0038 -0.7808 -1.5722
 2197SOL    HW237086   2.512   1.800   0.247  1.2159 -0.0394  1.3628
 2198SOL     OW37087   1.226   1.916  11.961  0.4892  0.5404 -0.6403
 2198SOL    HW137088   1.229   2.011  11.966 -2.2850  0.8030 -1.8728
 2198SOL    HW237089   1.206   1.898  11.869  0.6340 -1.2224 -0.3632
 2199SOL     OW37090   1.137   2.552   0.103  0.4377  0.4690  0.0525
 2199SOL    HW137091   1.210   2.609   0.126  1.4268 -0.4347 -0.6932
 2199SOL    HW237092   1.163   2.466   0.136 -0.5719  0.2553  0.3115
 2200SOL     OW37093   2.234   5.705  12.310 -0.2138  0.0490 -0.2425
 2200SOL    HW137094   2.196   5.640  12.250 -1.3383  1.8461 -1.5506
 2200SOL    HW237095   2.204   5.677  12.397 -0.8622 -1.0447 -0.7888
 2201SOL     OW37096   3.745   1.089   0.135 -0.4216  0.0250  0.3246
 2201SOL    HW137097   3.779   1.096   0.225 -1.0486 -0.4829  0.6089
 2201SOL    HW237098   3.684   1.015   0.138 -0.6962  0.2127 -0.4449
 2202SOL     OW37099   2.489   5.454   0.845  0.2243  0.4364  0.4081
 2202SOL    HW137100   2.479   5.370   0.801 -0.0334  0.1764  0.9430
 2202SOL    HW237101   2.505   5.431   0.937  2.4618  0.9124  0.1990
 2203SOL     OW37102   5.851   2.920   0.198  0.3491 -0.4607 -0.6011
 2203SOL    HW137103   5.936   2.935   0.156 -0.0503  2.0838 -0.6535
 2203SOL    HW237104   5.833   3.001   0.245 -0.5694 -2.1274  2.1919
 2204SOL     OW37105   4.127   0.573  11.998  0.5814 -0.0067 -0.8535
 2204SOL    HW137106   4.182   0.636  12.045  0.7665 -0.2489 -0.7467
 2204SOL    HW237107   4.178   0.492  11.997  0.9654  0.2196 -2.2191
 2205SOL     OW37108   3.476   0.234   0.961  0.2481 -0.0505 -0.1079
 2205SOL    HW137109   3.556   0.223   1.013 -0.5569 -1.4950  0.9004
 2205SOL    HW237110   3.416   0.281   1.018  0.8148  2.4139 -1.4071
 2206SOL     OW37111   5.437   4.095  12.478  0.3890  0.0911  0.6753
 2206SOL    HW137112   5.479   4.088  12.392 -0.6330  0.1925  0.1468
 2206SOL    HW237113   5.494   4.152  12.529  1.3445 -0.4911  0.2783
 2207SOL     OW37114   5.954   2.466   0.100 -0.1221 -0.0032  0.3049
 2207SOL    HW137115   6.029   2.522   0.081 -0.9670  0.6014 -1.5107
 2207SOL    HW237116   5.880   2.527   0.106 -0.6848 -0.7152  0.7740
 2208SOL     OW37117   5.166   5.012  12.285 -0.1128  0.2183 -0.4903
 2208SOL    HW137118   5.256   5.037  12.262  0.0102  1.0658  0.8099
 2208SOL    HW237119   5.151   4.931  12.236  0.8535  0.7867 -1.8127
 2209SOL     OW37120   0.376   3.171  12.176  0.7327  0.2303 -0.2717
 2209SOL    HW137121   0.375   3.077  12.160 -0.4089  0.4954 -2.0102
 2209SOL    HW237122   0.344   3.180  12.265 -3.3797 -0.8831 -1.4236
 2210SOL     OW37123   2.031   2.046   0.244  0.1861 -0.4405 -0.3173
 2210SOL    HW137124   2.084   1.987   0.191  1.6262 -0.4137  1.0524
 2210SOL    HW237125   2.055   2.133   0.213 -1.5276 -0.4774 -1.9485
 2211SOL     OW37126   0.919   4.152  12.562  0.0110  0.0295 -0.1828
 2211SOL    HW137127   0.978   4.092  12.608  1.8323 -1.6171 -4.1669
 2211SOL    HW237128   0.845   4.098  12.536  0.7810 -0.1648 -2.2003
 2212SOL     OW37129   3.323   1.033  12.770 -0.3869  0.1602 -0.1904
 2212SOL    HW137130   3.375   1.109  12.745 -1.5191  0.3980 -2.0340
 2212SOL    HW237131   3.385   0.960  12.765  0.1526  0.6411 -0.7773
 2213SOL     OW37132   3.410   1.194  11.987  0.4717  0.1111 -0.1891
 2213SOL    HW137133   3.421   1.277  11.941 -0.2223  1.0165  1.1984
 2213SOL    HW237134   3.471   1.135  11.944  1.4655  1.5131 -0.8035
 2214SOL     OW37135   2.240   3.919   0.722  0.1169 -0.5193 -0.0735
 2214SOL    HW137136   2.194   3.856   0.778  2.0821 -1.3380  0.7009
 2214SOL    HW237137   2.185   3.998   0.724 -0.8717 -1.2054  1.3713
 2215SOL     OW37138   4.764   2.006  12.248  0.3585 -0.5553  0.0080
 2215SOL    HW137139   4.827   1.985  12.178 -0.1019 -0.6486 -0.3886
 2215SOL    HW237140   4.754   2.101  12.243 -0.0125 -0.6111 -0.3531
 2216SOL     OW37141   5.334   3.315   1.453 -0.1934  0.3640  0.1534
 2216SOL    HW137142   5.325   3.242   1.515  0.9139 -0.1546 -0.2659
 2216SOL    HW237143   5.248   3.324   1.414 -0.6632  0.0658  1.0730
 2217SOL     OW37144   3.770   6.410   0.129 -0.2289 -0.2525  0.2898
 2217SOL    HW137145   3.771   6.465   0.051  2.4860 -0.4398  0.1010
 2217SOL    HW237146   3.852   6.361   0.125 -0.9170 -1.6967  2.2852
 2218SOL     OW37147   6.112   0.345   0.454 -0.1361  0.6140  0.0108
 2218SOL    HW137148   6.056   0.349   0.532  0.1516 -0.3769  0.2861
 2218SOL    HW237149   6.195   0.382   0.483 -0.2333  0.8596 -0.0196
 2219SOL     OW37150   4.154   2.127  11.634  0.4748  0.2858  0.2998
 2219SOL    HW137151   4.062   2.103  11.620  0.3005  1.4880 -0.7143
 2219SOL    HW237152   4.177   2.083  11.716 -0.4975 -1.3818 -0.2661
 2220SOL     OW37153   3.248   4.704  12.022 -0.0994  0.5079  0.9294
 2220SOL    HW137154   3.275   4.794  12.038 -1.4629  1.0128  0.4588
 2220SOL    HW237155   3.210   4.675  12.105  0.2863  0.3818  1.0633
 2221SOL     OW37156   2.790   4.703  12.098 -0.0608 -0.1233 -0.6956
 2221SOL    HW137157   2.710   4.658  12.068  0.6722 -0.6939 -1.8902
 2221SOL    HW237158   2.759   4.788  12.129 -1.3146 -0.8999  0.3050
 2222SOL     OW37159   2.219   1.693  12.387 -0.5884  0.4126 -0.0243
 2222SOL    HW137160   2.277   1.638  12.440  0.2268  0.4680 -0.8260
 2222SOL    HW237161   2.145   1.636  12.364 -1.4490  0.6709  1.9387
 2223SOL     OW37162   1.309   5.552  11.340 -0.4730 -0.8020  0.5281
 2223SOL    HW137163   1.357   5.470  11.324 -0.1659 -0.6898  0.8714
 2223SOL    HW237164   1.275   5.576  11.254 -0.2744 -1.1102  0.3584
 2224SOL     OW37165   1.361   6.263   0.937  0.1543 -0.3637 -0.7088
 2224SOL    HW137166   1.326   6.177   0.962  1.0369 -0.6497 -0.4396
 2224SOL    HW237167   1.427   6.244   0.871  0.1799  0.1355 -0.8318
 2225SOL     OW37168   5.554   0.184   0.927  0.1229  0.1837 -0.2446
 2225SOL    HW137169   5.594   0.260   0.886 -0.9103  0.8365 -0.0930
 2225SOL    HW237170   5.462   0.208   0.937 -0.4035 -1.3993 -0.9369
 2226SOL     OW37171   4.691   3.858  11.988 -0.3503 -0.2307 -0.0191
 2226SOL    HW137172   4.634   3.814  11.924  0.0206  0.8412 -1.1242
 2226SOL    HW237173   4.632   3.916  12.037 -0.2569  0.8674 -1.1517
 2227SOL     OW37174   4.211   3.917  12.337 -0.0887  0.1010 -0.3501
 2227SOL    HW137175   4.289   3.890  12.385 -0.3732  0.9742  0.6346
 2227SOL    HW237176   4.162   3.836  12.323  1.2451 -0.5622 -1.5091
 2228SOL     OW37177   3.719   3.297  11.955  0.6128 -0.1706 -0.2575
 2228SOL    HW137178   3.767   3.283  11.873 -0.1492  0.8095 -0.9029
 2228SOL    HW237179   3.629   3.270  11.935  0.2568  0.7776  0.0152
 2229SOL     OW37180   0.589   4.645   0.065  0.0874 -0.4618 -0.4283
 2229SOL    HW137181   0.541   4.562   0.067  0.8117 -0.8962 -0.5753
 2229SOL    HW237182   0.677   4.621   0.034  0.5791  0.2189  0.3843
 2230SOL     OW37183   1.239   1.135   1.104 -0.2705 -0.2645  0.1925
 2230SOL    HW137184   1.169   1.091   1.055  0.4756 -0.4544 -0.7461
 2230SOL    HW237185   1.231   1.100   1.193  0.7534 -2.9534 -0.6645
 2231SOL     OW37186   0.192   3.360  12.137 -0.4029  0.2244  0.7691
 2231SOL    HW137187   0.114   3.319  12.173 -0.5085  0.2918  0.6187
 2231SOL    HW237188   0.258   3.291  12.138 -0.6555 -0.0309  0.2648
 2232SOL     OW37189   4.675   5.619  12.408 -0.2024 -0.2752 -0.3397
 2232SOL    HW137190   4.753   5.672  12.423  0.8994 -1.6832 -0.8453
 2232SOL    HW237191   4.698   5.562  12.334 -1.6172 -0.9200 -0.3288
 2233SOL     OW37192   1.896   6.366  11.391  0.3827  0.7627  0.7735
 2233SOL    HW137193   1.971   6.314  11.364  0.1875  1.7835 -2.0657
 2233SOL    HW237194   1.821   6.326  11.348 -0.4486  0.8381  2.0955
 2234SOL     OW37195   2.280   4.061   1.171 -0.4572 -0.0336 -0.0012
 2234SOL    HW137196   2.266   4.123   1.243  0.5192 -0.4563  0.5717
 2234SOL    HW237197   2.286   4.115   1.093 -1.4608  0.4402  0.2368
 2235SOL     OW37198   0.732   4.444  12.283 -0.6101 -0.0777 -0.3924
 2235SOL    HW137199   0.686   4.471  12.204  1.0089  1.3875 -0.9115
 2235SOL    HW237200   0.735   4.349  12.277 -2.4466 -0.1398 -0.9338
 2236SOL     OW37201   1.639   4.726   1.422  0.2943  0.4840 -1.1946
 2236SOL    HW137202   1.657   4.678   1.341  0.6037  0.7381 -1.2780
 2236SOL    HW237203   1.546   4.751   1.415 -0.2073 -1.1174 -0.6131
 2237SOL     OW37204   4.796   0.396   0.191 -0.4874  0.0753  0.0778
 2237SOL    HW137205   4.704   0.369   0.186 -1.0851  1.8346  0.7313
 2237SOL    HW237206   4.796   0.486   0.158  1.5311 -0.8553 -2.9253
 2238SOL     OW37207   4.325   0.999  12.797  0.5699  0.1952 -0.1961
 2238SOL    HW137208   4.293   1.073  12.848  1.9220  0.6775 -0.0040
 2238SOL    HW237209   4.248   0.969  12.748 -0.4403  0.5215  1.1445
 2239SOL     OW37210   2.756   2.311  11.440  0.5197 -0.1777  0.3865
 2239SOL    HW137211   2.836   2.259  11.437 -0.8733 -2.4436  0.1814
 2239SOL    HW237212   2.716   2.298  11.353 -0.6324 -0.0840  0.8881
 2240SOL     OW37213   3.239   5.191   1.383  0.4396 -0.0748  0.3831
 2240SOL    HW137214   3.225   5.234   1.299 -0.3379 -0.7484  0.1482
 2240SOL    HW237215   3.332   5.168   1.384  0.8072  1.3616  0.4071
 2241SOL     OW37216   3.629   1.434  11.545  0.3358  0.3084  0.1868
 2241SOL    HW137217   3.538   1.407  11.558  0.5567 -0.5320  0.0196
 2241SOL    HW237218   3.639   1.511  11.601 -0.8053  1.1222 -0.6740
 2242SOL     OW37219   1.593   2.091  12.651  0.1805 -0.7020 -0.3598
 2242SOL    HW137220   1.667   2.036  12.626  1.7233  1.0511  0.0230
 2242SOL    HW237221   1.622   2.180  12.629 -1.7669  0.0608 -0.0215
 2243SOL     OW37222   4.783   6.251  11.590 -0.7174 -0.2611 -0.0763
 2243SOL    HW137223   4.733   6.195  11.650 -0.9567 -0.4839 -0.4763
 2243SOL    HW237224   4.737   6.334  11.590 -1.5193 -0.6840 -0.9841
 2244SOL     OW37225   5.743   0.492  11.346 -0.2108  0.4363 -0.2185
 2244SOL    HW137226   5.695   0.479  11.428  0.8964  2.0020  0.7306
 2244SOL    HW237227   5.787   0.409  11.330  0.3315  0.3884  1.3263
 2245SOL     OW37228   0.686   6.074   0.286 -0.3947 -0.7310 -0.4348
 2245SOL    HW137229   0.777   6.047   0.296 -0.4250 -0.5748  0.3303
 2245SOL    HW237230   0.690   6.153   0.232 -0.2554 -1.8806 -2.1816
 2246SOL     OW37231   1.377   2.694   0.131 -0.4846 -0.0865  0.2851
 2246SOL    HW137232   1.411   2.720   0.217 -0.3201 -0.4321  0.3271
 2246SOL    HW237233   1.453   2.700   0.073 -1.0800  2.4489 -0.3661
 2247SOL     OW37234   0.208   3.647  11.572  0.6252 -0.0000 -0.0616
 2247SOL    HW137235   0.161   3.595  11.637  0.8013  0.4203  0.4059
 2247SOL    HW237236   0.143   3.710  11.540  0.8615  0.5724  0.5760
 2248SOL     OW37237   6.043   4.298  12.162 -0.2531 -0.6352  0.2265
 2248SOL    HW137238   6.055   4.248  12.243 -0.1426  0.3505  0.8341
 2248SOL    HW237239   6.121   4.278  12.111  0.0427 -0.6903  0.6872
 2249SOL     OW37240   4.742   0.855  11.860  0.6583  0.3750  0.7101
 2249SOL    HW137241   4.663   0.908  11.870 -0.2238 -0.7835 -0.0122
 2249SOL    HW237242   4.811   0.919  11.842 -0.4628  1.2596 -0.5835
 2250SOL     OW37243   2.114   1.720   0.443 -0.6797 -0.5642  0.2665
 2250SOL    HW137244   2.087   1.678   0.362  3.2105 -0.2294 -1.4180
 2250SOL    HW237245   2.138   1.648   0.501 -0.2177 -0.7571 -0.1663
 2251SOL     OW37246   1.489   2.450   0.928  0.5290 -0.4165 -0.2777
 2251SOL    HW137247   1.400   2.468   0.960 -0.6102 -0.9704 -2.8880
 2251SOL    HW237248   1.535   2.534   0.938 -0.2846 -0.0944  1.0180
 2252SOL     OW37249   0.456   0.211  12.445  0.2358  0.3180  0.0303
 2252SOL    HW137250   0.434   0.120  12.422  2.9890 -0.6865  0.9351
 2252SOL    HW237251   0.380   0.241  12.495 -1.9497 -0.4650 -2.5499
 2253SOL     OW37252   4.193   3.832  12.801  0.2118  0.3076  0.0678
 2253SOL    HW137253   4.160   3.839  12.712 -0.4663  2.4367  0.4301
 2253SOL    HW237254   4.145   3.899  12.850  1.9593  0.5256  1.5898
 2254SOL     OW37255   5.577   3.829  12.692 -0.5254  0.5177  0.3358
 2254SOL    HW137256   5.648   3.868  12.640  0.0693 -1.0662 -0.1319
 2254SOL    HW237257   5.545   3.899  12.747  1.5503  1.2476  0.6828
 2255SOL     OW37258   3.431   5.072  12.374  0.1039  0.5373 -0.1779
 2255SOL    HW137259   3.355   5.037  12.328 -0.9781 -0.6431  2.2902
 2255SOL    HW237260   3.463   5.142  12.318 -2.9825  1.2854 -1.2132
 2256SOL     OW37261   2.548   1.781   1.076 -0.2464 -0.1607 -0.1115
 2256SOL    HW137262   2.554   1.730   0.995 -0.9627 -1.2347  0.5001
 2256SOL    HW237263   2.539   1.872   1.046  1.8477 -0.2364 -1.2123
 2257SOL     OW37264   6.380   6.302   0.716 -0.4336 -0.8349  0.2456
 2257SOL    HW137265   6.322   6.372   0.685 -0.2374  0.1987  2.0546
 2257SOL    HW237266   6.450   6.298   0.651 -0.8026  0.1840 -0.2368
 2258SOL     OW37267   2.880   4.416  11.238  0.3039 -0.4470 -0.4653
 2258SOL    HW137268   2.914   4.440  11.324  1.3142 -0.4805 -0.8450
 2258SOL    HW237269   2.899   4.492  11.183 -2.0785  0.3958 -0.2388
 2259SOL     OW37270   0.421   5.594  12.474  0.1149  0.7578  0.0500
 2259SOL    HW137271   0.381   5.664  12.421 -1.1345  2.0369  2.4848
 2259SOL    HW237272   0.447   5.638  12.554  1.4256 -1.1977  0.7501
 2260SOL     OW37273   0.211   4.477  11.154  0.3444  0.0403  0.2468
 2260SOL    HW137274   0.211   4.438  11.242 -0.7241  0.0829  0.2777
 2260SOL    HW237275   0.187   4.405  11.096 -3.5527  0.9057  0.4917
 2261SOL     OW37276   5.908   2.012  11.774  0.2918 -0.2073 -0.2062
 2261SOL    HW137277   5.864   2.067  11.709  0.7705 -0.3361 -0.6412
 2261SOL    HW237278   5.978   2.067  11.809  0.3873 -0.3315 -0.2033
 2262SOL     OW37279   0.414   3.969   0.302 -0.1908 -0.1387 -0.7102
 2262SOL    HW137280   0.454   4.005   0.381  1.5070 -2.0069 -0.6354
 2262SOL    HW237281   0.470   3.895   0.277 -1.5108 -0.5483 -2.8210
 2263SOL     OW37282   2.601   2.729  11.673  0.0199 -0.0179  0.2462
 2263SOL    HW137283   2.522   2.727  11.618 -0.6966 -0.1291  1.2475
 2263SOL    HW237284   2.576   2.782  11.749  1.1786  0.6206  0.1945
 2264SOL     OW37285   3.175   5.416   0.729  0.5800  0.4320  0.0185
 2264SOL    HW137286   3.182   5.471   0.651  1.2845  0.3898  0.0453
 2264SOL    HW237287   3.260   5.423   0.771 -0.0385  1.0801  1.2205
 2265SOL     OW37288   1.351   5.936  12.323 -0.7862  0.3017  0.2463
 2265SOL    HW137289   1.401   5.864  12.286 -1.0781 -0.2721  0.9470
 2265SOL    HW237290   1.330   5.992  12.248 -0.9250 -0.5619 -0.3729
 2266SOL     OW37291   0.148   3.746  12.853 -0.2990 -0.3401  0.1711
 2266SOL    HW137292   0.179   3.830  12.886  0.2763  0.4022 -2.1092
 2266SOL    HW237293   0.228   3.693  12.844 -0.3619 -0.3209 -0.5520
 2267SOL     OW37294   4.103   6.065  12.777 -0.5407  0.0362 -0.3108
 2267SOL    HW137295   4.152   6.052  12.858 -1.9231  0.2522  0.5803
 2267SOL    HW237296   4.167   6.048  12.708  0.2368 -1.8332  0.7984
 2268SOL     OW37297   0.695   4.828  11.080  0.3435  0.1880  0.7004
 2268SOL    HW137298   0.735   4.812  10.994 -0.5979 -0.5339  0.3792
 2268SOL    HW237299   0.602   4.809  11.067 -0.1085  1.7351  1.4526
 2269SOL     OW37300   1.446   0.728  12.687 -0.4994 -0.0831  0.2704
 2269SOL    HW137301   1.460   0.754  12.596  0.5804 -0.9547  0.1680
 2269SOL    HW237302   1.383   0.791  12.721  1.6455  2.3677 -0.0559
 2270SOL     OW37303   1.562   2.734  11.577 -0.1985  0.3416  0.6901
 2270SOL    HW137304   1.510   2.756  11.500  1.2864  1.1801 -0.1306
 2270SOL    HW237305   1.586   2.818  11.615  0.1590 -0.0376  1.3238
 2271SOL     OW37306   4.519   4.092  11.792  0.0264 -0.3884  0.2705
 2271SOL    HW137307   4.519   4.088  11.887 -1.6115 -0.4148  0.2853
 2271SOL    HW237308   4.587   4.030  11.765  0.2882 -0.6053  1.4051
 2272SOL     OW37309   0.887   1.261  11.496  0.7144 -0.1652 -0.0935
 2272SOL    HW137310   0.824   1.329  11.517  0.5587 -0.2596 -0.2488
 2272SOL    HW237311   0.971   1.307  11.487  0.8923 -0.2056  1.2802
 2273SOL     OW37312   1.844   2.529   0.513 -0.7721 -0.2896  0.8493
 2273SOL    HW137313   1.881   2.606   0.469 -1.9106 -2.0878 -3.7908
 2273SOL    HW237314   1.750   2.540   0.506 -0.9542 -1.9027  0.4296
 2274SOL     OW37315   2.442   5.261   0.636 -0.0196  0.7123 -0.0617
 2274SOL    HW137316   2.532   5.291   0.620 -0.6349  2.1851 -0.9579
 2274SOL    HW237317   2.412   5.231   0.550 -0.8951  1.6864 -0.1046
 2275SOL     OW37318   3.546   5.592  12.018 -0.6715 -0.3396  0.3950
 2275SOL    HW137319   3.553   5.526  11.949  0.1855  0.8926 -0.7500
 2275SOL    HW237320   3.511   5.544  12.094  1.8320 -2.5893  0.2820
 2276SOL     OW37321   2.446   2.159  12.240  0.5399 -0.2772 -0.2580
 2276SOL    HW137322   2.380   2.210  12.193 -0.3651 -0.2237  1.0195
 2276SOL    HW237323   2.413   2.069  12.238  0.7434 -0.3560 -0.1267
 2277SOL     OW37324   3.663   2.938   0.171  0.3950 -0.4096  0.0432
 2277SOL    HW137325   3.568   2.948   0.176  0.4831  0.0377  0.8988
 2277SOL    HW237326   3.683   2.948   0.078 -0.4479 -1.0588 -0.2295
 2278SOL     OW37327   3.872   3.784  12.145 -0.1435 -0.2852  0.0458
 2278SOL    HW137328   3.870   3.718  12.215  0.0193 -0.7552 -0.3869
 2278SOL    HW237329   3.805   3.848  12.170  1.3111  0.6846  1.7194
 2279SOL     OW37330   1.553   5.339  11.897 -0.5116 -0.1121  0.1582
 2279SOL    HW137331   1.482   5.300  11.947 -0.7877  0.0842 -0.0818
 2279SOL    HW237332   1.580   5.270  11.836  0.2132 -0.5580  0.9612
 2280SOL     OW37333   1.088   1.529   0.631 -0.1101 -0.2945  0.1878
 2280SOL    HW137334   1.141   1.573   0.565 -1.3999  0.5369 -0.3351
 2280SOL    HW237335   1.134   1.447   0.649  1.5594  0.5850  0.0778
 2281SOL     OW37336   5.181   0.240  11.591  0.1553  0.4358 -0.7154
 2281SOL    HW137337   5.232   0.253  11.511 -0.5595  0.9089 -1.0998
 2281SOL    HW237338   5.126   0.318  11.598 -0.0119  0.2604  0.0771
 2282SOL     OW37339   6.427   2.933  12.322 -0.0744 -0.6134  0.0960
 2282SOL    HW137340   6.345   2.912  12.276  1.0695 -0.1429 -2.3355
 2282SOL    HW237341   6.464   2.848  12.344  0.4898 -0.9975 -2.1176
 2283SOL     OW37342   1.484   1.048  12.157 -0.6594 -0.7109 -0.1342
 2283SOL    HW137343   1.433   1.122  12.124  0.2136 -0.0099  0.0542
 2283SOL    HW237344   1.570   1.057  12.114  0.7697  0.6475  2.7353
 2284SOL     OW37345   4.621   5.021   0.028 -0.1331 -0.0426  0.5143
 2284SOL    HW137346   4.589   5.096  -0.022  1.6327 -0.0652 -0.7463
 2284SOL    HW237347   4.679   5.059   0.094  0.4867 -0.2605  0.1013
 2285SOL     OW37348   3.180   2.538   0.207  0.3217  0.3013  0.3707
 2285SOL    HW137349   3.244   2.608   0.190 -0.4990  1.0180  0.1489
 2285SOL    HW237350   3.164   2.543   0.301  1.4353 -0.6490  0.6406
 2286SOL     OW37351   5.953   0.031  12.293 -0.4737  0.1372 -0.1066
 2286SOL    HW137352   5.905  -0.011  12.221 -0.2004  0.6854 -0.6300
 2286SOL    HW237353   6.043   0.035  12.261 -0.5321  1.2845 -0.1659
 2287SOL     OW37354   3.571   5.217  12.097 -0.9778 -0.4728 -0.3912
 2287SOL    HW137355   3.644   5.250  12.045 -1.4799  1.2028 -0.0717
 2287SOL    HW237356   3.499   5.278  12.080 -1.0834  0.3190  2.4209
 2288SOL     OW37357   5.542   2.214  11.010  0.0499 -0.1281  0.4589
 2288SOL    HW137358   5.565   2.132  10.967 -0.6317 -0.5692  0.9192
 2288SOL    HW237359   5.460   2.241  10.968 -0.9520 -0.8743  1.8487
 2289SOL     OW37360   0.024   1.545  11.703 -0.1525 -0.1894 -0.0680
 2289SOL    HW137361   0.023   1.452  11.685 -2.2177 -0.9196  2.9954
 2289SOL    HW237362   0.013   1.587  11.617  1.0066 -2.6695 -1.5304
 2290SOL     OW37363   3.783   3.392   1.163 -0.0705  0.4864 -0.5400
 2290SOL    HW137364   3.750   3.304   1.145 -0.2779  0.3442  0.4683
 2290SOL    HW237365   3.877   3.380   1.174  0.0080  0.5180 -1.1459
 2291SOL     OW37366   3.147   1.568   1.243 -0.3372 -0.1679 -0.4644
 2291SOL    HW137367   3.162   1.526   1.328 -2.2296 -0.0375 -0.0147
 2291SOL    HW237368   3.235   1.589   1.211  0.4592 -0.8654  1.1227
 2292SOL     OW37369   3.173   1.058  12.536 -0.1434 -0.1723  0.5440
 2292SOL    HW137370   3.230   1.047  12.612  1.2194  0.6437 -0.3282
 2292SOL    HW237371   3.205   0.995  12.473 -1.7514 -1.3782  0.8684
 2293SOL     OW37372   1.627   6.066  11.788 -0.1587  0.6580  0.6178
 2293SOL    HW137373   1.716   6.092  11.764 -0.4987  1.3452  0.1022
 2293SOL    HW237374   1.611   5.987  11.737  0.8577 -0.6304  2.1653
 2294SOL     OW37375   3.003   1.845   1.020  0.3750 -0.4754 -0.6202
 2294SOL    HW137376   2.962   1.808   1.098 -0.8450 -0.0830 -1.0467
 2294SOL    HW237377   3.029   1.933   1.047 -0.2070 -0.2749 -0.6880
 2295SOL     OW37378   2.209   6.366  12.387 -0.0214 -0.0760  0.0487
 2295SOL    HW137379   2.203   6.352  12.292  0.9074  0.9248 -0.1916
 2295SOL    HW237380   2.302   6.353  12.406  0.3668  2.4966  0.2840
 2296SOL     OW37381   5.500   5.455  11.623  0.4672 -0.3608 -0.3273
 2296SOL    HW137382   5.555   5.379  11.643  1.2034  0.6519  1.7382
 2296SOL    HW237383   5.552   5.506  11.560  1.3314 -0.0745  0.5986
 2297SOL     OW37384   5.168   2.578   0.115 -0.1357 -0.5142 -0.0370
 2297SOL    HW137385   5.240   2.516   0.109 -0.6071 -0.9099 -3.1846
 2297SOL    HW237386   5.114   2.560   0.038 -2.9195  0.6482  1.4639
 2298SOL     OW37387   4.902   5.615  11.311 -0.3610 -0.0142 -0.5138
 2298SOL    HW137388   4.905   5.700  11.268 -1.2212  0.9713  1.2596
 2298SOL    HW237389   4.809   5.603  11.333 -0.0468 -0.7637  0.4711
 2299SOL     OW37390   0.439   5.627  11.788 -0.5276  0.5828 -0.3227
 2299SOL    HW137391   0.403   5.544  11.756 -1.6551  0.1645  1.8654
 2299SOL    HW237392   0.463   5.674  11.708  0.2466 -1.8562 -1.6320
 2300SOL     OW37393   2.159   2.207   0.737  0.6505  0.2118  0.3824
 2300SOL    HW137394   2.129   2.260   0.662  0.5359  2.0384  1.6392
 2300SOL    HW237395   2.081   2.199   0.792  0.6093 -1.5339  0.1195
 2301SOL     OW37396   5.947   1.533   1.825  0.0524  0.3277  0.0566
 2301SOL    HW137397   5.871   1.477   1.809  1.7476 -1.5485 -2.1960
 2301SOL    HW237398   5.999   1.526   1.745  3.0095  0.8403  1.7801
 2302SOL     OW37399   3.144   2.741  11.908 -0.1596 -0.3661  0.1325
 2302SOL    HW137400   3.240   2.742  11.913 -0.0687  1.2584 -1.1636
 2302SOL    HW237401   3.126   2.684  11.834 -0.1301  0.2484 -0.3543
 2303SOL     OW37402   5.990   0.087  11.263 -0.0165  0.3348  0.7982
 2303SOL    HW137403   6.058   0.148  11.237  0.5399 -0.2092  0.9439
 2303SOL    HW237404   5.953   0.125  11.343 -2.1753  2.3459 -1.0169
 2304SOL     OW37405   5.638   0.459   0.914  0.6068 -0.2477  0.0673
 2304SOL    HW137406   5.610   0.480   1.003  1.7310 -0.2581  0.4381
 2304SOL    HW237407   5.705   0.524   0.894  0.8256 -0.6459 -0.5270
 2305SOL     OW37408   4.547   6.438  11.588 -0.5259  0.4515 -0.6706
 2305SOL    HW137409   4.605   6.485  11.528  0.3748  2.0798  1.3336
 2305SOL    HW237410   4.581   6.459  11.676 -3.2195  0.2189  0.5347
 2306SOL     OW37411   2.664   0.873  12.730 -0.0935 -0.2540 -0.0555
 2306SOL    HW137412   2.646   0.949  12.784  0.2088 -0.6417  0.6061
 2306SOL    HW237413   2.635   0.798  12.782 -0.3546 -0.5951 -0.6792
 2307SOL     OW37414   2.702   5.232  11.914 -0.3467  0.8975  0.4430
 2307SOL    HW137415   2.648   5.194  11.983 -0.4601 -0.4654 -0.3594
 2307SOL    HW237416   2.642   5.287  11.864 -1.4483 -1.7081 -1.3030
 2308SOL     OW37417   4.154   2.022  11.895  0.2836 -0.2119  0.6763
 2308SOL    HW137418   4.143   1.961  11.968  0.4732 -1.5722 -0.3948
 2308SOL    HW237419   4.083   2.085  11.905 -0.2784 -0.9588  1.4719
 2309SOL     OW37420   4.163   2.280   0.734  0.3456  0.3058 -0.1676
 2309SOL    HW137421   4.106   2.209   0.762  1.5132 -0.5890  0.0455
 2309SOL    HW237422   4.193   2.321   0.815  1.0601 -0.1150 -0.2034
 2310SOL     OW37423   4.275   0.656   0.201  0.1265 -0.1736 -0.4022
 2310SOL    HW137424   4.193   0.675   0.155 -0.3202  0.4050  0.5922
 2310SOL    HW237425   4.306   0.742   0.230  0.4950 -0.5046  0.1935
 2311SOL     OW37426   0.600   5.355   0.364 -0.4038  0.4800  0.0952
 2311SOL    HW137427   0.660   5.389   0.298 -0.2411 -0.6475 -0.3674
 2311SOL    HW237428   0.610   5.414   0.439  0.3364  1.0483 -0.4373
 2312SOL     OW37429   1.232   0.546  11.691  0.5340 -0.2218  0.2495
 2312SOL    HW137430   1.327   0.541  11.704  0.4892 -0.5603  0.4462
 2312SOL    HW237431   1.202   0.456  11.695  0.4702 -0.3627 -1.9549
 2313SOL     OW37432   0.684   3.354  11.905  0.0323  0.3260 -0.1820
 2313SOL    HW137433   0.644   3.403  11.977  1.8445  1.7062 -0.0340
 2313SOL    HW237434   0.645   3.267  11.910 -0.0412  0.4438  2.3545
 2314SOL     OW37435   1.797   5.923  11.351 -1.0202 -0.2356  0.1149
 2314SOL    HW137436   1.748   5.932  11.433 -0.2083  0.6801  0.5137
 2314SOL    HW237437   1.731   5.894  11.287 -2.0440  0.7788  0.6737
 2315SOL     OW37438   1.145   1.787  12.735  0.1291  0.3202 -0.3413
 2315SOL    HW137439   1.082   1.739  12.789 -0.8729  1.1434 -0.7472
 2315SOL    HW237440   1.156   1.871  12.780 -0.8173  1.0656 -1.4558
 2316SOL     OW37441   0.104   2.239  11.839  0.3244  0.1836  0.3402
 2316SOL    HW137442   0.036   2.306  11.828 -1.0034 -0.9270  1.3477
 2316SOL    HW237443   0.130   2.246  11.930  2.3219  1.2205 -0.2590
 2317SOL     OW37444   1.815   5.481   0.764  0.1217  0.6221  0.1669
 2317SOL    HW137445   1.814   5.575   0.746 -0.6072  0.6369  0.2661
 2317SOL    HW237446   1.760   5.443   0.695  0.9347  0.1949 -0.2579
 2318SOL     OW37447   3.812   0.940  12.381 -0.1442  0.1575  0.0667
 2318SOL    HW137448   3.864   0.970  12.455  1.4577  1.1207 -1.3858
 2318SOL    HW237449   3.834   0.848  12.371 -3.6594 -1.3550  3.3667
 2319SOL     OW37450   4.646   0.559  12.498 -0.0606 -0.2865  0.1031
 2319SOL    HW137451   4.719   0.527  12.551 -0.8468 -1.3391  0.5912
 2319SOL    HW237452   4.611   0.634  12.547  0.2653 -0.2029  0.2074
 2320SOL     OW37453   5.756   2.019   1.815  0.2886 -0.0282  0.0679
 2320SOL    HW137454   5.801   2.056   1.891  1.3349 -0.0750 -0.5064
 2320SOL    HW237455   5.746   1.926   1.837  0.9995 -0.1363 -0.0202
 2321SOL     OW37456   2.660   5.520  12.857 -0.1988  0.1624 -0.0023
 2321SOL    HW137457   2.701   5.597  12.897  0.6612  0.3948 -1.2594
 2321SOL    HW237458   2.566   5.533  12.870 -0.0405  1.2159  0.1767
 2322SOL     OW37459   4.444   5.749  11.287  0.5561 -0.1932 -0.3762
 2322SOL    HW137460   4.372   5.719  11.232  0.6049  0.8683 -1.0379
 2322SOL    HW237461   4.401   5.795  11.360  0.5543  1.1028 -1.1645
 2323SOL     OW37462   1.350   3.574  11.641  0.1164  0.3780  0.2424
 2323SOL    HW137463   1.280   3.519  11.607  1.2321 -1.3572  0.5735
 2323SOL    HW237464   1.322   3.664  11.623 -1.0624 -0.3295 -1.7829
 2324SOL     OW37465   5.171   2.250  12.346  0.1694  0.3919 -0.3111
 2324SOL    HW137466   5.265   2.251  12.327 -0.1257 -1.5276 -2.4071
 2324SOL    HW237467   5.135   2.318  12.290  0.0534 -0.7399 -1.6657
 2325SOL     OW37468   4.904   0.367   1.072 -0.3512  0.2355  0.6595
 2325SOL    HW137469   4.838   0.335   1.010  1.0626  0.9000 -1.2858
 2325SOL    HW237470   4.882   0.459   1.085 -0.5799  0.1247  1.0713
 2326SOL     OW37471   2.113   4.938  11.870 -0.3670  0.0752  0.7520
 2326SOL    HW137472   2.030   4.893  11.851 -0.0649  0.2410 -1.2268
 2326SOL    HW237473   2.174   4.869  11.893 -0.3816 -0.3553 -0.4505
 2327SOL     OW37474   3.138   1.278  12.792  0.4028 -0.2661 -0.0683
 2327SOL    HW137475   3.219   1.272  12.741  0.2723 -1.1420 -0.1904
 2327SOL    HW237476   3.107   1.188  12.799  0.5466 -0.2026  1.7827
 2328SOL     OW37477   1.484   2.897   0.452 -0.0751 -0.2775  0.2155
 2328SOL    HW137478   1.467   2.918   0.544  2.6713  0.8634  0.5659
 2328SOL    HW237479   1.496   2.802   0.451 -0.6600 -0.3616  0.9397
 2329SOL     OW37480   2.025   5.915   1.902 -0.2577  0.0446  0.0557
 2329SOL    HW137481   2.087   5.883   1.967  0.2264  1.9306  0.5947
 2329SOL    HW237482   2.079   5.928   1.823  0.0370  1.5394  0.4798
 2330SOL     OW37483   0.764   4.827   0.745  0.1146 -0.2070 -0.9567
 2330SOL    HW137484   0.794   4.768   0.814 -0.7497  1.0153  0.4987
 2330SOL    HW237485   0.698   4.776   0.698  0.3842 -0.8919 -0.6205
 2331SOL     OW37486   4.045   6.215   0.354  0.1645  0.3293  0.4036
 2331SOL    HW137487   4.132   6.252   0.363  1.8926 -3.1503 -0.2731
 2331SOL    HW237488   4.009   6.216   0.443  1.9364 -0.3759  1.1673
 2332SOL     OW37489   3.145   2.627   0.466  0.0131 -0.4877 -0.6445
 2332SOL    HW137490   3.189   2.645   0.549 -0.4805 -2.5429  0.1060
 2332SOL    HW237491   3.064   2.679   0.471  1.0887  1.3029 -0.9394
 2333SOL     OW37492   5.321   4.692   1.597  0.5118  0.1933  0.2062
 2333SOL    HW137493   5.312   4.727   1.508 -0.1547 -1.4041 -0.3920
 2333SOL    HW237494   5.233   4.660   1.619  1.1073 -1.1834  0.6567
 2334SOL     OW37495   3.050   6.170   1.235 -0.4076  0.1026 -0.3540
 2334SOL    HW137496   3.107   6.126   1.298 -0.8959 -0.8173 -0.5474
 2334SOL    HW237497   2.976   6.111   1.223 -0.3596  0.2861 -1.7540
 2335SOL     OW37498   5.514   5.203   1.588 -0.2976 -0.5262 -0.0435
 2335SOL    HW137499   5.516   5.215   1.493 -1.7749  0.5163  0.0187
 2335SOL    HW237500   5.515   5.108   1.600  1.1494 -0.6740 -1.0298
 2336SOL     OW37501   0.542   4.443   0.363 -0.0590  0.2653 -0.3913
 2336SOL    HW137502   0.616   4.386   0.383 -0.0536 -0.0146 -1.1840
 2336SOL    HW237503   0.539   4.446   0.267 -0.8820  0.5217 -0.3635
 2337SOL     OW37504   5.161   1.771   1.172  0.0455 -0.1356 -0.1450
 2337SOL    HW137505   5.212   1.837   1.219 -2.5078  0.9498  1.3407
 2337SOL    HW237506   5.219   1.740   1.103  2.7100  0.8813  1.4728
 2338SOL     OW37507   1.934   0.575  12.695  0.3930  0.1561  0.0798
 2338SOL    HW137508   1.955   0.488  12.660 -0.6588 -0.8704  1.8572
 2338SOL    HW237509   2.006   0.594  12.755  0.2441  0.1623  0.2567
 2339SOL     OW37510   3.805   1.783  12.753  0.4655  0.2814 -0.2608
 2339SOL    HW137511   3.737   1.790  12.687 -0.6938 -2.0693  0.5824
 2339SOL    HW237512   3.760   1.751  12.831  2.2514  0.3199  0.8507
 2340SOL     OW37513   0.969   0.943   0.244 -0.2503 -0.5034 -0.3851
 2340SOL    HW137514   0.988   0.961   0.336  0.0681  0.2676 -0.5971
 2340SOL    HW237515   0.874   0.927   0.242 -0.1739 -1.0601  0.1531
 2341SOL     OW37516   1.087   5.184   0.062 -0.0761  0.1665  0.1477
 2341SOL    HW137517   1.126   5.142  -0.015  0.2294 -1.7042  1.2591
 2341SOL    HW237518   1.161   5.228   0.105 -0.2168  1.0686 -0.4942
 2342SOL     OW37519   3.926   1.479   0.566 -0.4829 -0.2127  0.7914
 2342SOL    HW137520   3.909   1.440   0.481 -0.4356  0.4514  0.4738
 2342SOL    HW237521   3.861   1.550   0.574  1.3395  1.6224  0.0534
 2343SOL     OW37522   3.908   1.605   1.029  0.2462  0.4657 -0.2791
 2343SOL    HW137523   3.876   1.542   0.965  1.2909  0.3882 -0.7531
 2343SOL    HW237524   4.004   1.604   1.018  0.2757  2.4765 -0.6594
 2344SOL     OW37525   3.749   2.391  11.754 -0.3277  0.1694  0.3273
 2344SOL    HW137526   3.722   2.462  11.813 -0.6133 -0.0282  0.4347
 2344SOL    HW237527   3.686   2.321  11.771 -1.6127  0.7918 -1.5819
 2345SOL     OW37528   3.851   2.790  11.707 -0.5087  0.0389  0.2487
 2345SOL    HW137529   3.792   2.842  11.760  0.6338 -0.5527  2.2336
 2345SOL    HW237530   3.842   2.701  11.741 -0.2715 -0.5122 -1.0679
 2346SOL     OW37531   1.590   5.502  12.251 -0.7280 -0.4508 -0.4051
 2346SOL    HW137532   1.610   5.445  12.325 -1.1486 -0.9760 -0.6937
 2346SOL    HW237533   1.499   5.528  12.263  0.0405  1.9708  0.9235
 2347SOL     OW37534   2.705   5.173   1.533 -0.9579  0.4359  0.4146
 2347SOL    HW137535   2.771   5.203   1.596  0.7979  1.2719 -1.6966
 2347SOL    HW237536   2.700   5.243   1.468 -2.1219 -0.7192 -0.8069
 2348SOL     OW37537   0.401   6.201   0.626 -0.8800  0.0512  0.5758
 2348SOL    HW137538   0.377   6.144   0.699 -0.3743 -0.7144  0.1650
 2348SOL    HW237539   0.407   6.142   0.551  0.6970  0.4638  0.3464
 2349SOL     OW37540   1.747   5.428  11.501 -0.0322 -0.0402 -0.1747
 2349SOL    HW137541   1.842   5.415  11.500  0.0800  0.5997 -1.7996
 2349SOL    HW237542   1.727   5.458  11.589  1.1291 -1.1103  0.4889
 2350SOL     OW37543   4.609   5.339   0.197 -0.3502  0.1718  0.3348
 2350SOL    HW137544   4.536   5.377   0.245  0.3525  1.4196  0.4673
 2350SOL    HW237545   4.686   5.384   0.232  0.5350 -1.4154  0.5012
 2351SOL     OW37546   0.266   5.704   1.682 -0.5896  0.0540 -0.3068
 2351SOL    HW137547   0.332   5.766   1.713  0.7166 -1.2383 -0.4068
 2351SOL    HW237548   0.224   5.749   1.608  1.4410  0.2242 -1.4237
 2352SOL     OW37549   0.788   3.016   1.682 -0.1567 -1.0737 -0.0370
 2352SOL    HW137550   0.829   2.933   1.709 -0.0336 -1.3903 -1.1165
 2352SOL    HW237551   0.721   3.033   1.748  1.1115 -1.0136  1.2743
 2353SOL     OW37552   5.437   4.273  12.181 -0.1204 -0.0235 -0.1501
 2353SOL    HW137553   5.447   4.318  12.097 -2.0916  1.3667  0.2871
 2353SOL    HW237554   5.516   4.219  12.189  2.5004  3.3899 -0.6802
 2354SOL     OW37555   5.193   0.530  11.972  0.2218 -0.2860  0.9217
 2354SOL    HW137556   5.232   0.461  11.919  2.6844  2.0474 -0.5239
 2354SOL    HW237557   5.171   0.599  11.910 -0.8253  0.8322  2.4645
 2355SOL     OW37558   2.189   0.716   0.486 -1.0052 -0.0904 -0.4688
 2355SOL    HW137559   2.199   0.624   0.458  0.2641  0.1074 -0.7390
 2355SOL    HW237560   2.175   0.764   0.404  0.5922  0.2204 -0.5969
 2356SOL     OW37561   3.572   2.531  11.585  0.2762  0.1591 -0.1915
 2356SOL    HW137562   3.638   2.506  11.650  1.1379  0.6800 -0.8316
 2356SOL    HW237563   3.614   2.601  11.534  1.0663 -2.5010 -3.5526
 2357SOL     OW37564   1.248   0.503   0.742 -0.5338 -0.2498  0.7474
 2357SOL    HW137565   1.259   0.585   0.790 -0.1489  0.7163 -0.8911
 2357SOL    HW237566   1.244   0.530   0.650 -0.4047 -2.0823  0.1654
 2358SOL     OW37567   2.252   1.129   1.053  0.1580  0.1000  0.3728
 2358SOL    HW137568   2.207   1.200   1.098  0.2340  0.7286 -0.5260
 2358SOL    HW237569   2.311   1.092   1.119  1.0499  1.6939  0.5192
 2359SOL     OW37570   4.055   5.815  11.421  0.1357  0.2510  0.2393
 2359SOL    HW137571   4.135   5.866  11.419  0.6487 -0.5404  0.1550
 2359SOL    HW237572   3.991   5.872  11.463  0.4083  1.3510 -0.7772
 2360SOL     OW37573   5.391   2.353   0.379 -0.1812  0.0353  0.5351
 2360SOL    HW137574   5.429   2.356   0.292 -3.0775 -0.7169 -0.8675
 2360SOL    HW237575   5.390   2.260   0.403 -0.4749  0.1106  0.8373
 2361SOL     OW37576   4.870   0.061  12.455 -0.2293  0.8141  0.1076
 2361SOL    HW137577   4.863   0.134  12.516 -1.4400 -0.5050  1.6430
 2361SOL    HW237578   4.932   0.001  12.496  1.3200  1.2498 -1.4901
 2362SOL     OW37579   0.629   1.409   0.183 -0.4930 -0.3385 -0.3344
 2362SOL    HW137580   0.569   1.334   0.176  1.1868 -2.0253  1.9203
 2362SOL    HW237581   0.696   1.392   0.117 -0.7245 -0.1927 -0.6098
 2363SOL     OW37582   0.102   1.674   0.644  0.6774  0.3793  0.0056
 2363SOL    HW137583   0.162   1.667   0.569  0.3192 -0.0278 -0.2505
 2363SOL    HW237584   0.041   1.743   0.621  2.1688  2.1355  1.0804
 2364SOL     OW37585   4.653   4.312   1.438 -0.0580  0.4649  0.1836
 2364SOL    HW137586   4.657   4.315   1.342  0.4475  1.3232  0.2275
 2364SOL    HW237587   4.641   4.219   1.458  2.3907 -0.0785 -0.6122
 2365SOL     OW37588   4.669   3.001   0.294 -0.4047  0.3169 -0.0262
 2365SOL    HW137589   4.593   2.943   0.302  0.5460 -0.6508  3.2558
 2365SOL    HW237590   4.733   2.950   0.245 -0.8073  0.0049 -0.2345
 2366SOL     OW37591   5.826   1.563   0.576 -0.1427  0.1281  0.1969
 2366SOL    HW137592   5.802   1.655   0.575 -0.7437 -0.0244 -0.7185
 2366SOL    HW237593   5.892   1.555   0.507 -2.2819 -0.6481 -1.8858
 2367SOL     OW37594   2.614   5.580  12.295  0.4864 -0.0733 -0.2507
 2367SOL    HW137595   2.627   5.581  12.390  0.1153 -2.0354 -0.1335
 2367SOL    HW237596   2.666   5.506  12.265 -0.0940 -0.0109 -1.4532
 2368SOL     OW37597   0.724   6.351   0.738 -0.3705 -0.1924  0.3470
 2368SOL    HW137598   0.720   6.261   0.706 -0.4719 -1.0091  2.4840
 2368SOL    HW237599   0.648   6.393   0.699  1.0350 -0.2496 -2.7147
 2369SOL     OW37600   3.647   2.297   0.122 -0.0675 -0.0665  0.1333
 2369SOL    HW137601   3.592   2.304   0.200  1.1509  1.2174  0.9082
 2369SOL    HW237602   3.679   2.207   0.123  1.7243  0.5201  2.4022
 2370SOL     OW37603   3.390   2.901   0.897  0.1879  0.3660  0.0327
 2370SOL    HW137604   3.423   2.991   0.900  0.5650  0.2331 -0.0351
 2370SOL    HW237605   3.369   2.880   0.988 -0.5623  0.7593 -0.0430
 2371SOL     OW37606   2.573   1.516  11.845  0.0477  0.0599 -0.2587
 2371SOL    HW137607   2.504   1.526  11.780  0.2173 -1.4071 -0.6793
 2371SOL    HW237608   2.597   1.424  11.843  0.8321  0.1926  1.1077
 2372SOL     OW37609   3.891   4.894   2.126 -0.1630  0.4507 -0.1966
 2372SOL    HW137610   3.854   4.821   2.177  0.9438  0.5647  0.7998
 2372SOL    HW237611   3.821   4.918   2.066 -0.9840 -0.6574  0.2733
 2373SOL     OW37612   4.192   4.306   1.320  0.1882  0.3683  0.2210
 2373SOL    HW137613   4.239   4.316   1.403  0.5926  0.5553 -0.0263
 2373SOL    HW237614   4.200   4.391   1.277  0.6841  0.0339 -0.3687
 2374SOL     OW37615   0.325   2.817   0.221  0.4517  0.5764 -0.3986
 2374SOL    HW137616   0.365   2.780   0.300 -0.5623  1.4042  0.5277
 2374SOL    HW237617   0.246   2.860   0.252 -0.4743  0.1126 -2.0078
 2375SOL     OW37618   3.140   0.225   0.101 -0.2383 -0.2311 -0.2974
 2375SOL    HW137619   3.150   0.155   0.165 -3.0953 -2.6450 -2.2330
 2375SOL    HW237620   3.069   0.279   0.134  0.1875  0.2322 -0.1118
 2376SOL     OW37621   2.941   0.002   0.815  0.4790  0.3623  0.1301
 2376SOL    HW137622   2.932   0.069   0.883 -0.9377  1.7119 -1.2956
 2376SOL    HW237623   2.862  -0.051   0.823  0.0274  0.8752 -0.7759
 2377SOL     OW37624   5.195   3.142  12.854 -0.1459 -0.4090 -0.4657
 2377SOL    HW137625   5.136   3.141  12.779  1.4501 -2.3950 -1.8260
 2377SOL    HW237626   5.218   3.050  12.867  2.0929  0.1938  0.3915
 2378SOL     OW37627   0.516   4.912   1.882  0.0667  0.1009  0.2981
 2378SOL    HW137628   0.574   4.886   1.954  0.3020  0.4199  0.2285
 2378SOL    HW237629   0.439   4.857   1.892  0.3298 -0.2411  0.4694
 2379SOL     OW37630   5.106   4.556   1.118 -0.0306 -0.0333 -0.2900
 2379SOL    HW137631   5.198   4.556   1.142  0.2088 -1.7142 -1.0403
 2379SOL    HW237632   5.099   4.490   1.049 -1.6197  0.7891 -0.9698
 2380SOL     OW37633   5.344   0.743   1.015 -0.8410  0.2041  0.3474
 2380SOL    HW137634   5.328   0.821   1.068 -1.1542 -0.2611  0.9481
 2380SOL    HW237635   5.282   0.678   1.048  0.6806 -0.9028  1.1231
 2381SOL     OW37636   3.359   5.952   1.468  0.1673 -0.0229 -0.0673
 2381SOL    HW137637   3.328   5.927   1.381  1.1860 -1.8949  0.0728
 2381SOL    HW237638   3.451   5.926   1.469  0.3373  0.5547  1.3710
 2382SOL     OW37639   2.264   5.950   1.674 -0.1915 -0.0693  0.0172
 2382SOL    HW137640   2.331   5.883   1.667 -1.0562 -0.9534 -0.0473
 2382SOL    HW237641   2.187   5.912   1.631 -1.0218  0.5353  0.9181
 2383SOL     OW37642   1.199   3.413   0.323 -0.2797  0.6188 -0.4438
 2383SOL    HW137643   1.108   3.437   0.336 -0.4488 -1.3130  2.8939
 2383SOL    HW237644   1.206   3.324   0.358  2.7109  0.3444 -1.4389
 2384SOL     OW37645   0.164   2.895  11.831  0.0712  0.4491  0.0683
 2384SOL    HW137646   0.204   2.982  11.820  2.8682 -0.6844  0.5243
 2384SOL    HW237647   0.167   2.857  11.743 -2.2233  1.1654 -0.3788
 2385SOL     OW37648   0.591   4.316  11.864  0.7396  0.7996  0.0220
 2385SOL    HW137649   0.613   4.330  11.772 -0.4058  1.4672 -0.1754
 2385SOL    HW237650   0.523   4.249  11.863  2.8955 -1.5556  0.6468
 2386SOL     OW37651   3.595   5.673   1.474  0.1422 -0.3499  0.0787
 2386SOL    HW137652   3.552   5.626   1.403  0.2131 -0.6929  0.2623
 2386SOL    HW237653   3.644   5.743   1.431 -0.5494  0.0094 -0.1357
 2387SOL     OW37654   4.681   4.394  11.962 -0.3618 -0.0682  0.2413
 2387SOL    HW137655   4.626   4.319  11.987  0.6041 -0.2880  1.8227
 2387SOL    HW237656   4.659   4.462  12.025  1.0128 -0.0867  0.7658
 2388SOL     OW37657   2.150   0.118  11.841  0.5292  0.3007 -0.4354
 2388SOL    HW137658   2.225   0.126  11.782  0.9434 -1.2790 -0.1531
 2388SOL    HW237659   2.075   0.105  11.784  0.5393  1.2710 -0.6943
 2389SOL     OW37660   0.320   3.701   1.821  0.2821  0.3037  0.7957
 2389SOL    HW137661   0.277   3.641   1.759  1.2612 -0.5377  0.9031
 2389SOL    HW237662   0.285   3.676   1.906  1.1895 -0.6094  0.9241
 2390SOL     OW37663   0.911   0.002   1.618 -0.0739 -0.8990 -0.3671
 2390SOL    HW137664   0.832  -0.023   1.570 -0.7561 -1.6718  1.0921
 2390SOL    HW237665   0.958  -0.080   1.630  0.8261 -0.4840 -0.9750
 2391SOL     OW37666   5.339   0.522   1.282  0.2673  0.2284 -0.5033
 2391SOL    HW137667   5.339   0.594   1.344  0.9664 -1.1649  1.1931
 2391SOL    HW237668   5.246   0.511   1.258 -0.0536  0.5882  0.5425
 2392SOL     OW37669   3.060   4.397   1.245  0.1402  0.3084  0.3936
 2392SOL    HW137670   3.078   4.330   1.180 -0.0432  0.4536  0.1927
 2392SOL    HW237671   2.965   4.393   1.258  0.2923 -0.4483  1.4347
 2393SOL     OW37672   2.632   1.458   1.371 -0.1318 -0.0034  0.7545
 2393SOL    HW137673   2.562   1.467   1.305  0.5584  0.0245  0.0108
 2393SOL    HW237674   2.635   1.365   1.390  1.2795 -0.4015 -1.0929
 2394SOL     OW37675   1.030   0.869   1.462  0.5496 -0.1482 -0.3829
 2394SOL    HW137676   0.935   0.857   1.467  0.6571 -2.4148 -2.1425
 2394SOL    HW237677   1.065   0.780   1.465  2.4891  0.5168 -1.7434
 2395SOL     OW37678   4.036   1.205   1.175  0.0600 -0.1602 -0.1690
 2395SOL    HW137679   3.977   1.177   1.106  0.5739  0.7575 -1.0034
 2395SOL    HW237680   4.103   1.136   1.179 -1.0298 -1.2155  0.7982
 2396SOL     OW37681   4.661   4.370  11.494  0.0701 -0.0488 -0.2440
 2396SOL    HW137682   4.678   4.375  11.400  0.5685  0.4939 -0.1338
 2396SOL    HW237683   4.722   4.303  11.525 -1.1008 -1.2669 -0.5196
 2397SOL     OW37684   4.195   2.173  12.624 -0.5406 -0.1804 -0.0451
 2397SOL    HW137685   4.276   2.148  12.579 -0.9831 -2.6807  0.4066
 2397SOL    HW237686   4.220   2.249  12.677  1.3340 -0.4750 -0.4110
 2398SOL     OW37687   4.343   5.483   0.966 -0.3110  0.8800  0.2884
 2398SOL    HW137688   4.314   5.443   0.884 -0.7288 -1.2310  1.3999
 2398SOL    HW237689   4.270   5.468   1.026  0.9073  0.3038  1.6610
 2399SOL     OW37690   0.878   6.239   0.091 -0.0737 -0.0193 -0.6264
 2399SOL    HW137691   0.912   6.320   0.053 -0.0504  0.3258  0.1224
 2399SOL    HW237692   0.785   6.255   0.103 -0.0085  0.0207 -0.1664
 2400SOL     OW37693   2.737   0.709  12.244  0.4492 -0.0321  0.0409
 2400SOL    HW137694   2.808   0.744  12.190  0.5254 -0.6339 -0.2678
 2400SOL    HW237695   2.728   0.771  12.316  0.0061  1.0571 -0.9190
 2401SOL     OW37696   5.367   6.143  11.537  0.6314  0.5303 -0.2051
 2401SOL    HW137697   5.310   6.212  11.503 -1.0486 -0.0360  1.3012
 2401SOL    HW237698   5.444   6.190  11.569  0.6771  1.4057 -1.5267
 2402SOL     OW37699   5.256   6.398  12.638  0.4999 -0.1281 -0.4415
 2402SOL    HW137700   5.315   6.328  12.610  0.2105 -0.5398 -0.0370
 2402SOL    HW237701   5.287   6.475  12.591  0.0801 -0.7723 -1.8367
 2403SOL     OW37702   1.821   1.800   0.027  0.1727  0.2310 -0.6547
 2403SOL    HW137703   1.740   1.766   0.063  0.6742 -0.8780 -0.5403
 2403SOL    HW237704   1.810   1.895   0.028 -0.4804  0.1544  0.8552
 2404SOL     OW37705   4.057   1.278  11.463 -0.6030  0.3432  0.2453
 2404SOL    HW137706   4.142   1.306  11.497 -0.7455  1.1340 -0.0325
 2404SOL    HW237707   4.074   1.254  11.372 -1.0161  2.4304 -0.4466
 2405SOL     OW37708   3.186   4.737  12.372 -0.0386 -0.3934  0.8314
 2405SOL    HW137709   3.107   4.685  12.387 -0.0428 -0.2485  1.3312
 2405SOL    HW237710   3.258   4.674  12.381 -0.0742 -0.4360  0.8190
 2406SOL     OW37711   1.933   5.220  11.596 -0.0627  0.2385  0.1383
 2406SOL    HW137712   2.013   5.167  11.598  0.2809  0.7452  0.0682
 2406SOL    HW237713   1.938   5.273  11.675  0.2921  1.1572 -0.4772
 2407SOL     OW37714   0.907   2.745  11.522  0.6405 -0.9964 -0.1242
 2407SOL    HW137715   0.956   2.813  11.475 -0.4201 -0.8721 -1.0943
 2407SOL    HW237716   0.862   2.793  11.592  0.4435 -0.8021 -0.3801
 2408SOL     OW37717   2.929   2.081  11.425 -0.4278 -0.2678 -0.1947
 2408SOL    HW137718   2.910   2.039  11.341 -1.5110 -2.3945  1.0091
 2408SOL    HW237719   3.006   2.033  11.458 -1.6300 -1.3372  1.1726
 2409SOL     OW37720   1.803   4.461   0.760 -0.9748 -0.7533  0.1288
 2409SOL    HW137721   1.832   4.393   0.699 -1.0213  0.0933 -0.8596
 2409SOL    HW237722   1.858   4.447   0.838 -0.4793 -1.4681 -0.3311
 2410SOL     OW37723   3.744   6.351  11.901  0.8704 -0.3676  0.6211
 2410SOL    HW137724   3.773   6.394  11.982  0.6751 -0.3048  0.6580
 2410SOL    HW237725   3.653   6.378  11.891  1.0408  0.0255  0.1136
 2411SOL     OW37726   4.747   1.742  12.588  0.3760  0.0476 -0.2110
 2411SOL    HW137727   4.841   1.759  12.579  1.2054 -2.2804  2.3417
 2411SOL    HW237728   4.733   1.662  12.536  0.3492 -0.7999  1.0428
 2412SOL     OW37729   1.802   1.286   0.622 -0.1580 -0.0938 -0.1371
 2412SOL    HW137730   1.754   1.256   0.545 -0.6614 -1.1167  0.5471
 2412SOL    HW237731   1.736   1.286   0.692  0.4275  0.2239  0.4180
 2413SOL     OW37732   5.932   0.537  12.776 -0.1711  0.7837 -0.0413
 2413SOL    HW137733   5.906   0.450  12.745  0.0524  0.5602  0.3778
 2413SOL    HW237734   5.867   0.559  12.843  0.9469  0.0026  1.3753
 2414SOL     OW37735   1.243   0.343  12.201 -0.1598 -0.0552 -0.0376
 2414SOL    HW137736   1.247   0.308  12.112 -0.6093  1.5725 -0.7225
 2414SOL    HW237737   1.334   0.359  12.225  0.0436 -1.5129  0.2353
 2415SOL     OW37738   0.574   2.773  11.381 -0.1188 -0.0652 -0.3116
 2415SOL    HW137739   0.573   2.771  11.477 -1.7024  1.7912 -0.2285
 2415SOL    HW237740   0.545   2.686  11.355  0.1405 -0.5321  0.8913
 2416SOL     OW37741   5.045   2.429  12.161  0.2178  0.1910 -0.0607
 2416SOL    HW137742   5.039   2.372  12.084  2.1986 -0.0009 -0.1411
 2416SOL    HW237743   5.058   2.516  12.125 -1.7520  0.5728  0.0730
 2417SOL     OW37744   2.834   2.008   0.240  0.3968  0.0654  0.3937
 2417SOL    HW137745   2.885   1.929   0.256  0.4519 -0.1312 -0.6824
 2417SOL    HW237746   2.744   1.983   0.261  0.5343 -0.0181  0.8969
 2418SOL     OW37747   4.616   6.048  12.626  0.1588  0.3641 -0.0784
 2418SOL    HW137748   4.695   5.994  12.624 -0.4055 -0.4723 -0.3256
 2418SOL    HW237749   4.647   6.135  12.648  1.1479  0.0368 -0.1369
 2419SOL     OW37750   4.576   1.491  11.379 -0.3387 -0.3484 -0.0342
 2419SOL    HW137751   4.500   1.474  11.434 -0.5931  0.1434 -0.2266
 2419SOL    HW237752   4.539   1.523  11.296  0.0839  3.3247  0.9974
 2420SOL     OW37753   3.833   1.846   1.212  0.1426  0.1904  0.0553
 2420SOL    HW137754   3.869   1.798   1.287  0.0848 -0.9145 -0.6138
 2420SOL    HW237755   3.845   1.788   1.138  0.9481  1.5987 -0.9673
 2421SOL     OW37756   5.707   5.223   1.762 -0.0211  0.2179  0.5876
 2421SOL    HW137757   5.647   5.181   1.823 -0.1714  0.3079  0.4994
 2421SOL    HW237758   5.652   5.255   1.691  0.2270 -0.4344  0.0899
 2422SOL     OW37759   2.767   4.714   0.923  0.0993 -0.3922  0.6723
 2422SOL    HW137760   2.713   4.677   0.992 -0.2150 -2.3009 -0.5118
 2422SOL    HW237761   2.803   4.638   0.878 -0.9816  0.6764 -2.2456
 2423SOL     OW37762   3.126   0.571   0.566  0.6360 -0.4416 -0.8225
 2423SOL    HW137763   3.126   0.557   0.660 -0.4867 -2.7145 -1.0887
 2423SOL    HW237764   3.035   0.592   0.545  1.2777  2.3812 -1.1894
 2424SOL     OW37765   0.307   3.292   1.720  0.0774  0.0320 -0.6213
 2424SOL    HW137766   0.240   3.252   1.664 -0.6367  0.5205 -0.1341
 2424SOL    HW237767   0.309   3.384   1.693  0.0939  0.1574 -0.1908
 2425SOL     OW37768   1.792   2.405  12.823  0.1775 -0.2972 -0.6457
 2425SOL    HW137769   1.818   2.404  12.731  0.4179  2.2245 -0.6918
 2425SOL    HW237770   1.873   2.417  12.871 -0.2576  3.5979 -0.5421
 2426SOL     OW37771   5.338   6.435   1.233  0.5940  0.1640 -0.3372
 2426SOL    HW137772   5.407   6.387   1.277 -0.2303 -1.1223 -0.3899
 2426SOL    HW237773   5.355   6.527   1.255  0.4221 -0.3580  2.4246
 2427SOL     OW37774   6.351   1.779   1.002 -0.3663  0.1340  0.3953
 2427SOL    HW137775   6.274   1.755   0.950  0.6449 -0.6428 -0.8038
 2427SOL    HW237776   6.318   1.785   1.092 -1.5495 -1.5501  0.1257
 2428SOL     OW37777   5.672   0.764  12.827 -0.1624 -0.6947 -0.3939
 2428SOL    HW137778   5.671   0.750  12.733 -1.8844 -1.3802 -0.3001
 2428SOL    HW237779   5.602   0.827  12.844  1.1252  0.6213  0.2877
 2429SOL     OW37780   2.936   4.212  12.228 -0.2386  0.0773  0.5459
 2429SOL    HW137781   2.956   4.303  12.207  1.1137 -0.4577 -0.6127
 2429SOL    HW237782   2.925   4.211  12.323  0.4018  1.3129  0.6493
 2430SOL     OW37783   3.800   1.230  11.462  0.1775  0.4955  0.2286
 2430SOL    HW137784   3.895   1.240  11.466  0.3365 -1.0911  1.4541
 2430SOL    HW237785   3.766   1.304  11.511  0.8245  0.6314  0.4794
 2431SOL     OW37786   1.377   1.472   1.581 -0.0049  0.4123 -0.4859
 2431SOL    HW137787   1.372   1.405   1.513 -0.4899  0.4759 -0.5124
 2431SOL    HW237788   1.313   1.445   1.647  1.0286 -0.0962  0.3513
 2432SOL     OW37789   1.866   4.664   0.373  0.2746 -0.1944 -0.4642
 2432SOL    HW137790   1.801   4.686   0.307  0.0874  0.9149  0.0559
 2432SOL    HW237791   1.839   4.713   0.451  0.9874 -0.7616  0.1606
 2433SOL     OW37792   5.336   0.798  12.079  0.3621  0.4232 -0.2234
 2433SOL    HW137793   5.245   0.777  12.058 -0.7509  1.0713  3.2907
 2433SOL    HW237794   5.348   0.887  12.044 -0.4321  0.4430 -0.4705
 2434SOL     OW37795   1.375   1.977  12.473 -0.3025 -0.3264  0.2617
 2434SOL    HW137796   1.433   2.045  12.507 -0.9663 -0.5738  1.9838
 2434SOL    HW237797   1.351   2.008  12.386 -0.0964  1.3378  0.7516
 2435SOL     OW37798   3.391   5.145   0.096 -0.3184 -0.2836  0.4647
 2435SOL    HW137799   3.356   5.229   0.126  0.3019 -0.3602  1.4338
 2435SOL    HW237800   3.442   5.112   0.170  0.1086 -1.1390 -0.1925
 2436SOL     OW37801   4.477   5.104   1.359 -0.2507  0.0811  0.0504
 2436SOL    HW137802   4.404   5.069   1.410 -0.5378 -0.3384 -0.6373
 2436SOL    HW237803   4.555   5.064   1.397 -0.2417  1.4078  1.5417
 2437SOL     OW37804   4.706   5.038   0.530  0.3799  0.4592 -0.0937
 2437SOL    HW137805   4.693   4.970   0.464  1.0959  0.9969 -0.8166
 2437SOL    HW237806   4.798   5.061   0.523  0.5483  0.3237  1.3232
 2438SOL     OW37807   0.934   4.393  11.401  0.5446 -0.5220 -0.0223
 2438SOL    HW137808   0.854   4.444  11.418  0.6684  0.0486 -1.0700
 2438SOL    HW237809   0.996   4.423  11.468  0.1072 -0.4635  0.3628
 2439SOL     OW37810   1.353   0.219  12.670 -0.6241  1.1633  0.5359
 2439SOL    HW137811   1.365   0.312  12.651 -1.3652  1.2060  0.2521
 2439SOL    HW237812   1.434   0.178  12.639 -1.4196  1.3498 -1.9352
 2440SOL     OW37813   0.612   2.638  11.993  0.8475 -0.6378  0.8685
 2440SOL    HW137814   0.554   2.573  12.032 -2.5301  0.2677 -2.1040
 2440SOL    HW237815   0.680   2.587  11.948  0.4752 -1.8902  1.6798
 2441SOL     OW37816   0.693   3.396   1.707  0.2380  0.1246 -0.3988
 2441SOL    HW137817   0.624   3.461   1.722 -1.9411 -1.8586 -1.1270
 2441SOL    HW237818   0.762   3.445   1.663 -1.0514  2.0603 -0.4340
 2442SOL     OW37819   5.280   5.674   0.298 -0.2453  0.0098 -0.0014
 2442SOL    HW137820   5.303   5.750   0.244 -0.8862 -0.4661 -0.9676
 2442SOL    HW237821   5.196   5.697   0.337  1.1780  1.2694  2.6204
 2443SOL     OW37822   5.301   0.293  11.842  0.2624  0.2207  0.8446
 2443SOL    HW137823   5.387   0.313  11.807 -0.9938  2.6082 -1.2420
 2443SOL    HW237824   5.252   0.258  11.767 -0.9503  0.1989  1.6206
 2444SOL     OW37825   3.325   4.157  12.512 -0.1080  0.0801 -0.0670
 2444SOL    HW137826   3.233   4.182  12.523 -0.2535 -0.4075 -0.1516
 2444SOL    HW237827   3.323   4.088  12.446  0.6614  2.4497 -2.7599
 2445SOL     OW37828   1.548   3.012   0.184 -0.0437  0.1296  0.0828
 2445SOL    HW137829   1.540   2.953   0.258 -1.5969  0.5692  0.2985
 2445SOL    HW237830   1.541   3.100   0.222  0.9487  0.4293 -0.3840
 2446SOL     OW37831   2.880   5.029  11.437 -0.3788  0.5135 -0.1058
 2446SOL    HW137832   2.791   5.058  11.416 -0.3332  1.2091  0.6069
 2446SOL    HW237833   2.869   4.971  11.512 -0.3240 -0.1913 -0.6387
 2447SOL     OW37834   6.279   5.802  12.066 -0.0722 -0.0449  0.2236
 2447SOL    HW137835   6.316   5.722  12.103 -2.1598 -1.0362  0.3083
 2447SOL    HW237836   6.184   5.794  12.081 -0.5282  1.5600 -1.4576
 2448SOL     OW37837   5.437   2.931   1.263  0.5079  0.0091  0.2349
 2448SOL    HW137838   5.372   2.871   1.301  0.9666  0.4282  1.7682
 2448SOL    HW237839   5.492   2.876   1.208 -1.1080 -0.3608 -1.1040
 2449SOL     OW37840   0.325   5.799  12.307  0.0639 -0.5315  0.2624
 2449SOL    HW137841   0.288   5.722  12.263  0.4166 -0.7331  0.3161
 2449SOL    HW237842   0.408   5.814  12.263  0.0323 -0.2298  0.3069
 2450SOL     OW37843   4.415   4.508  11.904 -0.4378  0.0312  0.1920
 2450SOL    HW137844   4.386   4.502  11.995 -1.1582  1.1452  0.0661
 2450SOL    HW237845   4.383   4.428  11.863 -1.3296  0.1542  0.6193
 2451SOL     OW37846   4.501   0.175  12.491  0.4991  0.4674  0.0580
 2451SOL    HW137847   4.549   0.222  12.560  0.4470  0.2455  0.2445
 2451SOL    HW237848   4.509   0.083  12.515 -0.3573  0.4494  0.3098
 2452SOL     OW37849   0.609   2.051   1.079  0.3814 -0.0118 -0.5712
 2452SOL    HW137850   0.552   2.117   1.038  0.3460  0.5701  0.3855
 2452SOL    HW237851   0.622   2.083   1.168  1.0604 -0.8755 -0.3498
 2453SOL     OW37852   1.764   3.541   0.931  0.1762 -0.0698 -0.4397
 2453SOL    HW137853   1.828   3.537   1.001 -2.0931  0.3826  1.8038
 2453SOL    HW237854   1.713   3.620   0.950 -3.1407 -2.1204 -0.0803
 2454SOL     OW37855   1.900   2.425   0.798 -0.1445  0.5980  0.0994
 2454SOL    HW137856   1.928   2.447   0.709 -2.1714  0.7505 -0.5370
 2454SOL    HW237857   1.957   2.478   0.855  0.6284  1.1067 -1.1145
 2455SOL     OW37858   5.563   6.389   0.817  0.4075  0.2283  0.2329
 2455SOL    HW137859   5.524   6.437   0.743 -0.8928  0.5392  1.0842
 2455SOL    HW237860   5.593   6.458   0.876  0.5297 -0.0239  0.4657
 2456SOL     OW37861   0.687   2.901   0.009  0.2018 -0.2827  0.0516
 2456SOL    HW137862   0.698   2.895   0.103 -1.1709 -1.9382  0.1573
 2456SOL    HW237863   0.757   2.846  -0.027  0.4755  0.0225  0.1151
 2457SOL     OW37864   0.257   4.422   0.338  0.1432 -0.4104  0.1304
 2457SOL    HW137865   0.349   4.417   0.363  0.4759 -1.1510 -1.1479
 2457SOL    HW237866   0.209   4.411   0.420  1.1800 -1.6372  0.5959
 2458SOL     OW37867   0.733   4.807   2.026  0.5706 -0.4495 -0.3253
 2458SOL    HW137868   0.784   4.796   2.106 -0.0413 -0.3257  0.0944
 2458SOL    HW237869   0.773   4.882   1.982 -0.4177  0.8867  0.9584
 2459SOL     OW37870   4.245   1.256  12.377  0.0049  0.1614  0.0451
 2459SOL    HW137871   4.262   1.175  12.329  0.0321  0.5113 -0.5487
 2459SOL    HW237872   4.243   1.230  12.469 -1.4825 -0.7896 -0.2165
 2460SOL     OW37873   0.043   3.120  11.629  0.1274  0.0037 -0.2677
 2460SOL    HW137874   0.002   3.206  11.625  1.8130  0.8065 -1.6217
 2460SOL    HW237875   0.061   3.098  11.537  2.3330 -0.4526  0.2171
 2461SOL     OW37876   4.689   5.301  11.944 -0.1575  0.4846  0.6348
 2461SOL    HW137877   4.778   5.271  11.924 -0.7613 -1.5373  0.7553
 2461SOL    HW237878   4.635   5.259  11.877 -1.2029  0.4979  1.4584
 2462SOL     OW37879   3.650   0.317   0.338  0.5165  0.2964  0.1186
 2462SOL    HW137880   3.646   0.287   0.429  0.5066  0.2037  0.0874
 2462SOL    HW237881   3.734   0.284   0.306  1.6278  2.3063  0.7948
 2463SOL     OW37882   2.457   5.705   0.994 -0.0936 -0.2052 -0.3751
 2463SOL    HW137883   2.541   5.660   0.996 -0.1322 -0.3730 -1.6332
 2463SOL    HW237884   2.476   5.788   0.949 -0.5321 -0.0742 -0.3225
 2464SOL     OW37885   5.425   4.211   0.365 -0.2277 -0.1548  0.5883
 2464SOL    HW137886   5.399   4.284   0.308 -1.4663  0.0725  1.4111
 2464SOL    HW237887   5.519   4.201   0.349 -0.3518  0.5531 -0.7486
 2465SOL     OW37888   5.422   3.119   0.221 -0.3905  0.3152  0.4996
 2465SOL    HW137889   5.434   3.180   0.148  1.0122 -0.8422 -0.2900
 2465SOL    HW237890   5.453   3.167   0.298 -0.7882  1.1371  0.1625
 2466SOL     OW37891   1.611   2.720   0.892 -0.0297 -0.0963 -0.0319
 2466SOL    HW137892   1.702   2.751   0.895  0.0038 -0.1686 -0.2716
 2466SOL    HW237893   1.562   2.794   0.858 -0.2179  0.2935  1.0627
 2467SOL     OW37894   0.698   1.751   0.085 -0.2779 -0.8506  0.1491
 2467SOL    HW137895   0.639   1.773   0.156 -1.5139 -0.6416 -0.9067
 2467SOL    HW237896   0.713   1.833   0.039 -0.1231 -1.1174 -0.2883
 2468SOL     OW37897   5.684   3.825   1.275 -0.4708 -0.1074 -0.1492
 2468SOL    HW137898   5.725   3.747   1.312 -0.2014  0.1868  0.1868
 2468SOL    HW237899   5.620   3.851   1.340 -0.3763  0.1018 -0.1394
 2469SOL     OW37900   0.354   5.243   1.767 -0.5644 -0.4089 -0.1658
 2469SOL    HW137901   0.361   5.328   1.723 -0.4719 -0.1724  0.3021
 2469SOL    HW237902   0.384   5.259   1.856 -0.7659 -0.8847 -0.0073
 2470SOL     OW37903   3.351   1.467   1.047  0.3308  0.3389 -0.3755
 2470SOL    HW137904   3.308   1.404   1.106  2.6448  0.0213  1.1087
 2470SOL    HW237905   3.418   1.415   1.002  1.8332  1.5178  0.3729
 2471SOL     OW37906   0.712   1.655   1.405 -0.0075 -0.5332 -0.0601
 2471SOL    HW137907   0.673   1.681   1.322  0.2610 -0.4034 -0.1493
 2471SOL    HW237908   0.667   1.574   1.430  0.5432 -1.0730 -0.7860
 2472SOL     OW37909   1.069   4.620   0.161  0.5571 -0.4529 -0.0611
 2472SOL    HW137910   1.103   4.692   0.107 -3.4439  0.4367 -1.7871
 2472SOL    HW237911   1.076   4.543   0.104  0.3604 -0.4039 -0.1538
 2473SOL     OW37912   2.845   5.738  12.317  0.1864  0.1413  0.2320
 2473SOL    HW137913   2.760   5.700  12.299  0.1468 -1.1734  2.7781
 2473SOL    HW237914   2.844   5.757  12.411  3.3935 -1.9477  0.8465
 2474SOL     OW37915   3.387   2.262   1.462 -0.4743  0.3669 -0.1695
 2474SOL    HW137916   3.326   2.276   1.389  1.0761  0.0115 -1.6093
 2474SOL    HW237917   3.459   2.323   1.445 -0.2989  0.6289  1.3706
 2475SOL     OW37918   4.065   5.792  12.648  0.2671 -0.5794  0.5130
 2475SOL    HW137919   4.158   5.801  12.667 -0.2370  0.8008  2.7022
 2475SOL    HW237920   4.023   5.859  12.701 -1.9154 -0.4175 -1.2649
 2476SOL     OW37921   3.996   1.259  12.112  0.2003  0.2888 -0.7373
 2476SOL    HW137922   4.091   1.256  12.102  0.5584 -0.7179  2.1113
 2476SOL    HW237923   3.970   1.167  12.118 -0.6794  0.5995  0.4952
 2477SOL     OW37924   2.481   5.484   1.591 -0.3483 -0.1216  0.7421
 2477SOL    HW137925   2.413   5.422   1.616  0.6469 -1.1915  0.8547
 2477SOL    HW237926   2.563   5.435   1.600  0.3099  0.5112 -1.3323
 2478SOL     OW37927   2.952   3.586   1.486 -0.3289 -0.1859 -0.7842
 2478SOL    HW137928   2.933   3.679   1.474 -2.4431 -0.5970 -0.8692
 2478SOL    HW237929   3.013   3.584   1.561  0.0079  1.2624 -0.9908
 2479SOL     OW37930   1.393   3.043  11.845  0.2001 -0.4489 -0.1471
 2479SOL    HW137931   1.484   3.014  11.839  0.3089 -0.2072  0.2985
 2479SOL    HW237932   1.398   3.138  11.831  0.1619 -0.2517  1.0884
 2480SOL     OW37933   5.725   4.909  11.779  0.0179 -0.2703 -0.0278
 2480SOL    HW137934   5.771   4.826  11.789 -1.1752 -1.0928 -1.1030
 2480SOL    HW237935   5.654   4.891  11.717 -0.8968  1.3034  0.4890
 2481SOL     OW37936   3.192   3.514  11.662 -0.6180  0.1890  0.1863
 2481SOL    HW137937   3.220   3.430  11.627  0.3587  1.1485 -1.4672
 2481SOL    HW237938   3.097   3.508  11.667 -0.6268 -0.6802 -0.8253
 2482SOL     OW37939   1.371   2.858  12.099 -0.1417  0.0775 -0.5387
 2482SOL    HW137940   1.433   2.812  12.042  1.0636  1.0888 -0.1044
 2482SOL    HW237941   1.289   2.856  12.052  0.8479  0.9950 -2.3986
 2483SOL     OW37942   4.103   4.254  11.642 -0.4596  0.6886  0.5890
 2483SOL    HW137943   4.152   4.219  11.717  0.1071  0.8135  0.2869
 2483SOL    HW237944   4.076   4.341  11.670 -0.1880  0.7625  0.6282
 2484SOL     OW37945   6.229   1.595  11.818  0.5190 -0.0320  0.4190
 2484SOL    HW137946   6.161   1.565  11.757 -0.0403  1.6327  0.1885
 2484SOL    HW237947   6.307   1.604  11.763 -0.0784  1.8391 -0.1923
 2485SOL     OW37948   2.209   0.737  11.839 -0.1783  0.1929 -0.3023
 2485SOL    HW137949   2.208   0.644  11.861  0.5205  0.4289  0.8533
 2485SOL    HW237950   2.119   0.756  11.812 -0.3436 -0.8023 -0.4925
 2486SOL     OW37951   3.111   5.591  11.669  0.0680  0.1699  0.2756
 2486SOL    HW137952   3.039   5.549  11.623  1.3639 -0.6747 -1.0839
 2486SOL    HW237953   3.190   5.551  11.632  1.2424  0.8807  1.8696
 2487SOL     OW37954   2.370   3.432  12.811 -0.1148 -0.0276 -0.0358
 2487SOL    HW137955   2.435   3.369  12.845  0.7241  1.4807  1.2867
 2487SOL    HW237956   2.289   3.410  12.857 -0.4020 -1.3864 -1.0848
 2488SOL     OW37957   5.560   3.843  10.996 -0.4056 -0.1158  0.4195
 2488SOL    HW137958   5.568   3.936  10.976  0.8287 -0.5118 -1.1453
 2488SOL    HW237959   5.624   3.828  11.066 -0.1022  0.0805  0.1849
 2489SOL     OW37960   6.108   5.785  11.036 -0.3946  0.3390 -0.3480
 2489SOL    HW137961   6.178   5.829  10.989 -0.1808  0.9217  0.5050
 2489SOL    HW237962   6.106   5.696  10.998  2.3604 -0.4942  1.1767
 2490SOL     OW37963   3.144   0.302   0.457 -0.2274  0.9437 -0.1337
 2490SOL    HW137964   3.064   0.285   0.408  0.2547 -0.6160 -0.4241
 2490SOL    HW237965   3.158   0.397   0.448 -0.9237  0.9139 -1.8152
 2491SOL     OW37966   2.236   5.366   0.097  0.1684  0.2521 -0.1816
 2491SOL    HW137967   2.167   5.300   0.107  1.0617 -0.6669  0.0669
 2491SOL    HW237968   2.307   5.320   0.052  1.2041  0.7287  0.9003
 2492SOL     OW37969   4.051   5.341   0.255  0.0366  0.3651 -0.6938
 2492SOL    HW137970   3.964   5.379   0.268  0.0015  0.4897 -1.2763
 2492SOL    HW237971   4.034   5.247   0.242  0.1171  0.1450  0.6636
 2493SOL     OW37972   1.021   1.497  11.816 -0.2380 -0.5900  0.0774
 2493SOL    HW137973   0.983   1.415  11.784  1.0578 -0.5238 -1.7624
 2493SOL    HW237974   1.115   1.489  11.799  0.3660  0.1181  2.5545
 2494SOL     OW37975   4.049   4.575  12.594 -0.5489 -0.4282  0.6451
 2494SOL    HW137976   4.123   4.529  12.634  0.5252  0.2733 -0.4445
 2494SOL    HW237977   4.000   4.611  12.668 -0.4320 -1.8263  1.4283
 2495SOL     OW37978   3.141   4.335   0.930  0.0094 -0.0815 -0.5054
 2495SOL    HW137979   3.149   4.317   0.837 -0.2027  0.1625 -0.5746
 2495SOL    HW237980   3.050   4.312   0.951  0.7938 -2.8865  0.2755
 2496SOL     OW37981   5.571   5.110  11.979  0.2696 -0.3990 -0.0746
 2496SOL    HW137982   5.600   5.033  11.930  0.6670 -0.4680  0.2669
 2496SOL    HW237983   5.517   5.076  12.049 -1.9371 -0.1855 -1.5748
 2497SOL     OW37984   2.733   1.243  11.836  0.5038  0.2901  0.0508
 2497SOL    HW137985   2.753   1.324  11.790  0.5085  0.1903 -0.1250
 2497SOL    HW237986   2.778   1.251  11.920 -2.9707  2.3676  1.8988
 2498SOL     OW37987   0.799   6.024   1.675  0.9230 -0.0609 -0.1632
 2498SOL    HW137988   0.851   6.101   1.696  1.8744 -0.4319 -1.0567
 2498SOL    HW237989   0.715   6.059   1.646  0.3201  0.5136  2.1096
 2499SOL     OW37990   5.275   0.846  11.508 -0.1571  0.2707  0.0361
 2499SOL    HW137991   5.261   0.913  11.441  0.8849 -0.6580 -1.1694
 2499SOL    HW237992   5.370   0.830  11.507 -0.1538  0.0386  1.5616
 2500SOL     OW37993   0.282   1.374  12.112 -0.2633 -0.7968  0.5001
 2500SOL    HW137994   0.221   1.440  12.080  0.0526 -0.6573  0.1921
 2500SOL    HW237995   0.368   1.405  12.086 -0.0770 -1.1203  0.7185
 2501SOL     OW37996   5.736   3.734  12.262  0.4110  0.0521  0.5565
 2501SOL    HW137997   5.683   3.764  12.188 -0.8932 -1.4855  0.8275
 2501SOL    HW237998   5.673   3.715  12.331  1.4331 -0.5913  1.3478
 2502SOL     OW37999   3.052   1.045   0.965  0.7771 -0.5777 -0.6814
 2502SOL    HW138000   3.019   1.006   0.884  1.6225 -0.5285 -1.0626
 2502SOL    HW238001   3.077   1.133   0.940 -0.5346  0.0313  0.0352
 2503SOL     OW38002   0.718   5.142  12.530 -0.3207  0.8834 -0.6325
 2503SOL    HW138003   0.626   5.162  12.514 -0.5615  0.6501  0.3556
 2503SOL    HW238004   0.765   5.215  12.489 -1.0152  1.7074 -0.0265
 2504SOL     OW38005   4.146   3.446   0.596  0.4047  0.5718 -0.3861
 2504SOL    HW138006   4.131   3.434   0.689 -2.1623 -0.0055 -0.7940
 2504SOL    HW238007   4.143   3.357   0.560  1.1366  0.8085 -1.0575
 2505SOL     OW38008   4.812   5.877  11.551  0.1142 -0.0279  0.1082
 2505SOL    HW138009   4.824   5.888  11.457 -1.0687  0.1006 -0.0525
 2505SOL    HW238010   4.852   5.792  11.570 -1.4653 -1.0772 -0.9377
 2506SOL     OW38011   4.840   3.213  10.698  0.5702  0.0694  0.4407
 2506SOL    HW138012   4.833   3.146  10.630 -0.8147 -0.5234  1.1417
 2506SOL    HW238013   4.749   3.237  10.717  0.8625 -0.5731  2.8762
 2507SOL     OW38014   4.699   3.125  11.568  0.1865 -0.6740  0.0975
 2507SOL    HW138015   4.679   3.219  11.570  0.4867 -0.6196  0.6222
 2507SOL    HW238016   4.779   3.119  11.515  0.5142 -0.5694  0.5813
 2508SOL     OW38017   5.914   5.417  12.650  0.2964 -0.3951 -0.1872
 2508SOL    HW138018   5.908   5.321  12.654 -0.6565 -0.4880 -2.1546
 2508SOL    HW238019   5.824   5.447  12.663  0.6614  0.2819  0.8709
 2509SOL     OW38020   4.225   3.734  11.275  0.7735  0.4234  0.0432
 2509SOL    HW138021   4.181   3.818  11.260 -0.4566 -0.3855 -1.2245
 2509SOL    HW238022   4.155   3.669  11.267  1.6710 -0.7237  1.1321
 2510SOL     OW38023   1.420   4.602  11.970 -0.3743  0.0010 -0.0866
 2510SOL    HW138024   1.498   4.627  11.921 -0.6111  1.3476  0.1790
 2510SOL    HW238025   1.450   4.594  12.061 -0.6131  0.9108  0.0782
 2511SOL     OW38026   5.155   5.920   0.121  0.2381  0.5918 -0.1982
 2511SOL    HW138027   5.194   5.837   0.094  0.9720  1.0828 -0.6646
 2511SOL    HW238028   5.179   5.982   0.052 -1.7036  0.8262 -0.7077
 2512SOL     OW38029   1.365   5.187  11.659 -0.1175  0.1828 -0.0278
 2512SOL    HW138030   1.455   5.163  11.683 -0.4825 -1.2963 -0.0313
 2512SOL    HW238031   1.373   5.276  11.625  1.3988 -0.0029 -0.2660
 2513SOL     OW38032   6.285   3.766   0.504 -0.4858  0.4411 -0.3586
 2513SOL    HW138033   6.323   3.678   0.503 -1.3090  0.0801 -0.9705
 2513SOL    HW238034   6.330   3.810   0.576 -0.3643 -0.6212  0.2431
 2514SOL     OW38035   1.688   2.783  12.221  0.3772 -0.0846  0.2627
 2514SOL    HW138036   1.784   2.772  12.223  0.3738 -0.2773 -0.3536
 2514SOL    HW238037   1.673   2.843  12.149  0.1061  0.9469  1.1481
 2515SOL     OW38038   2.208   6.108   0.719  0.2726  0.7917 -0.0369
 2515SOL    HW138039   2.218   6.166   0.643  0.3826  1.3453  0.3911
 2515SOL    HW238040   2.296   6.100   0.755  0.2147  0.5541  0.0503
 2516SOL     OW38041   2.047   6.064  11.367 -0.3093 -0.0930  1.0585
 2516SOL    HW138042   2.014   6.080  11.455 -0.8391  1.1482  0.6602
 2516SOL    HW238043   1.985   6.003  11.328 -0.0689 -0.6509  1.5365
 2517SOL     OW38044   1.605   5.969  12.856 -0.0439  0.1893  0.6577
 2517SOL    HW138045   1.670   5.989  12.924  1.2326 -2.0816  0.1966
 2517SOL    HW238046   1.656   5.951  12.778 -1.4547  1.8427 -0.7501
 2518SOL     OW38047   2.972   4.480  12.179  0.2036 -0.2563 -0.1347
 2518SOL    HW138048   2.980   4.448  12.089 -1.1953  1.3306 -0.8794
 2518SOL    HW238049   2.920   4.560  12.171  1.3228  0.7586  1.9162
 2519SOL     OW38050   3.685   5.850  12.708 -0.6404  0.0875 -0.0574
 2519SOL    HW138051   3.708   5.861  12.800 -2.1957 -0.4525  0.4367
 2519SOL    HW238052   3.617   5.782  12.708  0.2689 -0.8990 -1.7510
 2520SOL     OW38053   4.013   5.630   0.866  0.3591 -0.0669  0.0348
 2520SOL    HW138054   4.055   5.597   0.945  1.6729 -0.2067 -0.6828
 2520SOL    HW238055   3.973   5.713   0.892 -1.8631 -1.4789  1.5515
 2521SOL     OW38056   3.951   4.905  11.607  0.5122  0.3206  0.0982
 2521SOL    HW138057   3.866   4.941  11.630  0.3764  1.4335 -1.8784
 2521SOL    HW238058   4.003   4.912  11.687 -1.5205 -1.4104  1.6885
 2522SOL     OW38059   4.310   5.664   0.444 -0.3791  0.9171 -0.2892
 2522SOL    HW138060   4.346   5.626   0.364  0.7536 -1.4278  1.2530
 2522SOL    HW238061   4.232   5.611   0.463  0.6992 -0.1496  1.3916
 2523SOL     OW38062   6.116   6.058  12.012 -0.9495  0.5939  0.1930
 2523SOL    HW138063   6.047   6.036  12.074 -2.6533  1.0103 -1.4828
 2523SOL    HW238064   6.180   5.988  12.022 -1.3041  0.4798  2.1530
 2524SOL     OW38065   5.353   3.477  11.430 -0.5778 -0.0989  0.4490
 2524SOL    HW138066   5.274   3.507  11.385 -0.1793  0.2837 -0.0089
 2524SOL    HW238067   5.393   3.414  11.371  2.8182  4.2096 -2.4526
 2525SOL     OW38068   0.478   3.008  11.216  0.4799  0.8325  0.2631
 2525SOL    HW138069   0.557   3.044  11.176  1.0410 -0.4878  0.1437
 2525SOL    HW238070   0.509   2.935  11.270 -0.5939  0.6906  0.7063
 2526SOL     OW38071   0.956   1.532  12.609 -0.3915 -0.3523  0.5618
 2526SOL    HW138072   1.044   1.525  12.574  0.1709 -0.2746  1.9013
 2526SOL    HW238073   0.906   1.578  12.541  0.3766 -1.1036 -0.5473
 2527SOL     OW38074   5.272   0.842   0.461 -0.0290  0.5382 -0.0747
 2527SOL    HW138075   5.259   0.780   0.390 -0.0187 -0.1026  0.4732
 2527SOL    HW238076   5.201   0.905   0.452  0.0328  0.5230 -0.7094
 2528SOL     OW38077   5.924   4.991   0.483 -0.2773 -0.6298 -0.5121
 2528SOL    HW138078   5.999   4.941   0.453  0.6066  1.1594 -1.4727
 2528SOL    HW238079   5.923   5.069   0.427 -0.0033  1.7358  2.5340
 2529SOL     OW38080   1.870   1.467  11.962 -0.3226  0.7448  0.3816
 2529SOL    HW138081   1.919   1.549  11.959 -1.1136  1.1925 -1.3756
 2529SOL    HW238082   1.891   1.423  11.880 -1.0034 -0.1672  0.6735
 2530SOL     OW38083   4.267   6.283   0.805 -0.3520  0.4028  1.1661
 2530SOL    HW138084   4.309   6.207   0.845  0.1276  0.5773  1.0111
 2530SOL    HW238085   4.223   6.248   0.728  0.4324  0.3753  0.7152
 2531SOL     OW38086   5.103   2.177  12.608  0.2537 -0.8002 -0.1954
 2531SOL    HW138087   5.133   2.243  12.670  2.0308 -2.0285  0.3306
 2531SOL    HW238088   5.128   2.211  12.522 -0.0277 -0.2094 -0.0489
 2532SOL     OW38089   6.224   2.137  12.717  0.1661 -0.8588  0.4151
 2532SOL    HW138090   6.162   2.109  12.785 -0.2809  0.6083  0.6557
 2532SOL    HW238091   6.258   2.220  12.750 -0.1323 -0.0626 -1.1978
 2533SOL     OW38092   4.981   3.643   1.443 -0.2838  0.2354  0.0147
 2533SOL    HW138093   4.942   3.568   1.398 -1.0084 -0.4781  1.7504
 2533SOL    HW238094   5.014   3.608   1.525  1.1630  1.4666  0.0028
 2534SOL     OW38095   0.107   4.214  12.447 -0.0800 -0.1719  0.1228
 2534SOL    HW138096   0.147   4.132  12.419  1.4041 -0.1253  1.8742
 2534SOL    HW238097   0.090   4.202  12.541 -0.6571  1.1989  0.2282
 2535SOL     OW38098   1.300   0.247   0.068  0.0150 -0.0158 -0.3078
 2535SOL    HW138099   1.208   0.272   0.064 -0.3449 -0.9612  1.2713
 2535SOL    HW238100   1.328   0.242  -0.023 -1.3681  0.7110 -0.7922
 2536SOL     OW38101   5.861   0.301  12.628  0.0116 -1.1012  0.1347
 2536SOL    HW138102   5.865   0.249  12.709 -0.9132 -0.8431  0.3534
 2536SOL    HW238103   5.937   0.271  12.577  1.3705 -0.3509  1.6326
 2537SOL     OW38104   2.348   5.956   0.416 -0.4346 -0.0554 -0.0638
 2537SOL    HW138105   2.346   6.043   0.457 -0.9054 -1.2364  2.6675
 2537SOL    HW238106   2.436   5.923   0.433 -0.8025 -0.7767  0.5136
 2538SOL     OW38107   0.411   0.250   0.623  0.5177 -0.4466 -0.3881
 2538SOL    HW138108   0.339   0.303   0.589 -1.1452 -2.6831 -0.6243
 2538SOL    HW238109   0.416   0.273   0.716 -0.7470 -0.4646 -0.2966
 2539SOL     OW38110   5.907   0.660   0.599 -0.3823 -0.7120 -0.1428
 2539SOL    HW138111   5.903   0.732   0.661  0.5327  0.3724 -1.2941
 2539SOL    HW238112   5.983   0.608   0.626 -1.3623 -1.6054  1.0157
 2540SOL     OW38113   1.443   4.310   1.058  0.0386 -0.0408  0.2129
 2540SOL    HW138114   1.484   4.359   1.129 -0.1837  2.1222 -1.0607
 2540SOL    HW238115   1.514   4.292   0.997 -0.4614  2.1425 -1.1351
 2541SOL     OW38116   1.659   1.196  12.584 -0.2076  0.2943  0.5456
 2541SOL    HW138117   1.608   1.213  12.505 -1.3736 -2.2605  0.6380
 2541SOL    HW238118   1.690   1.106  12.574 -0.8284 -0.3242  3.1682
 2542SOL     OW38119   3.748   2.615  11.903 -0.3965  0.0026  0.1642
 2542SOL    HW138120   3.723   2.705  11.925  1.8783  0.7616 -0.1550
 2542SOL    HW238121   3.758   2.573  11.988  1.0104  0.8003  0.4216
 2543SOL     OW38122   5.865   0.182   0.011 -0.3758 -0.4823 -0.2974
 2543SOL    HW138123   5.776   0.153   0.030 -1.2589  1.2700 -1.4891
 2543SOL    HW238124   5.910   0.103  -0.018 -1.7786 -1.2515 -0.4817
 2544SOL     OW38125   0.158   4.627   1.599 -0.2814 -0.2481 -0.0747
 2544SOL    HW138126   0.116   4.570   1.535  0.3913 -1.9831  0.9667
 2544SOL    HW238127   0.096   4.699   1.612 -0.1992  0.5069 -3.0406
 2545SOL     OW38128   2.494   0.618   0.641  0.0583 -0.1063 -0.2162
 2545SOL    HW138129   2.575   0.638   0.594 -1.0435  1.4079 -1.6458
 2545SOL    HW238130   2.486   0.523   0.637  0.4053 -0.1081 -2.5458
 2546SOL     OW38131   5.380   1.722   1.021  0.2544  0.3794 -0.3270
 2546SOL    HW138132   5.375   1.626   1.017 -0.6210  0.4462 -1.0945
 2546SOL    HW238133   5.404   1.748   0.932 -0.4382  0.9211 -0.3595
 2547SOL     OW38134   4.630   1.558   0.832  0.4203 -0.0528  0.8704
 2547SOL    HW138135   4.726   1.556   0.838  0.4040  0.2301  1.3044
 2547SOL    HW238136   4.611   1.539   0.741  0.9204  0.6990  0.5980
 2548SOL     OW38137   3.807   2.140   1.169  0.3622 -0.4631 -0.5553
 2548SOL    HW138138   3.865   2.134   1.246  0.6587 -1.4902 -0.8374
 2548SOL    HW238139   3.786   2.049   1.149 -1.1604 -0.1143 -0.6219
 2549SOL     OW38140   4.987   2.507   0.507 -0.2707  0.9512 -0.6113
 2549SOL    HW138141   5.080   2.515   0.487 -0.3326  1.0925 -0.8470
 2549SOL    HW238142   4.952   2.595   0.496 -0.1023  1.2827  1.2460
 2550SOL     OW38143   3.149   4.600  12.729 -0.1476  0.0073 -0.1885
 2550SOL    HW138144   3.126   4.693  12.722  1.0910  0.3625  0.1088
 2550SOL    HW238145   3.226   4.591  12.672  0.6787 -0.4793  0.9720
 2551SOL     OW38146   2.533   4.197   0.169  0.0918 -0.5447  0.1805
 2551SOL    HW138147   2.615   4.178   0.215 -0.1032 -0.7247  0.4548
 2551SOL    HW238148   2.559   4.254   0.096  0.2986  0.5035  1.0360
 2552SOL     OW38149   1.829   5.823  12.281 -0.2934 -0.3129  0.5092
 2552SOL    HW138150   1.754   5.781  12.323 -2.2743  0.3871 -2.0346
 2552SOL    HW238151   1.836   5.908  12.324  1.2109 -1.5591  2.9577
 2553SOL     OW38152   5.524   0.107  12.168  0.5438 -0.1152  0.5322
 2553SOL    HW138153   5.586   0.140  12.233  0.5875  1.8212 -0.4324
 2553SOL    HW238154   5.443   0.094  12.218  1.6505 -2.8189  1.8330
 2554SOL     OW38155   4.476   5.710  12.248 -0.0632 -0.4291 -0.4848
 2554SOL    HW138156   4.475   5.627  12.200  1.0327  0.0297 -1.3413
 2554SOL    HW238157   4.551   5.704  12.307 -0.4680 -0.3621  0.0493
 2555SOL     OW38158   4.061   5.549  12.353  0.2552 -0.1411  0.4699
 2555SOL    HW138159   3.977   5.589  12.376 -0.3893 -0.9918 -0.3354
 2555SOL    HW238160   4.124   5.621  12.358 -0.4679  0.4641  1.3125
 2556SOL     OW38161   4.605   1.672  12.794 -0.3820  0.0061 -0.4797
 2556SOL    HW138162   4.556   1.751  12.816  1.1888  1.3449 -1.5455
 2556SOL    HW238163   4.656   1.696  12.717 -1.6765 -2.8361 -2.4046
 2557SOL     OW38164   5.716   2.305   0.375  0.0474  0.0686  0.1022
 2557SOL    HW138165   5.788   2.363   0.353 -2.2598  2.1088 -2.9905
 2557SOL    HW238166   5.688   2.333   0.462  0.5649  1.9428 -0.2860
 2558SOL     OW38167   4.058   0.674   0.033  0.2884  0.4736  0.6450
 2558SOL    HW138168   4.004   0.748   0.005 -0.2679  0.5159  1.7842
 2558SOL    HW238169   3.995   0.603   0.047  0.7168  0.0497  0.4669
 2559SOL     OW38170   5.000   1.488   1.719  0.2652 -0.0174  0.6788
 2559SOL    HW138171   4.982   1.432   1.644  0.7978  1.4161 -0.5747
 2559SOL    HW238172   4.950   1.568   1.702 -0.4130 -0.0460  2.3776
 2560SOL     OW38173   1.357   3.347  11.791  0.4816  0.1502 -0.4841
 2560SOL    HW138174   1.372   3.303  11.707 -0.6750 -1.3092  0.0285
 2560SOL    HW238175   1.372   3.440  11.772  2.9228 -0.3880 -1.6343
 2561SOL     OW38176   1.317   3.176  12.845  0.4838 -0.0342 -0.8899
 2561SOL    HW138177   1.240   3.140  12.889  0.7817 -0.4275 -0.6827
 2561SOL    HW238178   1.389   3.119  12.873  0.5870 -0.6478 -2.3592
 2562SOL     OW38179   2.336   4.938  11.251 -0.1204 -0.6071 -0.1940
 2562SOL    HW138180   2.276   4.932  11.325  0.4931 -1.4358  0.2541
 2562SOL    HW238181   2.330   4.853  11.208 -1.2245  0.1856 -1.7275
 2563SOL     OW38182   4.121   0.254  11.785 -0.8533  0.5902 -0.5122
 2563SOL    HW138183   4.200   0.281  11.832 -0.7948  2.9332 -1.8388
 2563SOL    HW238184   4.101   0.167  11.821  1.1995  0.7498  1.2308
 2564SOL     OW38185   3.797   3.091   0.812  0.1054  0.0139  0.1938
 2564SOL    HW138186   3.776   3.022   0.749 -3.1699  0.7112  0.3703
 2564SOL    HW238187   3.880   3.127   0.782  1.7693 -3.6586 -0.1419
 2565SOL     OW38188   1.628   0.418  11.905 -0.2787 -0.3668  0.7497
 2565SOL    HW138189   1.596   0.461  11.826 -0.9288  0.0389  1.2227
 2565SOL    HW238190   1.620   0.325  11.887  3.2973 -0.4765 -1.1990
 2566SOL     OW38191   4.438   5.367   1.299  0.8607 -0.0672  0.0532
 2566SOL    HW138192   4.458   5.274   1.310  1.5912  0.3720  3.6625
 2566SOL    HW238193   4.487   5.392   1.221  0.3259 -2.7448 -1.2604
 2567SOL     OW38194   3.978   4.567   1.891  0.5328  0.1870  0.3333
 2567SOL    HW138195   4.033   4.490   1.901  0.6775  0.1869 -0.4645
 2567SOL    HW238196   4.038   4.641   1.896  0.3398  0.2826  1.5572
 2568SOL     OW38197   6.005   4.795   1.191  0.5887  0.2786  0.3915
 2568SOL    HW138198   5.921   4.772   1.152  0.0513  1.1319  0.9955
 2568SOL    HW238199   6.014   4.889   1.176  1.2411  0.2708  0.6888
 2569SOL     OW38200   4.723   2.616  12.817  0.1411  0.2853  0.6121
 2569SOL    HW138201   4.642   2.602  12.866 -0.1264  1.6721  0.6024
 2569SOL    HW238202   4.695   2.654  12.734  0.8649  2.1263  1.1680
 2570SOL     OW38203   4.432   3.942   1.273  0.0365  0.0769  0.2611
 2570SOL    HW138204   4.444   3.855   1.311 -3.1931 -0.8401 -0.5466
 2570SOL    HW238205   4.346   3.970   1.303 -1.0153  0.9565 -3.1285
 2571SOL     OW38206   3.185   0.234   1.376  0.5885  0.6589 -0.1761
 2571SOL    HW138207   3.129   0.265   1.448  2.7663  0.1231  1.8408
 2571SOL    HW238208   3.193   0.140   1.391  2.0443  0.7371 -0.4000
 2572SOL     OW38209   5.606   4.570   0.266 -0.1190  0.8159 -0.0483
 2572SOL    HW138210   5.682   4.513   0.284  0.3127  1.1719 -0.7018
 2572SOL    HW238211   5.610   4.637   0.334  1.3752  2.0279 -1.2373
 2573SOL     OW38212   1.610   3.806  11.767 -0.6310 -0.0843  0.8035
 2573SOL    HW138213   1.632   3.713  11.769 -0.6552 -0.2094 -1.6587
 2573SOL    HW238214   1.569   3.819  11.682 -0.9460  2.1289  1.2323
 2574SOL     OW38215   0.764   5.660  11.244 -0.5553 -0.5692  0.5383
 2574SOL    HW138216   0.816   5.741  11.252 -0.4175 -0.7109  1.0730
 2574SOL    HW238217   0.738   5.639  11.333 -0.1361 -1.4133  0.4687
 2575SOL     OW38218   1.696   2.011  12.372  0.4298  0.4516 -0.2235
 2575SOL    HW138219   1.750   2.090  12.370  0.0371  0.7100 -0.5639
 2575SOL    HW238220   1.614   2.036  12.330 -0.3551  0.3431  1.2123
 2576SOL     OW38221   3.847   4.105  12.508  0.1931  0.3413  0.2791
 2576SOL    HW138222   3.844   4.199  12.526 -0.4444  0.4915 -0.5487
 2576SOL    HW238223   3.811   4.096  12.420  0.2428 -0.6836  0.3474
 2577SOL     OW38224   1.612   5.793  11.146 -0.2347 -0.1332 -0.3118
 2577SOL    HW138225   1.657   5.718  11.107 -1.7478 -1.3022  0.0720
 2577SOL    HW238226   1.592   5.765  11.235 -1.7657  0.2772 -0.4898
 2578SOL     OW38227   4.771   3.819  12.754 -0.1886 -0.2108  0.4185
 2578SOL    HW138228   4.720   3.892  12.719 -0.6724 -0.9891 -0.5536
 2578SOL    HW238229   4.779   3.758  12.681  1.3759 -0.5219  0.8121
 2579SOL     OW38230   5.963   4.928  12.041 -0.4530  0.3288  0.0249
 2579SOL    HW138231   5.948   4.833  12.041  0.4766  0.1559  1.3600
 2579SOL    HW238232   5.918   4.959  11.963 -0.7083 -1.2238 -0.4818
 2580SOL     OW38233   4.624   4.700  11.239  0.2584 -0.2672  0.6091
 2580SOL    HW138234   4.592   4.629  11.184  1.9728  0.3660 -1.3561
 2580SOL    HW238235   4.554   4.766  11.235  1.3274  0.9184 -3.2342
 2581SOL     OW38236   0.360   4.991   0.441 -0.1985 -0.0404 -0.4272
 2581SOL    HW138237   0.346   4.907   0.397  2.9493 -0.2609 -1.2619
 2581SOL    HW238238   0.455   4.996   0.452 -0.2306  3.5557 -0.7422
 2582SOL     OW38239   0.256   3.546  11.953 -0.3574 -0.0618 -0.1991
 2582SOL    HW138240   0.241   3.457  11.985  0.2385  0.3222  1.2577
 2582SOL    HW238241   0.182   3.564  11.896 -1.1447 -1.0501  0.4684
 2583SOL     OW38242   0.465   2.619   0.094  0.0171  0.0279  0.5750
 2583SOL    HW138243   0.426   2.698   0.130  1.0220  0.7798  0.0597
 2583SOL    HW238244   0.430   2.548   0.148 -1.6929  0.7010  0.4047
 2584SOL     OW38245   4.527   1.156  12.588  0.1450 -0.1024 -0.1651
 2584SOL    HW138246   4.464   1.089  12.615  0.1288  0.0341  0.1399
 2584SOL    HW238247   4.606   1.137  12.639  0.2198 -0.0366 -0.2571
 2585SOL     OW38248   4.189   0.922  12.292 -0.3035  1.1489  0.2802
 2585SOL    HW138249   4.173   0.940  12.385 -2.4461  2.0487 -0.1934
 2585SOL    HW238250   4.109   0.953  12.248 -0.7671 -2.1553 -1.5336
 2586SOL     OW38251   4.762   3.706   0.686  0.6088 -0.3261  0.1455
 2586SOL    HW138252   4.698   3.712   0.757 -0.0430 -0.0285 -0.4492
 2586SOL    HW238253   4.814   3.628   0.707 -0.0834 -0.6955  0.5349
 2587SOL     OW38254   3.516   4.647  11.943  0.0833 -0.5171 -0.6775
 2587SOL    HW138255   3.430   4.689  11.947 -0.4657 -1.6380 -0.1885
 2587SOL    HW238256   3.544   4.643  12.035 -0.6237 -2.6304 -0.4875
 2588SOL     OW38257   3.446   4.855   0.014 -0.3937 -0.4795 -0.5077
 2588SOL    HW138258   3.541   4.858   0.030 -0.0852 -0.8879 -2.1034
 2588SOL    HW238259   3.418   4.774   0.055 -0.0129 -0.4846 -0.2468
 2589SOL     OW38260   0.731   0.346   1.562 -0.2935 -0.6035 -0.0691
 2589SOL    HW138261   0.716   0.267   1.510 -1.2997  0.9264 -2.2460
 2589SOL    HW238262   0.644   0.373   1.592 -0.5995  1.7405 -2.6767
 2590SOL     OW38263   0.542   0.557   0.963  0.4060  0.4126  0.1577
 2590SOL    HW138264   0.599   0.630   0.984  0.3931 -0.1045  2.1921
 2590SOL    HW238265   0.472   0.561   1.028  0.4387 -1.4131  0.3700
 2591SOL     OW38266   5.697   4.228   1.672 -0.0934 -0.4188 -0.9546
 2591SOL    HW138267   5.731   4.309   1.634 -2.6062  0.2790 -1.9647
 2591SOL    HW238268   5.637   4.258   1.741  0.2429 -1.4975 -0.1724
 2592SOL     OW38269   6.079   5.012  11.194 -0.0195  0.1273  0.0314
 2592SOL    HW138270   5.987   4.993  11.175 -0.0318 -0.1518  0.3610
 2592SOL    HW238271   6.076   5.087  11.253 -0.0647 -0.2608  0.5301
 2593SOL     OW38272   3.028   0.071  12.693 -0.1096 -0.6131  0.2553
 2593SOL    HW138273   2.933   0.065  12.684 -0.0473 -1.3783 -0.0616
 2593SOL    HW238274   3.061  -0.003  12.641  0.7279  0.4696 -0.8273
 2594SOL     OW38275   2.634   0.866   1.062  0.1481  0.2527  0.9061
 2594SOL    HW138276   2.547   0.828   1.057 -0.2719  1.3322 -1.5254
 2594SOL    HW238277   2.672   0.852   0.975  1.1433  2.5825  0.8652
 2595SOL     OW38278   0.706   3.164   1.291 -0.0861  0.3620 -0.3157
 2595SOL    HW138279   0.774   3.164   1.358  1.7997 -0.6719 -2.1410
 2595SOL    HW238280   0.631   3.123   1.334  0.8778  0.2149  1.3055
 2596SOL     OW38281   2.425   5.103  11.586  0.2855  0.5857 -0.3362
 2596SOL    HW138282   2.340   5.060  11.588  0.6337 -0.1082 -0.3898
 2596SOL    HW238283   2.473   5.064  11.659  0.0369  2.0745  0.6678
 2597SOL     OW38284   1.956   6.235   0.790  0.5438  0.2679  0.0845
 2597SOL    HW138285   1.872   6.190   0.788  0.5935  0.1782 -0.0392
 2597SOL    HW238286   2.019   6.167   0.766  0.9209 -0.2816  2.3510
 2598SOL     OW38287   0.361   3.262  11.371 -0.4339  0.3622  0.0776
 2598SOL    HW138288   0.384   3.184  11.321 -0.2755  0.1238  0.5151
 2598SOL    HW238289   0.392   3.243  11.459  0.0326  1.1154  0.0813
 2599SOL     OW38290   5.262   5.243   1.150  0.0672 -0.3679 -0.4477
 2599SOL    HW138291   5.319   5.282   1.084  1.7407 -1.9873 -0.0453
 2599SOL    HW238292   5.282   5.149   1.147  0.1180 -0.5317  2.2241
 2600SOL     OW38293   1.163   5.497   1.294  0.2390 -0.5939  0.0850
 2600SOL    HW138294   1.148   5.453   1.378  1.4622 -0.4378  0.4087
 2600SOL    HW238295   1.210   5.433   1.241  1.3019  0.0153  0.2658
 2601SOL     OW38296   3.626   4.484   0.368  0.1077 -0.2762 -0.4275
 2601SOL    HW138297   3.698   4.461   0.308 -0.6487  1.9175 -2.3242
 2601SOL    HW238298   3.661   4.558   0.418 -0.6766  0.6345 -1.1837
 2602SOL     OW38299   0.142   2.878   1.643 -0.4012  0.8881  0.8853
 2602SOL    HW138300   0.092   2.919   1.714  0.0258  0.1953  1.6066
 2602SOL    HW238301   0.080   2.869   1.572 -0.9201  1.3304  1.2738
 2603SOL     OW38302   1.574   5.186  12.474  0.5305 -0.9593 -0.3977
 2603SOL    HW138303   1.502   5.242  12.501 -1.5435 -2.8291 -1.7042
 2603SOL    HW238304   1.556   5.166  12.382  2.6105 -1.7029 -0.7069
 2604SOL     OW38305   3.103   5.380  11.953 -0.1862  0.0444 -0.6727
 2604SOL    HW138306   3.037   5.379  11.884 -0.0935  1.0398 -0.7905
 2604SOL    HW238307   3.182   5.346  11.911 -0.1634  0.5255 -1.0217
 2605SOL     OW38308   0.482   6.257  11.902  0.2007 -0.4515 -0.5350
 2605SOL    HW138309   0.463   6.320  11.832 -0.0488 -0.3080 -0.3403
 2605SOL    HW238310   0.479   6.309  11.982 -0.9644 -0.8917 -0.2791
 2606SOL     OW38311   3.078   3.946  12.424  0.3326  0.1914 -0.1843
 2606SOL    HW138312   3.065   4.021  12.482 -1.5290 -1.0709  1.1535
 2606SOL    HW238313   2.998   3.942  12.371  0.6639 -0.4981 -0.6622
 2607SOL     OW38314   1.779   4.382  12.449 -0.4084  0.7856 -0.2951
 2607SOL    HW138315   1.849   4.376  12.514 -0.3477  2.0705 -0.2251
 2607SOL    HW238316   1.806   4.322  12.379  0.4787  0.8307 -0.0042
 2608SOL     OW38317   2.101   0.187  12.340  0.0312 -0.1924 -0.6798
 2608SOL    HW138318   2.110   0.242  12.418 -1.2395 -0.7373 -0.1095
 2608SOL    HW238319   2.142   0.103  12.366 -0.0298 -0.2433 -0.7485
 2609SOL     OW38320   0.162   4.198  10.968 -0.0348  0.4927  0.1191
 2609SOL    HW138321   0.111   4.130  11.012  0.7247  0.0249  0.2999
 2609SOL    HW238322   0.126   4.202  10.880  2.5370 -3.1420 -1.3416
 2610SOL     OW38323   2.320   2.633  11.926  0.2032  0.0474  0.4918
 2610SOL    HW138324   2.250   2.683  11.968 -0.9596 -0.3472 -0.8897
 2610SOL    HW238325   2.275   2.583  11.857  1.6260 -1.3618  0.5337
 2611SOL     OW38326   3.616   0.889  11.303  0.5788  0.6986 -0.0867
 2611SOL    HW138327   3.619   0.823  11.372 -3.0868  1.1812  0.6984
 2611SOL    HW238328   3.542   0.864  11.248  0.8184  2.6267 -1.3944
 2612SOL     OW38329   5.721   4.289  11.340  0.2705 -0.6850 -0.7722
 2612SOL    HW138330   5.724   4.340  11.259  0.9448 -1.3722 -1.1887
 2612SOL    HW238331   5.632   4.302  11.373  0.7945  1.8489 -0.1599
 2613SOL     OW38332   4.118   2.532  12.275  1.1259 -0.4008  0.0234
 2613SOL    HW138333   4.147   2.571  12.358  0.4617 -1.1516  0.6153
 2613SOL    HW238334   4.190   2.550  12.214  1.4654  0.4741  0.6572
 2614SOL     OW38335   4.344   3.469   0.336  0.2884  0.0206  0.2344
 2614SOL    HW138336   4.332   3.561   0.357  0.4676  0.1974 -0.4437
 2614SOL    HW238337   4.391   3.434   0.412 -1.1883  0.1152  1.2304
 2615SOL     OW38338   0.361   3.045  12.712 -0.1069 -0.0280 -0.2207
 2615SOL    HW138339   0.387   3.020  12.801 -1.4610 -1.0545 -0.0771
 2615SOL    HW238340   0.327   3.134  12.720 -0.4763 -0.2166  0.3486
 2616SOL     OW38341   0.612   5.539   1.421  0.5170 -0.2459 -0.0434
 2616SOL    HW138342   0.529   5.503   1.451 -0.3551  1.0693 -0.8161
 2616SOL    HW238343   0.636   5.484   1.346 -0.2281  0.0584 -0.5097
 2617SOL     OW38344   1.957   1.734  11.988  0.0847 -0.3610  0.6761
 2617SOL    HW138345   1.977   1.803  12.051  0.2147 -0.1258  0.3778
 2617SOL    HW238346   1.893   1.773  11.929  0.8827 -0.1671 -0.0801
 2618SOL     OW38347   3.829   0.107  11.446  0.0889  0.2257  0.3861
 2618SOL    HW138348   3.839   0.013  11.437 -2.2328 -0.3045  2.2582
 2618SOL    HW238349   3.918   0.142  11.436  0.9407 -2.0686 -0.7992
 2619SOL     OW38350   0.821   0.481   0.647  0.0450 -0.5161  0.0632
 2619SOL    HW138351   0.745   0.462   0.593  1.0754  0.0719 -1.6798
 2619SOL    HW238352   0.861   0.558   0.606  1.8137 -1.0715  0.6508
 2620SOL     OW38353   2.164   3.021   1.058  0.2335 -0.2356 -0.0691
 2620SOL    HW138354   2.216   3.101   1.047 -2.5137  1.3070 -3.7789
 2620SOL    HW238355   2.083   3.051   1.099 -0.5938 -1.2143 -0.9508
 2621SOL     OW38356   2.207   5.580   0.320 -0.1423  0.2211  0.8758
 2621SOL    HW138357   2.203   5.490   0.288 -0.5779  0.2992  0.7057
 2621SOL    HW238358   2.297   5.590   0.353  0.0980 -0.0724  0.3139
 2622SOL     OW38359   3.422   2.514  12.708  0.3779  0.6378 -0.7461
 2622SOL    HW138360   3.499   2.463  12.683 -0.1765  0.1178 -1.4364
 2622SOL    HW238361   3.458   2.594  12.746  1.2910  1.0601 -2.3907
 2623SOL     OW38362   1.828   0.940  12.174  0.2634  0.2606 -0.5008
 2623SOL    HW138363   1.809   0.867  12.115 -0.3009 -0.5042  0.5845
 2623SOL    HW238364   1.791   0.913  12.258 -0.0034  1.8371 -0.0817
 2624SOL     OW38365   4.987   6.447  12.039  0.0654 -0.4827  0.3961
 2624SOL    HW138366   5.001   6.446  12.134 -0.4708  0.3553  0.4935
 2624SOL    HW238367   4.965   6.356  12.018  1.5223 -0.9811  0.8480
 2625SOL     OW38368   0.017   2.455   0.454  0.5551  0.7990  0.2361
 2625SOL    HW138369  -0.054   2.440   0.391  0.1922 -0.3432  0.8912
 2625SOL    HW238370  -0.020   2.517   0.517 -0.8048 -1.5745  1.9477
 2626SOL     OW38371   5.789   6.154  12.330 -0.1028  0.0121  0.1731
 2626SOL    HW138372   5.862   6.092  12.326 -0.2239 -0.0873 -0.7716
 2626SOL    HW238373   5.829   6.237  12.356  0.3733 -0.0130 -0.4608
 2627SOL     OW38374   6.235   4.751   1.059 -0.0395  0.3668 -0.1577
 2627SOL    HW138375   6.160   4.757   1.118  0.9179  0.4003  1.1024
 2627SOL    HW238376   6.257   4.842   1.040  1.6819  0.5083  2.1604
 2628SOL     OW38377   2.591   4.095   1.513 -0.1875  0.6321 -0.0021
 2628SOL    HW138378   2.617   4.126   1.426 -3.2750  0.7408 -0.9857
 2628SOL    HW238379   2.589   4.000   1.505 -0.0094  0.6159  0.1251
 2629SOL     OW38380   5.539   5.678   0.696 -0.0347 -0.4529 -0.7439
 2629SOL    HW138381   5.535   5.582   0.704 -0.0767 -0.6072 -2.3288
 2629SOL    HW238382   5.567   5.693   0.606  2.7015  1.0291  0.2448
 2630SOL     OW38383   0.811   0.583   0.113  0.4838 -0.0577  0.1359
 2630SOL    HW138384   0.732   0.635   0.130  0.8834  0.0412  1.7848
 2630SOL    HW238385   0.778   0.497   0.088 -0.1403  0.2031  0.0394
 2631SOL     OW38386   0.854   5.589   1.521 -0.4273  0.5001  0.2007
 2631SOL    HW138387   0.780   5.564   1.467  0.4539 -2.4322  0.1778
 2631SOL    HW238388   0.817   5.600   1.609 -0.8803 -1.4696  0.3061
 2632SOL     OW38389   1.076   4.530   0.990  0.3781  0.0067  0.5695
 2632SOL    HW138390   1.155   4.519   0.938  1.0731 -0.8866  1.7693
 2632SOL    HW238391   1.081   4.620   1.023 -0.9869  1.2672 -2.2732
 2633SOL     OW38392   2.658   2.254   0.238  0.0277 -0.5562 -0.0040
 2633SOL    HW138393   2.693   2.169   0.263 -2.3922 -0.9990  2.2228
 2633SOL    HW238394   2.568   2.236   0.210 -1.0469  1.3762  1.9434
 2634SOL     OW38395   6.072   3.799  11.571 -0.3463  0.3867  0.2270
 2634SOL    HW138396   6.091   3.770  11.482 -0.6122  0.3399  0.1842
 2634SOL    HW238397   6.000   3.743  11.600  0.8580 -0.7864  1.1077
 2635SOL     OW38398   3.427   4.243   1.344 -0.1608 -0.1482 -0.1088
 2635SOL    HW138399   3.456   4.241   1.436 -2.4617  1.1317  0.7189
 2635SOL    HW238400   3.454   4.159   1.309  1.7058 -0.2674  1.4298
 2636SOL     OW38401   1.947   5.530   1.166 -0.3005 -0.0318  0.2285
 2636SOL    HW138402   2.028   5.536   1.116  0.3758  0.5834  1.3494
 2636SOL    HW238403   1.897   5.608   1.140  1.0374  1.5558  2.1199
 2637SOL     OW38404   4.220   3.678   0.760 -0.0769  0.1020 -0.1057
 2637SOL    HW138405   4.136   3.652   0.722  0.3881 -0.5970 -0.6746
 2637SOL    HW238406   4.286   3.649   0.697  0.5825  1.0159  0.1292
 2638SOL     OW38407   0.813   0.207  11.328  0.3978 -0.4560  0.0516
 2638SOL    HW138408   0.810   0.127  11.380  1.6695 -0.4621  0.1392
 2638SOL    HW238409   0.837   0.177  11.240 -1.0739 -0.3703 -0.4049
 2639SOL     OW38410   2.129   0.120   0.061 -0.2995 -0.1869  0.2799
 2639SOL    HW138411   2.085   0.045   0.020  0.9690 -0.3844 -0.7730
 2639SOL    HW238412   2.057   0.176   0.091 -1.2866 -1.8631  1.2108
 2640SOL     OW38413   1.993   2.168   0.965  0.1557 -0.3745 -0.2894
 2640SOL    HW138414   2.053   2.150   1.038 -0.0840  0.2577  0.0678
 2640SOL    HW238415   1.934   2.235   0.998  1.0281  1.0969 -1.5723
 2641SOL     OW38416   1.835   3.967   1.032  0.1750 -0.3573  0.1314
 2641SOL    HW138417   1.875   4.052   1.015  0.3290 -0.1521  1.3823
 2641SOL    HW238418   1.804   3.937   0.947 -0.6133  1.3205 -0.2194
 2642SOL     OW38419   6.366   0.099   0.946 -0.2109  0.4493  0.8099
 2642SOL    HW138420   6.393   0.015   0.983 -0.8208  0.0971  0.4746
 2642SOL    HW238421   6.433   0.119   0.881  0.5238  0.7611  1.6443
 2643SOL     OW38422   6.076   1.797   0.428  0.4052  0.2024 -0.1410
 2643SOL    HW138423   6.155   1.848   0.414  0.0672  0.8244  0.1842
 2643SOL    HW238424   6.006   1.862   0.436 -0.9305 -0.2993 -4.6099
 2644SOL     OW38425   6.007   4.262  11.788 -0.4094 -0.2443 -0.0530
 2644SOL    HW138426   6.039   4.193  11.729 -2.5622 -0.6186 -0.8714
 2644SOL    HW238427   5.929   4.224  11.829 -1.6469  1.6914 -0.5171
 2645SOL     OW38428   1.164   5.019  11.617  0.0399 -0.5951  0.3202
 2645SOL    HW138429   1.231   5.084  11.637 -0.0179 -0.1485 -0.8521
 2645SOL    HW238430   1.168   5.009  11.522 -0.5165 -1.7047  0.3976
 2646SOL     OW38431   1.272   5.765   0.251  0.0672  0.4625  0.0135
 2646SOL    HW138432   1.220   5.711   0.311  0.4691  0.0698  0.0171
 2646SOL    HW238433   1.329   5.816   0.308  0.4787  0.0588 -0.0254
 2647SOL     OW38434   2.892   0.269  12.825 -0.3142 -0.5712  0.5450
 2647SOL    HW138435   2.856   0.288  12.739  0.0748  0.1844  0.5431
 2647SOL    HW238436   2.974   0.223  12.808 -0.3382 -0.6047  0.5194
 2648SOL     OW38437   0.642   3.005   0.356  1.1183  0.4588 -0.3590
 2648SOL    HW138438   0.588   3.053   0.419 -0.3310 -0.2402 -1.0088
 2648SOL    HW238439   0.637   2.914   0.385 -1.4319 -0.2684 -2.6034
 2649SOL     OW38440   0.085   5.712  11.728  0.4649  0.4199  0.2259
 2649SOL    HW138441   0.141   5.660  11.670 -1.0546 -1.0439 -0.0012
 2649SOL    HW238442   0.035   5.647  11.778 -1.9526  1.6136 -0.5013
 2650SOL     OW38443   2.963   5.967  12.218 -0.0467 -0.0661  0.1250
 2650SOL    HW138444   2.941   5.887  12.265 -1.2733 -0.2969 -0.7683
 2650SOL    HW238445   3.052   5.988  12.245 -0.0771 -1.1611  1.1531
 2651SOL     OW38446   4.959   1.356  12.186 -0.0629 -0.7695  0.3735
 2651SOL    HW138447   4.888   1.417  12.169 -0.3785 -1.1713  0.2206
 2651SOL    HW238448   4.930   1.305  12.262  1.3637  1.0462  2.2289
 2652SOL     OW38449   3.922   1.856   0.473  0.8757 -0.3034 -0.1147
 2652SOL    HW138450   3.880   1.828   0.554 -1.5214 -1.1001 -1.5334
 2652SOL    HW238451   3.997   1.798   0.463  0.9021 -0.5284  1.2532
 2653SOL     OW38452   0.378   2.679   1.106 -0.5205  0.1295 -0.2178
 2653SOL    HW138453   0.300   2.625   1.115 -0.5338  0.4976  3.5244
 2653SOL    HW238454   0.447   2.618   1.079 -1.1633 -1.1907  0.9988
 2654SOL     OW38455   5.733   6.434  11.349 -0.5982 -0.0457 -0.6041
 2654SOL    HW138456   5.811   6.435  11.294 -0.7419 -0.8727 -0.8379
 2654SOL    HW238457   5.729   6.522  11.387  0.0441  0.2268 -1.1483
 2655SOL     OW38458   0.214   2.214  12.089 -0.3250  0.2661 -0.3321
 2655SOL    HW138459   0.255   2.129  12.104  0.5704  0.3816 -1.8537
 2655SOL    HW238460   0.149   2.222  12.158 -1.4215 -2.2913 -0.9251
 2656SOL     OW38461   5.414   0.748   1.431 -0.3040  0.7683  0.2445
 2656SOL    HW138462   5.380   0.833   1.459 -0.5787  1.6063 -2.3310
 2656SOL    HW238463   5.507   0.764   1.413  0.3145 -0.2052  2.2494
 2657SOL     OW38464   5.447   5.222  12.493  0.3658 -0.0147  0.1893
 2657SOL    HW138465   5.355   5.248  12.493  0.9356  2.5037 -1.9500
 2657SOL    HW238466   5.460   5.181  12.407  1.1416 -0.8334  0.6855
 2658SOL     OW38467   1.645   4.818  12.145  0.2577 -0.0510 -0.1375
 2658SOL    HW138468   1.633   4.747  12.208  1.5281  0.1068  0.3263
 2658SOL    HW238469   1.692   4.777  12.072 -1.4239 -0.2909 -1.1345
 2659SOL     OW38470   6.241   0.632  12.601  0.1755 -0.3137 -0.0088
 2659SOL    HW138471   6.235   0.609  12.508 -2.5073  0.2565 -0.0550
 2659SOL    HW238472   6.167   0.691  12.616 -0.4198 -1.6285  2.8289
 2660SOL     OW38473   2.121   4.504   0.439 -0.1051 -0.7988 -0.2500
 2660SOL    HW138474   2.182   4.558   0.389  0.6655 -2.1978 -0.8772
 2660SOL    HW238475   2.035   4.538   0.415  0.3852  0.8163  0.1885
 2661SOL     OW38476   0.342   5.450  11.167  0.1283  0.3083 -0.6218
 2661SOL    HW138477   0.365   5.385  11.233  0.5068 -0.4007 -1.4254
 2661SOL    HW238478   0.288   5.402  11.103 -0.8529  1.1575 -0.4590
 2662SOL     OW38479   3.559   2.027   1.546 -0.4882  0.0726  0.9026
 2662SOL    HW138480   3.654   2.018   1.539 -0.4750  1.3370 -2.7670
 2662SOL    HW238481   3.545   2.121   1.557 -1.3444 -0.2809  3.2640
 2663SOL     OW38482   4.490   2.197   0.388 -0.2431  0.6225  0.3336
 2663SOL    HW138483   4.466   2.185   0.296 -0.4162 -1.0938  0.5591
 2663SOL    HW238484   4.503   2.291   0.398 -0.3160  0.8499 -1.4179
 2664SOL     OW38485   4.960   2.813  12.672 -0.8921  0.0397  0.2655
 2664SOL    HW138486   4.967   2.801  12.577 -0.3028 -3.4760  0.6126
 2664SOL    HW238487   4.896   2.748  12.700 -0.2926  0.2806  2.4116
 2665SOL     OW38488   3.406   4.321  11.649  0.6275 -0.7412 -0.2249
 2665SOL    HW138489   3.319   4.282  11.645  1.2835 -2.3393  0.5453
 2665SOL    HW238490   3.403   4.378  11.726 -0.7259  1.8835 -2.0492
 2666SOL     OW38491   5.482   6.324  11.256  0.5916 -0.0803 -0.1400
 2666SOL    HW138492   5.559   6.374  11.284  1.0229 -1.6659  1.7594
 2666SOL    HW238493   5.518   6.241  11.226 -0.2775 -0.1731 -0.9502
 2667SOL     OW38494   0.616   1.232  12.257  0.0627  0.7277  0.5271
 2667SOL    HW138495   0.608   1.308  12.199 -0.9858 -0.4340 -0.9220
 2667SOL    HW238496   0.555   1.168  12.221  0.9415 -0.8259  1.6894
 2668SOL     OW38497   5.090   5.326  11.899  0.0295 -0.1645  0.2291
 2668SOL    HW138498   5.041   5.246  11.914 -0.5705  0.2391  0.4685
 2668SOL    HW238499   5.038   5.376  11.836  0.7850 -0.2977 -0.5176
 2669SOL     OW38500   5.800   1.003  11.118  0.2814  0.0617 -0.4044
 2669SOL    HW138501   5.778   0.981  11.028 -2.1227  1.4809 -0.2660
 2669SOL    HW238502   5.808   0.919  11.163  1.1641 -0.6480 -1.8424
 2670SOL     OW38503   1.987   1.326   0.866  0.5323  0.3877  0.0991
 2670SOL    HW138504   1.916   1.263   0.852  1.2598 -1.3825  3.5038
 2670SOL    HW238505   1.944   1.401   0.906  0.1894  0.6495 -0.7248
 2671SOL     OW38506   0.264   1.109  12.048  0.0830 -0.9600 -0.0984
 2671SOL    HW138507   0.325   1.051  12.094 -1.7398 -0.7617  2.8163
 2671SOL    HW238508   0.285   1.196  12.081 -1.3147 -0.8077  0.4191
 2672SOL     OW38509   1.290   4.828  12.284  0.4263 -0.3987  0.3280
 2672SOL    HW138510   1.346   4.905  12.289 -2.3377  1.6909  1.7247
 2672SOL    HW238511   1.258   4.826  12.194  1.3469 -0.6150 -0.0063
 2673SOL     OW38512   6.184   4.374   0.375 -0.2116  0.3449 -0.8825
 2673SOL    HW138513   6.251   4.438   0.348 -0.1056  0.4497 -0.3829
 2673SOL    HW238514   6.105   4.426   0.386 -0.4488  0.1740 -1.7529
 2674SOL     OW38515   1.819   5.144   0.561 -0.4537  0.5907  0.1129
 2674SOL    HW138516   1.757   5.107   0.499  0.9320  0.0957 -1.0347
 2674SOL    HW238517   1.796   5.237   0.564 -0.4777  0.6583 -1.2608
 2675SOL     OW38518   5.333   1.537  12.001  0.1059  0.1395 -0.4309
 2675SOL    HW138519   5.298   1.625  12.006  0.4889  0.2516  0.8525
 2675SOL    HW238520   5.313   1.499  12.087  0.5029 -0.7973 -0.7405
 2676SOL     OW38521   1.280   3.506   0.647 -0.2333  0.3584 -0.9223
 2676SOL    HW138522   1.308   3.596   0.663  0.4681  0.5487 -2.8584
 2676SOL    HW238523   1.321   3.483   0.563 -1.9393 -1.0918 -1.4309
 2677SOL     OW38524   1.145   5.471  11.080  0.0597  0.1666 -0.2161
 2677SOL    HW138525   1.087   5.516  11.019  0.4752 -0.8679 -1.4032
 2677SOL    HW238526   1.092   5.458  11.158 -0.0310  2.8366  0.2691
 2678SOL     OW38527   5.032   1.111   0.020 -0.1435  0.2118  0.6402
 2678SOL    HW138528   4.956   1.166  -0.000 -0.3699 -1.1814 -3.2807
 2678SOL    HW238529   4.999   1.021   0.012  1.5301 -0.4372  0.6092
 2679SOL     OW38530   6.113   0.644  11.856 -0.0077 -0.3285 -0.0797
 2679SOL    HW138531   6.043   0.590  11.819 -0.2208  0.3172 -0.6436
 2679SOL    HW238532   6.127   0.712  11.791  0.0611  0.4565  0.7411
 2680SOL     OW38533   5.214   1.737   0.618  0.7583 -0.2407  0.2025
 2680SOL    HW138534   5.208   1.642   0.630 -0.2638 -0.3895 -1.1534
 2680SOL    HW238535   5.258   1.747   0.533 -0.5953  0.4226 -0.4617
 2681SOL     OW38536   3.062   4.181   1.551  0.1134 -0.2634  0.0699
 2681SOL    HW138537   3.023   4.242   1.614 -3.0781 -0.9771 -0.9920
 2681SOL    HW238538   3.132   4.231   1.509 -1.0024  1.9521  0.6776
 2682SOL     OW38539   1.355   1.023  11.475 -0.5034 -0.1554  0.1001
 2682SOL    HW138540   1.302   0.943  11.485 -0.9824  0.1405 -0.0231
 2682SOL    HW238541   1.440   0.991  11.442 -0.7441 -0.6013 -0.1079
 2683SOL     OW38542   6.362   0.783   1.265  0.0143  0.1148  1.0617
 2683SOL    HW138543   6.355   0.817   1.355  1.1196  0.2691  1.1092
 2683SOL    HW238544   6.379   0.861   1.212  0.8459 -0.1511  0.9285
 2684SOL     OW38545   6.059   5.294   1.154  0.5644  0.6493  0.0853
 2684SOL    HW138546   6.020   5.320   1.237  0.0983 -1.6301  0.6642
 2684SOL    HW238547   6.058   5.373   1.101 -0.3006  1.8596  1.7971
 2685SOL     OW38548   0.882   4.913  12.335  0.3920 -0.1943 -0.1766
 2685SOL    HW138549   0.912   4.832  12.293 -1.0224  0.2507 -2.1850
 2685SOL    HW238550   0.873   4.976  12.263 -1.4175  0.8485  0.8763
 2686SOL     OW38551   6.024   5.406  12.379 -0.4493 -0.0259 -0.5756
 2686SOL    HW138552   6.060   5.494  12.389 -0.1642 -0.1803 -0.2501
 2686SOL    HW238553   5.989   5.384  12.465 -1.0868  0.0155 -0.8197
 2687SOL     OW38554   1.613   4.791  11.253  0.2276 -0.2330 -0.4917
 2687SOL    HW138555   1.675   4.864  11.256 -1.2601  1.1009 -1.1359
 2687SOL    HW238556   1.669   4.713  11.254  2.0004  0.9113 -2.1100
 2688SOL     OW38557   3.080   1.559   0.055  0.9452 -0.3011  0.3052
 2688SOL    HW138558   2.999   1.509   0.063  0.8387 -0.4074 -1.1312
 2688SOL    HW238559   3.149   1.498   0.082  0.5633 -0.1751  1.6340
 2689SOL     OW38560   6.210   1.954   0.084 -0.0476 -0.1199 -0.7794
 2689SOL    HW138561   6.198   1.902   0.004 -0.7096 -1.9766  0.4734
 2689SOL    HW238562   6.303   1.948   0.103 -0.2600 -1.8017 -0.0879
 2690SOL     OW38563   2.327   4.272   1.392  0.1743  0.3529  0.2199
 2690SOL    HW138564   2.318   4.342   1.457 -0.6953 -0.3567  0.9078
 2690SOL    HW238565   2.392   4.213   1.430  1.1636  0.9334 -0.5198
 2691SOL     OW38566   2.806   5.700   0.125 -0.3208 -0.1557  0.1461
 2691SOL    HW138567   2.778   5.735   0.210 -0.8236  0.5738 -0.3039
 2691SOL    HW238568   2.849   5.774   0.082 -0.2892 -0.4508 -0.3309
 2692SOL     OW38569   5.570   5.060  12.264 -0.4571  0.4185  0.0308
 2692SOL    HW138570   5.652   5.101  12.235  0.1506 -2.0432 -2.1147
 2692SOL    HW238571   5.595   5.010  12.342 -0.6256  1.9413  1.1021
 2693SOL     OW38572   0.581   0.490  11.702 -0.0052  0.0186  0.0627
 2693SOL    HW138573   0.609   0.558  11.763 -1.9362  1.0922 -0.1810
 2693SOL    HW238574   0.614   0.519  11.617  1.0154 -0.4863  0.2692
 2694SOL     OW38575   3.338   5.023  11.557 -0.2290  0.4279  0.1052
 2694SOL    HW138576   3.346   4.963  11.482 -1.8434 -0.6822  0.7773
 2694SOL    HW238577   3.277   5.090  11.528 -1.7488 -0.6185  0.7437
 2695SOL     OW38578   6.048   5.139   1.491  0.1585  0.2930  0.3968
 2695SOL    HW138579   6.125   5.139   1.434 -0.2262 -1.4578 -0.1951
 2695SOL    HW238580   5.974   5.127   1.431 -0.3819 -0.1433  1.1369
 2696SOL     OW38581   5.823   4.718   1.463  0.1183  0.1892 -0.0931
 2696SOL    HW138582   5.748   4.775   1.443 -0.0578  0.1525  0.4521
 2696SOL    HW238583   5.896   4.779   1.473  0.6252  0.1134 -2.5566
 2697SOL     OW38584   0.695   2.704  12.262 -0.1801 -0.1085  0.2345
 2697SOL    HW138585   0.662   2.673  12.178  1.0511  0.4243 -0.4801
 2697SOL    HW238586   0.733   2.790  12.242 -0.7908  0.5036  1.5514
 2698SOL     OW38587   2.169   0.886   1.541 -0.2065  0.2981 -0.4604
 2698SOL    HW138588   2.077   0.882   1.566 -0.0934 -1.3328 -0.1641
 2698SOL    HW238589   2.170   0.935   1.459 -1.5142 -0.8456 -1.1982
 2699SOL     OW38590   4.675   2.674   0.578  0.2908  0.2617  0.3583
 2699SOL    HW138591   4.746   2.692   0.640 -0.0267  1.3429  0.4266
 2699SOL    HW238592   4.642   2.761   0.554 -0.2202 -0.1870 -0.5898
 2700SOL     OW38593   1.886   5.965  12.694 -0.0875 -0.9272 -0.4711
 2700SOL    HW138594   1.962   5.969  12.753  0.6677 -0.0969 -1.4689
 2700SOL    HW238595   1.923   5.943  12.609 -0.7736  0.7667 -1.2485
 2701SOL     OW38596   4.095   2.508   1.029 -0.0078  0.9379 -0.0741
 2701SOL    HW138597   4.109   2.426   1.076  0.2556  0.0695 -1.6215
 2701SOL    HW238598   4.182   2.547   1.021 -0.0949  1.2501  0.3965
 2702SOL     OW38599   2.125   2.694  11.660 -0.0031  0.4649  0.7770
 2702SOL    HW138600   2.136   2.609  11.702  0.9377 -1.7496 -3.3765
 2702SOL    HW238601   2.030   2.707  11.656 -0.1721 -0.5452  1.2379
 2703SOL     OW38602   4.774   0.637   0.087 -0.0363  0.3138  0.2617
 2703SOL    HW138603   4.861   0.674   0.070  0.6536 -1.0485  0.6703
 2703SOL    HW238604   4.728   0.646   0.004  1.1116 -0.5344 -0.5066
 2704SOL     OW38605   1.163   6.317  11.207 -0.7420  0.3267 -0.1101
 2704SOL    HW138606   1.197   6.401  11.175  1.9458 -1.0310 -1.1593
 2704SOL    HW238607   1.241   6.265  11.224 -2.3238 -2.1523  0.0400
 2705SOL     OW38608   0.064   0.314  11.179 -0.2628  0.0296 -0.3343
 2705SOL    HW138609   0.084   0.407  11.170  0.7862 -0.1181  0.2953
 2705SOL    HW238610  -0.017   0.311  11.230  1.0515  0.5619  1.8861
 2706SOL     OW38611   5.399   5.404   0.207  0.6420 -0.1419 -0.2557
 2706SOL    HW138612   5.374   5.496   0.222 -0.4333 -0.5583  0.6199
 2706SOL    HW238613   5.428   5.402   0.116 -0.9204  0.7482 -0.8057
 2707SOL     OW38614   3.743   0.124  12.082  0.0068  0.3644  0.3043
 2707SOL    HW138615   3.669   0.171  12.043 -0.2863 -1.3989 -1.3473
 2707SOL    HW238616   3.783   0.189  12.141 -0.6395  2.5372 -1.5097
 2708SOL     OW38617   3.719   5.337   0.015 -0.0229  0.1530  0.0768
 2708SOL    HW138618   3.788   5.358  -0.048  0.0583 -0.1001  0.0789
 2708SOL    HW238619   3.697   5.246  -0.004  0.8202 -0.3080  1.1802
 2709SOL     OW38620   2.656   5.773   1.255 -0.4029  0.2309 -0.0565
 2709SOL    HW138621   2.577   5.721   1.240 -0.1776  0.3107 -1.7433
 2709SOL    HW238622   2.718   5.711   1.292  0.3043 -1.1927 -3.2346
 2710SOL     OW38623   0.935   3.408   0.887 -0.6484  0.0001  0.1918
 2710SOL    HW138624   0.990   3.424   0.811 -0.4333 -2.4290 -0.2431
 2710SOL    HW238625   0.997   3.402   0.960 -0.2081 -2.9380 -0.3296
 2711SOL     OW38626   2.320   5.992  12.092  0.5560  0.1104 -0.4480
 2711SOL    HW138627   2.247   5.963  12.147  0.1247  0.7542 -0.6688
 2711SOL    HW238628   2.391   5.931  12.112  0.9924  1.3359  2.1138
 2712SOL     OW38629   4.330   5.990  12.596 -0.4556 -0.0772  0.2026
 2712SOL    HW138630   4.423   5.978  12.614 -0.9813 -1.1842  2.5790
 2712SOL    HW238631   4.304   5.910  12.550 -0.6122 -0.7267  1.3797
 2713SOL     OW38632   1.355   3.677   1.072  0.4095  0.5063  0.3152
 2713SOL    HW138633   1.263   3.701   1.088 -0.0309 -2.0316  2.2512
 2713SOL    HW238634   1.369   3.698   0.980 -1.3245  3.2083  0.5401
 2714SOL     OW38635   3.804   5.796   1.124  0.1996  0.2371  0.4734
 2714SOL    HW138636   3.841   5.772   1.209  1.8065  0.2237 -0.1873
 2714SOL    HW238637   3.878   5.835   1.076 -0.2384 -1.1491 -1.4737
 2715SOL     OW38638   5.503   1.828  11.359  0.4676 -0.1195 -0.0190
 2715SOL    HW138639   5.520   1.763  11.290  1.2161 -0.7103  0.7002
 2715SOL    HW238640   5.577   1.888  11.355  0.4815 -0.1189  0.2302
 2716SOL     OW38641   2.473   5.738   1.679  0.6051 -0.6855 -0.1436
 2716SOL    HW138642   2.472   5.648   1.645 -0.0980 -0.9096  0.4366
 2716SOL    HW238643   2.562   5.752   1.709  0.9054 -0.9357 -0.9074
 2717SOL     OW38644   5.641   4.096  10.890  0.1739 -0.1376 -0.2222
 2717SOL    HW138645   5.623   4.084  10.796 -0.2390  0.8526 -0.2784
 2717SOL    HW238646   5.558   4.127  10.926 -0.8493 -3.9769  1.1901
 2718SOL     OW38647   0.748   4.355  12.644  0.3683 -0.1489  0.4327
 2718SOL    HW138648   0.751   4.271  12.597 -0.0290 -0.4266  0.8910
 2718SOL    HW238649   0.657   4.383  12.637  0.5193  0.2867  0.2133
 2719SOL     OW38650   2.323   1.529  11.714 -0.9472 -0.1808  0.4635
 2719SOL    HW138651   2.329   1.620  11.685 -1.2220  0.2366  1.6922
 2719SOL    HW238652   2.260   1.530  11.786 -0.4420 -1.2405  0.9438
 2720SOL     OW38653   0.745   3.664  12.678  0.0056  0.0303 -0.3606
 2720SOL    HW138654   0.813   3.626  12.733  0.4969 -1.4970 -1.9443
 2720SOL    HW238655   0.663   3.643  12.723  0.5022  0.8279  0.9431
 2721SOL     OW38656   0.000   1.375   1.373  0.1994  0.1111  0.1651
 2721SOL    HW138657  -0.052   1.435   1.321 -0.1327 -1.5554 -1.5189
 2721SOL    HW238658  -0.064   1.314   1.411  0.6400  0.0180  0.7800
 2722SOL     OW38659   6.183   3.474  11.389 -0.0011 -0.4649  0.0667
 2722SOL    HW138660   6.179   3.491  11.483 -0.8627  1.4069 -0.2617
 2722SOL    HW238661   6.212   3.556  11.351 -0.0038 -1.0850 -1.3460
 2723SOL     OW38662   3.164   0.215  12.482 -0.2813  0.0589 -0.1401
 2723SOL    HW138663   3.115   0.195  12.562 -0.0484  0.6742  0.1591
 2723SOL    HW238664   3.247   0.252  12.513  0.0032 -0.1299 -0.6600
 2724SOL     OW38665   5.096   2.011  11.053 -0.6825  0.4069 -0.3689
 2724SOL    HW138666   5.030   2.041  10.992 -0.4063  1.1453 -0.3116
 2724SOL    HW238667   5.047   1.974  11.126 -1.0998  2.4459  0.4502
 2725SOL     OW38668   4.031   5.601  11.567  0.4807 -0.1883  0.0369
 2725SOL    HW138669   4.024   5.684  11.520 -1.5038 -1.7218 -2.6579
 2725SOL    HW238670   4.115   5.565  11.540  0.2198 -0.1743 -0.8099
 2726SOL     OW38671   5.632   0.509  12.173 -0.2722 -0.0627  0.5521
 2726SOL    HW138672   5.672   0.494  12.258 -2.2150 -1.5567  1.2746
 2726SOL    HW238673   5.542   0.535  12.193  0.0387  2.6778 -1.0132
 2727SOL     OW38674   2.769   1.725  12.560  0.1462 -0.4481  0.4514
 2727SOL    HW138675   2.835   1.714  12.492 -0.3301  0.7919 -0.2260
 2727SOL    HW238676   2.802   1.796  12.615 -2.0831  2.5295 -1.7893
 2728SOL     OW38677   1.900   3.542   1.167 -0.2022 -0.1874  0.3640
 2728SOL    HW138678   1.981   3.490   1.159 -0.3134 -0.5485  1.4416
 2728SOL    HW238679   1.857   3.507   1.245 -2.1872 -1.0564 -1.0575
 2729SOL     OW38680   0.655   5.686  10.979  0.0378 -0.6787  0.2927
 2729SOL    HW138681   0.607   5.611  10.944  0.0409 -0.3728 -0.3970
 2729SOL    HW238682   0.665   5.668  11.072 -2.9432  0.0661  0.8439
 2730SOL     OW38683   2.307   4.958   0.905 -0.1510  0.6953  0.0989
 2730SOL    HW138684   2.329   4.865   0.903 -1.2718  0.4170  0.1842
 2730SOL    HW238685   2.392   5.003   0.911  0.5672 -0.2303 -2.0092
 2731SOL     OW38686   4.077   4.573   0.842  0.2258  0.4965  0.5836
 2731SOL    HW138687   4.044   4.486   0.861  1.9968 -0.1091  1.1352
 2731SOL    HW238688   4.012   4.633   0.878 -0.4562 -0.6107  1.2313
 2732SOL     OW38689   5.957   0.805   1.364 -0.0736  0.3014 -0.2315
 2732SOL    HW138690   6.006   0.723   1.357  0.6934  0.7380 -0.0233
 2732SOL    HW238691   6.015   0.872   1.327  0.4279  1.1894  1.9674
 2733SOL     OW38692   6.117   4.843   0.375  0.2428 -0.2370  0.3636
 2733SOL    HW138693   6.212   4.838   0.387  0.3086 -0.9692 -0.4231
 2733SOL    HW238694   6.106   4.880   0.287 -0.1956 -0.6491  0.2408
 2734SOL     OW38695   5.528   6.082  12.304 -0.3465 -0.3030  0.3827
 2734SOL    HW138696   5.516   6.040  12.219 -1.0965 -1.1439  0.8773
 2734SOL    HW238697   5.622   6.071  12.323  0.4954  2.3910 -1.5463
 2735SOL     OW38698   6.298   1.097  12.623  0.3854 -0.5939  0.0046
 2735SOL    HW138699   6.316   1.078  12.531 -0.4726  0.1364 -0.3307
 2735SOL    HW238700   6.205   1.122  12.625  0.1676 -1.4169  1.1998
 2736SOL     OW38701   5.772   3.345  11.602 -0.0433  0.1916 -0.7786
 2736SOL    HW138702   5.808   3.365  11.515 -0.9284 -1.0285 -1.4527
 2736SOL    HW238703   5.849   3.321  11.654  0.4132  0.1495 -1.4507
 2737SOL     OW38704   1.906   0.987  11.762 -0.3046  0.0315  0.2519
 2737SOL    HW138705   1.919   0.895  11.740 -0.0015 -0.1526  1.1857
 2737SOL    HW238706   1.968   1.034  11.706  1.2847 -0.5178  1.4663
 2738SOL     OW38707   3.215   1.018  12.053  0.5959  0.0302  0.4793
 2738SOL    HW138708   3.290   1.075  12.038  1.3567 -0.8475  0.9061
 2738SOL    HW238709   3.152   1.044  11.985  0.7883  1.5756  0.8549
 2739SOL     OW38710   4.103   3.360  12.113 -0.7721 -0.2931  0.1964
 2739SOL    HW138711   4.198   3.376  12.110 -0.7256 -0.6069 -0.0797
 2739SOL    HW238712   4.095   3.270  12.144 -1.0775  0.7447  3.4657
 2740SOL     OW38713   4.869   6.432   0.141 -0.2117  0.0800  0.6353
 2740SOL    HW138714   4.835   6.411   0.228  0.6608  1.0872  1.2351
 2740SOL    HW238715   4.954   6.473   0.157 -1.8470  4.3965 -0.3661
 2741SOL     OW38716   0.730   2.961   0.734  0.0057  0.0224 -0.2606
 2741SOL    HW138717   0.763   2.991   0.818  0.3903 -0.4030 -0.2550
 2741SOL    HW238718   0.645   2.921   0.754 -0.1596  0.4238 -0.1594
 2742SOL     OW38719   0.184   2.073  11.263  0.9733  0.0664 -0.0918
 2742SOL    HW138720   0.112   2.068  11.326 -1.9960 -1.4941 -3.2755
 2742SOL    HW238721   0.218   1.983  11.259  1.9171  0.4118  0.1240
 2743SOL     OW38722   0.917   5.874   1.449  0.1478 -0.2359  0.6291
 2743SOL    HW138723   0.861   5.916   1.515  0.6749 -1.1133  1.6781
 2743SOL    HW238724   0.879   5.786   1.438  0.1948 -0.1720 -0.0892
 2744SOL     OW38725   1.422   6.284  11.755  0.3427 -0.1182 -0.0399
 2744SOL    HW138726   1.453   6.211  11.809  2.6122  0.6135 -0.2415
 2744SOL    HW238727   1.499   6.339  11.742 -1.3507  2.6191  0.5234
 2745SOL     OW38728   6.420   0.115  11.994 -0.7561 -0.2850  0.4279
 2745SOL    HW138729   6.396   0.188  11.936  4.1481 -0.3458 -2.1758
 2745SOL    HW238730   6.365   0.042  11.964 -0.0392  0.3188 -2.6821
 2746SOL     OW38731   1.422   4.718  11.467 -0.3022  0.7578 -0.4598
 2746SOL    HW138732   1.453   4.631  11.491 -1.1792  0.4791 -0.2899
 2746SOL    HW238733   1.500   4.764  11.434  0.5268  0.4976  1.0672
 2747SOL     OW38734   3.074   0.584  12.185 -0.2015  0.1134  0.4712
 2747SOL    HW138735   3.038   0.672  12.175  0.2367  0.2038 -0.3354
 2747SOL    HW238736   3.167   0.593  12.166  0.3883 -0.0586  2.8797
 2748SOL     OW38737   6.438   0.004  12.552  0.3850 -0.1389 -0.3211
 2748SOL    HW138738   6.511   0.040  12.501  0.0220 -0.5128 -1.1270
 2748SOL    HW238739   6.456  -0.090  12.555  1.4055  0.0750  1.9029
 2749SOL     OW38740   3.596   5.018  11.557  0.0891  0.3309 -0.1809
 2749SOL    HW138741   3.503   5.033  11.576  0.4175  2.0003  0.2775
 2749SOL    HW238742   3.603   4.923  11.547 -1.1457 -0.1989  2.8123
 2750SOL     OW38743   3.639   5.205  11.247  0.3762 -0.1283  0.1406
 2750SOL    HW138744   3.547   5.201  11.220  0.9488 -0.0523 -1.9936
 2750SOL    HW238745   3.680   5.133  11.200  1.4550 -0.0411  0.9271
 2751SOL     OW38746   4.348   3.297  11.448  0.1986 -0.1471  0.2808
 2751SOL    HW138747   4.261   3.335  11.444  0.1352 -0.3000  0.2058
 2751SOL    HW238748   4.337   3.207  11.417  0.5914  0.1992 -0.9036
 2752SOL     OW38749   5.730   2.413  11.835 -0.1535 -0.5453 -0.2976
 2752SOL    HW138750   5.741   2.464  11.915  2.4022  1.8272 -1.9404
 2752SOL    HW238751   5.766   2.327  11.856 -0.9248 -0.4706  1.4916
 2753SOL     OW38752   5.211   5.031  11.240  0.2221 -0.9810  0.2989
 2753SOL    HW138753   5.299   5.060  11.219 -0.0433  0.1228  0.6938
 2753SOL    HW238754   5.194   5.064  11.328 -0.3753 -1.6795  0.4560
 2754SOL     OW38755   0.401   0.275  11.312 -0.2843 -0.1127 -0.2134
 2754SOL    HW138756   0.312   0.271  11.276 -1.2157 -1.8156  2.0361
 2754SOL    HW238757   0.455   0.232  11.246 -1.5934 -1.4015 -0.5152
 2755SOL     OW38758   5.178   5.138  11.503  0.0596 -0.3344 -0.5696
 2755SOL    HW138759   5.227   5.135  11.585  2.5983 -0.3217 -1.9782
 2755SOL    HW238760   5.117   5.210  11.514 -1.2917 -1.7551  2.0997
 2756SOL     OW38761   0.712   1.475  11.467 -0.3226 -1.1128  0.5998
 2756SOL    HW138762   0.677   1.529  11.396  0.3438  1.4599  2.1184
 2756SOL    HW238763   0.798   1.513  11.487  0.9643 -3.7942  0.7054
 2757SOL     OW38764   0.636   0.354   0.495  0.0051 -0.5054  0.0748
 2757SOL    HW138765   0.711   0.295   0.496  0.5796  0.1307 -1.6433
 2757SOL    HW238766   0.569   0.309   0.545  0.1561 -3.0000 -1.8139
 2758SOL     OW38767   5.437   4.873  11.628  0.1682 -0.1121  0.1626
 2758SOL    HW138768   5.384   4.902  11.553 -0.8194  1.7402  1.5005
 2758SOL    HW238769   5.375   4.827  11.684  1.3207 -3.3601 -1.0042
 2759SOL     OW38770   5.375   0.458   0.070 -0.0382 -0.2882  0.8682
 2759SOL    HW138771   5.362   0.530   0.008  1.3879  0.8455  1.8168
 2759SOL    HW238772   5.409   0.386   0.017  1.6823  0.8352  0.3469
 2760SOL     OW38773   6.381   4.367  11.151  0.0462  0.4084 -0.0593
 2760SOL    HW138774   6.409   4.279  11.175 -1.5890  0.0850  0.7482
 2760SOL    HW238775   6.454   4.423  11.176  0.1981 -0.4544  1.5369
 2761SOL     OW38776   5.747   2.173  11.622 -0.1315 -0.1116  0.2658
 2761SOL    HW138777   5.653   2.174  11.606  0.3781 -0.0197 -4.0614
 2761SOL    HW238778   5.778   2.258  11.590  1.6126 -0.9482 -0.4186
 2762SOL     OW38779   4.708   2.282  12.279  0.2211  0.0478  0.0053
 2762SOL    HW138780   4.774   2.350  12.286  0.4306 -0.2727  1.5631
 2762SOL    HW238781   4.658   2.304  12.201  0.5379  1.7521  0.2583
 2763SOL     OW38782   3.893   2.277  12.824 -0.4037  0.2393 -0.1600
 2763SOL    HW138783   3.830   2.224  12.872  0.6668 -1.8092 -0.8620
 2763SOL    HW238784   3.915   2.349  12.883 -0.2064 -1.3818  1.8591
 2764SOL     OW38785   3.754   5.668  12.429 -0.5272  0.3488  0.4473
 2764SOL    HW138786   3.766   5.723  12.507 -0.7540 -0.3060  0.9470
 2764SOL    HW238787   3.706   5.592  12.460 -1.5051  0.5431 -0.5355
 2765SOL     OW38788   3.846   1.888  11.959  0.4264  0.4478  0.1698
 2765SOL    HW138789   3.789   1.945  12.011  0.4592  1.3178 -0.7281
 2765SOL    HW238790   3.866   1.939  11.881 -1.2541 -1.5581 -1.7015
 2766SOL     OW38791   2.882   2.701  11.601  0.0981  0.1323 -0.2250
 2766SOL    HW138792   2.805   2.650  11.579 -0.6053  1.3401 -0.6448
 2766SOL    HW238793   2.858   2.748  11.681  0.6410  0.0016  0.0186
 2767SOL     OW38794   5.048   5.385  11.336  0.0725  0.0888 -0.4692
 2767SOL    HW138795   4.986   5.447  11.297 -0.7940 -0.0574  0.6245
 2767SOL    HW238796   5.119   5.440  11.369  0.6825  0.2380 -1.9586
 2768SOL     OW38797   1.289   0.128  11.705 -0.0280  0.5446  0.4250
 2768SOL    HW138798   1.269   0.172  11.622 -2.6153 -0.0981  0.6100
 2768SOL    HW238799   1.260   0.038  11.691  2.6191 -0.4706  0.9744
 2769SOL     OW38800   4.697   2.192  11.567 -0.0407 -0.4106  0.1896
 2769SOL    HW138801   4.693   2.272  11.620  0.9823 -1.0484  1.2670
 2769SOL    HW238802   4.607   2.160  11.565 -0.1937 -0.0600  1.0594
 2770SOL     OW38803   3.843   5.485  11.428  0.1698  0.1422 -0.1006
 2770SOL    HW138804   3.921   5.521  11.469  0.7374  0.7842 -1.6436
 2770SOL    HW238805   3.793   5.561  11.398 -0.6991 -0.2763  0.2522
 2771SOL     OW38806   5.036   2.760   0.307 -0.4868 -0.7108  0.1561
 2771SOL    HW138807   5.105   2.827   0.311 -1.4685  0.4687 -1.4091
 2771SOL    HW238808   5.068   2.697   0.242 -1.6528  0.8849 -2.1035
 2772SOL     OW38809   0.156   4.034   1.279  0.4432  0.9219  0.1319
 2772SOL    HW138810   0.068   3.999   1.288  0.8049 -0.8542 -2.1975
 2772SOL    HW238811   0.214   3.960   1.302  1.2221  0.0439 -3.8799
 2773SOL     OW38812   4.772   4.537   1.519  0.2742 -0.0441  0.2296
 2773SOL    HW138813   4.746   4.600   1.452 -0.4488  2.4693  2.6880
 2773SOL    HW238814   4.717   4.461   1.503 -0.2139  0.6452 -1.7027
 2774SOL     OW38815   2.176   0.909  12.838  0.1061 -0.5025 -0.6161
 2774SOL    HW138816   2.105   0.956  12.795 -0.6745  0.2913  1.4279
 2774SOL    HW238817   2.136   0.873  12.917  2.1300  0.6537  1.0202
 2775SOL     OW38818   2.324   1.718   1.317  0.5914 -0.8726 -0.4019
 2775SOL    HW138819   2.365   1.795   1.278  1.9248 -1.5911 -0.4541
 2775SOL    HW238820   2.395   1.656   1.328  0.1458 -0.9901  2.5270
 2776SOL     OW38821   0.639   5.834   1.115  0.0344 -0.1800 -0.3792
 2776SOL    HW138822   0.705   5.904   1.111 -2.2793  2.3940  2.1205
 2776SOL    HW238823   0.622   5.823   1.209 -2.4815 -1.3254 -0.8923
 2777SOL     OW38824   6.093   0.231  12.529 -0.1652 -0.8464  0.3933
 2777SOL    HW138825   6.122   0.165  12.466  0.4571 -0.7987  0.6240
 2777SOL    HW238826   6.171   0.253  12.579  0.1021  1.4411 -0.9067
 2778SOL     OW38827   3.735   4.042  11.457  0.1921  0.4542 -0.4751
 2778SOL    HW138828   3.821   4.068  11.491  0.2329  0.9111 -0.9192
 2778SOL    HW238829   3.677   4.113  11.484 -0.1717 -0.1266  0.3216
 2779SOL     OW38830   1.180   4.783   0.960  0.4960 -0.3144 -0.0700
 2779SOL    HW138831   1.161   4.876   0.944  1.2430 -0.2063 -0.3794
 2779SOL    HW238832   1.220   4.753   0.878 -1.2132 -1.3408 -0.5688
 2780SOL     OW38833   0.088   1.970   0.951  0.6603  0.3631 -0.4002
 2780SOL    HW138834   0.026   2.019   1.005  0.2563 -0.8733  0.3160
 2780SOL    HW238835   0.041   1.889   0.929  1.1393  0.4636 -1.8916
 2781SOL     OW38836   4.625   2.749  12.560 -0.0717  0.6250  0.4564
 2781SOL    HW138837   4.567   2.743  12.635 -1.1987 -1.1538 -0.4855
 2781SOL    HW238838   4.619   2.840  12.531 -0.6168  1.0063  1.7128
 2782SOL     OW38839   4.760   4.167   0.038  0.4748 -0.3574  0.4503
 2782SOL    HW138840   4.714   4.140  -0.042 -2.0544  1.1494  1.2760
 2782SOL    HW238841   4.707   4.132   0.110 -0.1815  2.4509  1.4581
 2783SOL     OW38842   1.607   3.063  12.109  0.2423  0.3495  0.2408
 2783SOL    HW138843   1.521   3.020  12.112  0.4797 -0.1737 -0.1571
 2783SOL    HW238844   1.634   3.055  12.017  1.9875 -2.0706  0.8604
 2784SOL     OW38845   2.427   3.124   0.777  0.0094 -0.7176 -0.0844
 2784SOL    HW138846   2.377   3.042   0.782 -1.3481  0.1364  1.3467
 2784SOL    HW238847   2.518   3.096   0.770 -0.5478 -2.3284 -1.9475
 2785SOL     OW38848   1.824   3.314  12.371  0.6740  0.3487  0.0723
 2785SOL    HW138849   1.759   3.276  12.430  2.0024 -0.8315  0.8214
 2785SOL    HW238850   1.840   3.245  12.306 -0.4882  1.4875 -1.5046
 2786SOL     OW38851   1.272   4.369  11.826 -0.1930 -0.4239  0.0058
 2786SOL    HW138852   1.316   4.446  11.861  1.5884 -0.4889 -1.9241
 2786SOL    HW238853   1.199   4.405  11.775 -0.0094 -0.0908 -0.0260
 2787SOL     OW38854   1.181   4.910  12.038  0.9671 -0.1281  0.5357
 2787SOL    HW138855   1.096   4.888  12.076  1.2157  1.0033  1.8389
 2787SOL    HW238856   1.186   4.857  11.959 -0.6730 -0.6969  0.7637
 2788SOL     OW38857   4.086   3.093  11.614 -0.3942 -0.1615  0.5960
 2788SOL    HW138858   4.080   3.003  11.582  0.4081 -0.0071 -0.0027
 2788SOL    HW238859   4.165   3.095  11.668 -0.6011  0.1060  0.9011
 2789SOL     OW38860   4.143   5.351  11.786  0.2063  0.3157  0.3317
 2789SOL    HW138861   4.233   5.320  11.780 -0.0298 -0.3918  0.3950
 2789SOL    HW238862   4.150   5.446  11.787  0.9058  0.2720 -0.3378
 2790SOL     OW38863   4.251   2.810  11.200  0.3356  0.3140 -0.4490
 2790SOL    HW138864   4.259   2.884  11.260  0.2757  0.1166 -0.1989
 2790SOL    HW238865   4.283   2.844  11.116  1.5799  0.2351 -0.0243
 2791SOL     OW38866   4.578   6.364  12.607  0.2041 -0.1802 -0.1335
 2791SOL    HW138867   4.639   6.344  12.536  1.2086 -0.0716  0.6652
 2791SOL    HW238868   4.630   6.417  12.669 -0.4012 -0.9161  1.0430
 2792SOL     OW38869   4.564   3.695  11.828  0.0247 -1.0511  0.2197
 2792SOL    HW138870   4.480   3.688  11.784  0.6625 -0.6507 -1.1461
 2792SOL    HW238871   4.587   3.605  11.852 -0.0791 -1.3689 -0.8316
 2793SOL     OW38872   4.298   2.395  12.443  0.1107 -0.0602 -0.1591
 2793SOL    HW138873   4.384   2.424  12.474  0.3569 -1.0492  0.0994
 2793SOL    HW238874   4.239   2.466  12.469  0.5593 -0.1468  1.2057
 2794SOL     OW38875   5.208   1.420  11.742  0.4165  0.0570  1.0803
 2794SOL    HW138876   5.163   1.340  11.713  0.8336 -0.1743  1.0711
 2794SOL    HW238877   5.223   1.406  11.836  0.5140  0.1131  1.0728
 2795SOL     OW38878   1.324   6.270   1.614 -0.4041  0.4879  0.4039
 2795SOL    HW138879   1.395   6.227   1.566 -1.2191 -1.6922  1.0309
 2795SOL    HW238880   1.368   6.329   1.675  0.8501 -0.3606  0.3449
 2796SOL     OW38881   0.865   4.852   1.312 -0.5152 -0.1760 -0.2550
 2796SOL    HW138882   0.903   4.934   1.345  0.5445 -0.8943  0.3308
 2796SOL    HW238883   0.788   4.838   1.367  1.1061 -1.2511  1.8904
 2797SOL     OW38884   2.242   2.183  12.039 -0.3391  0.7663  0.0191
 2797SOL    HW138885   2.189   2.254  12.076 -1.2983 -0.5375  1.2373
 2797SOL    HW238886   2.180   2.128  11.992  0.1146 -0.1033  0.4002
 2798SOL     OW38887   1.499   0.697   1.124 -0.0941 -0.0985  1.3061
 2798SOL    HW138888   1.547   0.615   1.113  0.9245  0.4976  1.1679
 2798SOL    HW238889   1.468   0.695   1.215 -1.0896 -1.1425  0.9720
 2799SOL     OW38890   1.757   1.863   1.824 -0.0199 -0.1220 -0.1111
 2799SOL    HW138891   1.790   1.857   1.914 -1.5776 -2.2801  0.3917
 2799SOL    HW238892   1.815   1.805   1.774 -1.2858 -1.7959  0.2629
 2800SOL     OW38893   1.989   0.327   1.330 -0.5765  0.5608  0.5529
 2800SOL    HW138894   2.003   0.241   1.292 -0.7614  0.3263  1.0103
 2800SOL    HW238895   2.053   0.384   1.286 -0.5998  0.2410  0.0961
 2801SOL     OW38896   4.392   5.106  12.190 -0.3454 -0.0264  0.0919
 2801SOL    HW138897   4.397   5.011  12.178 -0.1238  0.1087 -1.0163
 2801SOL    HW238898   4.422   5.120  12.280  1.6316 -0.8540 -0.3716
 2802SOL     OW38899   2.461   4.824   1.717  0.8099 -0.0179 -0.0217
 2802SOL    HW138900   2.488   4.859   1.802 -1.2213  1.7044  0.0041
 2802SOL    HW238901   2.498   4.885   1.653  1.0073 -0.3952 -0.2686
 2803SOL     OW38902   5.233   3.252   0.604 -0.2868  0.5559  0.0887
 2803SOL    HW138903   5.156   3.241   0.548 -1.3210 -0.0797  1.5473
 2803SOL    HW238904   5.303   3.279   0.545 -1.6352  1.1821 -1.2931
 2804SOL     OW38905   0.273   3.527  11.327  0.0070  0.7706  0.3503
 2804SOL    HW138906   0.276   3.434  11.347  1.5494  0.4821 -1.0561
 2804SOL    HW238907   0.243   3.568  11.408 -1.0712 -0.9551  0.8744
 2805SOL     OW38908   5.695   5.248   0.891  0.4715 -0.0335 -0.0212
 2805SOL    HW138909   5.663   5.264   0.802  0.4636  1.8720  0.2686
 2805SOL    HW238910   5.765   5.312   0.902  2.1898 -1.9065  0.5192
 2806SOL     OW38911   5.394   5.324   0.511  0.1558 -0.5381  0.5555
 2806SOL    HW138912   5.360   5.334   0.422  0.9902  1.9629  0.4365
 2806SOL    HW238913   5.445   5.243   0.508 -0.2663 -0.7866 -1.0851
 2807SOL     OW38914   2.117   0.597   0.003 -0.3919  0.4971 -0.4744
 2807SOL    HW138915   2.122   0.648   0.084  1.6336  0.7243 -0.6862
 2807SOL    HW238916   2.205   0.604  -0.035 -0.5134 -1.7900 -1.3548
 2808SOL     OW38917   2.887   1.107  11.205 -0.0660 -0.2621  0.0787
 2808SOL    HW138918   2.856   1.168  11.272  3.3674  1.3528  0.4309
 2808SOL    HW238919   2.883   1.157  11.123  1.0414 -0.1676  0.0663
 2809SOL     OW38920   1.424   0.210   1.174 -0.8442 -0.5076 -0.0730
 2809SOL    HW138921   1.458   0.121   1.166 -0.0177 -0.2300  0.2298
 2809SOL    HW238922   1.423   0.226   1.269 -0.9546 -0.1910 -0.1274
 2810SOL     OW38923   2.465   0.926   1.461 -0.1113 -0.5662  0.1963
 2810SOL    HW138924   2.439   0.906   1.551  1.2497  1.6329  1.1594
 2810SOL    HW238925   2.545   0.875   1.448 -0.1491 -0.6567  0.3119
 2811SOL     OW38926   3.529   1.952   1.230 -0.1760  0.1684  0.2120
 2811SOL    HW138927   3.501   2.043   1.216 -1.5197 -0.1454  0.6405
 2811SOL    HW238928   3.556   1.921   1.144 -1.5851  0.4014 -0.3386
 2812SOL     OW38929   2.991   4.849   1.955 -0.0197 -0.7539  0.5199
 2812SOL    HW138930   2.974   4.890   1.871 -0.7625 -2.7606 -0.3736
 2812SOL    HW238931   2.916   4.876   2.010  1.0216  1.4574  0.9686
 2813SOL     OW38932   4.165   3.481  11.701 -0.4614  0.0048  0.6076
 2813SOL    HW138933   4.129   3.478  11.613  1.3020 -0.3135 -0.1451
 2813SOL    HW238934   4.088   3.478  11.759 -1.5781 -3.0976 -0.8177
 2814SOL     OW38935   5.614   5.456  12.526 -0.0146 -0.6272  0.0591
 2814SOL    HW138936   5.618   5.362  12.512 -0.5188 -1.0198  2.2426
 2814SOL    HW238937   5.533   5.483  12.483  0.2965 -1.1178 -0.8547
 2815SOL     OW38938   5.564   1.481   0.467  0.1650 -0.0982  0.2705
 2815SOL    HW138939   5.545   1.565   0.425  0.6267  0.8574  1.8933
 2815SOL    HW238940   5.650   1.493   0.508 -0.9385 -0.3926  2.8383
 2816SOL     OW38941   1.264   3.759   0.812 -0.2827  0.7302 -0.1690
 2816SOL    HW138942   1.293   3.822   0.746  1.9922 -0.9030 -0.8740
 2816SOL    HW238943   1.168   3.767   0.812 -0.1430  3.4256 -0.9009
 2817SOL     OW38944   0.995   3.731   0.871 -0.1416  0.4072  0.0237
 2817SOL    HW138945   0.954   3.665   0.814 -0.1552 -0.4326  0.9687
 2817SOL    HW238946   0.959   3.814   0.842  0.7826  0.1551 -2.0079
 2818SOL     OW38947   0.862   3.547  11.234 -0.2479  0.5944 -0.2124
 2818SOL    HW138948   0.955   3.551  11.214 -0.1467 -1.8928 -0.5021
 2818SOL    HW238949   0.856   3.492  11.312 -1.3558  2.4576  1.1023
 2819SOL     OW38950   1.221   6.263   0.271 -0.5480 -0.3793  0.4152
 2819SOL    HW138951   1.172   6.312   0.205 -2.3407  0.5632  2.3041
 2819SOL    HW238952   1.247   6.182   0.228 -1.7657  0.1388 -1.3833
 2820SOL     OW38953   0.238   4.727  11.587  0.0290 -0.0651 -0.4428
 2820SOL    HW138954   0.153   4.750  11.551  0.3847  0.3280 -1.0363
 2820SOL    HW238955   0.227   4.737  11.682 -0.1847  1.3536 -0.5975
 2821SOL     OW38956   1.802   4.101   0.231 -0.3662 -0.0943 -0.2315
 2821SOL    HW138957   1.861   4.175   0.246 -1.3211  1.4325 -3.2204
 2821SOL    HW238958   1.714   4.138   0.245 -0.8154 -1.0542 -0.4190
 2822SOL     OW38959   6.232   3.083  11.056  0.2450  0.1001  0.3712
 2822SOL    HW138960   6.171   3.066  11.128  0.3497  1.4282  0.7969
 2822SOL    HW238961   6.181   3.070  10.977 -0.6620  1.3996  0.7205
 2823SOL     OW38962   0.972   1.439   1.102  0.2141  0.0748 -0.5385
 2823SOL    HW138963   0.878   1.441   1.121 -0.1459 -0.9632 -2.0167
 2823SOL    HW238964   0.999   1.349   1.123  0.9778  0.4571  0.2008
 2824SOL     OW38965   2.829   4.896  11.672 -0.0311  0.1893  0.3762
 2824SOL    HW138966   2.866   4.877  11.758 -0.2355 -0.0802  0.4050
 2824SOL    HW238967   2.736   4.909  11.689 -0.9570 -3.9929 -0.3198
 2825SOL     OW38968   1.201   5.587  11.880 -0.1493  0.3310  0.2869
 2825SOL    HW138969   1.207   5.668  11.931  2.1671  0.2748  0.2383
 2825SOL    HW238970   1.144   5.608  11.806 -1.9047  1.0169  1.7846
 2826SOL     OW38971   2.592   1.571   0.883 -0.2172  0.4609  0.7749
 2826SOL    HW138972   2.676   1.615   0.869  1.2214 -2.6490 -1.7013
 2826SOL    HW238973   2.615   1.489   0.926 -1.8929 -0.6102 -0.2304
 2827SOL     OW38974   5.422   3.732   0.176  0.1262  0.6009 -0.3662
 2827SOL    HW138975   5.496   3.672   0.183 -0.5756 -0.0584  2.3195
 2827SOL    HW238976   5.368   3.695   0.105  1.3310 -0.0323 -0.9830
 2828SOL     OW38977   2.906   4.602   0.642 -0.3267  0.2604  0.1585
 2828SOL    HW138978   2.904   4.542   0.717 -1.7222  0.1098  0.0298
 2828SOL    HW238979   2.849   4.561   0.577 -0.1021  0.9870 -0.5099
 2829SOL     OW38980   3.876   4.740   0.883 -0.1410 -0.3186 -0.3018
 2829SOL    HW138981   3.800   4.697   0.921 -0.1572  0.0767  0.1304
 2829SOL    HW238982   3.840   4.797   0.815 -0.1573 -0.6896 -0.6035
 2830SOL     OW38983   0.389   4.195  12.677  0.2524 -0.3509  0.2409
 2830SOL    HW138984   0.409   4.288  12.685  2.1649 -0.6818 -0.2304
 2830SOL    HW238985   0.293   4.191  12.681  0.1319  1.6035  0.4098
 2831SOL     OW38986   4.996   1.781   0.130 -0.9255  0.0281 -0.6886
 2831SOL    HW138987   5.040   1.729   0.197 -0.4594  1.7204  0.3727
 2831SOL    HW238988   5.008   1.731   0.049  0.6813 -0.8323  0.0397
 2832SOL     OW38989   1.630   2.508  12.599  0.3520 -0.3727 -0.2541
 2832SOL    HW138990   1.652   2.572  12.667  0.3987 -0.2891 -0.3467
 2832SOL    HW238991   1.712   2.460  12.584  0.4526 -0.1149 -0.5433
 2833SOL     OW38992   3.228   3.301  12.408  0.4542 -0.1404 -0.2519
 2833SOL    HW138993   3.316   3.269  12.427  0.8961  0.6135 -0.9312
 2833SOL    HW238994   3.208   3.267  12.321  0.5580  0.6362 -0.5923
 2834SOL     OW38995   0.245   2.775  12.272  0.2483 -0.0366  0.5029
 2834SOL    HW138996   0.246   2.817  12.358 -1.6853  0.4267  0.3569
 2834SOL    HW238997   0.234   2.847  12.210 -2.1147 -0.5621  0.1833
 2835SOL     OW38998   3.162   3.165  12.169 -0.1545  0.4024  0.8195
 2835SOL    HW138999   3.143   3.239  12.112  0.1020 -0.1149  0.0441
 2835SOL    HW239000   3.118   3.090  12.127  1.0939 -0.2319  0.5862
 2836SOL     OW39001   1.351   1.439   0.028 -0.5089 -0.4338  0.2283
 2836SOL    HW139002   1.298   1.492   0.087  0.2281 -1.0562  1.4932
 2836SOL    HW239003   1.435   1.429   0.073 -0.0651 -1.2831 -0.7369
 2837SOL     OW39004   1.223   2.379   1.190 -0.3840 -0.0293 -0.3558
 2837SOL    HW139005   1.197   2.423   1.109 -0.1019  2.3161  0.7479
 2837SOL    HW239006   1.266   2.447   1.241  2.4678 -2.2622  0.4383
 2838SOL     OW39007   4.902   1.474   0.841 -0.1417  0.3537  0.2120
 2838SOL    HW139008   4.921   1.468   0.934 -0.3053 -1.0088  0.1679
 2838SOL    HW239009   4.986   1.458   0.798 -0.3719 -0.6674  0.1120
 2839SOL     OW39010   0.962   4.131  11.693 -0.2204 -0.2279 -0.5416
 2839SOL    HW139011   0.932   4.214  11.730 -0.2140 -0.2189 -0.5565
 2839SOL    HW239012   0.960   4.145  11.599  3.7515  1.2103 -0.5943
 2840SOL     OW39013   2.806   1.765   0.784  0.5005  0.1027 -0.1302
 2840SOL    HW139014   2.767   1.820   0.852  1.3263  0.1177  0.3478
 2840SOL    HW239015   2.899   1.761   0.808  0.3000 -2.4032  0.4657
 2841SOL     OW39016   1.754   4.216  11.585  0.0756 -0.6112 -0.3004
 2841SOL    HW139017   1.671   4.208  11.539  0.3039 -0.2600 -0.7755
 2841SOL    HW239018   1.730   4.237  11.676 -0.3362 -0.0451 -0.5382
 2842SOL     OW39019   2.017   0.726  12.337  0.0797 -0.0379  0.3037
 2842SOL    HW139020   2.055   0.809  12.308  1.6668 -0.2885  1.5228
 2842SOL    HW239021   2.068   0.659  12.291  1.5063 -0.3903  2.2618
 2843SOL     OW39022   6.005   3.487  11.974  0.0112 -0.2321 -0.1103
 2843SOL    HW139023   5.982   3.570  12.016 -1.9949 -1.3114  1.0949
 2843SOL    HW239024   5.927   3.433  11.985  0.6969 -1.7715 -2.2425
 2844SOL     OW39025   2.673   3.016  11.522 -0.0979  0.2289  0.1017
 2844SOL    HW139026   2.653   2.945  11.462 -1.1176  1.9447 -1.7073
 2844SOL    HW239027   2.589   3.039  11.561  0.1682  0.6379  0.4493
 2845SOL     OW39028   1.689   1.273  12.835  0.1258  0.1636 -0.2567
 2845SOL    HW139029   1.723   1.359  12.808 -0.9086  0.6118 -0.1890
 2845SOL    HW239030   1.677   1.224  12.754  2.2507 -0.5382 -0.1976
 2846SOL     OW39031   4.978   2.537  12.594 -0.4241 -0.2184  0.0754
 2846SOL    HW139032   5.069   2.510  12.588 -0.9243 -1.8264 -0.8718
 2846SOL    HW239033   4.937   2.473  12.652 -1.2562 -0.4059 -0.6945
 2847SOL     OW39034   1.565   1.472  11.941 -0.4038 -0.0314  0.2316
 2847SOL    HW139035   1.541   1.541  12.004 -1.1494  0.4190 -0.5251
 2847SOL    HW239036   1.641   1.506  11.895 -0.7769  0.3039 -0.1471
 2848SOL     OW39037   5.895   4.129  11.009 -0.0011 -0.1321 -0.2976
 2848SOL    HW139038   5.887   4.219  11.041 -0.3772  0.9237 -3.0757
 2848SOL    HW239039   5.814   4.113  10.961  0.2972 -1.7741 -0.3163
 2849SOL     OW39040   0.584   1.579   0.791 -0.3279  0.1406  0.0990
 2849SOL    HW139041   0.512   1.633   0.760  0.0350  1.2629  1.1279
 2849SOL    HW239042   0.644   1.640   0.834  0.0052 -1.0950  1.5053
 2850SOL     OW39043   3.773   0.561  12.131 -0.0970 -0.3064 -0.0509
 2850SOL    HW139044   3.763   0.529  12.041 -1.7028 -0.3086  0.0969
 2850SOL    HW239045   3.740   0.490  12.186  0.6906 -0.2252  0.5413
 2851SOL     OW39046   2.614   0.673   0.049  0.7253 -0.1168  0.0155
 2851SOL    HW139047   2.696   0.634   0.077 -0.1571 -1.2519  1.1471
 2851SOL    HW239048   2.556   0.663   0.124 -0.9014 -0.7236 -1.2456
 2852SOL     OW39049   4.546   1.078  11.855  0.2730 -0.0849 -0.4033
 2852SOL    HW139050   4.455   1.056  11.834 -0.1608  1.2698 -0.0076
 2852SOL    HW239051   4.554   1.171  11.835  0.8633  0.4257  1.9191
 2853SOL     OW39052   4.299   5.801  12.826  1.0783 -0.0842  0.1844
 2853SOL    HW139053   4.250   5.757  12.896  0.0577 -0.8594 -0.9872
 2853SOL    HW239054   4.294   5.894  12.848 -2.8745  0.1383 -0.9893
 2854SOL     OW39055   4.416   2.557   1.481 -0.7235 -0.1239  0.3400
 2854SOL    HW139056   4.359   2.481   1.469 -1.2978  0.2354  0.7362
 2854SOL    HW239057   4.388   2.619   1.413 -0.3501 -0.2081  0.1073
 2855SOL     OW39058   5.012   3.780   0.997 -0.1584  0.1528  0.3770
 2855SOL    HW139059   4.950   3.836   1.043 -1.4141  0.0733 -1.1397
 2855SOL    HW239060   4.970   3.761   0.913  1.8691  0.0082 -0.6736
 2856SOL     OW39061   3.731   3.344  12.268  0.0765 -0.0156  0.2441
 2856SOL    HW139062   3.812   3.383  12.302 -0.4633  0.7795  0.6232
 2856SOL    HW239063   3.749   3.331  12.175  1.0938 -1.0126  0.5465
 2857SOL     OW39064   6.310   4.238  12.068  0.2229  0.0984  0.3720
 2857SOL    HW139065   6.338   4.287  11.990 -1.0081  1.2694  0.6198
 2857SOL    HW239066   6.364   4.273  12.138 -0.1487  0.6022  0.4151
 2858SOL     OW39067   4.212   2.871   1.372 -0.2712  0.2620  0.2830
 2858SOL    HW139068   4.159   2.801   1.409  0.6667 -0.0534  1.0877
 2858SOL    HW239069   4.282   2.885   1.436 -0.8040  2.3977  0.4711
 2859SOL     OW39070   0.207   2.898   1.207 -0.1334 -0.0345 -0.1144
 2859SOL    HW139071   0.271   2.933   1.268  0.9703 -1.0711 -0.6420
 2859SOL    HW239072   0.256   2.835   1.154 -1.4992 -0.5766 -0.7833
 2860SOL     OW39073   1.514   5.109  11.155 -0.0200  0.5388  0.4888
 2860SOL    HW139074   1.588   5.161  11.187 -0.3350  0.1115  2.0021
 2860SOL    HW239075   1.534   5.020  11.183 -2.0563  0.7130  2.8772
 2861SOL     OW39076   0.878   6.293   1.006  0.7065  0.5125  0.0038
 2861SOL    HW139077   0.833   6.303   0.922  0.2657 -0.3161  0.1244
 2861SOL    HW239078   0.888   6.382   1.039  2.0026  0.9592 -1.4898
 2862SOL     OW39079   2.694   2.113  11.975 -0.5138  0.3479  0.0462
 2862SOL    HW139080   2.730   2.121  11.886 -4.6075 -1.7992 -2.0690
 2862SOL    HW239081   2.710   2.022  11.999 -0.8148  0.5016  0.8396
 2863SOL     OW39082   5.161   1.458   0.715 -0.4225  0.1777 -0.1428
 2863SOL    HW139083   5.135   1.456   0.623 -0.0881  1.5531 -0.2966
 2863SOL    HW239084   5.222   1.386   0.725 -3.9017 -3.0449  0.1607
 2864SOL     OW39085   5.320   0.506   0.850 -0.1857 -0.4348  0.5092
 2864SOL    HW139086   5.295   0.432   0.905 -2.5747  0.7573  1.1975
 2864SOL    HW239087   5.339   0.577   0.912 -0.2443  0.1666 -0.1464
 2865SOL     OW39088   4.854   6.280   1.110  0.1888  0.0211  0.1135
 2865SOL    HW139089   4.862   6.301   1.017 -0.6804 -0.1801 -0.0186
 2865SOL    HW239090   4.892   6.355   1.155 -1.6686  1.3174 -0.3683
 2866SOL     OW39091   5.456   6.324   0.220  0.2822  0.3287 -0.3671
 2866SOL    HW139092   5.500   6.380   0.284  0.5788 -1.5720  1.2163
 2866SOL    HW239093   5.374   6.299   0.263  0.1821 -0.4547 -0.9838
 2867SOL     OW39094   3.845   2.652   0.748 -0.8010 -0.5656 -0.6643
 2867SOL    HW139095   3.902   2.713   0.795 -0.5339 -2.3184  1.4335
 2867SOL    HW239096   3.794   2.707   0.689 -0.8885  1.7507  1.4366
 2868SOL     OW39097   5.123   4.256   0.525  0.1061 -0.3735 -0.2539
 2868SOL    HW139098   5.152   4.345   0.546  1.8142 -0.5368 -1.6385
 2868SOL    HW239099   5.039   4.247   0.569  1.0923  1.0003  2.0810
 2869SOL     OW39100   4.811   5.264   0.757  0.0006 -0.0226 -0.2245
 2869SOL    HW139101   4.781   5.332   0.697  2.4648  1.1494 -0.2712
 2869SOL    HW239102   4.848   5.196   0.701 -1.2824 -0.8480 -0.1221
 2870SOL     OW39103   0.424   1.572   0.233 -0.1017  0.0065  0.2374
 2870SOL    HW139104   0.505   1.524   0.216  0.8737  1.4249  0.7342
 2870SOL    HW239105   0.427   1.646   0.172 -0.9754  0.1239  0.3295
 2871SOL     OW39106   5.400   3.257   0.824  0.3447 -0.7099  0.2609
 2871SOL    HW139107   5.342   3.247   0.748 -0.9858 -1.6605  1.3407
 2871SOL    HW239108   5.394   3.173   0.869  2.8176 -0.9400  0.3033
 2872SOL     OW39109   3.730   4.065  12.756 -0.3467 -0.2629 -0.9532
 2872SOL    HW139110   3.759   4.072  12.665 -0.9267 -1.5305 -1.2689
 2872SOL    HW239111   3.646   4.112  12.758  0.6410  1.5679 -0.5451
 2873SOL     OW39112   4.695   1.523   0.233  0.4610 -0.0507 -0.2407
 2873SOL    HW139113   4.697   1.430   0.256 -3.1889 -0.5228 -1.0871
 2873SOL    HW239114   4.713   1.524   0.139  3.6176  0.5669  0.2649
 2874SOL     OW39115   1.775   1.247   0.221 -0.1277  0.8342  0.3728
 2874SOL    HW139116   1.851   1.305   0.232  1.2908 -0.3466 -2.3387
 2874SOL    HW239117   1.758   1.247   0.127 -0.3332 -2.7278  0.2663
 2875SOL     OW39118   4.827   3.484   0.802 -0.2186  0.1513 -0.5295
 2875SOL    HW139119   4.773   3.407   0.820 -0.0511  0.2989  0.6670
 2875SOL    HW239120   4.915   3.449   0.789 -0.2774  0.0768 -0.7324
 2876SOL     OW39121   0.784   4.296   0.442  0.0914  0.0344 -0.8698
 2876SOL    HW139122   0.843   4.372   0.444  0.0200  0.1773  3.0397
 2876SOL    HW239123   0.840   4.222   0.463 -0.4408 -0.5021 -1.3098
 2877SOL     OW39124   3.301   5.911  12.799 -0.0164  0.0325  0.3064
 2877SOL    HW139125   3.360   5.914  12.874  0.4100 -0.8486  0.0371
 2877SOL    HW239126   3.346   5.853  12.737 -0.9088 -0.2005 -0.1408
 2878SOL     OW39127   3.699   0.316  12.319  0.1191 -0.0022 -0.2797
 2878SOL    HW139128   3.764   0.348  12.381 -0.0480 -1.3574  0.6338
 2878SOL    HW239129   3.690   0.223  12.339 -2.3430  0.2025 -0.1517
 2879SOL     OW39130   2.590   4.583   0.431 -0.0663 -0.1835 -0.4413
 2879SOL    HW139131   2.633   4.500   0.412 -1.6042 -0.9210 -0.8621
 2879SOL    HW239132   2.598   4.594   0.525 -2.6674 -2.5431  0.2064
 2880SOL     OW39133   4.651   1.950   0.352  0.3190 -0.4428  0.3442
 2880SOL    HW139134   4.680   1.926   0.265  2.7512 -0.7614  1.1634
 2880SOL    HW239135   4.626   2.042   0.344 -0.3990 -0.7237 -0.8673
 2881SOL     OW39136   2.450   2.421   1.122  0.0055 -0.2996 -0.9070
 2881SOL    HW139137   2.368   2.394   1.164 -0.1310 -0.2552 -1.1463
 2881SOL    HW239138   2.437   2.402   1.029  0.4779 -0.8130 -0.8691
 2882SOL     OW39139   4.243   4.806   0.446 -0.2602 -0.1042  0.3507
 2882SOL    HW139140   4.258   4.805   0.352  0.1438  0.2267  0.4037
 2882SOL    HW239141   4.183   4.734   0.463  0.1458 -0.5441 -0.0802
 2883SOL     OW39142   6.107   0.121   0.857  0.2252  0.0012 -0.2912
 2883SOL    HW139143   6.188   0.149   0.900  0.7675 -0.2567 -1.1209
 2883SOL    HW239144   6.135   0.091   0.771 -0.9212  1.1440 -1.0988
 2884SOL     OW39145   5.076   4.610   0.386  0.0783 -0.1134  0.4957
 2884SOL    HW139146   5.045   4.522   0.407 -0.1389 -0.2498 -0.3667
 2884SOL    HW239147   5.139   4.631   0.456  0.2594 -1.0177  0.6085
 2885SOL     OW39148   1.903   0.682   1.001  0.5676  0.0777  0.1476
 2885SOL    HW139149   1.923   0.653   0.912 -0.2829  0.2634 -0.1150
 2885SOL    HW239150   1.935   0.773   1.004  1.2542 -0.1625  0.2718
 2886SOL     OW39151   1.817   4.416  11.247  0.0259 -0.2152  0.1678
 2886SOL    HW139152   1.893   4.377  11.289  0.2557 -0.3291 -0.3414
 2886SOL    HW239153   1.775   4.468  11.316  1.2529  0.8529  0.1616
 2887SOL     OW39154   0.032   3.238   1.528  0.4910 -0.3482 -0.8375
 2887SOL    HW139155   0.110   3.197   1.492  0.6040  0.3266 -1.3690
 2887SOL    HW239156  -0.030   3.242   1.455 -0.4770 -1.8582 -0.1764
 2888SOL     OW39157   1.949   1.958  11.735  0.1802  0.6864 -0.3906
 2888SOL    HW139158   1.956   1.866  11.709  2.5032  0.5829  0.4031
 2888SOL    HW239159   1.859   1.982  11.713 -1.4134 -2.5206  1.8352
 2889SOL     OW39160   6.265   2.216   1.330  0.8625 -0.1289 -0.2656
 2889SOL    HW139161   6.171   2.215   1.311  1.1761 -0.5185 -2.0085
 2889SOL    HW239162   6.285   2.308   1.349  0.0057 -0.1709  1.0050
 2890SOL     OW39163   1.962   0.325  11.402 -0.4090  0.1148  0.0914
 2890SOL    HW139164   2.008   0.365  11.476 -2.6533  1.7900  0.6762
 2890SOL    HW239165   2.019   0.340  11.327  0.4595  1.2237  0.9411
 2891SOL     OW39166   0.574   3.808  12.387  0.2810 -0.2685  0.0853
 2891SOL    HW139167   0.540   3.725  12.418 -1.3898  0.8204  1.3572
 2891SOL    HW239168   0.657   3.819  12.435  0.4191 -1.0909  0.0461
 2892SOL     OW39169   6.236   2.160  12.271  0.4044 -0.0671  0.4595
 2892SOL    HW139170   6.198   2.216  12.339 -2.0068  0.7203 -1.3982
 2892SOL    HW239171   6.274   2.221  12.208  1.8465 -0.7582  0.6137
 2893SOL     OW39172   6.312   4.996   0.622  0.1489  0.3779 -0.3499
 2893SOL    HW139173   6.382   4.977   0.685 -0.3676  2.2716  0.8731
 2893SOL    HW239174   6.325   4.932   0.552  1.9129 -0.5682  0.7653
 2894SOL     OW39175   3.143   5.672  12.575 -0.1168  0.7510  0.2289
 2894SOL    HW139176   3.111   5.594  12.621 -1.5933  2.3238  2.0188
 2894SOL    HW239177   3.069   5.733  12.576  0.0375  1.2308 -3.6166
 2895SOL     OW39178   5.746   2.703  12.733 -0.5221  0.2043  0.3590
 2895SOL    HW139179   5.700   2.683  12.814  0.1941  0.6254  0.8855
 2895SOL    HW239180   5.787   2.788  12.749 -1.8298  1.1401 -1.0912
 2896SOL     OW39181   3.558   4.274  11.299  0.1917  0.2037  0.1243
 2896SOL    HW139182   3.498   4.206  11.328  0.0661  0.5992  0.8340
 2896SOL    HW239183   3.631   4.227  11.259 -0.2956 -0.3040 -0.1702
 2897SOL     OW39184   0.284   0.880  11.294 -0.6551 -0.1531  0.0666
 2897SOL    HW139185   0.379   0.872  11.297 -0.4604  1.8277  0.3957
 2897SOL    HW239186   0.264   0.949  11.357 -2.1975  0.3190 -0.8962
 2898SOL     OW39187   6.203   0.345  11.551  0.3812 -0.0444 -0.2599
 2898SOL    HW139188   6.122   0.332  11.600  0.4516 -0.7398 -0.3151
 2898SOL    HW239189   6.258   0.399  11.608 -0.2789  0.8103 -0.4074
 2899SOL     OW39190   0.959   1.567  11.534  0.5258 -0.0527  0.2279
 2899SOL    HW139191   1.007   1.579  11.615  0.8448 -0.8941  0.1711
 2899SOL    HW239192   0.946   1.655  11.500 -0.9741  0.4438  1.9582
 2900SOL     OW39193   4.928   3.516  11.556  0.1599 -0.3542  0.1688
 2900SOL    HW139194   4.939   3.495  11.463 -1.5588  0.3919 -0.2455
 2900SOL    HW239195   4.996   3.466  11.600  2.8600  1.3583 -1.7147
 2901SOL     OW39196   0.032   4.940  12.464 -0.8341  0.2787 -0.8851
 2901SOL    HW139197  -0.034   4.887  12.508  0.3609 -1.1890 -0.7558
 2901SOL    HW239198  -0.015   5.015  12.430 -2.2711  0.0697  0.5534
 2902SOL     OW39199   2.260   1.517   1.032 -0.3425  0.1682 -0.0640
 2902SOL    HW139200   2.222   1.595   0.991 -0.1095 -0.2642 -1.1208
 2902SOL    HW239201   2.301   1.469   0.960 -0.2796 -0.8163  0.6082
 2903SOL     OW39202   3.184   3.522   1.631  0.1059  0.2565 -0.0411
 2903SOL    HW139203   3.259   3.554   1.580  0.5276  1.7369  1.4219
 2903SOL    HW239204   3.220   3.504   1.718 -1.0545  0.0229  0.4105
 2904SOL     OW39205   2.433   3.600   0.782  0.3677  0.1567  0.4138
 2904SOL    HW139206   2.361   3.541   0.759  0.7592 -0.2622  0.2219
 2904SOL    HW239207   2.417   3.679   0.730 -0.3791  0.3892  0.9720
 2905SOL     OW39208   5.589   1.329   0.022  0.0345 -0.4039 -0.1311
 2905SOL    HW139209   5.674   1.356   0.055  0.0640 -2.4686  1.7844
 2905SOL    HW239210   5.528   1.350   0.093 -1.0609  0.8234 -1.3755
 2906SOL     OW39211   5.161   2.428   1.759  0.1126 -0.0548 -0.0211
 2906SOL    HW139212   5.181   2.354   1.816 -1.2786  0.1006  0.7073
 2906SOL    HW239213   5.244   2.448   1.715  1.7647  0.9577  3.2112
 2907SOL     OW39214   3.918   5.147  11.355 -0.3213  0.0669 -0.5046
 2907SOL    HW139215   3.973   5.080  11.396 -1.8016 -0.6992  0.3490
 2907SOL    HW239216   3.881   5.104  11.278 -0.4348  0.2608 -0.5587
 2908SOL     OW39217   0.626   5.063   0.790  0.0494 -0.4450  0.1854
 2908SOL    HW139218   0.574   5.085   0.713  0.6491 -0.6321 -0.2787
 2908SOL    HW239219   0.659   4.975   0.772  0.7713 -0.2097  0.3481
 2909SOL     OW39220   6.068   3.819   0.049 -0.1418 -0.3961 -0.6764
 2909SOL    HW139221   6.043   3.897   0.099  0.6681  0.0521 -0.9480
 2909SOL    HW239222   5.985   3.775   0.031 -0.4361 -0.6525  1.1568
 2910SOL     OW39223   4.499   0.219   0.031 -0.6315 -0.0369  0.0374
 2910SOL    HW139224   4.494   0.313   0.015  0.4621  0.4441  2.1765
 2910SOL    HW239225   4.478   0.209   0.124  2.0633 -1.5337  0.5963
 2911SOL     OW39226   2.679   1.270  12.487 -0.1348  0.1369 -0.5214
 2911SOL    HW139227   2.598   1.226  12.459 -1.1838  2.0835 -0.6632
 2911SOL    HW239228   2.742   1.198  12.495 -1.3241 -1.2169 -2.3002
 2912SOL     OW39229   4.792   3.905   1.198  0.1479 -0.0056 -0.2322
 2912SOL    HW139230   4.801   3.994   1.232 -1.6663  0.5327 -1.0113
 2912SOL    HW239231   4.708   3.906   1.152  0.0836 -2.1315 -0.2488
 2913SOL     OW39232   2.139   2.330   0.193 -0.1960 -0.3134 -0.7700
 2913SOL    HW139233   2.220   2.370   0.162 -1.0390  1.6887 -0.5629
 2913SOL    HW239234   2.106   2.280   0.118  1.6117 -1.9099 -0.5883
 2914SOL     OW39235   0.860   0.861   0.781  0.1218  0.2708 -0.8064
 2914SOL    HW139236   0.800   0.808   0.728  1.0693 -0.9892 -0.6600
 2914SOL    HW239237   0.897   0.924   0.718  0.0176 -0.1465 -1.2970
 2915SOL     OW39238   0.010   3.982   0.561  0.7111  0.1608 -0.5822
 2915SOL    HW139239   0.038   4.047   0.625  2.1670 -0.5613 -0.4429
 2915SOL    HW239240   0.058   4.004   0.481  0.7010 -0.3392 -0.7288
 2916SOL     OW39241   2.334   1.102  12.667 -0.2962 -0.2714  0.1380
 2916SOL    HW139242   2.419   1.125  12.704 -0.8100  1.5592  0.2417
 2916SOL    HW239243   2.324   1.008  12.687  0.4982  0.0884  2.5144
 2917SOL     OW39244   0.986   4.291   0.754 -0.5386 -0.4768 -0.0175
 2917SOL    HW139245   1.017   4.380   0.770  0.0098 -0.6142 -0.3060
 2917SOL    HW239246   0.890   4.298   0.756 -0.5009  0.1927 -0.4611
 2918SOL     OW39247   0.017   0.355  11.697 -0.1358 -0.0341 -0.3013
 2918SOL    HW139248   0.082   0.380  11.763  0.8185 -0.8212 -0.9128
 2918SOL    HW239249  -0.009   0.438  11.657  2.3002  0.1855 -1.6770
 2919SOL     OW39250   1.221   4.764   1.235 -0.1297 -0.0883 -0.5142
 2919SOL    HW139251   1.239   4.848   1.277  0.2920 -1.1854  1.6523
 2919SOL    HW239252   1.233   4.781   1.141 -1.8122  2.6644 -0.3419
 2920SOL     OW39253   4.871   3.787  11.087  0.4259 -0.2653 -0.3149
 2920SOL    HW139254   4.954   3.744  11.107  0.8163  0.7940  0.4118
 2920SOL    HW239255   4.823   3.786  11.171  1.2718  2.4748  0.2942
 2921SOL     OW39256   2.218   3.740  12.107 -0.5539  0.3535 -0.0082
 2921SOL    HW139257   2.273   3.817  12.117  0.8774 -0.6294 -0.0025
 2921SOL    HW239258   2.179   3.727  12.194 -1.2920  1.3896 -0.1635
 2922SOL     OW39259   2.395   3.063  11.616 -0.1199  0.2327  0.6133
 2922SOL    HW139260   2.355   3.142  11.581  0.7539  1.3850  2.0579
 2922SOL    HW239261   2.355   3.052  11.703 -1.5692 -2.0081 -0.2527
 2923SOL     OW39262   0.216   6.304  11.015  0.3485  0.2132  0.1425
 2923SOL    HW139263   0.290   6.260  10.973 -0.5373 -0.8669 -0.3588
 2923SOL    HW239264   0.214   6.270  11.104  0.2621 -0.0217  0.0529
 2924SOL     OW39265   5.210   2.124  11.294 -0.7066  0.4318  0.1147
 2924SOL    HW139266   5.192   2.100  11.204  1.7556  0.4492 -0.4513
 2924SOL    HW239267   5.211   2.220  11.294 -2.4972  0.5011  0.6223
 2925SOL     OW39268   0.018   2.539   0.115  0.1938 -0.3764 -0.1287
 2925SOL    HW139269  -0.031   2.601   0.169  0.4415 -0.6731  0.4465
 2925SOL    HW239270   0.100   2.585   0.095  0.3529 -0.4926  0.2495
 2926SOL     OW39271   5.611   0.554   1.160 -0.6670 -0.3717 -0.0924
 2926SOL    HW139272   5.679   0.618   1.179  0.0884 -0.8398 -1.1534
 2926SOL    HW239273   5.534   0.588   1.205 -0.2616  1.2256 -0.5212
 2927SOL     OW39274   6.210   5.653   1.309 -0.1441  0.5062 -0.3546
 2927SOL    HW139275   6.278   5.659   1.241 -0.9250  0.0449 -1.2019
 2927SOL    HW239276   6.208   5.561   1.332  1.1683  0.8673  1.4474
 2928SOL     OW39277   2.041   3.237   0.867  0.6868  0.8547 -0.1675
 2928SOL    HW139278   1.950   3.223   0.892  1.1088  0.4374  1.3009
 2928SOL    HW239279   2.080   3.280   0.944  1.4106  2.3542 -1.3205
 2929SOL     OW39280   2.039   1.459   0.577 -0.8298  0.3100  0.3992
 2929SOL    HW139281   2.045   1.419   0.490  0.3120 -0.8516  0.9853
 2929SOL    HW239282   2.002   1.391   0.633  2.8246 -0.7693  1.8101
 2930SOL     OW39283   3.278   5.603   1.042  0.3922 -0.4829  0.1223
 2930SOL    HW139284   3.300   5.686   1.084 -1.0731 -0.8889  1.7852
 2930SOL    HW239285   3.325   5.606   0.958  0.8242  1.7591  0.3766
 2931SOL     OW39286   2.620   1.488   0.186 -0.5528  0.1023  0.3839
 2931SOL    HW139287   2.657   1.470   0.273 -0.1072 -0.2428  0.1221
 2931SOL    HW239288   2.605   1.402   0.148  0.7439  0.2411 -0.5121
 2932SOL     OW39289   6.371   1.999   1.453  0.0042  0.2026  0.2107
 2932SOL    HW139290   6.427   2.042   1.518  1.4315  0.0399 -0.8645
 2932SOL    HW239291   6.328   2.070   1.407  1.5529  0.5022 -0.8584
 2933SOL     OW39292   1.075   4.337   0.026  0.1569 -0.0589 -0.5777
 2933SOL    HW139293   1.113   4.292   0.102  0.4410  0.8518 -0.1648
 2933SOL    HW239294   1.062   4.268  -0.039  2.7433 -0.4291 -0.8276
 2934SOL     OW39295   5.387   5.772  12.292  0.0614  0.0027  0.0430
 2934SOL    HW139296   5.378   5.700  12.229  0.6800 -0.7662  0.8005
 2934SOL    HW239297   5.369   5.851  12.241 -1.7736 -0.7443 -0.5629
 2935SOL     OW39298   2.576   4.954  11.756  0.8641 -0.0482  0.1348
 2935SOL    HW139299   2.523   4.886  11.796 -2.4536  2.5422  0.5992
 2935SOL    HW239300   2.591   5.018  11.826  2.6773  0.4258 -0.6140
 2936SOL     OW39301   1.085   3.782  11.976  0.4151 -0.4754 -0.0399
 2936SOL    HW139302   1.042   3.698  11.994 -0.5321 -0.3821 -1.6123
 2936SOL    HW239303   1.030   3.823  11.909  1.0160  1.2909  0.4944
 2937SOL     OW39304   1.535   4.619   0.437  0.8136 -0.2543  0.4453
 2937SOL    HW139305   1.568   4.658   0.356  0.7691 -1.2804 -0.0897
 2937SOL    HW239306   1.520   4.693   0.496  0.2595  0.5664 -0.6986
 2938SOL     OW39307   0.079   6.283   0.338  0.0215 -0.0193 -0.1039
 2938SOL    HW139308   0.147   6.267   0.272 -0.8809 -0.2380 -1.0058
 2938SOL    HW239309   0.006   6.320   0.289 -0.0468  1.4643  1.0593
 2939SOL     OW39310   2.992   5.067  12.028 -0.2286 -0.1620 -0.0500
 2939SOL    HW139311   2.977   5.079  12.122 -2.3473  0.2029 -0.3832
 2939SOL    HW239312   2.936   5.133  11.987  0.3001 -0.6453 -1.5959
 2940SOL     OW39313   3.610   2.633   0.968 -0.5274  0.6867 -0.2083
 2940SOL    HW139314   3.577   2.664   0.883  1.1287  2.2553 -0.3301
 2940SOL    HW239315   3.654   2.550   0.948  0.1882  1.2387 -0.9659
 2941SOL     OW39316   3.782   3.904  11.714  0.5829  0.4468  0.0967
 2941SOL    HW139317   3.768   3.998  11.720  1.0371  0.4343  2.2744
 2941SOL    HW239318   3.860   3.888  11.768  1.2598 -1.0480 -1.2216
 2942SOL     OW39319   3.068   4.402  12.440 -0.6683 -0.0292  0.1109
 2942SOL    HW139320   3.073   4.428  12.348  0.7793  1.1625  0.4845
 2942SOL    HW239321   3.015   4.470  12.481 -2.0959 -1.0568  0.0175
 2943SOL     OW39322   5.011   0.335  12.504  0.3270 -0.1553  0.0710
 2943SOL    HW139323   4.970   0.419  12.526  1.0537  0.2942 -0.2336
 2943SOL    HW239324   5.050   0.305  12.586  0.9859  0.3418 -0.0524
 2944SOL     OW39325   5.008   1.419  11.288 -0.0701  0.4257  0.4931
 2944SOL    HW139326   5.094   1.424  11.330 -0.4661  3.1615  1.1623
 2944SOL    HW239327   5.026   1.413  11.194  0.8138 -1.6412  0.7575
 2945SOL     OW39328   4.625   3.377  10.755  0.1656 -0.0049  0.2158
 2945SOL    HW139329   4.678   3.456  10.741  0.8994 -0.3705  0.8560
 2945SOL    HW239330   4.539   3.411  10.781 -0.3532  0.6235 -2.1328
 2946SOL     OW39331   4.541   0.481   1.076 -0.5079  0.2933 -0.0018
 2946SOL    HW139332   4.565   0.434   0.997 -0.4065 -1.0828  0.8215
 2946SOL    HW239333   4.477   0.425   1.120 -0.2936  0.8491  1.0680
 2947SOL     OW39334   1.199   0.815  11.663  0.0753 -0.4661  0.1849
 2947SOL    HW139335   1.135   0.826  11.593 -1.0047 -0.0181  1.1937
 2947SOL    HW239336   1.202   0.721  11.679 -0.4824 -0.4749  0.2497
 2948SOL     OW39337   1.138   5.127   1.761  0.1451  0.3069 -0.5248
 2948SOL    HW139338   1.123   5.174   1.844  0.7115  2.3394 -1.5174
 2948SOL    HW239339   1.121   5.035   1.783 -1.6409  0.9982  1.3659
 2949SOL     OW39340   5.726   3.518  11.309  0.0610  0.5951  0.2592
 2949SOL    HW139341   5.638   3.483  11.296  0.0205  0.9523 -0.4539
 2949SOL    HW239342   5.714   3.613  11.309  0.2367  0.6482  1.6913
 2950SOL     OW39343   3.160   2.390  12.367  0.2872  0.2092  0.1256
 2950SOL    HW139344   3.224   2.456  12.395 -1.1206  1.2990  0.8645
 2950SOL    HW239345   3.211   2.309  12.361  2.2124  1.4396 -1.4697
 2951SOL     OW39346   5.432   4.493  12.722 -0.1767  0.5859  0.2722
 2951SOL    HW139347   5.508   4.539  12.758  1.4439 -1.9731  0.3927
 2951SOL    HW239348   5.357   4.541  12.755  1.3561  1.7040  2.3783
 2952SOL     OW39349   0.606   4.071   1.607 -0.3561 -0.0968 -0.4199
 2952SOL    HW139350   0.520   4.039   1.633  0.6263 -1.2774  1.6863
 2952SOL    HW239351   0.657   3.992   1.590  0.9561  0.4411  0.7595
 2953SOL     OW39352   0.283   3.811   1.357 -0.2741 -0.2312 -0.1843
 2953SOL    HW139353   0.370   3.800   1.318 -0.6331  0.1998 -1.1283
 2953SOL    HW239354   0.263   3.725   1.394 -0.9384 -1.4552 -3.1058
 2954SOL     OW39355   6.204   3.757  12.136 -0.4763  0.4187  0.0164
 2954SOL    HW139356   6.109   3.757  12.147 -0.4068 -0.8017  0.8221
 2954SOL    HW239357   6.236   3.700  12.207  1.0536  2.8272  1.3862
 2955SOL     OW39358   6.334   1.434  12.064 -0.2201  0.2149  0.3011
 2955SOL    HW139359   6.350   1.345  12.033 -2.0250 -0.1391  0.2946
 2955SOL    HW239360   6.412   1.483  12.037  0.5033 -1.2036 -0.2875
 2956SOL     OW39361   1.375   3.348  12.661 -0.2447  0.1195  0.1765
 2956SOL    HW139362   1.366   3.292  12.583  0.3709  1.8161 -1.1657
 2956SOL    HW239363   1.336   3.296  12.732 -0.5065 -1.6275 -1.1759
 2957SOL     OW39364   2.460   3.408   1.191 -0.0641 -0.2027 -0.6991
 2957SOL    HW139365   2.493   3.458   1.117 -0.0579 -0.8625 -1.1412
 2957SOL    HW239366   2.376   3.374   1.161 -0.7516  0.7176  0.1017
 2958SOL     OW39367   5.189   5.392   0.676 -0.3833  0.3591  0.2380
 2958SOL    HW139368   5.255   5.377   0.609 -0.7848  0.3538 -0.1568
 2958SOL    HW239369   5.194   5.314   0.732  0.9964  1.0286  1.1151
 2959SOL     OW39370   5.447   4.394   1.528 -0.0717  0.0624 -0.3576
 2959SOL    HW139371   5.452   4.488   1.509 -1.4056  0.8125  2.5005
 2959SOL    HW239372   5.365   4.384   1.575  0.5501 -2.4029  0.3281
 2960SOL     OW39373   2.747   5.125   0.870 -0.7637 -0.4640 -0.1801
 2960SOL    HW139374   2.805   5.050   0.886 -1.6175 -1.2765 -0.7475
 2960SOL    HW239375   2.801   5.188   0.823 -0.3844 -1.2994 -0.8993
 2961SOL     OW39376   1.555   5.712   1.038 -0.3193 -0.4618 -0.3387
 2961SOL    HW139377   1.585   5.647   1.102 -0.1475 -1.5800 -1.5192
 2961SOL    HW239378   1.460   5.715   1.051 -0.1463  0.5121  1.0195
 2962SOL     OW39379   6.323   0.844  11.995  0.0060 -0.3884  0.0189
 2962SOL    HW139380   6.271   0.907  11.945  0.7024  1.5692  1.6238
 2962SOL    HW239381   6.412   0.856  11.964  0.1753 -0.3749  0.4941
 2963SOL     OW39382   4.251   4.997   1.498 -0.1947 -0.2725  0.8395
 2963SOL    HW139383   4.165   4.989   1.540 -1.5932  1.4009 -1.4684
 2963SOL    HW239384   4.238   4.961   1.410  1.1492  0.9610  0.0959
 2964SOL     OW39385   5.634   4.726   0.497 -0.0826  0.0009 -0.5669
 2964SOL    HW139386   5.653   4.804   0.550 -0.6030 -0.6745  0.6427
 2964SOL    HW239387   5.678   4.654   0.542 -2.2309 -0.9351  0.1560
 2965SOL     OW39388   5.434   2.330  12.736  0.3132  0.5913 -0.4899
 2965SOL    HW139389   5.363   2.277  12.772  0.5068  0.4640 -0.2989
 2965SOL    HW239390   5.464   2.383  12.809  0.3975  0.6684 -0.5800
 2966SOL     OW39391   0.046   3.549  11.772 -0.5552  0.1099 -0.1437
 2966SOL    HW139392  -0.010   3.624  11.789  0.8203  0.8759  1.3121
 2966SOL    HW239393   0.019   3.483  11.836 -0.3949  0.1408 -0.0440
 2967SOL     OW39394   3.646   6.364   0.445 -0.1801 -0.0499 -0.1206
 2967SOL    HW139395   3.556   6.385   0.467 -0.6008 -0.7413 -1.1115
 2967SOL    HW239396   3.652   6.376   0.350  0.7680 -0.0133 -0.0742
 2968SOL     OW39397   1.852   1.935   1.122  0.4717 -0.5747 -0.2947
 2968SOL    HW139398   1.882   1.844   1.121 -0.0534 -0.7664 -2.3611
 2968SOL    HW239399   1.886   1.973   1.041  0.5892  1.0473  0.4816
 2969SOL     OW39400   4.085   2.827   0.025 -0.0209 -0.1571 -0.0471
 2969SOL    HW139401   4.169   2.830   0.071 -0.6892  1.2084  1.1644
 2969SOL    HW239402   4.108   2.830  -0.068  1.2728  1.3216  0.2705
 2970SOL     OW39403   5.872   5.030   0.903 -0.0530  0.1523 -0.0192
 2970SOL    HW139404   5.937   5.023   0.973 -0.2548  2.0063  0.4193
 2970SOL    HW239405   5.839   5.120   0.911 -2.7279 -0.7350 -0.1623
 2971SOL     OW39406   0.389   0.814   1.223  0.8753 -0.0514 -0.4661
 2971SOL    HW139407   0.390   0.892   1.168 -0.3980 -0.1810 -0.7110
 2971SOL    HW239408   0.326   0.835   1.293  1.0024 -0.6254 -0.1727
 2972SOL     OW39409   6.179   2.998  12.176 -0.2613  0.0108 -0.4561
 2972SOL    HW139410   6.144   3.083  12.203  2.0665  1.5164 -1.8146
 2972SOL    HW239411   6.102   2.948  12.151 -1.6334  2.2885 -1.1524
 2973SOL     OW39412   0.706   4.279   0.792 -0.3520  0.0280  0.8107
 2973SOL    HW139413   0.655   4.350   0.753 -0.1013 -1.1959 -1.9799
 2973SOL    HW239414   0.649   4.243   0.860 -2.3304  0.1706 -0.6564
 2974SOL     OW39415   3.501   2.319   0.374  0.8676  0.2402  0.1601
 2974SOL    HW139416   3.497   2.414   0.379  0.6939  0.2942 -0.8052
 2974SOL    HW239417   3.518   2.291   0.464 -0.3887  1.1141  0.6978
 2975SOL     OW39418   5.480   2.346   0.878  0.1164 -0.3144 -0.3925
 2975SOL    HW139419   5.515   2.357   0.966  0.1727  0.8831 -0.5378
 2975SOL    HW239420   5.429   2.265   0.881  1.0987 -0.9134  0.4063
 2976SOL     OW39421   5.392   3.557   0.507 -0.1526 -0.3737 -0.1615
 2976SOL    HW139422   5.449   3.621   0.466  0.0739 -1.7203 -2.0630
 2976SOL    HW239423   5.310   3.563   0.459 -0.1592 -1.4049 -0.3044
 2977SOL     OW39424   6.367   4.429   0.653 -0.3115  0.6012 -0.1867
 2977SOL    HW139425   6.313   4.350   0.652 -0.6611  0.8267  0.4695
 2977SOL    HW239426   6.321   4.489   0.711  0.4578  0.9242  0.1012
 2978SOL     OW39427   0.212   1.888  11.850 -0.4203 -0.2322  0.3185
 2978SOL    HW139428   0.151   1.905  11.922 -0.2695 -1.4068  0.7455
 2978SOL    HW239429   0.296   1.870  11.893 -0.1963 -0.4088 -0.1826
 2979SOL     OW39430   1.023   0.624   0.271 -0.3204 -0.3405  0.7112
 2979SOL    HW139431   0.965   0.650   0.343 -0.5976  1.6309 -0.1736
 2979SOL    HW239432   0.965   0.621   0.194  0.4730  0.3172  0.0733
 2980SOL     OW39433   1.068   5.100  10.918  0.7258  0.3252 -0.2524
 2980SOL    HW139434   1.163   5.099  10.928  0.6458 -2.8060  1.6454
 2980SOL    HW239435   1.046   5.011  10.892 -1.6324  1.3381 -2.0487
 2981SOL     OW39436   1.413   0.557  12.085  0.5770  0.1051 -0.2507
 2981SOL    HW139437   1.385   0.646  12.061  0.5525 -0.3476 -2.0836
 2981SOL    HW239438   1.442   0.519  12.002 -1.7794 -2.4683 -0.0226
 2982SOL     OW39439   0.308   1.041  12.797 -0.4269 -0.2202  0.3701
 2982SOL    HW139440   0.320   1.077  12.709  2.7466 -0.2949  0.6329
 2982SOL    HW239441   0.237   0.977  12.788 -0.5081  0.1244 -2.0281
 2983SOL     OW39442   2.966   4.692  11.517 -0.1275 -0.2782 -0.0406
 2983SOL    HW139443   3.010   4.672  11.599  0.2456 -1.5457 -0.5160
 2983SOL    HW239444   2.911   4.768  11.536 -1.3762 -1.5765  1.8526
 2984SOL     OW39445   0.868   4.985   0.445  0.2849 -0.0592  0.4002
 2984SOL    HW139446   0.847   4.892   0.446  1.0919 -0.2700 -0.3234
 2984SOL    HW239447   0.935   4.996   0.513  2.4038 -0.6247 -1.4519
 2985SOL     OW39448   4.104   2.137   0.104 -0.3467  0.4249 -0.4571
 2985SOL    HW139449   4.136   2.047   0.095  1.8269  0.9801  0.9240
 2985SOL    HW239450   4.017   2.136   0.064 -0.8323 -2.5391  0.4453
 2986SOL     OW39451   4.361   2.219  12.230 -0.8428 -0.1135  0.5013
 2986SOL    HW139452   4.444   2.238  12.186 -1.0890 -0.5945 -0.1743
 2986SOL    HW239453   4.360   2.280  12.304 -0.1140  0.2361  0.2412
 2987SOL     OW39454   0.079   3.346  11.159  0.1609  0.2396  0.3515
 2987SOL    HW139455   0.136   3.358  11.236  0.0214 -1.1910  0.7022
 2987SOL    HW239456   0.015   3.417  11.166  0.6361  0.6114  1.1068
 2988SOL     OW39457   3.500   4.211  12.729  0.2439  0.1961  0.6035
 2988SOL    HW139458   3.445   4.266  12.785 -1.2848 -0.5136 -0.1079
 2988SOL    HW239459   3.445   4.194  12.653  0.4740 -2.6200  0.9731
 2989SOL     OW39460   1.870   5.473   0.011 -0.4847  0.3506 -0.5858
 2989SOL    HW139461   1.861   5.413   0.085 -0.5502 -0.1054 -0.9560
 2989SOL    HW239462   1.905   5.418  -0.060  0.6365  1.0167 -0.5753
 2990SOL     OW39463   0.748   2.771   0.520  0.1609 -0.0358  0.1417
 2990SOL    HW139464   0.708   2.696   0.564  0.5902  0.6019  1.6768
 2990SOL    HW239465   0.750   2.839   0.587  1.6322  0.7055 -0.6144
 2991SOL     OW39466   0.404   6.272   1.347 -0.5522 -0.0205  0.7717
 2991SOL    HW139467   0.439   6.209   1.285  1.6002  1.3477  0.4879
 2991SOL    HW239468   0.366   6.341   1.292  0.0529  0.4893  0.9789
 2992SOL     OW39469   2.297   6.238   1.622 -0.3764  0.5931  0.5669
 2992SOL    HW139470   2.284   6.147   1.650 -0.6839  0.7169  0.8237
 2992SOL    HW239471   2.353   6.275   1.690 -1.7094  1.0968  1.4230
 2993SOL     OW39472   3.467   4.794   0.829  0.6131  0.2645 -0.3670
 2993SOL    HW139473   3.394   4.774   0.888  2.0767 -1.7079  0.9187
 2993SOL    HW239474   3.509   4.871   0.869  0.6387 -0.0619  0.2504
 2994SOL     OW39475   0.648   3.424   1.320 -0.0629  0.0789 -0.1354
 2994SOL    HW139476   0.651   3.460   1.232  0.9710  0.7919  0.1717
 2994SOL    HW239477   0.655   3.329   1.307 -1.6205  0.0362 -0.8876
 2995SOL     OW39478   6.321   2.801  11.765 -0.2374 -0.5094  0.0374
 2995SOL    HW139479   6.401   2.789  11.714  1.4244  3.8845  1.1207
 2995SOL    HW239480   6.352   2.812  11.855 -2.2063 -0.2261  0.7165
 2996SOL     OW39481   4.230   0.646   0.913  0.1748 -0.6589 -0.6009
 2996SOL    HW139482   4.196   0.560   0.938 -0.1737 -0.1554  0.7358
 2996SOL    HW239483   4.323   0.632   0.898  0.4999 -0.9239  1.4549
 2997SOL     OW39484   6.285   5.391   1.393 -0.2574  0.3647  0.6000
 2997SOL    HW139485   6.377   5.371   1.413 -0.3416 -0.9985 -0.2793
 2997SOL    HW239486   6.238   5.373   1.474  0.2351  1.1187  1.0713
 2998SOL     OW39487   0.155   3.248   1.115  0.4132  0.2308 -0.1341
 2998SOL    HW139488   0.083   3.186   1.104 -0.1819  1.0569 -1.0384
 2998SOL    HW239489   0.118   3.320   1.165  0.4689  0.8562 -0.9621
 2999SOL     OW39490   1.263   6.111   0.617  0.3788  0.2638 -0.2850
 2999SOL    HW139491   1.214   6.187   0.649 -0.1296 -0.5678  0.9980
 2999SOL    HW239492   1.332   6.149   0.563  0.7319  1.7281  1.0971
 3000SOL     OW39493   6.126   4.645  11.575 -0.2554 -0.3773  0.1646
 3000SOL    HW139494   6.100   4.683  11.491 -0.7954  0.9827  0.9129
 3000SOL    HW239495   6.047   4.602  11.607 -0.2714 -0.2114  0.3446
 3001SOL     OW39496   1.176   4.774  12.775 -0.3231 -0.2266 -0.4178
 3001SOL    HW139497   1.214   4.856  12.742 -1.8162 -0.0381 -1.7349
 3001SOL    HW239498   1.206   4.707  12.713  0.2625 -0.5743  0.2252
 3002SOL     OW39499   6.374   0.564  11.973 -0.1782 -0.0731 -0.5597
 3002SOL    HW139500   6.316   0.487  11.969  1.2947 -1.1864 -1.7211
 3002SOL    HW239501   6.315   0.639  11.963 -1.7231 -0.9997  1.1620
 3003SOL     OW39502   0.382   3.507   0.275 -0.0944 -0.6336  0.2683
 3003SOL    HW139503   0.301   3.459   0.258 -0.4029 -0.2419  0.6074
 3003SOL    HW239504   0.410   3.539   0.189 -0.3909 -0.6344  0.1702
 3004SOL     OW39505   4.519   1.673  11.889 -0.9117  0.4394 -0.5635
 3004SOL    HW139506   4.452   1.695  11.823 -0.2920 -0.1448 -1.4094
 3004SOL    HW239507   4.469   1.635  11.961 -1.6350  1.3193 -0.5840
 3005SOL     OW39508   2.940   0.332   1.225 -0.3877  0.1580 -0.4862
 3005SOL    HW139509   2.978   0.409   1.268 -1.0812  0.6605 -0.7397
 3005SOL    HW239510   2.882   0.294   1.291 -0.0911 -0.1125 -0.3817
 3006SOL     OW39511   3.231   5.139  11.832  0.0891  0.3260 -0.2220
 3006SOL    HW139512   3.197   5.083  11.902  1.0097 -0.2419 -0.1975
 3006SOL    HW239513   3.251   5.078  11.761 -0.2005  0.8146 -0.7278
 3007SOL     OW39514   5.603   0.007   0.014 -0.1326  0.1553 -0.2702
 3007SOL    HW139515   5.545  -0.014   0.087 -0.0670 -0.3332 -0.3507
 3007SOL    HW239516   5.599  -0.071  -0.042  0.3880  0.2329 -0.4167
 3008SOL     OW39517   3.822   4.410   1.481 -0.1470 -0.3713 -0.1085
 3008SOL    HW139518   3.816   4.479   1.415 -3.2216 -0.5537 -0.1449
 3008SOL    HW239519   3.739   4.414   1.528  0.6569 -2.3590  1.6581
 3009SOL     OW39520   0.286   4.348  11.449 -0.5489  0.4045 -0.1540
 3009SOL    HW139521   0.335   4.393  11.518  2.0349 -0.2630 -1.4209
 3009SOL    HW239522   0.195   4.371  11.465  0.2627  2.7417  1.6479
 3010SOL     OW39523   1.913   4.646  12.846  0.1281  0.2575  0.1710
 3010SOL    HW139524   1.842   4.705  12.822  0.5799  1.4715  1.6635
 3010SOL    HW239525   1.939   4.605  12.764 -0.8774  1.3951 -0.7475
 3011SOL     OW39526   0.890   1.353   0.573  0.3799 -0.1986 -0.8298
 3011SOL    HW139527   0.920   1.264   0.587 -1.9946 -1.0569 -0.6374
 3011SOL    HW239528   0.963   1.408   0.601  1.3829 -2.0581  0.4426
 3012SOL     OW39529   3.819   5.341  12.607 -0.0292  0.5430 -0.2416
 3012SOL    HW139530   3.793   5.320  12.517 -0.5834 -1.3470  0.3049
 3012SOL    HW239531   3.904   5.299  12.618  0.7509  2.0359 -0.3055
 3013SOL     OW39532   1.845   0.443   0.560  0.4415  0.4033  0.1812
 3013SOL    HW139533   1.808   0.394   0.634  0.9208 -1.9990 -1.0570
 3013SOL    HW239534   1.769   0.462   0.504  0.5215 -1.6597 -0.7607
 3014SOL     OW39535   3.716   5.913   0.641 -0.3886  0.6032 -0.2379
 3014SOL    HW139536   3.649   5.887   0.578 -0.6260  0.9218 -0.1232
 3014SOL    HW239537   3.678   5.893   0.726  0.0698 -0.1409 -0.2023
 3015SOL     OW39538   3.473   1.240  12.663  0.4254  0.1953 -0.0696
 3015SOL    HW139539   3.527   1.216  12.587  0.2556  0.7543 -0.3793
 3015SOL    HW239540   3.453   1.332  12.648  2.6417  1.1294  2.0175
 3016SOL     OW39541   2.111   1.279  12.790  0.5646  0.4990  0.3945
 3016SOL    HW139542   2.051   1.208  12.813  0.0069  1.2159  1.2071
 3016SOL    HW239543   2.169   1.241  12.723 -0.2123 -0.4748  0.2577
 3017SOL     OW39544   5.388   0.676  12.536  0.2486 -0.3715  0.0443
 3017SOL    HW139545   5.401   0.638  12.449 -1.3264  0.6460 -0.6740
 3017SOL    HW239546   5.353   0.763  12.520  0.4509  0.0533  1.7094
 3018SOL     OW39547   5.291   1.135  11.553 -0.1856  0.3700 -0.1341
 3018SOL    HW139548   5.213   1.089  11.585  1.5116 -1.7108  1.2633
 3018SOL    HW239549   5.297   1.112  11.461  0.2415 -1.7281  0.3832
 3019SOL     OW39550   0.551   6.082  12.181 -0.0443  0.2753  0.0240
 3019SOL    HW139551   0.535   6.157  12.123 -0.8849  0.1772  0.1134
 3019SOL    HW239552   0.612   6.027  12.133  0.4573  0.9404 -0.1097
 3020SOL     OW39553   1.251   2.990  12.301  0.4257  1.2593  0.0442
 3020SOL    HW139554   1.258   2.912  12.355  0.6587  2.1355  1.3315
 3020SOL    HW239555   1.275   2.961  12.213 -3.9449 -1.1618 -0.6203
 3021SOL     OW39556   1.020   0.361  11.766 -0.3693  0.4243 -0.1123
 3021SOL    HW139557   0.936   0.318  11.784 -0.4885  0.1301 -1.2732
 3021SOL    HW239558   1.019   0.440  11.820 -1.3408  0.3565 -0.0173
 3022SOL     OW39559   6.224   0.680   0.024 -0.2841  0.0716 -1.0303
 3022SOL    HW139560   6.191   0.770   0.020 -0.3540  0.0201 -1.6710
 3022SOL    HW239561   6.220   0.649  -0.066 -1.2874 -0.9504 -0.6549
 3023SOL     OW39562   2.103   3.435  11.979  0.0207 -0.6531 -0.2616
 3023SOL    HW139563   2.031   3.471  11.928 -0.6362 -0.6474  0.6464
 3023SOL    HW239564   2.101   3.483  12.061  1.1388 -0.5771 -0.2615
 3024SOL     OW39565   1.586   0.931   0.998 -0.1674 -0.2147 -0.2357
 3024SOL    HW139566   1.625   0.875   0.931 -0.9636 -0.5082 -0.4531
 3024SOL    HW239567   1.552   0.871   1.064  1.7901  0.0909  1.1349
 3025SOL     OW39568   3.851   3.253  12.662 -0.4293  0.0691 -0.2567
 3025SOL    HW139569   3.814   3.335  12.694 -1.0700 -1.1366  2.3112
 3025SOL    HW239570   3.909   3.224  12.732  0.6376 -1.1451 -1.6004
 3026SOL     OW39571   6.185   3.099  12.477 -0.3476  0.4884 -0.4349
 3026SOL    HW139572   6.229   3.028  12.524 -0.1732 -0.2774 -1.7251
 3026SOL    HW239573   6.242   3.117  12.403 -0.1976  2.2489  0.0538
 3027SOL     OW39574   4.730   0.174  11.482  0.3095  0.4105  0.2631
 3027SOL    HW139575   4.814   0.211  11.455 -0.1717  0.6539 -0.9618
 3027SOL    HW239576   4.671   0.250  11.487  0.3824  0.4057  2.1674
 3028SOL     OW39577   3.584   5.738   0.462 -0.6279  0.5268  0.2499
 3028SOL    HW139578   3.554   5.690   0.385  1.1279  0.1964 -0.2961
 3028SOL    HW239579   3.591   5.672   0.531 -0.5545  0.4663  0.1859
 3029SOL     OW39580   0.110   2.771  11.578  0.4050 -0.5320 -0.5630
 3029SOL    HW139581   0.097   2.848  11.522 -1.0124 -0.6681 -0.4694
 3029SOL    HW239582   0.141   2.703  11.518 -1.2185 -0.7131 -1.2583
 3030SOL     OW39583   3.941   3.401  12.449  0.8559 -0.4738 -0.1164
 3030SOL    HW139584   3.889   3.348  12.510  0.7493 -0.4221 -0.1614
 3030SOL    HW239585   4.031   3.389  12.478  0.9487 -1.5678 -0.8141
 3031SOL     OW39586   3.616   6.028  11.664 -0.5283 -0.4140 -0.4243
 3031SOL    HW139587   3.535   6.079  11.655 -0.5013  0.0876  1.6111
 3031SOL    HW239588   3.636   6.033  11.758  2.5965  0.6394 -1.0435
 3032SOL     OW39589   5.218   1.602   0.268  0.4124 -0.4089  0.5348
 3032SOL    HW139590   5.292   1.647   0.308  0.0806  1.7104 -1.0158
 3032SOL    HW239591   5.257   1.550   0.197  0.3932  2.4821 -1.7939
 3033SOL     OW39592   1.744   3.305  12.810 -0.9355 -0.5438  0.2746
 3033SOL    HW139593   1.682   3.244  12.769 -1.6878  1.3340 -1.5819
 3033SOL    HW239594   1.694   3.385  12.823  0.3769  0.1364  1.3794
 3034SOL     OW39595   2.129   1.294  12.369  0.2604  0.2191  0.2070
 3034SOL    HW139596   2.163   1.382  12.355  0.7038 -0.0846 -0.7237
 3034SOL    HW239597   2.120   1.257  12.281 -1.0386 -0.2597  0.5138
 3035SOL     OW39598   0.788   3.964  11.827  0.0446  0.0764 -0.5104
 3035SOL    HW139599   0.857   4.013  11.784 -0.2891 -0.1555 -1.3216
 3035SOL    HW239600   0.771   4.013  11.908  0.3880  0.7458 -0.8373
 3036SOL     OW39601   0.875   4.754  10.854 -0.2463  0.2689 -0.2908
 3036SOL    HW139602   0.960   4.719  10.828 -0.5624 -0.5213 -0.2581
 3036SOL    HW239603   0.816   4.731  10.783 -1.1484 -2.0346  1.0961
 3037SOL     OW39604   0.127   0.123   0.767  0.0283 -0.0475  0.4930
 3037SOL    HW139605   0.154   0.088   0.682  0.8256 -2.2356  1.5627
 3037SOL    HW239606   0.208   0.154   0.807 -0.3877  1.2445  0.3707
 3038SOL     OW39607   2.861   5.748  12.004 -0.9677  0.1205 -0.7948
 3038SOL    HW139608   2.860   5.737  12.099 -1.7221 -0.9148 -0.9053
 3038SOL    HW239609   2.923   5.819  11.988 -3.0169  2.4390  0.6964
 3039SOL     OW39610   2.881   3.907   0.693  0.6443  0.3587 -0.0918
 3039SOL    HW139611   2.954   3.965   0.669 -0.1374  0.9064 -1.2582
 3039SOL    HW239612   2.803   3.954   0.665 -0.0247 -1.2593 -1.1247
 3040SOL     OW39613   2.377   2.775  11.552  0.2138  0.3467 -0.0393
 3040SOL    HW139614   2.294   2.737  11.582  0.2135  0.1441 -0.2904
 3040SOL    HW239615   2.362   2.870  11.557 -0.6328  0.3424 -1.6187
 3041SOL     OW39616   3.809   6.334  12.396  0.4483  0.0793 -0.2169
 3041SOL    HW139617   3.742   6.399  12.418 -1.2039 -0.7842 -2.3035
 3041SOL    HW239618   3.772   6.251  12.425  0.1776 -0.5112 -2.1228
 3042SOL     OW39619   1.559   4.256   0.182  0.3626 -0.1732  0.4721
 3042SOL    HW139620   1.500   4.313   0.231 -1.2641 -1.4998  0.1585
 3042SOL    HW239621   1.634   4.312   0.160 -0.6449  1.5084  1.1180
 3043SOL     OW39622   3.868   2.135  11.718  0.1358 -0.5208 -0.0288
 3043SOL    HW139623   3.844   2.214  11.671 -0.2855 -0.9759 -0.6013
 3043SOL    HW239624   3.902   2.166  11.802 -0.6920  0.2303  0.0449
 3044SOL     OW39625   4.519   3.136  10.793  0.1523  0.3261 -0.1306
 3044SOL    HW139626   4.452   3.112  10.729  0.8736 -1.4460 -0.2885
 3044SOL    HW239627   4.527   3.231  10.786 -2.7324  0.6939  0.3184
 3045SOL     OW39628   4.919   4.374   0.362  0.8803  0.4419 -0.1719
 3045SOL    HW139629   4.942   4.299   0.418  1.9707 -0.4933 -1.7768
 3045SOL    HW239630   4.833   4.402   0.395  0.1680 -1.8623  0.1635
 3046SOL     OW39631   4.519   6.165  11.713 -0.2716  0.2217  0.3374
 3046SOL    HW139632   4.512   6.201  11.801 -1.8233 -1.0977  0.8042
 3046SOL    HW239633   4.450   6.209  11.664  0.2865  0.6131 -0.1065
 3047SOL     OW39634   5.987   4.313   0.796 -0.1927 -0.6231 -0.0680
 3047SOL    HW139635   6.058   4.250   0.781  1.1709  0.3467  1.8285
 3047SOL    HW239636   5.971   4.352   0.710  0.9901 -1.4579 -0.7091
 3048SOL     OW39637   5.013   4.480  11.542  0.3222  0.0537  0.1477
 3048SOL    HW139638   4.973   4.518  11.463  1.4489  1.6215  0.2994
 3048SOL    HW239639   4.939   4.465  11.601 -0.6069 -1.5822 -1.3363
 3049SOL     OW39640   1.526   1.874   1.668 -0.0743  0.4430  0.1750
 3049SOL    HW139641   1.515   1.969   1.677  1.5647  0.5020  2.6303
 3049SOL    HW239642   1.591   1.851   1.735  0.6179 -2.2373 -1.2631
 3050SOL     OW39643   5.558   1.122  11.249 -0.0033  0.3054 -0.0943
 3050SOL    HW139644   5.586   1.116  11.340 -1.0658  1.0067  0.2904
 3050SOL    HW239645   5.635   1.096  11.199  0.5994 -0.0679  1.0007
 3051SOL     OW39646   5.967   5.153   1.758 -0.0019  0.2347  0.2505
 3051SOL    HW139647   5.874   5.162   1.774 -0.3918 -3.8361  1.4182
 3051SOL    HW239648   5.977   5.167   1.664 -2.1143 -1.0022 -0.2152
 3052SOL     OW39649   2.216   1.991  11.715 -0.6964 -0.6429  0.6592
 3052SOL    HW139650   2.122   2.003  11.723 -0.4183  0.7972  2.1848
 3052SOL    HW239651   2.251   2.079  11.705  0.4445 -1.2236 -0.9988
 3053SOL     OW39652   1.537   2.361  11.957  0.2197 -0.4552  0.3276
 3053SOL    HW139653   1.533   2.402  11.871 -0.1771  0.1472  0.6225
 3053SOL    HW239654   1.558   2.433  12.017 -0.5908 -0.6446  0.8670
 3054SOL     OW39655   6.074   2.921   0.547 -0.2691  0.7600 -0.0017
 3054SOL    HW139656   5.994   2.960   0.583  0.5444  0.7807  1.9108
 3054SOL    HW239657   6.131   2.996   0.530  0.8201  0.5988  2.4900
 3055SOL     OW39658   4.403   1.406  12.648  0.3266  0.5833  0.4715
 3055SOL    HW139659   4.449   1.323  12.631  1.9866  1.8189 -1.5448
 3055SOL    HW239660   4.466   1.458  12.697 -0.3663  1.0000  0.9339
 3056SOL     OW39661   2.468   0.099  12.183 -0.0119 -0.3684  0.3655
 3056SOL    HW139662   2.391   0.050  12.154 -0.1652 -0.3141  0.6732
 3056SOL    HW239663   2.492   0.153  12.108  0.0671 -0.8004  0.0731
 3057SOL     OW39664   0.097   3.814   1.633 -0.2309  0.1237 -0.3164
 3057SOL    HW139665   0.095   3.722   1.659 -1.2567  0.2969  0.2629
 3057SOL    HW239666   0.045   3.817   1.553  1.2698 -0.0771 -1.3256
 3058SOL     OW39667   4.504   3.394   1.579  0.2320  0.3571 -0.3152
 3058SOL    HW139668   4.531   3.337   1.651 -0.0257 -1.8597 -1.8729
 3058SOL    HW239669   4.582   3.447   1.560  1.0653 -0.6934  0.0773
 3059SOL     OW39670   5.922   5.396   0.835 -0.0843 -0.1910  0.3665
 3059SOL    HW139671   5.966   5.315   0.808 -0.2810 -0.1686 -0.0375
 3059SOL    HW239672   5.975   5.466   0.799 -0.6896 -0.1729 -0.5238
 3060SOL     OW39673   5.533   2.890   0.523  0.5735 -0.6049 -0.1307
 3060SOL    HW139674   5.444   2.869   0.549  1.3224 -2.1441  1.3715
 3060SOL    HW239675   5.523   2.946   0.446 -1.6901  0.4239  0.8268
 3061SOL     OW39676   3.976   2.190  11.982  0.2694  0.0032 -0.1108
 3061SOL    HW139677   3.906   2.177  12.047  0.2314  0.9576  0.0546
 3061SOL    HW239678   4.027   2.263  12.017  0.1991  0.5830 -1.2044
 3062SOL     OW39679   0.839   1.799  11.902  0.1485  0.1973 -0.1561
 3062SOL    HW139680   0.874   1.774  11.817  0.8021 -2.0832  0.6997
 3062SOL    HW239681   0.851   1.894  11.907  0.3250  0.3457 -2.4595
 3063SOL     OW39682   0.953   5.972   0.282  0.2661 -0.0466 -0.4477
 3063SOL    HW139683   0.966   5.931   0.367  0.7033  0.4146 -0.2883
 3063SOL    HW239684   1.032   6.024   0.268 -0.2178  0.6270 -0.7116
 3064SOL     OW39685   2.975   1.053   0.308  0.1469  0.5302 -0.5717
 3064SOL    HW139686   2.990   1.047   0.403 -1.1224 -0.0454 -0.3844
 3064SOL    HW239687   3.060   1.033   0.269 -0.0323 -2.7763  0.3888
 3065SOL     OW39688   1.591   1.685   0.100 -0.2009 -0.3730  0.1109
 3065SOL    HW139689   1.499   1.710   0.091 -0.4454 -0.0394  2.7448
 3065SOL    HW239690   1.595   1.639   0.184  1.8013 -1.6861 -0.6247
 3066SOL     OW39691   4.806   5.946   1.718  0.1485  0.4914  0.0208
 3066SOL    HW139692   4.757   6.026   1.737 -0.9604  0.9920 -4.0746
 3066SOL    HW239693   4.738   5.879   1.708  0.4675  0.4720 -2.5527
 3067SOL     OW39694   5.744   1.570  12.085  0.0737 -0.1198 -0.0281
 3067SOL    HW139695   5.789   1.652  12.101  1.4137 -0.6542 -0.8847
 3067SOL    HW239696   5.711   1.543  12.171  0.0440  1.0547  0.3417
 3068SOL     OW39697   3.926   1.173  12.570 -0.2435 -0.9247 -0.0684
 3068SOL    HW139698   3.842   1.219  12.574  0.3879  0.5199 -1.6661
 3068SOL    HW239699   3.990   1.239  12.597  0.3259 -2.4929  2.8353
 3069SOL     OW39700   5.772   3.274  12.720 -0.0813  0.8266  0.3599
 3069SOL    HW139701   5.857   3.308  12.747  0.5898 -0.7797  0.3577
 3069SOL    HW239702   5.792   3.212  12.650 -1.3435  1.0440 -0.2290
 3070SOL     OW39703   4.063   3.233   0.425 -0.4102 -0.0637 -0.2587
 3070SOL    HW139704   3.986   3.289   0.411 -0.2543 -0.0927 -1.2638
 3070SOL    HW239705   4.037   3.174   0.496 -0.1047  2.1529  1.8507
 3071SOL     OW39706   4.715   5.478  12.175 -0.2672  0.2523  0.2128
 3071SOL    HW139707   4.755   5.491  12.089 -0.4772  0.8148  0.1962
 3071SOL    HW239708   4.632   5.433  12.157 -0.1806  0.1191  0.1459
 3072SOL     OW39709   1.272   0.641   0.118  0.4098 -0.0957  0.3082
 3072SOL    HW139710   1.180   0.647   0.143  0.0076  1.6934 -1.3424
 3072SOL    HW239711   1.319   0.676   0.194 -0.2741 -0.8041  1.0805
 3073SOL     OW39712   1.342   6.087   0.032  0.1302  0.1928  0.2625
 3073SOL    HW139713   1.312   6.127  -0.049  1.8633  2.9568  0.8607
 3073SOL    HW239714   1.421   6.038   0.007  0.4887  0.7906  0.2099
 3074SOL     OW39715   3.630   5.554  12.666  0.1703  0.9324  0.3032
 3074SOL    HW139716   3.689   5.481  12.651 -0.7273  0.3021 -0.2954
 3074SOL    HW239717   3.579   5.529  12.743 -1.2256  0.1634 -0.8146
 3075SOL     OW39718   4.385   0.777  11.852  0.1774 -0.6681  0.1462
 3075SOL    HW139719   4.392   0.743  11.941 -1.2777 -0.7001  0.2786
 3075SOL    HW239720   4.292   0.768  11.831  0.4825 -0.5465 -1.3349
 3076SOL     OW39721   1.549   5.651   0.535  0.2101  0.2445 -0.0465
 3076SOL    HW139722   1.502   5.611   0.608  0.1368  0.7329  0.1834
 3076SOL    HW239723   1.637   5.667   0.570 -0.0941  1.3412  0.2583
 3077SOL     OW39724   2.222   4.243   0.470 -0.4323 -0.0078  0.0793
 3077SOL    HW139725   2.312   4.258   0.501  0.3696 -0.7037 -1.7645
 3077SOL    HW239726   2.192   4.329   0.441  0.2581 -0.0416 -0.7777
 3078SOL     OW39727   0.883   6.327  11.086  0.7811 -0.6485  0.2126
 3078SOL    HW139728   0.978   6.327  11.090  0.7630  0.8336  1.8733
 3078SOL    HW239729   0.860   6.242  11.048  2.7309 -1.3436  0.5034
 3079SOL     OW39730   4.015   5.897   0.396 -0.1940 -0.2726  0.5324
 3079SOL    HW139731   3.983   5.976   0.439 -1.1196  1.0904 -2.4139
 3079SOL    HW239732   3.936   5.849   0.372  0.3476 -1.8531  1.7377
 3080SOL     OW39733   5.377   0.054   0.571 -0.3857 -0.1465 -0.2758
 3080SOL    HW139734   5.352   0.137   0.531  1.1056 -0.2996 -1.6224
 3080SOL    HW239735   5.334  -0.013   0.517 -4.5465 -0.4055  2.7907
 3081SOL     OW39736   4.612   0.965   0.676 -0.1812 -0.1855  0.4879
 3081SOL    HW139737   4.531   0.941   0.631  0.3109 -0.1803 -0.4158
 3081SOL    HW239738   4.647   1.038   0.626  1.0276 -0.9993  0.1080
 3082SOL     OW39739   0.391   1.111   0.841  0.5337 -0.3901 -0.4608
 3082SOL    HW139740   0.429   1.197   0.860 -2.8796  1.7970 -2.6409
 3082SOL    HW239741   0.408   1.097   0.748 -2.4534 -0.0037 -1.1505
 3083SOL     OW39742   1.510   4.033  11.847 -0.2712 -0.1173 -0.2378
 3083SOL    HW139743   1.442   4.007  11.910  0.6039 -0.3161  0.6538
 3083SOL    HW239744   1.546   3.951  11.815 -0.7449 -0.0162 -1.0596
 3084SOL     OW39745   0.289   6.049  12.004 -0.4655  0.2713 -1.1498
 3084SOL    HW139746   0.325   5.967  12.038 -1.2763  0.2470 -0.3134
 3084SOL    HW239747   0.364   6.093  11.965  0.2378 -0.3152 -0.5072
 3085SOL     OW39748   5.189   1.588   1.425  0.2048  0.6221 -0.4404
 3085SOL    HW139749   5.148   1.618   1.506  1.3869 -0.8118  0.7553
 3085SOL    HW239750   5.211   1.669   1.378 -3.5180  1.4806 -1.0114
 3086SOL     OW39751   4.537   5.065  11.480  0.1240 -0.0942 -0.0649
 3086SOL    HW139752   4.550   5.055  11.385 -0.1763 -1.1640 -0.0040
 3086SOL    HW239753   4.606   5.012  11.520 -0.0645 -0.0600  0.3100
 3087SOL     OW39754   3.985   5.876  12.051 -0.9112 -0.5569  0.2844
 3087SOL    HW139755   3.923   5.810  12.082 -1.1706 -0.0581  0.8469
 3087SOL    HW239756   4.029   5.907  12.130 -0.1766 -0.6647 -0.0733
 3088SOL     OW39757   3.234   0.925  12.317  0.1690 -0.1320  0.1487
 3088SOL    HW139758   3.282   0.843  12.323  0.8845  0.1808 -0.9693
 3088SOL    HW239759   3.265   0.964  12.235 -0.3749  1.1139  0.5275
 3089SOL     OW39760   3.117   1.248   0.777  0.9213 -0.3361 -0.0314
 3089SOL    HW139761   3.206   1.234   0.743  1.3198 -0.7522  1.1569
 3089SOL    HW239762   3.062   1.191   0.722  1.1492  1.0116 -1.7465
 3090SOL     OW39763   3.289   4.556   1.680 -0.4866 -1.1194  0.3614
 3090SOL    HW139764   3.268   4.510   1.599  1.3635 -1.8430  0.2374
 3090SOL    HW239765   3.359   4.504   1.719  1.0453  1.0344  0.6869
 3091SOL     OW39766   1.731   0.197   1.300  0.1724  0.1831 -0.0749
 3091SOL    HW139767   1.822   0.169   1.299 -0.2571 -1.3217  0.3403
 3091SOL    HW239768   1.729   0.269   1.363  0.7221 -1.1498  1.5504
 3092SOL     OW39769   2.904   2.077  12.226 -0.1100 -0.5336 -0.2106
 3092SOL    HW139770   2.859   2.008  12.178  0.3590 -0.2080 -1.1361
 3092SOL    HW239771   2.996   2.064  12.206 -0.0163  0.3445 -0.3735
 3093SOL     OW39772   3.127   2.786   1.069 -0.2391 -0.0914 -0.0024
 3093SOL    HW139773   3.033   2.769   1.072 -0.1680 -0.5768 -0.3623
 3093SOL    HW239774   3.151   2.768   0.978  0.1210  0.4727 -0.0218
 3094SOL     OW39775   5.065   3.337   1.086  0.3688 -0.1739 -0.6721
 3094SOL    HW139776   5.062   3.323   0.991  0.7787 -1.6029 -0.5022
 3094SOL    HW239777   5.139   3.284   1.115 -1.7329 -2.5138  0.8365
 3095SOL     OW39778   3.248   0.817   0.838 -0.0918  0.1884  0.4105
 3095SOL    HW139779   3.243   0.908   0.866  0.1230  0.1606  0.5441
 3095SOL    HW239780   3.332   0.787   0.872  0.3716  0.2788 -0.6169
 3096SOL     OW39781   5.174   6.060  12.425  0.0908 -0.1719  0.0063
 3096SOL    HW139782   5.096   6.112  12.444  0.0627 -0.6403  1.2605
 3096SOL    HW239783   5.163   5.979  12.475  0.5946 -0.9880 -1.1311
 3097SOL     OW39784   6.384   4.267   1.567 -0.4346  0.5392 -0.0272
 3097SOL    HW139785   6.450   4.240   1.630 -0.5164 -0.0816 -0.1982
 3097SOL    HW239786   6.366   4.188   1.515  0.6609  1.3566 -1.7643
 3098SOL     OW39787   0.117   6.004   0.413  0.0421 -0.3638 -0.2889
 3098SOL    HW139788   0.080   6.089   0.437  2.2620  0.4487  0.5289
 3098SOL    HW239789   0.047   5.960   0.365 -1.0276  2.1259 -1.2000
 3099SOL     OW39790   5.236   6.303  12.240 -0.1807 -0.3460  0.0597
 3099SOL    HW139791   5.206   6.234  12.300  1.7279 -1.8405 -0.5562
 3099SOL    HW239792   5.253   6.257  12.158 -0.8729  1.3055 -1.0565
 3100SOL     OW39793   2.411   0.653   0.284 -0.4017 -0.8567 -0.0358
 3100SOL    HW139794   2.432   0.604   0.363 -1.6608 -0.0900  0.8044
 3100SOL    HW239795   2.425   0.745   0.309  2.7643 -0.7057 -1.8137
 3101SOL     OW39796   0.755   2.038  11.901 -0.1791 -0.9435 -0.4719
 3101SOL    HW139797   0.758   2.105  11.969  1.4287 -1.4246 -0.0173
 3101SOL    HW239798   0.740   2.086  11.820 -0.2619 -0.1720 -0.0102
 3102SOL     OW39799   0.976   4.418   1.673 -0.3247  0.2787 -0.3964
 3102SOL    HW139800   0.908   4.389   1.734  1.5987  0.2874  1.8990
 3102SOL    HW239801   1.021   4.338   1.647  1.3843  0.5292  1.4788
 3103SOL     OW39802   5.621   2.695   1.068  0.7375 -0.4004 -0.2952
 3103SOL    HW139803   5.707   2.709   1.028 -0.0443  2.4516 -1.1871
 3103SOL    HW239804   5.558   2.714   0.998 -0.6812 -1.8632  0.4934
 3104SOL     OW39805   3.635   6.103  12.606 -0.1279 -0.2051  0.0352
 3104SOL    HW139806   3.638   6.012  12.635  1.6573 -0.7974 -1.7908
 3104SOL    HW239807   3.716   6.141  12.640 -0.1230  0.2723 -0.5093
 3105SOL     OW39808   3.393   1.269   0.726  0.1715  0.6734 -0.3135
 3105SOL    HW139809   3.434   1.283   0.811  0.9539  0.6206 -0.6754
 3105SOL    HW239810   3.446   1.201   0.684  0.0226  0.9627 -0.9941
 3106SOL     OW39811   4.959   3.897   0.710 -0.6884  0.7158 -0.4819
 3106SOL    HW139812   4.915   3.819   0.675  0.4586 -0.1489 -0.0676
 3106SOL    HW239813   4.889   3.960   0.723 -1.3148  0.8476 -3.5899
 3107SOL     OW39814   3.759   4.384  12.101  0.3235  0.1286  0.1144
 3107SOL    HW139815   3.724   4.399  12.013 -1.3974  0.5839  0.8264
 3107SOL    HW239816   3.842   4.431  12.102  0.2653  0.3065 -1.1958
 3108SOL     OW39817   2.086   0.455   0.405  0.1002 -0.3707  0.0492
 3108SOL    HW139818   2.003   0.461   0.453 -0.0235 -0.3394 -0.1660
 3108SOL    HW239819   2.061   0.428   0.316  0.1415  1.2727 -0.5064
 3109SOL     OW39820   0.161   3.527   1.665  0.0797 -0.1060 -0.2334
 3109SOL    HW139821   0.096   3.457   1.662  0.8799 -0.8284 -1.1767
 3109SOL    HW239822   0.175   3.551   1.574 -1.5910  2.6623  0.1123
 3110SOL     OW39823   6.048   3.279   0.307 -0.3152  0.1347  0.0832
 3110SOL    HW139824   6.031   3.347   0.372  1.4974 -0.1252  0.8897
 3110SOL    HW239825   5.965   3.233   0.297 -0.8253  0.6885  1.6318
 3111SOL     OW39826   3.519   6.424   1.410  0.4361 -0.9689 -0.1822
 3111SOL    HW139827   3.538   6.479   1.486 -2.7278  0.9685 -0.5937
 3111SOL    HW239828   3.602   6.417   1.363  1.3489  2.3491  0.6756
 3112SOL     OW39829   4.410   0.873   1.228  0.3235 -0.2965 -0.2275
 3112SOL    HW139830   4.464   0.952   1.219  0.3321 -0.3074 -0.2667
 3112SOL    HW239831   4.450   0.809   1.171 -0.4484  0.0746 -1.2162
 3113SOL     OW39832   5.830   6.424  12.530 -0.6049 -0.0510  0.0029
 3113SOL    HW139833   5.883   6.351  12.561 -1.3469 -0.6541 -0.1353
 3113SOL    HW239834   5.879   6.458  12.455 -0.0484 -0.1345  0.3164
 3114SOL     OW39835   1.385   4.906   1.651 -0.1358 -0.1214  0.2549
 3114SOL    HW139836   1.447   4.979   1.652  0.2940 -0.4216 -1.3348
 3114SOL    HW239837   1.441   4.828   1.656 -0.4484 -0.3746 -0.1992
 3115SOL     OW39838   1.250   4.030   0.855 -0.0456  0.5933 -0.6182
 3115SOL    HW139839   1.237   3.945   0.897 -0.0138  0.7387 -0.3087
 3115SOL    HW239840   1.292   4.084   0.923  1.2870  0.4168 -1.2691
 3116SOL     OW39841   2.376   5.856  12.571  0.0371  0.3397  0.2364
 3116SOL    HW139842   2.335   5.941  12.583 -1.6929 -0.2462 -1.0138
 3116SOL    HW239843   2.437   5.869  12.498 -1.0953  0.2963 -0.7655
 3117SOL     OW39844   4.634   1.480   0.575  0.2789 -0.0878 -0.3071
 3117SOL    HW139845   4.688   1.407   0.546  1.1768 -0.3642  1.8801
 3117SOL    HW239846   4.631   1.539   0.500  0.2013 -1.9479 -1.8508
 3118SOL     OW39847   4.509   5.042   1.074  0.1439  0.1465 -0.4920
 3118SOL    HW139848   4.425   5.005   1.047  0.7342 -0.7086 -1.1782
 3118SOL    HW239849   4.518   5.017   1.166 -0.7838  1.0698 -0.1298
 3119SOL     OW39850   3.834   6.226  12.703 -0.4270 -0.2881 -0.5866
 3119SOL    HW139851   3.929   6.232  12.709 -0.4010 -1.1108 -0.0017
 3119SOL    HW239852   3.803   6.313  12.729  0.1208 -0.4020  0.5116
 3120SOL     OW39853   5.513   2.220  12.022 -0.2560  0.0883  0.2745
 3120SOL    HW139854   5.504   2.155  11.953 -0.6036  1.2041 -0.7535
 3120SOL    HW239855   5.608   2.225  12.038 -0.2629 -1.1363  0.8615
 3121SOL     OW39856   4.149   2.297   0.308  0.2385  0.6111 -0.7278
 3121SOL    HW139857   4.142   2.240   0.231 -2.6546  0.1986 -0.2885
 3121SOL    HW239858   4.090   2.258   0.372  1.1183  2.0073  1.0221
 3122SOL     OW39859   6.441   5.455  11.880  0.3439 -0.0123  0.3433
 3122SOL    HW139860   6.496   5.376  11.883 -0.1778 -0.3682  1.7439
 3122SOL    HW239861   6.355   5.423  11.852  0.0844  0.0049  1.0843
 3123SOL     OW39862   3.640   5.095  12.744  0.3343  0.3437  0.1974
 3123SOL    HW139863   3.552   5.111  12.776 -0.4238  0.6929 -1.9064
 3123SOL    HW239864   3.636   5.114  12.650  1.5443 -3.6801 -0.8884
 3124SOL     OW39865   4.706   0.069  12.773 -0.1126 -0.5453 -0.4347
 3124SOL    HW139866   4.638   0.118  12.819 -0.7862 -1.3163 -0.5914
 3124SOL    HW239867   4.776   0.060  12.838 -1.2108 -1.9689  0.6182
 3125SOL     OW39868   6.038   5.619   0.692  0.1343 -0.4574  0.0387
 3125SOL    HW139869   5.980   5.681   0.649  0.3794 -0.1993  0.0745
 3125SOL    HW239870   6.123   5.633   0.651  0.5847  0.4187  1.2038
 3126SOL     OW39871   5.802   1.740  11.471  0.2473 -0.7029 -0.3002
 3126SOL    HW139872   5.740   1.787  11.415  0.1129 -0.9096 -0.3248
 3126SOL    HW239873   5.750   1.714  11.547  0.8904  1.4078  0.9631
 3127SOL     OW39874   5.942   0.287   1.316 -0.3079  0.0509  0.0962
 3127SOL    HW139875   5.872   0.290   1.251  0.4627  0.4918 -0.7334
 3127SOL    HW239876   5.959   0.193   1.329 -1.3303 -0.0742  0.6301
 3128SOL     OW39877   1.509   6.034  11.046 -0.5377 -0.1579 -0.5372
 3128SOL    HW139878   1.433   6.019  11.101 -1.2956  0.4421 -1.3983
 3128SOL    HW239879   1.565   5.957  11.060 -1.2359 -0.5381  0.1948
 3129SOL     OW39880   0.825   6.267  12.497  0.2108 -0.3286  0.0259
 3129SOL    HW139881   0.780   6.289  12.415  1.8884 -0.3687 -0.9494
 3129SOL    HW239882   0.882   6.342  12.513  0.1476 -0.4779  0.9964
 3130SOL     OW39883   4.188   6.170  11.648 -0.0860  0.4025  0.0219
 3130SOL    HW139884   4.110   6.121  11.673  1.4293 -2.2772 -0.1779
 3130SOL    HW239885   4.161   6.217  11.569 -1.3485 -0.9399 -0.3980
 3131SOL     OW39886   5.414   3.029   0.970  0.1646  0.6555 -0.4760
 3131SOL    HW139887   5.319   3.017   0.976  0.5223 -2.1455  1.6623
 3131SOL    HW239888   5.447   2.945   0.938  2.0437  0.8865  0.6831
 3132SOL     OW39889   3.477   5.864  12.085 -0.1707 -0.8613  0.3686
 3132SOL    HW139890   3.532   5.790  12.060  0.9848  0.3137 -0.7422
 3132SOL    HW239891   3.503   5.885  12.174  2.0603  0.3363 -0.4786
 3133SOL     OW39892   6.204   0.789  11.654 -0.6086  0.1364 -0.0421
 3133SOL    HW139893   6.133   0.806  11.593  0.1909  2.6406 -0.4150
 3133SOL    HW239894   6.224   0.875  11.691  1.2846 -0.7295  1.0889
 3134SOL     OW39895   4.296   3.712  11.744  0.6928  0.4721  0.2136
 3134SOL    HW139896   4.255   3.627  11.727  2.9917 -1.1701  2.1689
 3134SOL    HW239897   4.229   3.763  11.789 -0.7130 -0.2860 -0.9347
 3135SOL     OW39898   4.723   5.253  11.557  0.1750  0.5454 -0.3974
 3135SOL    HW139899   4.779   5.231  11.483 -0.2699 -0.6327 -0.4021
 3135SOL    HW239900   4.639   5.211  11.538 -1.0667  3.0025 -0.8371
 3136SOL     OW39901   6.318   1.333  12.798  0.6187 -0.1786 -0.6054
 3136SOL    HW139902   6.374   1.361  12.725 -0.8100 -0.1207 -1.7093
 3136SOL    HW239903   6.270   1.258  12.765 -0.7119  0.3892 -0.0532
 3137SOL     OW39904   0.589   3.802   0.170  0.2568 -0.2619 -0.2769
 3137SOL    HW139905   0.545   3.739   0.113 -0.9242  0.2677  0.0265
 3137SOL    HW239906   0.633   3.862   0.110  1.0640 -1.1393 -0.5726
 3138SOL     OW39907   5.997   3.356  12.850 -0.0653  0.3749  0.3016
 3138SOL    HW139908   6.079   3.309  12.838 -1.2942 -1.4308 -1.6500
 3138SOL    HW239909   5.999   3.385  12.941  2.0557 -0.9287  0.7322
 3139SOL     OW39910   1.015   5.428  11.569 -0.3636  0.1635 -0.3591
 3139SOL    HW139911   0.966   5.350  11.592  0.3985 -0.2434 -0.0851
 3139SOL    HW239912   1.097   5.395  11.531  0.6547  0.7962  1.1858
 3140SOL     OW39913   0.975   5.856  11.364 -0.6297  0.0857  0.0438
 3140SOL    HW139914   0.892   5.840  11.408 -0.2156  1.3414  1.3542
 3140SOL    HW239915   1.030   5.897  11.430  0.9718 -0.4899 -0.8673
 3141SOL     OW39916   4.999   4.753  12.720 -0.7587  0.0687 -0.4128
 3141SOL    HW139917   4.956   4.828  12.760 -0.0357  1.0773 -1.4493
 3141SOL    HW239918   5.072   4.791  12.670  1.5524 -1.5642  1.4531
 3142SOL     OW39919   3.657   2.988  12.318  0.0447  0.1733  0.2769
 3142SOL    HW139920   3.717   2.968  12.247 -0.5479  1.0256 -0.4829
 3142SOL    HW239921   3.713   2.989  12.396  0.8650  0.1125 -0.2940
 3143SOL     OW39922   0.257   3.919  11.218 -0.0108  0.3056 -0.8058
 3143SOL    HW139923   0.297   3.846  11.170 -0.4981  0.4379 -1.4354
 3143SOL    HW239924   0.172   3.932  11.174 -0.4320  0.4946  0.0397
 3144SOL     OW39925   4.406   5.372  12.479  0.7670 -0.2972  0.3619
 3144SOL    HW139926   4.494   5.335  12.486  1.0042  0.3588  0.9244
 3144SOL    HW239927   4.413   5.459  12.517  0.2446  0.3909 -1.0413
 3145SOL     OW39928   4.012   2.920  11.301 -0.3657  0.4496 -0.0403
 3145SOL    HW139929   4.047   2.870  11.227  1.6476  2.6053 -0.6732
 3145SOL    HW239930   4.019   2.861  11.376  0.7337 -0.6491 -0.9690
 3146SOL     OW39931   5.580   2.894  11.377 -0.2380 -0.0167  0.5328
 3146SOL    HW139932   5.632   2.956  11.326  0.3881 -0.0433  1.1246
 3146SOL    HW239933   5.539   2.947  11.445 -1.6130  0.1309 -0.3838
 3147SOL     OW39934   0.664   5.762   0.405  0.2310  0.0307  0.2075
 3147SOL    HW139935   0.705   5.824   0.344  0.0701  0.3109  0.3853
 3147SOL    HW239936   0.570   5.775   0.393  0.1963 -0.3143  0.1065
 3148SOL     OW39937   0.910   0.100   0.740 -1.1417 -0.1193 -0.5822
 3148SOL    HW139938   0.929   0.126   0.649  1.3120 -0.0545 -0.1295
 3148SOL    HW239939   0.835   0.041   0.733 -1.1944  0.1230 -2.6348
 3149SOL     OW39940   2.569   3.823   1.377 -0.4185  0.6257 -0.3133
 3149SOL    HW139941   2.512   3.746   1.376  0.9005 -0.4472 -3.1428
 3149SOL    HW239942   2.545   3.872   1.298  0.6443  1.6421 -0.0395
 3150SOL     OW39943   1.494   4.154   0.614 -0.3987  0.6909  0.0764
 3150SOL    HW139944   1.540   4.233   0.584  0.2847  0.2289 -0.1101
 3150SOL    HW239945   1.405   4.164   0.581 -0.3652  1.4689  0.1987
 3151SOL     OW39946   2.566   4.013  12.738 -0.1199 -0.3739 -0.4412
 3151SOL    HW139947   2.609   3.971  12.812 -0.8701 -1.0307 -0.3584
 3151SOL    HW239948   2.571   3.948  12.667  1.3633  0.5858 -1.2513
 3152SOL     OW39949   2.702   3.774  12.041  0.4718  0.4308 -1.1896
 3152SOL    HW139950   2.663   3.842  12.096 -1.6552 -0.9440 -0.8790
 3152SOL    HW239951   2.668   3.792  11.953 -2.2196 -1.5380 -0.6983
 3153SOL     OW39952   2.083   3.594   0.864  0.5724  0.1812  0.4328
 3153SOL    HW139953   2.110   3.531   0.931 -0.5799  0.1500  0.8871
 3153SOL    HW239954   2.087   3.679   0.908  1.7970  0.4060 -0.0796
 3154SOL     OW39955   5.302   2.631   0.425  0.1014  0.4112 -0.1382
 3154SOL    HW139956   5.271   2.660   0.339 -2.3258 -0.7204  0.2751
 3154SOL    HW239957   5.326   2.540   0.412 -1.0678 -0.0131  0.5121
 3155SOL     OW39958   6.012   4.877   1.556 -0.2125 -0.2726 -0.4201
 3155SOL    HW139959   5.991   4.854   1.647 -3.1229  1.3649 -0.5379
 3155SOL    HW239960   6.039   4.968   1.560  3.4943 -1.2163 -0.8512
 3156SOL     OW39961   6.338   4.389   0.074  0.3065 -0.4571 -0.3651
 3156SOL    HW139962   6.280   4.316   0.055  0.5837 -0.9274  0.5248
 3156SOL    HW239963   6.413   4.350   0.119 -0.2569  0.5198  1.5531
 3157SOL     OW39964   5.859   2.687  11.795 -0.0832 -0.1287  0.2629
 3157SOL    HW139965   5.940   2.663  11.750 -0.5242 -0.3703 -0.4291
 3157SOL    HW239966   5.887   2.717  11.881  0.6823 -0.9279  0.3052
 3158SOL     OW39967   1.830   5.064  12.073  0.2071 -0.0324 -0.3008
 3158SOL    HW139968   1.737   5.046  12.087  0.2613  0.4682  0.8099
 3158SOL    HW239969   1.832   5.152  12.035  0.3009  0.8651  1.6826
 3159SOL     OW39970   0.696   5.654  12.785 -0.8828  0.6357 -0.2674
 3159SOL    HW139971   0.760   5.651  12.714  0.2072 -2.1080  0.6928
 3159SOL    HW239972   0.739   5.610  12.858 -2.5148  2.0705  1.6733
 3160SOL     OW39973   0.464   0.393  11.957  0.8166 -0.0109 -0.1358
 3160SOL    HW139974   0.385   0.440  11.929 -0.0333 -2.1154 -1.5258
 3160SOL    HW239975   0.525   0.404  11.885  2.2301  2.3066  1.2786
 3161SOL     OW39976   0.637   4.359   1.624 -0.5970 -0.0771 -0.9236
 3161SOL    HW139977   0.643   4.351   1.529  1.7752 -1.2588 -0.7520
 3161SOL    HW239978   0.596   4.277   1.653  0.6047 -0.6528 -0.8135
 3162SOL     OW39979   3.609   1.292   0.026  0.1786 -0.9772  0.4814
 3162SOL    HW139980   3.663   1.217   0.049 -0.7293 -2.2512 -1.2536
 3162SOL    HW239981   3.579   1.274  -0.064 -1.8727  0.3785  0.8128
 3163SOL     OW39982   3.362   0.710  11.280  0.0771  0.4712 -0.6011
 3163SOL    HW139983   3.325   0.796  11.261 -2.6127  0.0253  1.9141
 3163SOL    HW239984   3.297   0.648  11.247  1.0020 -0.5512 -0.5471
 3164SOL     OW39985   4.231   3.088   1.212  0.4363 -0.2290 -0.0977
 3164SOL    HW139986   4.318   3.118   1.238 -1.1073  2.1478  2.9871
 3164SOL    HW239987   4.219   3.005   1.258  0.4559  0.3571  1.0035
 3165SOL     OW39988   2.680   3.723  12.574 -0.2204 -0.1069 -0.0357
 3165SOL    HW139989   2.669   3.668  12.652 -0.2596 -1.9464 -1.2773
 3165SOL    HW239990   2.595   3.719  12.530 -0.2276  0.9858 -0.1496
 3166SOL     OW39991   0.584   0.161   0.095 -0.1774  0.1969 -0.0772
 3166SOL    HW139992   0.504   0.169   0.044 -0.5203  2.8513  0.7518
 3166SOL    HW239993   0.647   0.220   0.052  0.0285  1.2240  1.5548
 3167SOL     OW39994   6.038   3.118  11.238  0.0615 -0.0028 -0.0062
 3167SOL    HW139995   6.001   3.206  11.233  0.7292  0.2447 -0.8735
 3167SOL    HW239996   6.053   3.104  11.331  0.1558  0.8947  0.1254
 3168SOL     OW39997   0.934   0.745  11.243  0.2527 -0.2036  0.3174
 3168SOL    HW139998   0.904   0.655  11.253  0.7397 -0.3671  0.2994
 3168SOL    HW239999   0.979   0.746  11.158  1.7128 -0.3496  1.0675
 3169SOL     OW40000   6.028   4.235  12.618 -0.0988 -0.4121 -0.4533
 3169SOL    HW140001   6.023   4.322  12.578  0.9606  0.8490  1.9606
 3169SOL    HW240002   6.070   4.180  12.552  0.0800  1.1248 -1.6698
 3170SOL     OW40003   6.251   1.524   1.208 -1.0109  0.2456 -0.2485
 3170SOL    HW140004   6.172   1.471   1.225 -1.3793  0.6058 -0.7888
 3170SOL    HW240005   6.236   1.561   1.121  0.1055 -0.2958 -0.6894
 3171SOL     OW40006   0.375   5.382   1.008  0.5462  0.3559  0.4667
 3171SOL    HW140007   0.413   5.363   1.094  0.9174 -1.4710 -0.0589
 3171SOL    HW240008   0.451   5.392   0.950  0.2831  0.6563  0.1723
 3172SOL     OW40009   2.729   2.032   1.487 -0.0511 -0.3665 -0.2406
 3172SOL    HW140010   2.738   2.118   1.446 -0.5092 -0.2296 -0.0709
 3172SOL    HW240011   2.819   2.001   1.500  0.1511  0.5128  0.5658
 3173SOL     OW40012   4.342   2.882   0.156 -0.0011  0.0952 -0.2515
 3173SOL    HW140013   4.354   2.862   0.249 -0.4450 -0.0724 -0.2252
 3173SOL    HW240014   4.407   2.950   0.138 -2.0506  2.6049  1.0423
 3174SOL     OW40015   3.219   6.160   0.830  0.0216 -0.0336  0.8509
 3174SOL    HW140016   3.239   6.183   0.921  0.1206 -1.6710  1.2931
 3174SOL    HW240017   3.141   6.104   0.836  0.8715 -1.3528  0.1035
 3175SOL     OW40018   5.018   4.901   1.650 -0.3037 -0.0156 -0.4688
 3175SOL    HW140019   4.974   4.935   1.727 -0.0736 -1.1079  0.1620
 3175SOL    HW240020   5.090   4.962   1.634 -0.2155  0.0885  0.3220
 3176SOL     OW40021   5.683   4.579   0.010 -0.7533  0.5485  0.0279
 3176SOL    HW140022   5.762   4.618   0.047 -0.0555 -1.0794  0.3757
 3176SOL    HW240023   5.634   4.546   0.085 -0.2386 -1.1338 -0.3259
 3177SOL     OW40024   5.526   5.067   1.246 -0.0416 -0.5096 -0.1040
 3177SOL    HW140025   5.512   5.061   1.152  2.1060 -1.2772 -0.4327
 3177SOL    HW240026   5.612   5.108   1.255 -1.1410  1.6467  1.6188
 3178SOL     OW40027   1.981   3.785  11.370  0.2343  0.5356 -0.5978
 3178SOL    HW140028   2.060   3.786  11.316  0.3775  2.3937 -0.4338
 3178SOL    HW240029   1.957   3.877  11.379 -2.3179  0.0042 -1.1483
 3179SOL     OW40030   4.999   1.183  11.629 -0.8685  0.3819  0.1733
 3179SOL    HW140031   4.961   1.264  11.662 -0.3318  0.4504  0.6367
 3179SOL    HW240032   4.986   1.119  11.699  0.4222  0.5722  0.6121
 3180SOL     OW40033   1.661   5.100   1.226 -0.1301  0.6692 -0.2678
 3180SOL    HW140034   1.649   5.129   1.317 -1.6618 -1.3341  0.2285
 3180SOL    HW240035   1.653   5.180   1.174  0.5901  1.8258  1.3227
 3181SOL     OW40036   4.215   1.595  11.742  0.0644 -0.0970  0.1669
 3181SOL    HW140037   4.164   1.640  11.674 -0.0901 -0.1445  0.2486
 3181SOL    HW240038   4.240   1.512  11.702  0.3539  0.0648  0.0137
 3182SOL     OW40039   2.493   2.338   0.444  1.1099 -0.1727  0.2580
 3182SOL    HW140040   2.516   2.285   0.520  1.5281  2.0307  1.7550
 3182SOL    HW240041   2.560   2.317   0.378  1.0869 -1.6661  0.6772
 3183SOL     OW40042   2.358   4.706   0.704 -0.4134  0.1009 -0.6325
 3183SOL    HW140043   2.385   4.704   0.796 -1.7956  0.0286 -0.2095
 3183SOL    HW240044   2.337   4.615   0.684  1.5873 -0.2152 -1.5923
 3184SOL     OW40045   4.746   6.414   0.788  0.5924 -0.4381  0.0111
 3184SOL    HW140046   4.716   6.446   0.873  2.4104  0.8175  0.2511
 3184SOL    HW240047   4.684   6.451   0.725  1.5741  2.2183  0.4702
 3185SOL     OW40048   3.204   4.883   0.201 -0.5919  0.3573  0.0389
 3185SOL    HW140049   3.144   4.908   0.271  1.1053  0.9520  1.3408
 3185SOL    HW240050   3.290   4.880   0.242  0.3764  0.0377 -1.8778
 3186SOL     OW40051   4.453   3.241  11.120  0.0803 -0.2488 -0.6316
 3186SOL    HW140052   4.471   3.324  11.163  0.7636 -0.6280 -0.1739
 3186SOL    HW240053   4.539   3.202  11.105 -0.2547 -2.2016  1.7969
 3187SOL     OW40054   0.651   3.119  11.480  0.1624  0.0297  0.2191
 3187SOL    HW140055   0.624   3.200  11.523 -1.0343 -0.2029 -0.0502
 3187SOL    HW240056   0.654   3.141  11.387  0.2968 -0.1095  0.1904
 3188SOL     OW40057   4.190   4.248   0.212 -0.5441  0.3535  0.4217
 3188SOL    HW140058   4.135   4.322   0.238 -1.6555  0.4369 -1.9326
 3188SOL    HW240059   4.209   4.264   0.120  0.4369 -1.5583  0.2497
 3189SOL     OW40060   2.281   5.810   1.178  0.0877 -0.4042  0.2287
 3189SOL    HW140061   2.318   5.756   1.109 -1.2938 -0.8824 -0.1660
 3189SOL    HW240062   2.269   5.896   1.138  1.4705 -0.0032  0.6015
 3190SOL     OW40063   0.950   4.525   0.380  0.4300 -0.1868 -0.2295
 3190SOL    HW140064   1.005   4.574   0.319 -0.1543 -0.5557 -1.0704
 3190SOL    HW240065   0.862   4.530   0.343  0.2110 -1.1273  0.1278
 3191SOL     OW40066   4.339   4.314  11.318  0.1504 -0.4563  0.1451
 3191SOL    HW140067   4.403   4.333  11.387 -0.6523  0.2262  0.7190
 3191SOL    HW240068   4.296   4.234  11.347  1.2698 -1.3734 -0.6409
 3192SOL     OW40069   2.408   3.169   1.494 -0.2441 -0.3371 -0.1861
 3192SOL    HW140070   2.395   3.077   1.470 -0.9671 -1.4215  3.7767
 3192SOL    HW240071   2.319   3.204   1.502  0.0221  0.5502 -0.9220
 3193SOL     OW40072   2.173   0.939  12.240  0.2314 -0.0895 -0.1121
 3193SOL    HW140073   2.191   1.029  12.213  1.2641 -0.1249  0.3903
 3193SOL    HW240074   2.256   0.908  12.277 -0.3832 -0.9262  0.6205
 3194SOL     OW40075   3.534   0.731   0.828 -0.1585  0.1467  0.2966
 3194SOL    HW140076   3.619   0.764   0.857 -0.6923  1.4513  0.4270
 3194SOL    HW240077   3.546   0.636   0.823  1.2599  0.2966  0.4398
 3195SOL     OW40078   4.564   1.145   1.165  0.2657 -0.1278 -0.3006
 3195SOL    HW140079   4.532   1.231   1.189  0.6084  0.1288 -0.7445
 3195SOL    HW240080   4.544   1.136   1.072 -0.3841 -0.8099 -0.1057
 3196SOL     OW40081   5.453   2.318  12.303 -0.4072  0.0268  0.5363
 3196SOL    HW140082   5.487   2.275  12.225 -0.3272 -1.3560  1.3100
 3196SOL    HW240083   5.526   2.318  12.365 -0.7261  0.3469  0.9237
 3197SOL     OW40084   4.099   2.797   0.867  0.0331 -0.0938 -0.5613
 3197SOL    HW140085   4.141   2.719   0.830 -0.8446 -0.7863 -0.1589
 3197SOL    HW240086   4.172   2.850   0.899  0.6140 -2.2792  2.1372
 3198SOL     OW40087   4.306   0.746  12.129 -0.5114 -0.2003  0.4074
 3198SOL    HW140088   4.280   0.813  12.192  0.7213  0.6593  0.0473
 3198SOL    HW240089   4.357   0.683  12.180  0.8529  0.7173  0.2524
 3199SOL     OW40090   1.621   5.496   1.176 -0.1076 -0.3582 -0.4979
 3199SOL    HW140091   1.715   5.478   1.169 -0.3783 -1.4187 -1.9110
 3199SOL    HW240092   1.580   5.421   1.134 -1.5125  1.1808 -1.9974
 3200SOL     OW40093   5.015   2.595   1.554  0.4116  0.1175 -0.6477
 3200SOL    HW140094   5.067   2.540   1.613 -0.4523 -0.6229 -0.5542
 3200SOL    HW240095   4.926   2.560   1.560  0.2374  0.2144 -2.1410
 3201SOL     OW40096   5.909   5.839   0.598  0.0196  0.3623  0.1983
 3201SOL    HW140097   5.836   5.875   0.647 -0.4434 -2.0744  1.4607
 3201SOL    HW240098   5.869   5.783   0.531  0.7128  1.3111 -1.0624
 3202SOL     OW40099   3.145   6.429   1.429  0.1868  0.3864 -0.4806
 3202SOL    HW140100   3.070   6.385   1.469  0.2270  1.5300  0.9024
 3202SOL    HW240101   3.214   6.362   1.428 -0.4558 -0.2928 -0.6228
 3203SOL     OW40102   4.046   5.978  12.320  0.5210 -0.1779 -0.0934
 3203SOL    HW140103   3.951   5.963  12.329  0.7043 -2.0875 -0.8595
 3203SOL    HW240104   4.063   6.055  12.375 -1.4768  0.2488  0.0181
 3204SOL     OW40105   4.674   1.410  12.826 -0.3688  0.3162  0.5057
 3204SOL    HW140106   4.640   1.494  12.796 -0.1089 -0.2085 -1.3629
 3204SOL    HW240107   4.758   1.400  12.782 -0.5004 -1.0095  0.4918
 3205SOL     OW40108   0.031   5.540  12.472 -0.4086 -0.0646  0.3121
 3205SOL    HW140109   0.103   5.560  12.531 -0.2230  0.8745 -0.2258
 3205SOL    HW240110   0.064   5.468  12.418 -0.5383 -0.8536  1.2387
 3206SOL     OW40111   2.686   4.642  12.679 -0.7319  0.2172  0.6126
 3206SOL    HW140112   2.708   4.728  12.713  0.0258  0.6259 -0.8204
 3206SOL    HW240113   2.752   4.583  12.717 -1.1178  0.2944  1.4167
 3207SOL     OW40114   2.320   3.300  11.921 -0.6087  0.2345 -0.1093
 3207SOL    HW140115   2.239   3.347  11.942 -0.4766  0.4939 -0.1695
 3207SOL    HW240116   2.372   3.364  11.872  0.3985  0.7234  1.5166
 3208SOL     OW40117   1.206   1.487  12.483 -0.3091 -0.0583  0.0810
 3208SOL    HW140118   1.205   1.407  12.536  0.2973 -1.5703 -2.0243
 3208SOL    HW240119   1.299   1.509  12.473 -0.5001  1.5993  1.5272
 3209SOL     OW40120   0.713   2.197  11.667 -0.1806  0.1974  0.1241
 3209SOL    HW140121   0.681   2.280  11.705  0.4328  0.0584  0.9724
 3209SOL    HW240122   0.800   2.218  11.635 -0.6196  0.2583 -1.0615
 3210SOL     OW40123   4.477   4.505  11.101 -0.4470  0.2271  0.1759
 3210SOL    HW140124   4.438   4.519  11.014 -2.0289  1.8149  1.0647
 3210SOL    HW240125   4.420   4.441  11.143  0.3003 -0.5207  0.0656
 3211SOL     OW40126   6.378   6.214  11.298  0.3891 -0.3674  1.1452
 3211SOL    HW140127   6.340   6.235  11.213  0.6555 -0.3179  1.0365
 3211SOL    HW240128   6.449   6.152  11.277 -0.2634 -1.2365  1.4376
 3212SOL     OW40129   0.396   4.841  12.289  0.0194  0.3381 -0.1313
 3212SOL    HW140130   0.367   4.866  12.377  0.1037  0.1421 -0.0489
 3212SOL    HW240131   0.364   4.912  12.233  1.5609  1.4272  0.3017
 3213SOL     OW40132   0.825   5.004  11.846  0.2918  0.1398 -0.5783
 3213SOL    HW140133   0.742   4.968  11.816 -0.9071  1.3060  1.1148
 3213SOL    HW240134   0.837   5.084  11.794 -1.3945  1.7459  1.3112
 3214SOL     OW40135   1.584   5.056  12.711  0.3968  0.3316 -0.1597
 3214SOL    HW140136   1.596   5.136  12.660 -0.7587  0.3647 -0.4030
 3214SOL    HW240137   1.531   5.082  12.786  0.0813 -0.1947 -0.1955
 3215SOL     OW40138   0.516   6.378  12.148  0.0971 -0.1893 -0.2536
 3215SOL    HW140139   0.502   6.473  12.150 -0.6968 -0.2975 -0.1983
 3215SOL    HW240140   0.518   6.352  12.241 -1.8311 -0.4954 -0.2449
 3216SOL     OW40141   0.403   5.769   0.358  0.2435  0.3885  0.0103
 3216SOL    HW140142   0.422   5.675   0.366 -0.4127  0.3078  0.7003
 3216SOL    HW240143   0.309   5.776   0.376 -0.2748  0.8831 -2.4934
 3217SOL     OW40144   5.576   3.433  12.299 -0.4006 -0.1177  0.0895
 3217SOL    HW140145   5.655   3.485  12.286  1.2217 -2.0035  1.6836
 3217SOL    HW240146   5.518   3.489  12.351 -0.5596  1.6386 -1.8812
 3218SOL     OW40147   4.979   5.680   0.706 -0.4557  0.4041 -0.2014
 3218SOL    HW140148   5.017   5.633   0.631  0.3178  0.7283 -0.0211
 3218SOL    HW240149   4.888   5.651   0.708 -0.5172  0.4672 -1.3307
 3219SOL     OW40150   1.510   1.555   0.817 -0.4698  0.6193 -0.3019
 3219SOL    HW140151   1.511   1.612   0.740 -0.5522  1.2382  0.1497
 3219SOL    HW240152   1.546   1.609   0.887 -1.0359  0.2875  0.2528
 3220SOL     OW40153   6.175   5.707  11.435 -0.4475  0.2062 -0.1912
 3220SOL    HW140154   6.114   5.749  11.375  2.0166  0.5833 -2.6010
 3220SOL    HW240155   6.256   5.698  11.386  1.2308 -1.1000  2.5379
 3221SOL     OW40156   1.597   6.448   1.199 -0.6423  0.3773 -0.6435
 3221SOL    HW140157   1.659   6.402   1.141 -1.6237 -1.3794 -0.3541
 3221SOL    HW240158   1.644   6.527   1.225  0.2208  0.7595 -3.0367
 3222SOL     OW40159   3.271   1.840  12.191  0.3769 -0.2238 -0.4881
 3222SOL    HW140160   3.271   1.914  12.131 -0.2545 -0.2585 -0.5360
 3222SOL    HW240161   3.243   1.765  12.138  0.7232 -0.4381 -0.3705
 3223SOL     OW40162   2.590   1.816  12.295  0.3737  0.3276 -0.1323
 3223SOL    HW140163   2.494   1.819  12.289  0.3915  0.1688 -0.5222
 3223SOL    HW240164   2.609   1.845  12.384  0.0792  2.3342 -0.6733
 3224SOL     OW40165   3.574   0.516   1.142 -0.6074  0.1179  0.0585
 3224SOL    HW140166   3.589   0.572   1.066  0.4768  2.3593  1.8128
 3224SOL    HW240167   3.484   0.536   1.169 -0.1228  1.2760  0.8543
 3225SOL     OW40168   4.917   4.222   1.552  0.1685 -0.1615 -0.4116
 3225SOL    HW140169   4.921   4.139   1.505  0.5526  0.7014 -1.9534
 3225SOL    HW240170   4.850   4.273   1.507 -0.8300  0.0100  1.1692
 3226SOL     OW40171   6.112   5.614   1.767  0.8091  0.1571  0.1215
 3226SOL    HW140172   6.172   5.540   1.759 -0.4639 -1.1060  1.5576
 3226SOL    HW240173   6.025   5.575   1.764 -0.1708  2.1173 -3.9561
 3227SOL     OW40174   4.881   5.853   0.167 -0.1933  0.6688 -0.1478
 3227SOL    HW140175   4.935   5.931   0.157  1.9447 -0.7817 -0.6308
 3227SOL    HW240176   4.823   5.873   0.241  0.9046  2.3679  0.3054
 3228SOL     OW40177   5.390   1.878   0.791 -0.2385 -0.2195  0.4570
 3228SOL    HW140178   5.334   1.948   0.824 -1.2620 -0.5434 -0.5069
 3228SOL    HW240179   5.336   1.835   0.724  0.9020 -1.0145  0.0293
 3229SOL     OW40180   0.170   2.005   0.482 -0.1189  0.0694  0.6925
 3229SOL    HW140181   0.190   2.094   0.451 -1.5004  0.2576  0.2688
 3229SOL    HW240182   0.206   2.002   0.571 -1.1718  1.5243  1.2231
 3230SOL     OW40183   4.759   5.266   1.023 -0.2257  0.0543 -0.9730
 3230SOL    HW140184   4.781   5.259   0.930 -1.2600 -0.2827 -1.2063
 3230SOL    HW240185   4.777   5.180   1.059 -0.0941  0.1024 -0.9248
 3231SOL     OW40186   6.062   2.046   0.670 -0.0647 -0.6581 -0.0126
 3231SOL    HW140187   5.969   2.056   0.690  0.1581  2.9091 -0.0207
 3231SOL    HW240188   6.092   2.135   0.649  3.3975 -1.6257  0.1177
 3232SOL     OW40189   1.612   1.239   0.418 -0.2497 -0.3593  0.8221
 3232SOL    HW140190   1.657   1.261   0.336  3.1423  1.0769  2.8538
 3232SOL    HW240191   1.537   1.299   0.420 -0.2308 -0.2000 -1.0387
 3233SOL     OW40192   1.049   5.797   0.076 -0.3445  0.0142 -0.6419
 3233SOL    HW140193   1.138   5.804   0.111 -0.6987  0.7287  0.1610
 3233SOL    HW240194   1.007   5.878   0.103 -0.5210  0.8527 -3.1803
 3234SOL     OW40195   0.194   6.027   1.850 -0.0765  0.5607  0.3385
 3234SOL    HW140196   0.146   6.058   1.927  0.2573  1.1605  0.3164
 3234SOL    HW240197   0.146   6.065   1.776  0.2173  0.8628  0.3009
 3235SOL     OW40198   5.648   2.277   1.735  0.3193 -0.4496  0.1037
 3235SOL    HW140199   5.569   2.243   1.695 -0.3074 -1.1761  1.8469
 3235SOL    HW240200   5.676   2.208   1.796  0.4127  1.1246  1.9250
 3236SOL     OW40201   2.079   3.640  12.780 -0.7658  0.8825 -0.4573
 3236SOL    HW140202   2.004   3.650  12.839  0.7645 -1.2941  2.0893
 3236SOL    HW240203   2.070   3.551  12.745 -0.5529  1.4258 -1.9446
 3237SOL     OW40204   0.025   3.357  12.785  0.3350 -0.7204 -0.5249
 3237SOL    HW140205  -0.038   3.355  12.714  1.6504  0.5629 -1.7866
 3237SOL    HW240206  -0.027   3.341  12.864 -1.6996  1.0553 -1.4163
 3238SOL     OW40207   1.153   3.199   1.269  0.7263  0.0495 -0.0007
 3238SOL    HW140208   1.074   3.148   1.249  1.7091 -0.7986 -2.0250
 3238SOL    HW240209   1.129   3.252   1.345 -2.0363  0.4022 -1.0153
 3239SOL     OW40210   4.350   5.570  12.668 -0.2938 -0.0895 -0.4966
 3239SOL    HW140211   4.331   5.648  12.720  0.8119  0.3191 -0.6701
 3239SOL    HW240212   4.265   5.528  12.654 -1.0724  1.6771 -1.3596
 3240SOL     OW40213   4.819   0.057   1.330  0.2517  0.5213  0.0065
 3240SOL    HW140214   4.768   0.136   1.351  0.6258  0.3136  1.9038
 3240SOL    HW240215   4.909   0.088   1.326  0.2358  0.4724 -1.0163
 3241SOL     OW40216   0.748   4.022   1.240  0.1023  0.0612  0.0579
 3241SOL    HW140217   0.678   3.960   1.257 -1.1903  0.8027 -2.1405
 3241SOL    HW240218   0.717   4.105   1.278 -0.0705  0.3167 -0.6332
 3242SOL     OW40219   0.142   4.018   0.324 -0.0371 -0.0126  0.3202
 3242SOL    HW140220   0.238   4.023   0.323 -0.0966  2.3189  1.4976
 3242SOL    HW240221   0.123   3.932   0.286  2.4949 -0.4225 -0.2152
 3243SOL     OW40222   6.272   0.127   1.426  0.3256 -0.3395 -0.0774
 3243SOL    HW140223   6.286   0.160   1.515 -0.4697 -1.6722  0.5640
 3243SOL    HW240224   6.178   0.117   1.418  0.3455  0.2674 -1.2781
 3244SOL     OW40225   2.792   0.026   0.062  0.9797 -0.4577 -0.2799
 3244SOL    HW140226   2.823   0.112   0.035  0.8089  0.1834  1.4798
 3244SOL    HW240227   2.847   0.001   0.136  1.0092 -1.8581 -0.7340
 3245SOL     OW40228   2.621   2.707   0.988 -0.3613  0.4906  0.0517
 3245SOL    HW140229   2.531   2.735   1.004 -1.0642 -2.0169  1.0410
 3245SOL    HW240230   2.657   2.692   1.075  0.7216  0.6321 -0.3576
 3246SOL     OW40231   4.673   0.294   0.783  0.5571  0.0728  0.5563
 3246SOL    HW140232   4.744   0.258   0.729  1.9929 -0.7519  2.8355
 3246SOL    HW240233   4.593   0.265   0.739  1.6417 -0.9036 -0.8842
 3247SOL     OW40234   3.386   6.413  12.192  0.6786  0.4259  0.2175
 3247SOL    HW140235   3.418   6.499  12.165  1.5680  0.3534  1.0044
 3247SOL    HW240236   3.364   6.423  12.284  0.6283 -0.1493  0.2699
 3248SOL     OW40237   2.856   2.539   0.283 -0.8554 -0.4885 -0.1451
 3248SOL    HW140238   2.836   2.479   0.211 -1.6548  3.0447 -3.1982
 3248SOL    HW240239   2.941   2.577   0.259 -2.0408  2.1994 -0.4502
 3249SOL     OW40240   1.073   6.042  11.903  0.2647  0.1735  0.1686
 3249SOL    HW140241   1.026   6.093  11.837  2.5493  3.3615  0.7728
 3249SOL    HW240242   1.007   6.026  11.971 -0.8036  1.7112 -0.4260
 3250SOL     OW40243   3.966   2.124   1.382  0.2240  0.1543 -0.1361
 3250SOL    HW140244   3.924   2.055   1.434  1.8795 -0.5706  0.2837
 3250SOL    HW240245   4.059   2.104   1.386  0.6980  2.1323 -0.4600
 3251SOL     OW40246   0.695   0.003   1.427  0.0049 -0.4301  0.4963
 3251SOL    HW140247   0.631  -0.040   1.483  1.1282 -1.8607  0.7514
 3251SOL    HW240248   0.644   0.061   1.371 -1.3357 -0.4095  1.7016
 3252SOL     OW40249   2.248   3.371   0.485 -0.1393  0.1704 -0.5828
 3252SOL    HW140250   2.275   3.396   0.573 -0.0011 -0.2083 -0.5156
 3252SOL    HW240251   2.310   3.303   0.459 -1.4003 -1.1990 -0.1691
 3253SOL     OW40252   4.891   5.585   0.180  0.2342  0.2098  0.3187
 3253SOL    HW140253   4.868   5.675   0.202 -0.4155  0.0575  0.2814
 3253SOL    HW240254   4.879   5.579   0.085  0.7624  0.2172  0.2459
 3254SOL     OW40255   1.007   3.847   0.321  0.0942  0.1258 -0.5797
 3254SOL    HW140256   1.088   3.846   0.371 -0.4087 -0.4153  0.2681
 3254SOL    HW240257   1.032   3.819   0.233  0.8792  0.3106 -0.4181
 3255SOL     OW40258   6.308   5.307   0.842 -0.0438  0.2664  0.6594
 3255SOL    HW140259   6.260   5.302   0.760 -0.7726 -2.0837  1.1628
 3255SOL    HW240260   6.254   5.363   0.898  0.0496  1.2092 -0.1617
 3256SOL     OW40261   0.492   2.685  12.661 -0.4262  0.2394  0.4460
 3256SOL    HW140262   0.572   2.638  12.639 -1.8029 -1.2887 -1.6225
 3256SOL    HW240263   0.480   2.669  12.755  0.9838 -0.6028  0.5087
 3257SOL     OW40264   2.338   3.039  11.893  0.5753  0.3223 -0.1370
 3257SOL    HW140265   2.254   3.005  11.923  0.0579  1.5304 -0.1198
 3257SOL    HW240266   2.329   3.134  11.903  1.3642  0.5787 -1.6090
 3258SOL     OW40267   0.576   2.531  11.264 -0.4270  0.6907 -0.0196
 3258SOL    HW140268   0.556   2.441  11.290 -0.5181  0.4858 -0.7870
 3258SOL    HW240269   0.524   2.546  11.185  1.9723  0.3174 -1.7912
 3259SOL     OW40270   1.253   5.922  11.269  0.2303  0.2101 -0.4522
 3259SOL    HW140271   1.166   5.891  11.296  0.3143  0.2180 -0.1702
 3259SOL    HW240272   1.283   5.858  11.206 -0.4832  0.8353 -1.4555
 3260SOL     OW40273   0.459   3.854  11.413 -0.2564  0.6429 -0.1194
 3260SOL    HW140274   0.538   3.893  11.374 -0.3534  2.3169  1.2134
 3260SOL    HW240275   0.391   3.870  11.349  0.8610 -3.4449 -2.7006
 3261SOL     OW40276   4.660   2.903  11.911 -0.1624  0.5573 -0.3870
 3261SOL    HW140277   4.694   2.814  11.896 -2.0099 -0.1062 -0.9214
 3261SOL    HW240278   4.700   2.955  11.842 -1.2024 -0.4760 -1.8160
 3262SOL     OW40279   4.860   5.180   0.083  0.1919  0.4281 -0.1414
 3262SOL    HW140280   4.855   5.275   0.099  1.0705  0.5106 -0.3230
 3262SOL    HW240281   4.891   5.144   0.166  1.4564  0.4885 -0.5670
 3263SOL     OW40282   5.191   4.365  11.079  0.0200 -0.0481  0.1878
 3263SOL    HW140283   5.192   4.455  11.047 -1.1699  0.3758  1.2547
 3263SOL    HW240284   5.105   4.356  11.120  0.1862 -1.6281  0.2287
 3264SOL     OW40285   5.536   1.662   1.761 -0.0740 -0.1375  0.5472
 3264SOL    HW140286   5.519   1.745   1.716 -0.0714 -0.2429  0.3507
 3264SOL    HW240287   5.630   1.663   1.779 -0.1723  0.1631  1.0692
 3265SOL     OW40288   5.884   3.615  11.660  0.4289  0.4102  0.5212
 3265SOL    HW140289   5.868   3.540  11.717 -1.4140  0.8062  0.5812
 3265SOL    HW240290   5.806   3.621  11.605  1.8957  0.3973 -1.6958
 3266SOL     OW40291   2.099   4.574  12.103  0.0456 -0.3904 -0.2238
 3266SOL    HW140292   2.097   4.592  12.197 -3.0828  3.5553 -0.7580
 3266SOL    HW240293   2.018   4.525  12.086  0.4560 -0.8504 -0.8754
 3267SOL     OW40294   0.269   5.220  10.947 -0.4905 -0.0218 -0.2521
 3267SOL    HW140295   0.245   5.182  10.862  0.5002 -1.5599  0.1057
 3267SOL    HW240296   0.263   5.146  11.008  3.1154 -0.1195  0.2065
 3268SOL     OW40297   1.624   0.004  11.692  0.3858  0.6593 -0.5345
 3268SOL    HW140298   1.625   0.035  11.602  2.2134  0.7023 -0.5493
 3268SOL    HW240299   1.715  -0.021  11.709 -0.2239 -0.7673  0.8229
 3269SOL     OW40300   1.866   3.520   0.075 -0.1285 -0.0478 -0.0312
 3269SOL    HW140301   1.859   3.551   0.165  0.4648 -0.0924  0.0348
 3269SOL    HW240302   1.867   3.425   0.082  2.5493 -0.0975  0.1790
 3270SOL     OW40303   0.642   5.917  11.946  1.0529 -0.0193  0.1454
 3270SOL    HW140304   0.726   5.910  11.992 -0.1628 -1.4096  2.3288
 3270SOL    HW240305   0.583   5.860  11.995 -0.9711  0.2139 -1.8521
 3271SOL     OW40306   2.358   4.027  12.014 -0.5570  0.0855  0.2593
 3271SOL    HW140307   2.268   4.023  12.046 -0.6419 -2.2352 -0.1203
 3271SOL    HW240308   2.350   4.023  11.919 -0.0698  1.2472  0.1482
 3272SOL     OW40309   5.744   0.258  12.063 -0.0377 -0.1464 -0.2927
 3272SOL    HW140310   5.654   0.228  12.060 -0.4250  0.5741  2.2212
 3272SOL    HW240311   5.739   0.352  12.045  0.2936 -0.1779 -0.5761
 3273SOL     OW40312   0.965   2.248  12.788  1.0451 -0.1044  0.0239
 3273SOL    HW140313   0.882   2.201  12.800  2.6954 -2.8440  1.7854
 3273SOL    HW240314   0.955   2.327  12.841 -0.0008 -1.0645  1.3415
 3274SOL     OW40315   1.383   3.866  12.602 -0.6644 -0.2623  0.3768
 3274SOL    HW140316   1.378   3.774  12.575  1.0844 -0.0242 -0.9567
 3274SOL    HW240317   1.438   3.907  12.536  1.1180  1.0827  2.5511
 3275SOL     OW40318   3.260   6.045  12.304 -0.1556  0.6441 -0.3884
 3275SOL    HW140319   3.276   6.064  12.397 -1.3654 -0.0284 -0.0216
 3275SOL    HW240320   3.336   5.994  12.277  0.4391  1.2437  0.0945
 3276SOL     OW40321   4.819   1.545  11.434 -0.5187  0.0717 -0.1542
 3276SOL    HW140322   4.733   1.517  11.403 -0.2778  1.0838 -1.8722
 3276SOL    HW240323   4.881   1.504  11.374  0.0260  1.3175 -0.4776
 3277SOL     OW40324   3.501   4.655  12.230  0.2399  0.2499 -0.1755
 3277SOL    HW140325   3.494   4.706  12.311  0.7061  0.3188 -0.1796
 3277SOL    HW240326   3.502   4.564  12.259  1.2296  0.2941 -0.0434
 3278SOL     OW40327   1.603   3.842   1.396 -0.4633  0.3059  0.2024
 3278SOL    HW140328   1.547   3.764   1.394  0.9696 -0.7404 -0.8609
 3278SOL    HW240329   1.672   3.824   1.333 -0.0224  2.4188 -0.0010
 3279SOL     OW40330   0.159   5.262  12.779 -0.7562 -0.2090 -0.2070
 3279SOL    HW140331   0.175   5.278  12.872  4.2900  0.4951 -0.9029
 3279SOL    HW240332   0.162   5.167  12.769  1.3412 -0.2324  0.1616
 3280SOL     OW40333   6.276   2.486  12.395  0.0896  0.1322  0.5992
 3280SOL    HW140334   6.305   2.512  12.308 -1.3980  1.2123  0.3754
 3280SOL    HW240335   6.198   2.432  12.380  1.0131 -1.4384  1.2152
 3281SOL     OW40336   3.349   4.419  11.895  0.5669 -0.9631  0.6141
 3281SOL    HW140337   3.400   4.497  11.913 -1.5278  0.5479  0.4153
 3281SOL    HW240338   3.387   4.352  11.951  2.3070  0.2282  0.9338
 3282SOL     OW40339   1.003   2.961  12.765 -0.2572  0.4493  0.6002
 3282SOL    HW140340   0.987   2.906  12.842 -1.6204  0.0621  0.0608
 3282SOL    HW240341   1.063   3.029  12.797  0.5030 -0.6371  1.5843
 3283SOL     OW40342   1.188   0.606  12.454 -0.5292  0.1950 -0.6494
 3283SOL    HW140343   1.262   0.550  12.475 -0.2864  0.8509  0.3307
 3283SOL    HW240344   1.213   0.692  12.487 -1.8409  0.3606 -0.0269
 3284SOL     OW40345   3.683   1.148   1.225  0.3938  0.0816 -0.1587
 3284SOL    HW140346   3.609   1.119   1.278  0.2708 -1.1132 -0.9417
 3284SOL    HW240347   3.748   1.077   1.234  1.6047  1.2485  0.7831
 3285SOL     OW40348   3.906   5.802   1.402  0.2273 -0.2852  0.2851
 3285SOL    HW140349   3.962   5.870   1.439 -0.2202 -0.7373  1.8782
 3285SOL    HW240350   3.948   5.720   1.428  1.7416 -0.7356 -3.0973
 3286SOL     OW40351   2.594   2.129   0.602 -0.6628 -0.2046  0.1927
 3286SOL    HW140352   2.527   2.084   0.654 -1.5039  0.8854  0.0816
 3286SOL    HW240353   2.652   2.059   0.572 -0.1120 -0.8894  2.6044
 3287SOL     OW40354   3.616   1.291  12.219 -0.1777 -0.0374  0.0081
 3287SOL    HW140355   3.522   1.285  12.232 -0.0748 -1.9976  0.1277
 3287SOL    HW240356   3.627   1.290  12.123 -0.2607 -0.0883 -0.0003
 3288SOL     OW40357   5.028   2.116   0.904  0.0215 -0.1757  0.0005
 3288SOL    HW140358   4.971   2.191   0.919 -1.0269 -0.9489  0.0255
 3288SOL    HW240359   4.990   2.071   0.828 -1.6849 -2.7472  2.1794
 3289SOL     OW40360   6.286   3.295   0.122  0.2556  0.3236 -0.0006
 3289SOL    HW140361   6.317   3.208   0.099  1.0312  0.6151 -0.0776
 3289SOL    HW240362   6.211   3.279   0.179  0.6105 -0.3990  0.2755
 3290SOL     OW40363   0.981   4.338  11.889  0.1095  0.0056  0.6351
 3290SOL    HW140364   1.004   4.412  11.834 -1.5810 -0.1714 -0.3624
 3290SOL    HW240365   0.984   4.372  11.978 -0.8172  1.3276  0.1784
 3291SOL     OW40366   4.876   2.979   1.163 -0.5156 -0.1822 -0.0763
 3291SOL    HW140367   4.808   2.918   1.133 -1.3177  1.0903 -0.9304
 3291SOL    HW240368   4.835   3.065   1.157  0.8886  0.5306  0.2672
 3292SOL     OW40369   4.787   5.336   1.330 -0.1736 -0.1538 -0.2913
 3292SOL    HW140370   4.736   5.366   1.255 -0.5669  0.0552  0.0532
 3292SOL    HW240371   4.874   5.375   1.318  0.5968 -2.2478 -2.0154
 3293SOL     OW40372   3.550   0.562   0.248 -0.1517 -0.2661  0.0266
 3293SOL    HW140373   3.534   0.600   0.334 -1.5397 -2.5088  0.8677
 3293SOL    HW240374   3.568   0.470   0.266  0.9812 -0.4956 -2.0054
 3294SOL     OW40375   2.839   3.790   1.261 -0.0977 -0.6459  0.2961
 3294SOL    HW140376   2.748   3.801   1.288 -0.3642 -0.9651 -0.4535
 3294SOL    HW240377   2.884   3.866   1.297 -1.1645  0.9632 -1.6030
 3295SOL     OW40378   4.843   0.903   0.293  0.2651  0.0733 -0.0225
 3295SOL    HW140379   4.748   0.915   0.294  0.3827  1.0770 -0.2270
 3295SOL    HW240380   4.859   0.844   0.220 -0.1881 -0.0176 -0.0527
 3296SOL     OW40381   5.877   2.392   1.572  0.3435  0.0616 -0.4437
 3296SOL    HW140382   5.801   2.392   1.631  0.8867  2.0586  0.3138
 3296SOL    HW240383   5.938   2.329   1.612 -0.2281 -0.3118 -0.1458
 3297SOL     OW40384   0.450   6.418   1.557  0.1070  0.0731 -0.5078
 3297SOL    HW140385   0.424   6.388   1.470 -0.3000 -0.3753 -0.2346
 3297SOL    HW240386   0.367   6.434   1.603  0.2621  2.5495 -0.9395
 3298SOL     OW40387   0.305   0.080   1.178 -0.7056 -0.3067  0.0815
 3298SOL    HW140388   0.242   0.130   1.229 -0.4317 -0.5257  0.6489
 3298SOL    HW240389   0.390   0.113   1.207 -0.5518  0.1225 -0.8152
 3299SOL     OW40390   5.214   2.273  10.939 -0.0737 -0.1672 -0.0844
 3299SOL    HW140391   5.167   2.193  10.961 -0.9260  0.5580  0.8644
 3299SOL    HW240392   5.213   2.324  11.020  0.7534  0.6526 -0.5732
 3300SOL     OW40393   1.509   5.272   1.045  0.0863 -0.0141 -0.3768
 3300SOL    HW140394   1.536   5.287   0.955 -0.5915  0.5816 -0.4854
 3300SOL    HW240395   1.416   5.251   1.039  0.2893 -1.1584  0.0755
 3301SOL     OW40396   2.163   1.065  11.638  0.4381 -0.3706  0.3660
 3301SOL    HW140397   2.255   1.073  11.615 -0.1145  0.8845 -1.7119
 3301SOL    HW240398   2.152   1.118  11.716  0.8163  2.8393 -1.5965
 3302SOL     OW40399   1.136   1.476   0.243  0.0975  0.2711  0.1312
 3302SOL    HW140400   1.149   1.381   0.252  2.5445  0.6170  0.9766
 3302SOL    HW240401   1.055   1.493   0.291  0.0531 -1.3050  0.6869
 3303SOL     OW40402   1.742   5.207   1.474 -0.2969 -0.4737  0.8224
 3303SOL    HW140403   1.833   5.238   1.477 -0.9698  1.6601  0.2048
 3303SOL    HW240404   1.703   5.238   1.556 -0.2018 -2.5404  1.7439
 3304SOL     OW40405   3.742   5.543   1.673 -0.0207  0.2721 -0.6288
 3304SOL    HW140406   3.710   5.621   1.629 -0.5402  0.7432  0.5715
 3304SOL    HW240407   3.665   5.504   1.714  0.5861  0.3337  0.6173
 3305SOL     OW40408   4.199   3.735   1.380 -0.0791  0.4210 -0.0600
 3305SOL    HW140409   4.142   3.810   1.396  1.1129  0.9904  1.7455
 3305SOL    HW240410   4.161   3.693   1.303 -2.1130  1.5568  0.2477
 3306SOL     OW40411   0.008   3.012   1.028 -0.4185 -0.4247 -0.3279
 3306SOL    HW140412  -0.072   2.958   1.029 -1.8381  1.5074  1.9204
 3306SOL    HW240413   0.069   2.965   1.084  0.0671 -1.8647 -1.9707
 3307SOL     OW40414   1.887   1.585   1.210  0.0232 -0.0841  0.6597
 3307SOL    HW140415   1.960   1.636   1.176 -0.5246  0.6187  0.5271
 3307SOL    HW240416   1.843   1.551   1.132  0.8308 -1.4320  0.7512
 3308SOL     OW40417   5.501   5.071   0.979 -0.1722  0.0772  0.8728
 3308SOL    HW140418   5.467   5.030   0.899  1.1321 -0.1069  0.3921
 3308SOL    HW240419   5.571   5.129   0.948 -0.7808  1.3136  1.7273
 3309SOL     OW40420   0.980   6.048  11.619  0.1146  0.3926  0.2917
 3309SOL    HW140421   0.885   6.038  11.621  0.0055  1.3250  1.5008
 3309SOL    HW240422   0.994   6.143  11.615  0.9409  0.4482  2.7414
 3310SOL     OW40423   1.413   6.298   0.480  0.0872 -0.4652  0.2401
 3310SOL    HW140424   1.489   6.329   0.431  0.0413  0.7756  0.9183
 3310SOL    HW240425   1.341   6.301   0.417  0.4975 -1.2233 -0.2807
 3311SOL     OW40426   2.030   3.242  11.613 -0.6082 -0.2479 -0.5225
 3311SOL    HW140427   2.041   3.150  11.635 -1.1429 -0.3373 -0.6109
 3311SOL    HW240428   1.935   3.253  11.604 -0.7290  0.7977  1.5454
 3312SOL     OW40429   2.163   4.569  11.641  0.1219 -0.2767  0.2178
 3312SOL    HW140430   2.232   4.624  11.604 -0.2114  1.5173  2.0717
 3312SOL    HW240431   2.179   4.570  11.736 -2.5163  0.3866  0.7461
 3313SOL     OW40432   2.138   3.133  12.281  0.1076  0.5711  0.6212
 3313SOL    HW140433   2.088   3.134  12.200 -0.5945 -1.2385  0.9608
 3313SOL    HW240434   2.082   3.083  12.342  0.8865  1.3489  2.0149
 3314SOL     OW40435   3.754   5.204   1.049  0.0110  0.0531  0.2797
 3314SOL    HW140436   3.834   5.211   1.100  1.4622  0.7124 -1.9798
 3314SOL    HW240437   3.715   5.291   1.051 -1.7970 -0.6687  2.9467
 3315SOL     OW40438   5.626   2.043   0.111  0.0448  0.1308  0.1845
 3315SOL    HW140439   5.664   2.012   0.029  2.6756  0.7236  1.0780
 3315SOL    HW240440   5.650   2.136   0.115 -1.0726  0.4083  1.0932
 3316SOL     OW40441   1.567   3.344  12.196  0.5558  0.3303 -0.7127
 3316SOL    HW140442   1.611   3.266  12.163 -0.5069 -0.8480  0.5507
 3316SOL    HW240443   1.625   3.379  12.264  0.4499 -0.1024 -0.3980
 3317SOL     OW40444   0.217   5.558  11.513 -0.0035 -0.4058  0.0926
 3317SOL    HW140445   0.277   5.492  11.547 -0.6921 -0.9926  0.1922
 3317SOL    HW240446   0.273   5.621  11.468  0.5416 -2.0391 -1.6614
 3318SOL     OW40447   0.070   3.071  11.056  0.0061  0.7950  0.5082
 3318SOL    HW140448   0.080   3.161  11.085  0.6639 -0.2515  4.0951
 3318SOL    HW240449  -0.023   3.062  11.035  0.1345  2.5100 -0.9376
 3319SOL     OW40450   0.594   2.918  11.978 -0.4669 -0.3654  0.2275
 3319SOL    HW140451   0.681   2.929  12.016 -0.5723  2.0211 -0.0342
 3319SOL    HW240452   0.580   2.824  11.975  2.1033 -0.8093  0.2693
 3320SOL     OW40453   4.274   4.762  11.443  0.3586  0.3842  0.4609
 3320SOL    HW140454   4.253   4.669  11.449  1.1551  0.1333 -0.4189
 3320SOL    HW240455   4.346   4.774  11.505  1.3056  0.0674 -0.5438
 3321SOL     OW40456   2.923   0.843  11.206  0.7094  0.5490  0.0006
 3321SOL    HW140457   2.885   0.825  11.120  0.3396  0.5568  0.1573
 3321SOL    HW240458   2.913   0.937  11.218  0.0160  0.4386  0.3866
 3322SOL     OW40459   1.346   2.949   1.417  0.6320 -0.2244  0.0848
 3322SOL    HW140460   1.401   2.873   1.399 -0.5972 -1.3739  1.0252
 3322SOL    HW240461   1.296   2.963   1.337  1.7998  0.4671 -0.5671
 3323SOL     OW40462   5.745   0.542   1.575  0.2851 -0.5012  0.0640
 3323SOL    HW140463   5.770   0.450   1.576 -3.1433 -1.5957 -1.6556
 3323SOL    HW240464   5.656   0.544   1.609 -0.1648  2.0177 -1.0093
 3324SOL     OW40465   1.092   4.160   0.218 -0.4597  0.4880 -0.1827
 3324SOL    HW140466   1.160   4.093   0.210 -0.9526 -0.0793  0.2985
 3324SOL    HW240467   1.082   4.174   0.312 -2.2785 -0.7854 -0.1313
 3325SOL     OW40468   2.860   5.377   0.735 -0.2791  0.4045  0.0517
 3325SOL    HW140469   2.955   5.363   0.742 -0.4977 -1.7003 -0.3613
 3325SOL    HW240470   2.833   5.398   0.824  0.5310  0.6492  0.2493
 3326SOL     OW40471   3.194   1.970   0.037 -0.3110  0.4597 -0.0137
 3326SOL    HW140472   3.287   1.989   0.024 -0.1188  0.7588  1.6557
 3326SOL    HW240473   3.172   2.012   0.120 -1.1673 -2.2818  1.2294
 3327SOL     OW40474   4.676   0.559   0.796  0.6190 -0.3170  0.5363
 3327SOL    HW140475   4.668   0.464   0.802  0.2989 -0.5898 -2.4671
 3327SOL    HW240476   4.770   0.575   0.804  0.8682 -1.0991 -0.5469
 3328SOL     OW40477   1.831   2.203   1.210 -0.3311  0.3003 -0.0560
 3328SOL    HW140478   1.868   2.216   1.297  0.4867 -1.1771 -0.1477
 3328SOL    HW240479   1.831   2.108   1.198 -0.5813  0.4699 -1.6068
 3329SOL     OW40480   3.311   4.541  12.502 -0.3347  0.7408  0.3408
 3329SOL    HW140481   3.390   4.490  12.486  0.1688  0.8089  2.2803
 3329SOL    HW240482   3.241   4.476  12.510 -0.4362  0.6591 -1.0657
 3330SOL     OW40483   2.729   6.382   1.119  0.2217 -0.2066  0.4484
 3330SOL    HW140484   2.705   6.403   1.209  2.9000  0.7078  1.0607
 3330SOL    HW240485   2.823   6.365   1.123  0.7580  1.4272 -2.4087
 3331SOL     OW40486   6.091   6.392   1.133 -0.4879  0.1534 -0.1366
 3331SOL    HW140487   6.164   6.341   1.097 -0.3262 -0.0007  0.3897
 3331SOL    HW240488   6.092   6.473   1.083 -0.8410 -0.4113 -1.0865
 3332SOL     OW40489   3.757   4.134  12.231 -0.1533  0.3400 -1.0957
 3332SOL    HW140490   3.665   4.108  12.223 -0.1588 -0.0956  0.1771
 3332SOL    HW240491   3.761   4.221  12.190 -1.9579  2.0409  1.9802
 3333SOL     OW40492   3.785   1.466   0.126 -0.5071  0.8994  0.8926
 3333SOL    HW140493   3.753   1.550   0.091 -0.8078  0.6212  0.4972
 3333SOL    HW240494   3.726   1.401   0.089  3.0065 -0.2243 -3.4734
 3334SOL     OW40495   2.887   2.712   0.497 -0.4315  1.1848 -0.2530
 3334SOL    HW140496   2.822   2.675   0.557 -0.0101 -0.3753 -0.6934
 3334SOL    HW240497   2.865   2.674   0.412  0.5673  1.2691 -0.5617
 3335SOL     OW40498   0.966   4.135  11.432  0.2875  0.0062 -0.1901
 3335SOL    HW140499   0.946   4.228  11.425  0.0827  0.0233  0.5151
 3335SOL    HW240500   1.037   4.121  11.370  1.8203  1.0870  1.2107
 3336SOL     OW40501   1.553   1.268  11.631 -0.7143  0.3010  0.3427
 3336SOL    HW140502   1.559   1.173  11.628 -1.0395  0.3042 -1.1819
 3336SOL    HW240503   1.463   1.287  11.603 -0.2363  1.0884 -0.7339
 3337SOL     OW40504   3.866   0.277  11.813  0.3428  0.1405 -0.1306
 3337SOL    HW140505   3.861   0.258  11.907 -1.2158 -0.2952 -0.2764
 3337SOL    HW240506   3.959   0.274  11.793  0.5576 -2.0467  0.9477
 3338SOL     OW40507   2.849   2.749  12.197 -0.2614 -0.3045 -0.4516
 3338SOL    HW140508   2.807   2.715  12.118 -1.4102  0.6733 -0.2828
 3338SOL    HW240509   2.939   2.718  12.191 -0.6098 -1.1759 -1.5880
 3339SOL     OW40510   5.496   6.107  11.791 -0.6392  0.4766  0.5866
 3339SOL    HW140511   5.503   6.173  11.859  0.0282  1.1134 -0.0717
 3339SOL    HW240512   5.586   6.078  11.776 -0.8365 -0.0208  0.3299
 3340SOL     OW40513   1.380   4.708  11.147 -0.3429 -0.0503  0.2353
 3340SOL    HW140514   1.346   4.644  11.210 -1.5250  0.4568  0.1337
 3340SOL    HW240515   1.458   4.744  11.190  1.5083 -2.8594 -0.4995
 3341SOL     OW40516   0.109   1.023   0.713  0.0236 -0.2893 -0.6649
 3341SOL    HW140517   0.183   1.049   0.768  0.1443  1.7982 -1.7142
 3341SOL    HW240518   0.118   1.078   0.635 -2.1016 -0.6844 -1.2237
 3342SOL     OW40519   6.235   5.635  12.412  0.0315  0.6825 -0.3357
 3342SOL    HW140520   6.314   5.592  12.446 -1.3055 -0.5749  1.3387
 3342SOL    HW240521   6.259   5.661  12.322  1.7891 -1.1540 -0.4691
 3343SOL     OW40522   1.279   5.545  12.541 -0.1303 -0.0254  0.0419
 3343SOL    HW140523   1.200   5.504  12.576  1.5313 -1.7139  2.1690
 3343SOL    HW240524   1.265   5.639  12.552 -1.3630 -0.3424  1.4905
 3344SOL     OW40525   6.077   3.831   1.376  0.2219 -0.3190 -0.0763
 3344SOL    HW140526   6.030   3.890   1.318  0.7660  1.0190  0.7697
 3344SOL    HW240527   6.009   3.789   1.428 -0.1318  0.6681  0.2934
 3345SOL     OW40528   1.018   4.550  12.676 -0.3343  0.0924  0.0485
 3345SOL    HW140529   0.988   4.515  12.760 -1.0723  2.8139  1.0109
 3345SOL    HW240530   0.938   4.569  12.627  0.0442  0.3433 -0.4892
 3346SOL     OW40531   1.965   0.343   0.099 -0.5751  0.4772 -0.1738
 3346SOL    HW140532   1.881   0.370   0.137  1.6746  3.9818  3.0379
 3346SOL    HW240533   1.990   0.414   0.040  0.1417 -0.5652 -1.1761
 3347SOL     OW40534   1.670   5.352   1.722 -0.6622 -0.2275  0.3167
 3347SOL    HW140535   1.727   5.428   1.709  0.5931 -1.4790 -2.2570
 3347SOL    HW240536   1.581   5.386   1.706 -0.3825  1.1244  1.4572
 3348SOL     OW40537   0.693   0.533  12.260  0.0250  0.0792  0.3806
 3348SOL    HW140538   0.759   0.556  12.325  0.4698  1.0579 -0.3934
 3348SOL    HW240539   0.736   0.467  12.205 -0.5860 -1.2626  1.4463
 3349SOL     OW40540   2.767   0.897   1.474 -0.0237 -0.1052 -0.6658
 3349SOL    HW140541   2.788   0.815   1.518  0.0625  0.1394 -0.2482
 3349SOL    HW240542   2.827   0.900   1.399  0.3316 -0.1778 -0.3893
 3350SOL     OW40543   0.865   3.400  11.488 -0.3746 -0.1354 -0.4089
 3350SOL    HW140544   0.844   3.468  11.551 -1.7496  1.7100 -2.6728
 3350SOL    HW240545   0.798   3.333  11.501  1.1760 -1.3103  2.0525
 3351SOL     OW40546   6.445   0.660   1.583  0.2116  0.0538 -0.1665
 3351SOL    HW140547   6.437   0.752   1.558 -1.1004 -0.4678 -1.9009
 3351SOL    HW240548   6.358   0.637   1.616  0.8582 -0.3047  1.4158
 3352SOL     OW40549   1.063   2.223   1.364  0.2887 -0.0480  0.8314
 3352SOL    HW140550   1.123   2.209   1.290 -0.0911 -1.0682  0.6999
 3352SOL    HW240551   1.020   2.306   1.344 -0.6322 -0.8315 -0.7165
 3353SOL     OW40552   6.150   6.421   0.607  0.0835  0.1054  0.4743
 3353SOL    HW140553   6.057   6.427   0.585 -0.0796  0.5417  1.2456
 3353SOL    HW240554   6.196   6.459   0.531 -0.2365 -1.8808 -0.7892
 3354SOL     OW40555   4.923   5.941   1.469  0.1802 -0.3607  0.5329
 3354SOL    HW140556   4.862   5.901   1.407  0.9919 -1.1225  0.1840
 3354SOL    HW240557   4.880   5.933   1.554  0.0689 -1.5317  0.3947
 3355SOL     OW40558   1.044   5.255   2.003 -0.3446  0.3312  0.7944
 3355SOL    HW140559   1.103   5.283   2.073 -1.2730  0.3330  1.5945
 3355SOL    HW240560   1.010   5.337   1.967 -0.1444  0.3223  0.5867
 3356SOL     OW40561   5.357   2.490   1.273  0.3207 -0.0887  0.5214
 3356SOL    HW140562   5.345   2.585   1.271  0.5790 -0.0621 -0.9128
 3356SOL    HW240563   5.299   2.457   1.205  0.9867 -0.8588  0.3078
 3357SOL     OW40564   5.300   4.804   1.315  0.1788  0.1497  0.6414
 3357SOL    HW140565   5.253   4.871   1.266  0.4293 -0.1265  0.0143
 3357SOL    HW240566   5.314   4.732   1.253  0.6579 -0.1368  1.0589
 3358SOL     OW40567   0.440   6.048   0.412  0.3801 -0.5227  0.0020
 3358SOL    HW140568   0.518   6.073   0.362  1.8065 -2.5365  1.0917
 3358SOL    HW240569   0.421   5.959   0.383 -1.5599 -0.0758 -0.2167
 3359SOL     OW40570   5.488   2.802   0.851  0.3985  0.1744  0.0814
 3359SOL    HW140571   5.406   2.756   0.837 -0.2375  1.5788 -1.0300
 3359SOL    HW240572   5.532   2.800   0.766  0.5461  1.2260  0.1218
 3360SOL     OW40573   0.443   1.652  12.529  0.2455  0.7691  0.0442
 3360SOL    HW140574   0.486   1.601  12.597  1.5407  2.1769  0.3085
 3360SOL    HW240575   0.362   1.683  12.570  0.8446  1.3107  0.8373
 3361SOL     OW40576   5.664   5.869  11.705 -0.4226 -0.2007  0.1965
 3361SOL    HW140577   5.704   5.931  11.644  0.1276 -0.5152  0.2281
 3361SOL    HW240578   5.725   5.865  11.779 -2.4720  2.4511  2.2335
 3362SOL     OW40579   3.128   1.563  11.597 -0.0645  0.1967 -0.1092
 3362SOL    HW140580   3.081   1.495  11.550  0.3544  0.5951 -1.1474
 3362SOL    HW240581   3.209   1.522  11.626 -1.3967 -0.7729  2.5422
 3363SOL     OW40582   1.019   0.268   0.927  0.5242 -0.4967 -0.3825
 3363SOL    HW140583   1.098   0.214   0.921  1.0054  0.2519 -1.1232
 3363SOL    HW240584   0.955   0.223   0.871  1.1493  0.0354 -1.5749
 3364SOL     OW40585   2.648   4.033   0.585  0.4538  0.7588 -0.1866
 3364SOL    HW140586   2.570   3.997   0.543  0.4126 -0.3319  0.7957
 3364SOL    HW240587   2.661   4.118   0.542 -0.3196  0.2429 -1.4942
 3365SOL     OW40588   6.444   5.664   1.142 -0.2169  0.3283 -0.4862
 3365SOL    HW140589   6.493   5.646   1.222  0.9392 -1.6889 -1.5693
 3365SOL    HW240590   6.496   5.731   1.097  0.1989  0.0322 -0.4512
 3366SOL     OW40591   0.818   1.945   0.408  0.2135  0.5128  0.4164
 3366SOL    HW140592   0.907   1.925   0.381 -0.2272 -1.0005 -0.0243
 3366SOL    HW240593   0.780   1.861   0.430 -1.0965  1.1397  0.6619
 3367SOL     OW40594   4.311   5.944  11.465  0.2857  0.5741 -0.1220
 3367SOL    HW140595   4.303   6.034  11.436 -0.6057  0.6744  0.4024
 3367SOL    HW240596   4.400   5.939  11.501  0.4810  1.1294 -0.5144
 3368SOL     OW40597   5.637   0.685  12.575 -0.2762  0.1732  0.5723
 3368SOL    HW140598   5.682   0.634  12.508  0.1889 -0.3537  1.2709
 3368SOL    HW240599   5.545   0.661  12.564 -0.2992  0.6425 -0.3410
 3369SOL     OW40600   2.502   3.657  12.798 -0.7222 -0.7226 -0.6926
 3369SOL    HW140601   2.441   3.726  12.825  0.2511 -0.4258  0.9054
 3369SOL    HW240602   2.451   3.577  12.803 -0.8803 -0.5592  1.2517
 3370SOL     OW40603   1.048   5.422  12.608 -0.2310 -0.4104  0.0523
 3370SOL    HW140604   0.972   5.467  12.572 -0.6649  1.9950  3.5435
 3370SOL    HW240605   1.012   5.361  12.672  0.7234 -0.2150  0.7876
 3371SOL     OW40606   4.021   1.497   0.232  0.3297 -0.2614 -0.5037
 3371SOL    HW140607   4.033   1.558   0.159 -0.8615 -0.1221 -0.6021
 3371SOL    HW240608   3.932   1.465   0.222 -0.3842  0.8333  1.6647
 3372SOL     OW40609   1.650   4.372   0.522  0.1401  0.1544 -0.0276
 3372SOL    HW140610   1.633   4.429   0.448  0.2354  0.1969 -0.0172
 3372SOL    HW240611   1.660   4.431   0.597 -2.5919 -0.0032  0.5643
 3373SOL     OW40612   4.374   0.532   0.462 -0.2079 -0.0897 -0.4286
 3373SOL    HW140613   4.346   0.454   0.415 -0.9402  1.1453 -2.1694
 3373SOL    HW240614   4.339   0.605   0.410  1.6229  1.4270  0.3571
 3374SOL     OW40615   3.647   1.735   0.107 -0.4393  0.4852  0.7373
 3374SOL    HW140616   3.551   1.729   0.102 -0.3493  0.0652 -0.9234
 3374SOL    HW240617   3.663   1.792   0.182 -2.0109  1.1914  0.5812
 3375SOL     OW40618   4.316   5.769   0.927  0.4372  0.6431 -0.2298
 3375SOL    HW140619   4.309   5.674   0.933 -1.4671  0.7572 -0.0076
 3375SOL    HW240620   4.331   5.798   1.017  1.2718  0.5619 -0.3317
 3376SOL     OW40621   4.739   4.582   0.048 -0.3910 -0.1529  0.0047
 3376SOL    HW140622   4.668   4.546   0.102  0.7613 -0.4783  1.3765
 3376SOL    HW240623   4.781   4.506   0.009 -0.0239 -0.0661  0.2236
 3377SOL     OW40624   6.402   0.978   1.098 -0.6546 -0.3290  0.0161
 3377SOL    HW140625   6.351   1.051   1.062  1.3252  1.3216  0.4176
 3377SOL    HW240626   6.487   0.984   1.055  0.2496 -1.1169  1.5902
 3378SOL     OW40627   5.610   6.184   0.988 -0.1533  0.0649  0.2486
 3378SOL    HW140628   5.617   6.261   0.932  2.8726 -0.9440 -0.9651
 3378SOL    HW240629   5.693   6.181   1.036 -1.7628 -0.3287  3.3045
 3379SOL     OW40630   5.826   3.354   1.128 -0.7347  0.0961 -0.1297
 3379SOL    HW140631   5.760   3.290   1.102 -1.0669  0.9683 -1.5825
 3379SOL    HW240632   5.872   3.376   1.047  0.3809  0.5844  0.5994
 3380SOL     OW40633   0.583   0.536  11.145  0.3329  0.5148  0.6361
 3380SOL    HW140634   0.663   0.548  11.197  0.0589  0.8302  0.9922
 3380SOL    HW240635   0.512   0.561  11.205  0.0315  1.2496 -0.0123
 3381SOL     OW40636   0.896   1.900   0.872 -0.4623  0.0763 -0.2580
 3381SOL    HW140637   0.888   1.993   0.895  1.4548 -0.0479  1.0864
 3381SOL    HW240638   0.980   1.893   0.828  0.1537 -1.2266  1.0168
 3382SOL     OW40639   6.061   2.348  11.296 -0.7395 -0.4490 -0.2658
 3382SOL    HW140640   6.016   2.308  11.221  1.3481 -1.2023 -1.1917
 3382SOL    HW240641   6.110   2.422  11.259 -1.9663  1.0151  0.8940
 3383SOL     OW40642   1.489   4.833   0.582 -0.2183  0.2281  0.0326
 3383SOL    HW140643   1.530   4.859   0.665 -1.4553  0.1325  0.6854
 3383SOL    HW240644   1.508   4.906   0.523 -1.8303  1.6909  1.2398
 3384SOL     OW40645   5.724   1.956  12.367  0.3245  0.4937 -0.1180
 3384SOL    HW140646   5.731   2.045  12.401  1.1090  0.0740  0.8735
 3384SOL    HW240647   5.777   1.903  12.427  0.5875 -0.5042 -1.1859
 3385SOL     OW40648   4.084   3.442  11.443 -0.1578  0.5744 -0.3898
 3385SOL    HW140649   4.035   3.507  11.391 -1.0084  1.4168  1.3834
 3385SOL    HW240650   4.056   3.358  11.407  0.6173  1.1204 -2.4355
 3386SOL     OW40651   1.936   4.870  12.220 -0.4174  0.6769  0.1895
 3386SOL    HW140652   1.900   4.937  12.163 -1.8410  0.2782  0.5791
 3386SOL    HW240653   2.000   4.824  12.166 -0.1707  1.6700 -0.3949
 3387SOL     OW40654   4.030   3.550   0.019 -0.4396 -0.0953  0.7803
 3387SOL    HW140655   4.069   3.562   0.106 -1.2680 -1.7931  1.4271
 3387SOL    HW240656   4.088   3.487  -0.024 -1.4408 -1.2640  1.0922
 3388SOL     OW40657   1.996   2.984  11.728  0.3587 -0.0092  0.2286
 3388SOL    HW140658   1.907   2.960  11.754  0.0542  0.6362 -0.2073
 3388SOL    HW240659   2.033   2.904  11.691  0.8731 -1.0366  2.7670
 3389SOL     OW40660   3.608   1.890   0.947 -0.2110  0.0203 -0.1281
 3389SOL    HW140661   3.547   1.913   0.877  1.1393  1.9205 -0.7682
 3389SOL    HW240662   3.596   1.796   0.959 -2.0018  0.0248 -1.4194
 3390SOL     OW40663   5.168   5.411   0.011  0.8085  0.2236 -0.0633
 3390SOL    HW140664   5.236   5.396  -0.056 -0.4001 -2.2849 -0.8423
 3390SOL    HW240665   5.088   5.424  -0.039  0.1217 -0.3602  0.8554
 3391SOL     OW40666   0.240   4.608  12.267  0.4115  0.3335  0.1072
 3391SOL    HW140667   0.307   4.666  12.230  1.2766  0.3951  1.6929
 3391SOL    HW240668   0.157   4.645  12.235  1.0903 -1.0039 -3.6997
 3392SOL     OW40669   5.414   5.396  11.906  0.4949  0.1442 -0.6719
 3392SOL    HW140670   5.447   5.429  11.823  1.8193 -0.0861 -0.2726
 3392SOL    HW240671   5.443   5.305  11.908  1.3724  0.4176  0.4524
 3393SOL     OW40672   5.457   2.732   0.055 -0.1663 -0.7377 -0.3263
 3393SOL    HW140673   5.434   2.765   0.142  0.7596 -0.1368 -0.3000
 3393SOL    HW240674   5.440   2.805  -0.004  4.4102  0.9534  0.0393
 3394SOL     OW40675   4.892   0.576  12.578  0.2286  0.0556 -0.1877
 3394SOL    HW140676   4.917   0.627  12.655  0.6118  0.7637 -0.7712
 3394SOL    HW240677   4.860   0.641  12.515 -2.3637 -0.7175  0.2207
 3395SOL     OW40678   1.514   0.147  11.890  0.6044  0.0242 -0.2010
 3395SOL    HW140679   1.420   0.127  11.891  0.1912  1.7125 -0.8724
 3395SOL    HW240680   1.549   0.096  11.817 -0.1326  0.6520 -1.0210
 3396SOL     OW40681   5.431   5.654  11.108 -0.7013  0.7268  0.0442
 3396SOL    HW140682   5.343   5.691  11.112 -0.8334  0.9863 -2.9121
 3396SOL    HW240683   5.418   5.562  11.085 -0.2586  1.0579 -1.7218
 3397SOL     OW40684   4.631   1.264  12.376 -0.0429 -0.1543 -0.3050
 3397SOL    HW140685   4.606   1.217  12.455  1.2304  0.3294  0.4126
 3397SOL    HW240686   4.639   1.196  12.309  1.6640 -0.9964  0.6896
 3398SOL     OW40687   0.752   2.271  12.168 -0.2604  0.0654  0.3399
 3398SOL    HW140688   0.810   2.218  12.223  0.2615 -1.0651 -1.2255
 3398SOL    HW240689   0.666   2.231  12.180 -0.0638 -0.4735 -0.0039
 3399SOL     OW40690   4.007   1.486  12.262 -0.0031 -0.3434 -0.0795
 3399SOL    HW140691   3.997   1.404  12.213  0.6846  0.3825 -1.5012
 3399SOL    HW240692   3.928   1.536  12.242  0.5360  0.1893 -0.9679
 3400SOL     OW40693   1.851   2.701  11.644 -0.4184  0.1265  0.1366
 3400SOL    HW140694   1.819   2.662  11.563  0.0392 -2.3215  1.0213
 3400SOL    HW240695   1.780   2.757  11.674 -2.8816 -3.0109  0.6530
 3401SOL     OW40696   1.532   5.492  12.580 -0.2039 -0.0474 -0.1678
 3401SOL    HW140697   1.554   5.534  12.663  0.5030 -0.6389 -0.0473
 3401SOL    HW240698   1.436   5.496  12.576 -0.2559 -0.1035  0.7221
 3402SOL     OW40699   5.729   2.010  11.389  0.1363 -0.5898  0.3589
 3402SOL    HW140700   5.754   2.030  11.479  2.1309 -1.5322  0.0732
 3402SOL    HW240701   5.766   2.081  11.337  2.3099 -1.9123 -0.0504
 3403SOL     OW40702   6.232   1.023  11.791  0.0848  0.0243  1.0623
 3403SOL    HW140703   6.139   1.045  11.794 -0.2122 -0.6891 -1.2623
 3403SOL    HW240704   6.276   1.107  11.778 -0.5143  0.0927 -0.8251
 3404SOL     OW40705   5.076   3.168  11.007  0.2678  0.3905  0.3195
 3404SOL    HW140706   5.048   3.172  11.099 -1.0152  2.0067 -0.0947
 3404SOL    HW240707   5.030   3.241  10.965  0.7278 -0.4010 -1.6507
 3405SOL     OW40708   2.065   2.760   0.775  0.7425 -0.0869  0.1339
 3405SOL    HW140709   2.012   2.839   0.783  1.6873  0.7975 -1.6785
 3405SOL    HW240710   2.035   2.703   0.846 -0.8212  1.3895  0.7145
 3406SOL     OW40711   0.640   0.822   1.355 -0.2614  0.2173 -0.4689
 3406SOL    HW140712   0.599   0.847   1.438  0.7910  1.1133 -0.1978
 3406SOL    HW240713   0.567   0.813   1.294 -1.1020 -0.8245  0.6250
 3407SOL     OW40714   1.600   1.773   0.656 -0.1818 -0.1159  0.5833
 3407SOL    HW140715   1.686   1.734   0.640 -0.0768  0.3427  0.0125
 3407SOL    HW240716   1.616   1.845   0.717 -0.1369  0.0885  0.3283
 3408SOL     OW40717   1.513   5.048  12.252  0.2724 -0.0403  0.3281
 3408SOL    HW140718   1.478   5.077  12.168  1.2757  2.2559  0.6353
 3408SOL    HW240719   1.545   4.959  12.234 -1.7690 -0.5940 -1.0126
 3409SOL     OW40720   4.395   6.365   1.082  0.2276 -0.4605 -0.0065
 3409SOL    HW140721   4.400   6.285   1.030 -2.1299 -0.0108 -1.0230
 3409SOL    HW240722   4.321   6.351   1.141  0.4932  0.5581  0.6013
 3410SOL     OW40723   6.155   3.288  12.177  0.9724 -0.3177  0.3456
 3410SOL    HW140724   6.126   3.315  12.089 -0.2250 -0.2458  0.7462
 3410SOL    HW240725   6.205   3.363  12.209 -1.6037  1.1755  1.1058
 3411SOL     OW40726   5.992   1.317   0.651 -0.3218  0.1928  0.1574
 3411SOL    HW140727   6.075   1.312   0.698 -0.0782  1.3152 -0.1088
 3411SOL    HW240728   5.929   1.350   0.716 -0.9085 -1.9678  0.7439
 3412SOL     OW40729   4.409   5.952   0.292  0.9732  0.5510 -0.3616
 3412SOL    HW140730   4.429   5.862   0.266  1.8701  0.4293  0.6740
 3412SOL    HW240731   4.387   5.946   0.385 -0.3111  1.2276 -0.5973
 3413SOL     OW40732   5.870   0.557  11.749 -0.0366 -0.3740 -0.3780
 3413SOL    HW140733   5.782   0.531  11.720 -0.0214  0.0823 -0.8495
 3413SOL    HW240734   5.854   0.606  11.830 -0.1583 -0.8547 -0.1055
 3414SOL     OW40735   2.677   2.595   0.690 -0.4087  0.2371 -0.0568
 3414SOL    HW140736   2.701   2.524   0.631  0.9224  0.4544  0.1748
 3414SOL    HW240737   2.654   2.551   0.772  0.1460  0.0558  0.0051
 3415SOL     OW40738   1.019   5.340  12.168 -0.0634 -0.0766  0.3081
 3415SOL    HW140739   0.972   5.382  12.096  0.2253 -0.3027 -0.0169
 3415SOL    HW240740   1.065   5.412  12.211  1.0571 -0.1441 -0.7215
 3416SOL     OW40741   2.140   3.349   0.106  0.3461  0.0746  0.6878
 3416SOL    HW140742   2.114   3.272   0.158  0.2246  0.0778  0.6309
 3416SOL    HW240743   2.142   3.421   0.169 -0.8954  0.3151  0.4877
 3417SOL     OW40744   1.314   1.969  11.672 -0.1921  0.0289  0.2429
 3417SOL    HW140745   1.380   2.037  11.684 -0.3250 -0.0680  1.5873
 3417SOL    HW240746   1.365   1.889  11.661 -0.0776 -0.0292  1.1662
 3418SOL     OW40747   4.738   2.348   0.253  0.0041  0.3050 -0.2322
 3418SOL    HW140748   4.668   2.379   0.310  0.2146  2.5610 -1.0713
 3418SOL    HW240749   4.814   2.341   0.310 -0.2242  0.7271  0.1371
 3419SOL     OW40750   5.850   4.441  11.090  0.6361  0.8602  0.5612
 3419SOL    HW140751   5.797   4.495  11.148 -0.0990  0.6838  0.0589
 3419SOL    HW240752   5.937   4.442  11.130  0.1821  0.8695  1.5877
 3420SOL     OW40753   6.440   0.344   0.215 -0.1393 -0.1525  0.4048
 3420SOL    HW140754   6.429   0.299   0.132 -1.1680  0.2978  0.2843
 3420SOL    HW240755   6.464   0.274   0.277  1.0794 -0.4193 -0.3418
 3421SOL     OW40756   4.651   0.892  11.464 -0.2869  0.0142  0.0137
 3421SOL    HW140757   4.676   0.803  11.439  1.2272  0.3953  0.1090
 3421SOL    HW240758   4.698   0.949  11.403 -1.6395  0.7646 -0.3769
 3422SOL     OW40759   4.301   4.100   0.714  0.4356 -0.4490 -0.2084
 3422SOL    HW140760   4.245   4.105   0.636 -1.1628 -1.4346  0.8378
 3422SOL    HW240761   4.250   4.051   0.778 -0.3766  4.1768  3.2054
 3423SOL     OW40762   5.954   1.685   1.342  0.7947  0.2112  0.0531
 3423SOL    HW140763   6.017   1.702   1.272  1.1189  0.1305  0.3245
 3423SOL    HW240764   5.902   1.611   1.310  2.3697 -1.2827  0.8123
 3424SOL     OW40765   3.286   1.186  11.296 -0.1640 -0.2472  0.1695
 3424SOL    HW140766   3.377   1.216  11.293 -0.0128 -0.5215  1.2539
 3424SOL    HW240767   3.234   1.265  11.283  0.2188 -0.1684 -0.9862
 3425SOL     OW40768   4.996   4.976   1.387 -0.2097  0.0836  0.0736
 3425SOL    HW140769   5.000   4.934   1.473 -2.2669 -1.5152 -0.5475
 3425SOL    HW240770   4.953   5.060   1.403 -1.6663 -0.7135  0.4578
 3426SOL     OW40771   4.913   0.646   0.905  0.0814 -0.2944 -0.2059
 3426SOL    HW140772   4.953   0.670   0.989 -1.0385  2.9691 -0.4819
 3426SOL    HW240773   4.985   0.648   0.842  0.9501 -2.8510  0.5548
 3427SOL     OW40774   5.727   3.876  11.243  0.1837  0.2017  0.2421
 3427SOL    HW140775   5.710   3.965  11.274 -0.8807  0.6989 -1.5920
 3427SOL    HW240776   5.677   3.819  11.302 -1.4555  1.0727 -0.2388
 3428SOL     OW40777   2.099   4.555  12.379  0.3824  0.2250 -0.0449
 3428SOL    HW140778   2.052   4.622  12.427  0.3137  0.1131  0.0462
 3428SOL    HW240779   2.147   4.506  12.447  0.1392 -0.0495 -0.0667
 3429SOL     OW40780   1.713   6.382  12.849 -0.8071  0.6476  0.4802
 3429SOL    HW140781   1.648   6.355  12.783 -1.3405 -0.0868  1.2864
 3429SOL    HW240782   1.753   6.460  12.811 -0.2507 -0.4208 -1.2682
 3430SOL     OW40783   2.270   3.300  11.546  0.4881 -0.4248 -0.0422
 3430SOL    HW140784   2.175   3.296  11.562  0.3717  0.2341 -0.5255
 3430SOL    HW240785   2.302   3.364  11.609  0.2309  1.1579 -1.4340
 3431SOL     OW40786   1.965   5.336  11.834  0.4636  0.3268 -0.7067
 3431SOL    HW140787   2.045   5.310  11.880  0.7790 -0.3755 -1.6136
 3431SOL    HW240788   1.913   5.382  11.900  1.7520  1.0930 -0.1874
 3432SOL     OW40789   4.216   1.623  12.066  0.1185 -0.5302 -0.0452
 3432SOL    HW140790   4.191   1.706  12.106  0.8819 -0.4110  0.2013
 3432SOL    HW240791   4.183   1.628  11.977  0.2488  0.0776 -0.0612
 3433SOL     OW40792   4.394   3.406  10.889 -0.7245  0.7186  0.2974
 3433SOL    HW140793   4.379   3.335  10.951  0.5081  0.1942  0.0234
 3433SOL    HW240794   4.389   3.486  10.942  0.1398  0.2882  1.0428
 3434SOL     OW40795   4.375   4.041  12.724 -0.0063  0.0462  0.3181
 3434SOL    HW140796   4.310   3.995  12.777 -0.6419 -0.3933 -0.8065
 3434SOL    HW240797   4.323   4.084  12.656  0.5987  2.1585  1.1008
 3435SOL     OW40798   4.904   1.933  12.013  0.0138 -0.0864  0.6757
 3435SOL    HW140799   4.823   1.923  11.963  0.4249 -1.3510  0.2171
 3435SOL    HW240800   4.956   1.995  11.961 -0.6927  0.8307  1.0393
 3436SOL     OW40801   4.945   4.390  11.181  0.3952  0.7855 -0.0543
 3436SOL    HW140802   4.850   4.376  11.171  0.5674 -0.7530  0.1866
 3436SOL    HW240803   4.952   4.464  11.242 -0.7186 -1.3585  2.9223
 3437SOL     OW40804   0.311   4.851  11.887  0.3186 -0.1855 -0.4698
 3437SOL    HW140805   0.399   4.856  11.850  0.9426  1.3116  1.0764
 3437SOL    HW240806   0.313   4.910  11.962 -1.4114 -1.7046  0.8554
 3438SOL     OW40807   5.260   3.452  11.693  0.3270 -0.8230 -0.7102
 3438SOL    HW140808   5.294   3.486  11.610  0.5961 -0.7992 -0.5897
 3438SOL    HW240809   5.284   3.517  11.758 -0.7000 -0.3779 -0.7526
 3439SOL     OW40810   0.891   2.113  12.383 -0.9337 -0.2321 -0.1955
 3439SOL    HW140811   0.885   2.027  12.423 -0.9837 -0.4274 -0.6145
 3439SOL    HW240812   0.855   2.173  12.448 -0.9929 -0.5402  0.0554
 3440SOL     OW40813   0.705   2.464  11.742 -0.8134  0.2899  0.4507
 3440SOL    HW140814   0.754   2.492  11.665 -0.5432 -0.4571  0.3448
 3440SOL    HW240815   0.760   2.488  11.816 -0.2839 -0.5212  0.3328
 3441SOL     OW40816   5.043   1.957  12.349  0.7076 -0.2070  0.4543
 3441SOL    HW140817   4.948   1.956  12.341  0.2745 -0.2278  4.2034
 3441SOL    HW240818   5.064   2.045  12.380  2.0336  0.0063 -0.9218
 3442SOL     OW40819   3.737   0.557  11.796 -0.2125  0.2733 -0.3899
 3442SOL    HW140820   3.648   0.543  11.763 -0.4286  0.2555  0.1899
 3442SOL    HW240821   3.788   0.486  11.757 -0.7303 -0.5075  0.3219
 3443SOL     OW40822   1.336   5.384  12.033 -0.4675 -0.3447 -0.0318
 3443SOL    HW140823   1.333   5.440  12.111 -0.8762  0.2125 -0.4397
 3443SOL    HW240824   1.306   5.440  11.962  0.7265 -0.5895 -0.7565
 3444SOL     OW40825   4.356   2.572  12.099  0.5053  0.2973  0.9248
 3444SOL    HW140826   4.376   2.639  12.034 -0.0342  0.8310  1.2991
 3444SOL    HW240827   4.420   2.588  12.169 -1.2693  2.1799  2.2467
 3445SOL     OW40828   5.883   3.627   1.426 -0.2991  0.6808 -0.3836
 3445SOL    HW140829   5.893   3.544   1.380  0.4064  0.9549 -0.7481
 3445SOL    HW240830   5.896   3.605   1.518  0.3653  0.4513 -0.5237
 3446SOL     OW40831   4.288   5.203   0.050  0.8013 -0.0335  0.5445
 3446SOL    HW140832   4.336   5.121   0.041  0.2605 -0.3466  0.4930
 3446SOL    HW240833   4.246   5.198   0.136 -1.6699 -1.1473 -0.6275
 3447SOL     OW40834   1.724   0.749  12.357 -0.3867  0.1703 -0.2233
 3447SOL    HW140835   1.801   0.704  12.392 -0.0840  1.2468  0.5693
 3447SOL    HW240836   1.678   0.683  12.306  0.1681 -0.9546  0.6900
 3448SOL     OW40837   0.671   1.063  11.812 -0.6440 -0.4803 -0.1597
 3448SOL    HW140838   0.702   1.019  11.891 -0.4573 -1.1937 -0.6118
 3448SOL    HW240839   0.651   1.152  11.839 -0.8053 -0.7852  0.7387
 3449SOL     OW40840   0.824   2.849  11.213 -0.1546  0.1041  0.3097
 3449SOL    HW140841   0.750   2.828  11.271 -1.2032  1.4044 -0.5143
 3449SOL    HW240842   0.808   2.797  11.134  0.8622 -1.0701  0.8416
 3450SOL     OW40843   1.284   0.225   0.695  0.2623  0.4912 -0.0063
 3450SOL    HW140844   1.222   0.208   0.624 -0.5235  0.0009  0.7765
 3450SOL    HW240845   1.268   0.316   0.720 -0.0796  0.3927  0.1347
 3451SOL     OW40846   0.381   0.223   0.905 -0.1470  0.1792  0.5289
 3451SOL    HW140847   0.337   0.223   0.989 -0.3591 -2.1601  0.4726
 3451SOL    HW240848   0.474   0.230   0.926 -0.3041  2.1932  0.7754
 3452SOL     OW40849   5.003   2.694   0.902  0.7075  0.4922  0.0009
 3452SOL    HW140850   4.973   2.604   0.905  0.4334  0.5828 -0.0290
 3452SOL    HW240851   5.093   2.690   0.934  1.1462  0.0129 -1.2044
 3453SOL     OW40852   2.268   0.211   1.643 -0.0167 -0.3837  0.3569
 3453SOL    HW140853   2.295   0.303   1.639 -0.6191 -0.2069  0.3292
 3453SOL    HW240854   2.333   0.165   1.591 -0.7340  0.2728 -1.1669
 3454SOL     OW40855   1.991   5.721   0.938 -0.0315  0.8886  0.3327
 3454SOL    HW140856   1.911   5.755   0.898 -0.1466  2.8652  2.1026
 3454SOL    HW240857   2.060   5.781   0.909  0.5707  0.1164  0.1037
 3455SOL     OW40858   4.244   1.859   0.043 -0.1725 -0.4172  0.0933
 3455SOL    HW140859   4.285   1.831   0.124  1.8021  1.9883  0.0209
 3455SOL    HW240860   4.317   1.877  -0.016 -1.5479 -2.0499 -2.2837
 3456SOL     OW40861   2.197   4.940   1.680  0.4919 -0.0250 -0.7610
 3456SOL    HW140862   2.142   4.882   1.627  1.1193 -0.0504 -1.3892
 3456SOL    HW240863   2.279   4.892   1.691  0.2656 -0.1514  0.5042
 3457SOL     OW40864   4.252   4.565   1.232  0.2850  0.4023  0.8509
 3457SOL    HW140865   4.285   4.654   1.243  0.1536  0.6599 -0.7188
 3457SOL    HW240866   4.167   4.576   1.189 -0.7643 -0.3873  2.6040
 3458SOL     OW40867   3.132   5.142   0.466 -0.0107 -0.4174 -0.1790
 3458SOL    HW140868   3.076   5.219   0.456 -0.1977 -0.3457  1.2480
 3458SOL    HW240869   3.072   5.068   0.458 -0.3579 -0.3383  1.4614
 3459SOL     OW40870   0.345   4.545  11.946 -0.1583  0.3715  0.6971
 3459SOL    HW140871   0.418   4.546  12.007 -1.3026  0.8097  2.1075
 3459SOL    HW240872   0.378   4.591  11.869  2.2583 -2.5594 -0.2680
 3460SOL     OW40873   3.085   1.755  12.709 -0.1424 -0.4354  0.3100
 3460SOL    HW140874   3.109   1.820  12.775  0.3969 -0.5468  0.2288
 3460SOL    HW240875   3.067   1.675  12.760  1.0458 -0.7449  0.2824
 3461SOL     OW40876   0.142   4.938   0.723 -0.0062 -0.3120 -0.3256
 3461SOL    HW140877   0.150   4.871   0.656  2.0771 -0.9082  0.4082
 3461SOL    HW240878   0.187   5.014   0.686 -0.6997  0.0652 -0.4107
 3462SOL     OW40879   4.116   0.163  11.516 -0.0502  0.2540 -0.4795
 3462SOL    HW140880   4.086   0.182  11.606 -0.4680 -0.0060 -0.5633
 3462SOL    HW240881   4.204   0.200  11.513  1.6888 -3.2750  1.3495
 3463SOL     OW40882   0.413   2.286   0.588 -0.1571 -0.1378  0.4820
 3463SOL    HW140883   0.467   2.223   0.541  0.1742  0.8866 -0.5613
 3463SOL    HW240884   0.446   2.284   0.678 -0.4770 -1.7691  0.5876
 3464SOL     OW40885   2.282   1.040   0.773 -0.1839  0.0676  0.0482
 3464SOL    HW140886   2.284   1.073   0.862  1.4930  0.6503 -0.1885
 3464SOL    HW240887   2.233   1.106   0.723  0.9988  0.9847  0.0700
 3465SOL     OW40888   1.641   4.145   1.503  0.0956  0.1145 -0.0405
 3465SOL    HW140889   1.666   4.078   1.566  2.4349  1.2654  0.3672
 3465SOL    HW240890   1.698   4.130   1.428 -2.3670 -0.9798 -1.8466
 3466SOL     OW40891   2.611   1.306   1.026  0.1587 -0.4792 -0.1986
 3466SOL    HW140892   2.564   1.245   1.083 -0.2507 -0.3665 -0.4148
 3466SOL    HW240893   2.591   1.276   0.938 -0.3002  0.1519 -0.3171
 3467SOL     OW40894   3.335   1.385   0.473  0.1630 -0.0299 -0.1088
 3467SOL    HW140895   3.257   1.437   0.450 -0.9430 -2.2737 -1.8437
 3467SOL    HW240896   3.308   1.335   0.550  0.9243  1.2224  1.0171
 3468SOL     OW40897   3.423   4.552   1.243 -0.3426  0.2872 -0.1298
 3468SOL    HW140898   3.428   4.464   1.281 -0.6878 -0.1064 -0.9796
 3468SOL    HW240899   3.372   4.602   1.307 -1.3624 -0.5036 -0.2896
 3469SOL     OW40900   3.827   0.325   1.441 -0.0027 -0.0090  0.0629
 3469SOL    HW140901   3.829   0.395   1.507 -0.9828 -1.7426  2.0749
 3469SOL    HW240902   3.734   0.310   1.426  0.2122 -0.0218 -1.3363
 3470SOL     OW40903   4.728   0.652  11.354 -0.3553  0.4325  0.0122
 3470SOL    HW140904   4.753   0.689  11.270  0.3992 -0.4133 -0.1458
 3470SOL    HW240905   4.810   0.634  11.399 -0.6923 -0.9429  0.1212
 3471SOL     OW40906   5.676   2.690  12.441 -0.5642  0.1159  0.1760
 3471SOL    HW140907   5.706   2.683  12.532 -4.7055 -0.0380  1.7217
 3471SOL    HW240908   5.703   2.778  12.414  0.7046  0.1971  1.5598
 3472SOL     OW40909   3.909   2.708   0.207 -0.2043 -0.4197 -0.4583
 3472SOL    HW140910   3.978   2.751   0.156  0.2311  0.1191  0.5537
 3472SOL    HW240911   3.930   2.615   0.202 -0.0633 -0.3548 -1.1039
 3473SOL     OW40912   4.369   1.478   0.975 -0.7170  0.5546 -0.2067
 3473SOL    HW140913   4.396   1.426   0.899 -0.4642 -0.1767  0.3711
 3473SOL    HW240914   4.394   1.567   0.952 -2.1691  0.6289 -1.6818
 3474SOL     OW40915   0.039   5.935   1.501 -0.3736 -1.0615  0.2854
 3474SOL    HW140916  -0.018   6.001   1.461  1.2397  0.7271  0.8353
 3474SOL    HW240917  -0.013   5.899   1.573 -1.0841 -0.0069  0.3128
 3475SOL     OW40918   5.678   2.224   1.241 -0.5980  0.3054 -0.2711
 3475SOL    HW140919   5.744   2.269   1.189 -1.0395  0.6926 -0.5046
 3475SOL    HW240920   5.702   2.131   1.236 -0.1799  0.4222 -0.4954
 3476SOL     OW40921   5.153   6.098   1.111  0.3805 -0.1713 -0.7584
 3476SOL    HW140922   5.234   6.108   1.059  1.3124  0.7432  0.7876
 3476SOL    HW240923   5.120   6.187   1.120  0.2609 -0.3064  0.2334
 3477SOL     OW40924   2.271   6.363   0.833 -0.2350  0.1423  0.4665
 3477SOL    HW140925   2.217   6.441   0.848 -0.4228  0.2168 -0.5480
 3477SOL    HW240926   2.212   6.290   0.847 -0.2336  0.1859  0.7224
 3478SOL     OW40927   0.121   6.203  12.501 -0.3378  0.1796 -0.2578
 3478SOL    HW140928   0.048   6.153  12.464 -0.9788  1.6969 -1.1380
 3478SOL    HW240929   0.193   6.192  12.439  0.2278 -1.3454  0.6268
 3479SOL     OW40930   3.479   1.992  12.847 -0.3792 -0.2274  0.2715
 3479SOL    HW140931   3.489   1.959  12.757 -0.4558 -0.5321  0.3754
 3479SOL    HW240932   3.551   1.953  12.895 -1.2461 -1.3354  0.7074
 3480SOL     OW40933   5.835   5.563  12.238 -0.3533 -0.2298 -0.6614
 3480SOL    HW140934   5.851   5.484  12.289  0.5029 -0.6281 -1.5248
 3480SOL    HW240935   5.741   5.563  12.223 -0.5905 -0.2361  0.6878
 3481SOL     OW40936   2.668   6.217   1.565  0.5782 -0.4300 -0.1546
 3481SOL    HW140937   2.718   6.168   1.631 -0.6946  0.3554  1.4593
 3481SOL    HW240938   2.589   6.164   1.552 -0.1838  0.4805  0.6097
 3482SOL     OW40939   1.085   3.736   1.133  0.4306  0.0946 -0.1817
 3482SOL    HW140940   1.055   3.752   1.043  3.3279  1.6718 -0.9830
 3482SOL    HW240941   1.063   3.816   1.180 -1.1028 -0.7381  0.5850
 3483SOL     OW40942   1.816   5.820   1.763 -0.1672  0.1913 -0.3944
 3483SOL    HW140943   1.881   5.840   1.831 -0.9989 -0.8791  0.7805
 3483SOL    HW240944   1.748   5.886   1.774 -0.0610  0.3187 -0.5107
 3484SOL     OW40945   6.180   2.328   1.635  0.1066 -0.1266  0.1727
 3484SOL    HW140946   6.109   2.271   1.664  0.8645 -0.5575  1.2671
 3484SOL    HW240947   6.255   2.269   1.624  0.5651  0.4677  0.0657
 3485SOL     OW40948   4.443   1.558   1.423  0.2890  0.3474 -0.0260
 3485SOL    HW140949   4.457   1.592   1.511 -1.3076  2.1249 -0.3967
 3485SOL    HW240950   4.358   1.593   1.397  0.1630 -1.1425 -1.8218
 3486SOL     OW40951   3.979   2.185   0.495 -0.5899 -0.1050  0.2150
 3486SOL    HW140952   3.944   2.199   0.583  0.2347 -2.0389  0.8903
 3486SOL    HW240953   3.923   2.117   0.457 -0.5750  0.2996 -0.5571
 3487SOL     OW40954   1.830   2.277  12.310 -0.1700 -0.1812 -0.3948
 3487SOL    HW140955   1.752   2.328  12.286  0.0784  0.6224  0.4136
 3487SOL    HW240956   1.871   2.329  12.380  0.4175 -1.2153  0.0481
 3488SOL     OW40957   5.032   2.947   1.369  0.5748  0.0241  0.4005
 3488SOL    HW140958   4.997   2.958   1.457  1.9786 -0.2773  1.0153
 3488SOL    HW240959   4.954   2.943   1.313 -0.4357 -1.5485  1.8113
 3489SOL     OW40960   2.860   0.225   0.457  0.2423 -0.2417  0.2210
 3489SOL    HW140961   2.883   0.230   0.550  0.9533  0.1160  0.0350
 3489SOL    HW240962   2.893   0.140   0.428 -2.2953 -1.5462  0.8787
 3490SOL     OW40963   0.198   0.763   0.252 -0.2105  0.8970 -0.1296
 3490SOL    HW140964   0.126   0.739   0.194  1.4765 -0.9782 -1.6020
 3490SOL    HW240965   0.159   0.763   0.339 -2.4798  2.2912 -1.0643
 3491SOL     OW40966   0.546   3.174   1.791  0.1995 -0.9208 -0.1721
 3491SOL    HW140967   0.464   3.218   1.768 -0.5303 -0.4830  2.8212
 3491SOL    HW240968   0.614   3.230   1.754 -0.7980  1.3391  1.1512
 3492SOL     OW40969   5.832   4.423   0.246 -0.5582  0.4028 -0.7026
 3492SOL    HW140970   5.825   4.361   0.174  0.0163 -0.1571 -0.2781
 3492SOL    HW240971   5.889   4.492   0.213 -0.7023  0.3989 -0.9578
 3493SOL     OW40972   4.317   0.040  12.112  0.6183 -0.0504  0.3971
 3493SOL    HW140973   4.333   0.129  12.080  3.0068 -0.2455  0.8406
 3493SOL    HW240974   4.298  -0.011  12.032 -1.1744  0.8807  0.1837
 3494SOL     OW40975   5.191   1.029   0.828 -0.4590  0.2398 -0.6907
 3494SOL    HW140976   5.216   1.064   0.742  1.0356  0.3414 -0.2440
 3494SOL    HW240977   5.108   0.985   0.812  0.8504 -1.7466 -2.7574
 3495SOL     OW40978   1.221   4.753   0.621 -0.1169  0.1140 -0.3261
 3495SOL    HW140979   1.310   4.777   0.593  0.0872 -0.5324 -0.2607
 3495SOL    HW240980   1.171   4.834   0.615  0.8809  0.8946  1.2780
 3496SOL     OW40981   4.221   5.361   0.750  0.0021 -0.3125  0.1879
 3496SOL    HW140982   4.164   5.429   0.712 -0.2503 -0.6620 -0.0599
 3496SOL    HW240983   4.180   5.279   0.725  0.9928 -0.5830 -0.5818
 3497SOL     OW40984   3.246   2.095  12.503 -0.1099 -0.4252 -0.3055
 3497SOL    HW140985   3.311   2.141  12.556 -0.0653 -0.0031 -0.7248
 3497SOL    HW240986   3.162   2.123  12.540 -0.0622 -0.8379  0.1242
 3498SOL     OW40987   4.518   3.075   0.089  0.1450  0.0888  0.0936
 3498SOL    HW140988   4.482   3.163   0.094  1.1368  0.6853 -2.1891
 3498SOL    HW240989   4.576   3.069   0.165 -1.5954  0.5586  1.5129
 3499SOL     OW40990   4.892   4.252   0.643  0.0661 -0.3554  0.2406
 3499SOL    HW140991   4.828   4.185   0.670  1.2190 -0.9780  1.5709
 3499SOL    HW240992   4.907   4.303   0.723 -0.5660  1.3466 -0.6806
 3500SOL     OW40993   1.260   4.886  11.332  0.0526  0.2852 -0.6678
 3500SOL    HW140994   1.276   4.810  11.389 -0.3768  0.3163 -0.5018
 3500SOL    HW240995   1.203   4.853  11.264  1.4980 -0.0479 -1.7671
 3501SOL     OW40996   6.072   5.909  12.341 -0.3913 -0.0420 -0.0204
 3501SOL    HW140997   6.067   5.844  12.271  0.1534  0.5517 -0.6134
 3501SOL    HW240998   6.010   5.878  12.407 -1.1073 -0.4531 -0.8826
 3502SOL     OW40999   6.025   3.706   0.576 -0.0973  0.1773 -0.1965
 3502SOL    HW141000   6.117   3.728   0.565  0.5328 -2.6819 -1.6367
 3502SOL    HW241001   6.025   3.635   0.641 -1.1875 -0.2224 -0.6073
 3503SOL     OW41002   2.257   1.346   0.811  0.3663  0.3004 -0.3517
 3503SOL    HW141003   2.174   1.321   0.851  0.2296 -0.9439 -1.3692
 3503SOL    HW241004   2.235   1.420   0.755 -0.0510  0.0037 -0.5805
 3504SOL     OW41005   4.874   5.924  12.600  0.2823  0.7704 -0.0027
 3504SOL    HW141006   4.954   5.968  12.629  1.2853 -0.8241 -0.2018
 3504SOL    HW241007   4.904   5.858  12.537 -1.0206 -0.7016  0.8172
 3505SOL     OW41008   2.340   0.087  11.671 -0.6422  0.2192  0.5958
 3505SOL    HW141009   2.362   0.107  11.580 -2.2567  0.7397  0.3039
 3505SOL    HW241010   2.425   0.070  11.712  0.2621  1.5685 -0.6182
 3506SOL     OW41011   1.702   4.588  11.935  0.1631 -0.1415  0.3092
 3506SOL    HW141012   1.730   4.577  12.026  2.0809  0.6517 -0.1141
 3506SOL    HW241013   1.774   4.550  11.884 -0.2574  0.6112 -0.8757
 3507SOL     OW41014   6.161   3.528  11.659 -0.5886 -0.0120  0.2324
 3507SOL    HW141015   6.164   3.599  11.722  0.0698 -1.2126  1.6168
 3507SOL    HW241016   6.097   3.466  11.694 -2.0902  0.4202 -1.5891
 3508SOL     OW41017   4.868   2.384   0.012 -0.6091  0.2299 -0.4491
 3508SOL    HW141018   4.836   2.344   0.093  1.6102 -2.4333 -0.7356
 3508SOL    HW241019   4.806   2.455  -0.006 -1.6634  0.3844  3.0742
 3509SOL     OW41020   4.689   4.356  11.153 -0.6293  0.0647 -0.7413
 3509SOL    HW141021   4.670   4.263  11.144 -0.6351  0.1976 -2.4549
 3509SOL    HW241022   4.622   4.399  11.100  0.7221  0.8991 -1.8367
 3510SOL     OW41023   4.138   0.951  12.552 -0.1533 -0.0873 -0.0508
 3510SOL    HW141024   4.105   0.870  12.589  0.1252 -0.3401 -0.3515
 3510SOL    HW241025   4.069   1.015  12.569  0.2128 -0.0406  1.4512
 3511SOL     OW41026   6.043   3.737   1.095  1.1837  0.6892 -0.0835
 3511SOL    HW141027   5.959   3.773   1.068 -0.1600 -1.3061  1.0855
 3511SOL    HW241028   6.059   3.776   1.181  0.5293 -0.2311  0.4749
 3512SOL     OW41029   0.168   4.043  11.459  0.1361  0.3849  0.1985
 3512SOL    HW141030   0.198   3.977  11.397  0.5817  2.5919 -2.0877
 3512SOL    HW241031   0.211   4.124  11.432 -1.9030  2.0678  1.5940
 3513SOL     OW41032   4.940   5.136   0.452  0.1788 -0.6247 -0.4667
 3513SOL    HW141033   4.947   5.063   0.390 -0.0640 -1.4561  0.4611
 3513SOL    HW241034   4.990   5.207   0.411  1.0230 -1.5359 -1.0584
 3514SOL     OW41035   2.308   1.882  12.228 -0.2622 -0.5722 -0.0381
 3514SOL    HW141036   2.267   1.798  12.247 -0.8075 -0.4304 -0.5642
 3514SOL    HW241037   2.341   1.874  12.139  0.7707 -0.6450  0.3392
 3515SOL     OW41038   0.807   3.926  11.528  0.6551  0.2579 -0.3119
 3515SOL    HW141039   0.792   3.946  11.620 -1.8759  0.6024 -0.7431
 3515SOL    HW241040   0.869   3.993  11.498 -0.1610  1.4686  0.6324
 3516SOL     OW41041   6.292   0.087   0.390 -0.4256 -0.0401 -0.2102
 3516SOL    HW141042   6.339   0.138   0.456  1.3404 -1.2342 -0.4748
 3516SOL    HW241043   6.257   0.153   0.330  1.7233  0.9418 -0.5089
 3517SOL     OW41044   4.355   5.442   0.253  0.0071 -0.1040  0.0762
 3517SOL    HW141045   4.303   5.366   0.281  1.2381 -0.8069  0.5090
 3517SOL    HW241046   4.306   5.478   0.179 -0.5425 -1.3902 -0.2135
 3518SOL     OW41047   4.885   0.472  12.252 -0.4465 -0.3049  0.4542
 3518SOL    HW141048   4.944   0.532  12.298 -2.3673  1.0596  1.2791
 3518SOL    HW241049   4.934   0.390  12.246  1.6347  0.8434  0.7733
 3519SOL     OW41050   1.447   4.875  11.782 -0.1678  0.2583  0.2038
 3519SOL    HW141051   1.450   4.958  11.830 -1.1101  1.2712 -1.4166
 3519SOL    HW241052   1.364   4.835  11.807  0.1621 -0.0881  0.7731
 3520SOL     OW41053   4.425   0.840  12.459 -0.7635  0.1095 -0.1153
 3520SOL    HW141054   4.357   0.893  12.419 -0.5992  1.1725  0.9420
 3520SOL    HW241055   4.498   0.843  12.397 -0.7306  1.1983 -0.0360
 3521SOL     OW41056   1.782   1.499   0.975  0.0317 -0.3481 -0.2247
 3521SOL    HW141057   1.740   1.444   0.910 -1.6113  2.2935 -1.6016
 3521SOL    HW241058   1.736   1.583   0.968  2.3873  1.2359  1.6654
 3522SOL     OW41059   0.232   2.878  11.152  0.1112 -0.4710 -0.6218
 3522SOL    HW141060   0.185   2.931  11.087  1.0289  0.0749 -0.8614
 3522SOL    HW241061   0.322   2.911  11.149  0.0765 -0.0747  1.2967
 3523SOL     OW41062   5.127   0.653   0.713 -0.4134  0.1982  0.3524
 3523SOL    HW141063   5.222   0.640   0.724 -0.5433 -1.0992  0.1177
 3523SOL    HW241064   5.120   0.716   0.642  0.2750 -0.1960 -0.0846
 3524SOL     OW41065   6.434   2.311  12.823 -0.4649 -0.9668  0.4146
 3524SOL    HW141066   6.436   2.404  12.849 -0.9922 -0.8758  0.1434
 3524SOL    HW241067   6.493   2.268  12.885  1.9723 -0.0379 -1.1162
 3525SOL     OW41068   1.020   5.587   0.428 -0.1540  0.1455  0.3145
 3525SOL    HW141069   0.978   5.509   0.465  0.4236 -1.0186 -1.3529
 3525SOL    HW241070   1.044   5.561   0.339  1.7932  1.5983  0.3477
 3526SOL     OW41071   5.645   4.171   0.172 -0.9452  0.3529 -0.6506
 3526SOL    HW141072   5.717   4.135   0.224 -1.5243 -0.0266 -0.0924
 3526SOL    HW241073   5.686   4.204   0.093 -0.3128 -0.9908 -0.9037
 3527SOL     OW41074   3.326   4.413  12.825 -0.1740 -0.0868 -0.4235
 3527SOL    HW141075   3.249   4.464  12.802  0.2596  1.1047  0.6159
 3527SOL    HW241076   3.384   4.475  12.870  2.6359 -0.1930 -3.5341
 3528SOL     OW41077   3.388   1.482   1.379 -0.7314  0.0864 -0.4682
 3528SOL    HW141078   3.412   1.404   1.429  1.1786  0.2958 -0.9612
 3528SOL    HW241079   3.439   1.475   1.298  0.0566  2.1491 -0.2204
 3529SOL     OW41080   3.143   0.106   0.702  0.1263 -0.0889 -0.2415
 3529SOL    HW141081   3.063   0.063   0.733 -0.9242  1.2469 -0.9623
 3529SOL    HW241082   3.202   0.105   0.777 -1.5055  1.0664  1.1317
 3530SOL     OW41083   1.769   6.263   1.070  0.1605  0.1087 -0.1525
 3530SOL    HW141084   1.741   6.203   1.139 -0.3270  0.6794  0.1565
 3530SOL    HW241085   1.863   6.248   1.062 -0.1123 -1.3663 -0.7546
 3531SOL     OW41086   4.724   3.234   1.121  0.2898  0.1573 -0.7053
 3531SOL    HW141087   4.637   3.261   1.149 -0.2036 -1.2929 -0.7226
 3531SOL    HW241088   4.734   3.270   1.033  0.3938  1.7072 -0.0890
 3532SOL     OW41089   0.494   5.443  10.937  0.0098 -0.3790  0.2226
 3532SOL    HW141090   0.439   5.433  11.015 -1.4753 -0.7112 -0.8280
 3532SOL    HW241091   0.504   5.354  10.904  0.3497 -0.2006 -0.1583
 3533SOL     OW41092   4.527   3.358   0.546 -0.1568  0.1597 -0.2240
 3533SOL    HW141093   4.609   3.321   0.513 -0.6853 -2.7849  1.4424
 3533SOL    HW241094   4.504   3.305   0.622 -2.7125  2.0295  0.4823
 3534SOL     OW41095   4.016   0.108   1.396  0.1713 -0.2406  0.3626
 3534SOL    HW141096   3.962   0.182   1.423  1.6012  0.9562  0.1221
 3534SOL    HW241097   4.019   0.113   1.300  0.2035 -0.6661  0.3375
 3535SOL     OW41098   3.234   1.029   0.209 -0.2658 -0.2590 -0.0523
 3535SOL    HW141099   3.262   1.010   0.119 -0.9507 -1.3687 -0.0564
 3535SOL    HW241100   3.315   1.039   0.258  0.1612 -1.8858 -0.3673
 3536SOL     OW41101   2.022   0.625   1.264  0.6056 -0.0612  0.5192
 3536SOL    HW141102   2.101   0.678   1.251  0.0945  0.5089 -0.3466
 3536SOL    HW241103   1.975   0.630   1.180  0.7096 -2.1807  0.2709
 3537SOL     OW41104   0.666   4.813   0.259  0.8455  1.0674  0.0811
 3537SOL    HW141105   0.650   4.905   0.239 -2.2477  0.5891 -0.1817
 3537SOL    HW241106   0.658   4.769   0.174 -0.5824  0.2997  0.5761
 3538SOL     OW41107   1.954   1.844   0.660 -0.7519 -0.2354  0.2243
 3538SOL    HW141108   1.920   1.930   0.636 -0.4282  0.0169  0.6496
 3538SOL    HW241109   2.024   1.827   0.598  1.3824  1.2687  2.0860
 3539SOL     OW41110   1.544   0.492   0.718  0.4922 -0.0166 -0.0214
 3539SOL    HW141111   1.451   0.476   0.736  0.5288 -0.7960 -0.4375
 3539SOL    HW241112   1.557   0.584   0.737 -0.2980  0.0284  0.3504
 3540SOL     OW41113   2.782   1.375   0.414  0.0337 -0.3844  0.2051
 3540SOL    HW141114   2.772   1.362   0.508 -0.1408 -1.7135  0.0210
 3540SOL    HW241115   2.874   1.396   0.402  0.0379 -0.1283  0.6787
 3541SOL     OW41116   1.586   0.968   0.449 -0.2150  0.6429 -0.3863
 3541SOL    HW141117   1.581   1.058   0.483  0.0516  0.2731  0.6647
 3541SOL    HW241118   1.674   0.962   0.413  0.4042  0.3025  1.0858
 3542SOL     OW41119   0.020   6.020  12.221 -0.2446  0.2337  0.1504
 3542SOL    HW141120   0.101   5.987  12.182 -0.4998 -3.7067  2.3918
 3542SOL    HW241121  -0.049   5.987  12.162 -0.3605 -0.6425  0.7509
 3543SOL     OW41122   5.821   1.992   0.358  1.0355  0.1971  0.0604
 3543SOL    HW141123   5.908   2.027   0.338  1.5188 -1.3210 -0.6287
 3543SOL    HW241124   5.762   2.037   0.297  1.6445 -0.2231 -0.8549
 3544SOL     OW41125   4.511   2.259   0.760 -0.9916  0.0225  0.6661
 3544SOL    HW141126   4.591   2.259   0.707 -0.7490 -0.9996  1.0152
 3544SOL    HW241127   4.451   2.202   0.713 -1.3073  0.3193  0.7101
 3545SOL     OW41128   5.583   4.850   1.392 -0.0539 -0.5814  0.0400
 3545SOL    HW141129   5.608   4.914   1.325  0.5372 -2.1104 -1.2841
 3545SOL    HW241130   5.491   4.830   1.373  0.6837 -2.6342 -1.8376
 3546SOL     OW41131   4.626   5.575  12.663 -0.1875  0.1464  0.3235
 3546SOL    HW141132   4.620   5.560  12.569 -0.0301 -0.9840  0.4842
 3546SOL    HW241133   4.538   5.559  12.696 -0.8292  2.7450  0.1097
 3547SOL     OW41134   5.219   3.991   0.254  0.2862 -0.2188 -0.2490
 3547SOL    HW141135   5.128   3.984   0.228 -0.0596  0.4844  0.7329
 3547SOL    HW241136   5.262   4.031   0.179  0.1499 -2.1217 -1.4082
 3548SOL     OW41137   4.111   4.893   0.953 -0.3439  0.3732  0.2754
 3548SOL    HW141138   4.033   4.850   0.917 -1.4232  1.6125  1.0236
 3548SOL    HW241139   4.120   4.973   0.902  0.2595  0.3869  0.4008
 3549SOL     OW41140   0.918   0.579  11.932 -0.1862  0.1294  0.2444
 3549SOL    HW141141   0.838   0.529  11.950  1.6892 -4.3564 -2.1112
 3549SOL    HW241142   0.960   0.589  12.018 -1.2853 -1.3914  1.0085
 3550SOL     OW41143   0.446   0.055  11.753  0.0538 -0.1247  0.4097
 3550SOL    HW141144   0.378   0.091  11.811  0.0240  0.0692  0.2550
 3550SOL    HW241145   0.465   0.126  11.692 -0.4725 -0.5853 -0.3078
 3551SOL     OW41146   0.093   4.353  12.208  0.2906  0.0119  0.1744
 3551SOL    HW141147   0.098   4.295  12.284  1.9105  0.1928  0.2322
 3551SOL    HW241148   0.183   4.384  12.195 -0.1699  0.8927 -1.1137
 3552SOL     OW41149   6.012   4.045   0.177 -0.4245 -0.4397 -0.6705
 3552SOL    HW141150   5.918   4.027   0.184 -0.1704 -1.4059  0.7796
 3552SOL    HW241151   6.040   4.062   0.267  0.9232 -0.8851 -0.9788
 3553SOL     OW41152   1.388   1.114  12.560  0.7423  0.4685 -0.3787
 3553SOL    HW141153   1.427   1.093  12.645 -1.7145  1.7315  1.1755
 3553SOL    HW241154   1.376   1.209  12.562 -3.7027  0.1069  0.0332
 3554SOL     OW41155   3.938   4.764  11.951 -0.3239  0.0466  0.0842
 3554SOL    HW141156   3.850   4.801  11.954 -0.2523  0.1625  1.3282
 3554SOL    HW241157   3.991   4.823  12.005  0.0720 -1.1296  1.0318
 3555SOL     OW41158   1.679   6.277   1.616 -0.3426  0.1284  0.2524
 3555SOL    HW141159   1.760   6.321   1.591 -0.1317 -0.1454  0.4576
 3555SOL    HW241160   1.624   6.282   1.537  0.6468 -1.5057 -0.6033
 3556SOL     OW41161   2.763   2.412  11.762 -0.3825 -0.4943 -0.3442
 3556SOL    HW141162   2.678   2.386  11.725  0.1208 -1.4981 -0.8173
 3556SOL    HW241163   2.828   2.376  11.702  0.4081  2.3118 -1.3578
 3557SOL     OW41164   5.361   3.173  11.870  0.1673 -0.3102 -0.5227
 3557SOL    HW141165   5.370   3.217  11.955 -0.0070  1.5962 -1.4465
 3557SOL    HW241166   5.436   3.204  11.819 -0.6588 -0.0756 -1.6259
 3558SOL     OW41167   5.246   3.995   1.399  0.0037 -0.3734  0.3739
 3558SOL    HW141168   5.201   3.980   1.315 -0.2166 -1.5772  0.6941
 3558SOL    HW241169   5.175   4.001   1.463  0.2650 -1.9876  0.8423
 3559SOL     OW41170   5.804   1.227   1.496  0.0444 -0.4848  0.0706
 3559SOL    HW141171   5.735   1.285   1.527  0.7717  0.8072 -0.6258
 3559SOL    HW241172   5.758   1.158   1.449 -0.7918  0.4014 -0.4670
 3560SOL     OW41173   5.497   5.841   1.223 -0.7953  0.4571  0.1086
 3560SOL    HW141174   5.504   5.752   1.260 -0.3333 -0.4740 -2.0923
 3560SOL    HW241175   5.551   5.895   1.281  2.5508 -1.5260 -0.9116
 3561SOL     OW41176   5.848   3.187  12.232  0.1424 -0.5114  0.7404
 3561SOL    HW141177   5.800   3.241  12.168 -1.6486  1.1744  3.3297
 3561SOL    HW241178   5.847   3.099  12.194 -3.1595 -0.1369 -0.4086
 3562SOL     OW41179   0.584   3.151   0.591 -0.0207  0.0631 -0.5527
 3562SOL    HW141180   0.509   3.102   0.625 -0.2215  0.4375 -0.4505
 3562SOL    HW241181   0.658   3.121   0.644 -0.2534  0.3132 -0.0832
 3563SOL     OW41182   6.011   5.748  12.128  0.0253  0.5170 -0.9599
 3563SOL    HW141183   6.027   5.676  12.067  0.7863  0.3115 -0.5292
 3563SOL    HW241184   5.945   5.714  12.189  0.7620 -0.0220 -0.4384
 3564SOL     OW41185   3.401   1.996   0.801  0.0822 -0.1058  0.1596
 3564SOL    HW141186   3.307   1.983   0.787 -0.0086  0.7116 -0.0303
 3564SOL    HW241187   3.420   2.080   0.760  0.6515  0.3368  1.2868
 3565SOL     OW41188   0.730   5.354   1.691 -0.4433  0.3542  0.6295
 3565SOL    HW141189   0.730   5.260   1.706 -1.0699  0.5994  2.5306
 3565SOL    HW241190   0.650   5.371   1.641 -1.1781  0.0061  1.6331
 3566SOL     OW41191   2.461   5.299  12.473  0.9175  0.8231 -0.2722
 3566SOL    HW141192   2.421   5.319  12.389 -2.7326  0.8476  1.2946
 3566SOL    HW241193   2.455   5.380  12.523  2.2817  0.5880  0.3251
 3567SOL     OW41194   4.069   4.633   0.555  0.0440 -0.1389 -0.3752
 3567SOL    HW141195   4.048   4.631   0.648 -0.6957  1.4338 -0.4717
 3567SOL    HW241196   4.092   4.543   0.533  0.1138 -0.5518  1.2927
 3568SOL     OW41197   4.847   3.346  12.752  0.4888  0.3224  0.2302
 3568SOL    HW141198   4.918   3.327  12.691  1.8160  1.2370  1.4105
 3568SOL    HW241199   4.808   3.261  12.771 -0.2192  0.0696 -2.1492
 3569SOL     OW41200   5.251   4.787   0.224  0.0971  0.0927  0.4176
 3569SOL    HW141201   5.254   4.741   0.140 -1.7753  0.7163 -0.0399
 3569SOL    HW241202   5.178   4.746   0.271 -0.6852  1.5943  0.5687
 3570SOL     OW41203   5.040   0.758  12.041 -0.8403  0.2947  0.0319
 3570SOL    HW141204   4.993   0.788  11.964 -1.4947 -0.2776  0.2051
 3570SOL    HW241205   5.060   0.666  12.024  1.3670  0.8326 -0.5939
 3571SOL     OW41206   1.266   0.995   0.177  0.6814 -0.1084 -0.1215
 3571SOL    HW141207   1.173   0.981   0.196  0.4623  0.2889 -0.8656
 3571SOL    HW241208   1.312   0.936   0.237 -0.0553 -0.4345  0.1320
 3572SOL     OW41209   3.421   5.398   1.469  0.7191 -0.6332 -0.3636
 3572SOL    HW141210   3.503   5.362   1.437  1.6572  0.8742  0.2433
 3572SOL    HW241211   3.369   5.321   1.493  1.0118 -1.7234 -2.8646
 3573SOL     OW41212   2.845   4.706   1.612 -0.3762  0.5918 -0.4952
 3573SOL    HW141213   2.868   4.794   1.642 -0.0124  0.4406 -0.3289
 3573SOL    HW241214   2.889   4.647   1.673 -1.7121  0.2932  0.2246
 3574SOL     OW41215   3.025   1.565  12.096 -0.0657 -0.5303  0.1607
 3574SOL    HW141216   3.015   1.475  12.127 -1.2563  0.0906  1.7048
 3574SOL    HW241217   2.940   1.588  12.059  0.9688 -0.8493 -2.7486
 3575SOL     OW41218   2.156   3.292   1.481  0.1252  0.0832 -0.0599
 3575SOL    HW141219   2.145   3.278   1.387  1.3216 -0.7418 -0.1033
 3575SOL    HW241220   2.072   3.267   1.519 -0.3395  0.3350 -0.8981
 3576SOL     OW41221   4.698   6.221   0.592 -0.4180  0.3758 -0.0225
 3576SOL    HW141222   4.739   6.140   0.621  0.8078  1.5889  1.8188
 3576SOL    HW241223   4.724   6.286   0.657 -2.5851  1.9493 -0.6180
 3577SOL     OW41224   4.881   0.641   0.549  0.1053 -0.8033  0.4133
 3577SOL    HW141225   4.892   0.734   0.531  0.0611 -0.7390  0.7176
 3577SOL    HW241226   4.792   0.621   0.521  0.0673 -0.7249  0.4797
 3578SOL     OW41227   5.477   4.939   1.611  0.1802  0.1522 -0.1971
 3578SOL    HW141228   5.444   4.853   1.636 -0.4904 -0.1869 -2.0672
 3578SOL    HW241229   5.527   4.924   1.531 -1.5591  1.7031 -1.6822
 3579SOL     OW41230   4.981   5.720   1.759  0.4283  0.3982  0.1915
 3579SOL    HW141231   5.041   5.745   1.829 -0.5459  0.7823  0.9124
 3579SOL    HW241232   4.946   5.803   1.726  2.0269  0.3407 -1.8452
 3580SOL     OW41233   6.230   0.827   0.341 -0.3133 -0.1537 -0.1897
 3580SOL    HW141234   6.287   0.750   0.334  1.2995  0.8244  1.4272
 3580SOL    HW241235   6.146   0.797   0.306  1.1533 -1.6145 -2.8494
 3581SOL     OW41236   5.978   2.447   0.377  0.5139  0.2903 -0.1852
 3581SOL    HW141237   5.975   2.444   0.281  0.0770  1.2242 -0.2076
 3581SOL    HW241238   5.968   2.539   0.399  0.8749  0.1166  0.7619
 3582SOL     OW41239   0.814   5.119  11.359  0.6460  0.0945 -0.6375
 3582SOL    HW141240   0.733   5.127  11.308  0.8035  0.3373 -0.8508
 3582SOL    HW241241   0.882   5.105  11.293  0.8563  0.4481 -0.4929
 3583SOL     OW41242   2.393   1.710   0.774  0.4319 -0.5717 -0.4831
 3583SOL    HW141243   2.419   1.781   0.714  0.8691 -0.8065 -0.5782
 3583SOL    HW241244   2.475   1.665   0.795  0.6002  0.6905  1.8527
 3584SOL     OW41245   0.315   3.302  12.709 -0.3324  0.1111 -0.3720
 3584SOL    HW141246   0.230   3.320  12.749 -0.7333  0.2927 -1.2606
 3584SOL    HW241247   0.367   3.380  12.725 -0.7853  0.5362 -0.9555
 3585SOL     OW41248   0.471   5.000  11.493 -0.2051  0.4163  0.3246
 3585SOL    HW141249   0.539   5.017  11.428  0.5426  1.2352  1.2883
 3585SOL    HW241250   0.447   4.909  11.479  0.5351  0.3328 -0.5416
 3586SOL     OW41251   2.861   1.907  11.205  0.2057  0.4791  0.0260
 3586SOL    HW141252   2.937   1.864  11.244  0.0154 -0.7333 -0.8801
 3586SOL    HW241253   2.817   1.838  11.155 -2.1485  0.8394  1.4175
 3587SOL     OW41254   1.402   2.005  12.817 -0.0873 -0.0297  0.0264
 3587SOL    HW141255   1.486   2.029  12.778 -0.6983  1.0964 -0.6217
 3587SOL    HW241256   1.343   2.075  12.792 -1.0145 -0.3577  1.2250
 3588SOL     OW41257   1.904   2.455  12.078 -0.2264 -0.7210  0.0429
 3588SOL    HW141258   1.975   2.517  12.090  1.0506 -1.5930 -2.3543
 3588SOL    HW241259   1.899   2.407  12.160  0.4641  0.8198  1.0158
 3589SOL     OW41260   5.119   4.763  12.130 -0.2039 -0.0951  0.2052
 3589SOL    HW141261   5.035   4.767  12.085 -0.9734 -1.7856  1.4082
 3589SOL    HW241262   5.139   4.670  12.138  0.7627  0.1900  1.7607
 3590SOL     OW41263   5.532   1.722  12.285  0.6880  0.0731 -0.0045
 3590SOL    HW141264   5.577   1.772  12.352 -1.0374 -0.1309  1.3837
 3590SOL    HW241265   5.464   1.781  12.252 -0.0636 -0.6439  0.2097
 3591SOL     OW41266   5.100   3.562  10.666 -0.3689  0.2096  0.5884
 3591SOL    HW141267   5.065   3.640  10.710 -1.0483  1.2251 -1.5848
 3591SOL    HW241268   5.038   3.546  10.594  1.1690 -0.7462 -0.5831
 3592SOL     OW41269   5.704   5.821  12.763  0.1316 -0.5637 -0.2073
 3592SOL    HW141270   5.633   5.787  12.709  0.2658 -0.4311 -0.4709
 3592SOL    HW241271   5.713   5.758  12.835  0.6271 -1.2861 -0.8884
 3593SOL     OW41272   4.401   6.050   0.895 -0.2146  0.2825  0.0736
 3593SOL    HW141273   4.343   5.978   0.872 -1.4857  1.2530  0.1256
 3593SOL    HW241274   4.483   6.031   0.848 -0.8980 -0.6166 -0.7817
 3594SOL     OW41275   5.667   5.005  11.424  0.1542  0.2386  0.5530
 3594SOL    HW141276   5.595   5.010  11.486  0.4528  2.6848  0.8330
 3594SOL    HW241277   5.715   5.087  11.438  2.2313 -0.7229 -0.5248
 3595SOL     OW41278   0.514   2.882  11.627  0.2115  0.0642  0.4651
 3595SOL    HW141279   0.475   2.952  11.679  0.8657  0.0286  1.0224
 3595SOL    HW241280   0.526   2.920  11.540 -0.3813  0.3062  0.4885
 3596SOL     OW41281   0.920   4.307   1.081  0.3924 -0.3993  0.1882
 3596SOL    HW141282   0.980   4.380   1.100  1.0071 -1.1736  1.3459
 3596SOL    HW241283   0.915   4.305   0.985 -1.2346  2.3986  0.1279
 3597SOL     OW41284   6.265   1.069   0.162  0.1300  0.4012 -0.0184
 3597SOL    HW141285   6.242   1.005   0.229 -1.6784 -0.0779 -1.0395
 3597SOL    HW241286   6.181   1.100   0.128  0.9861  1.1927 -1.5242
 3598SOL     OW41287   3.734   3.419  11.589 -0.7660 -0.1893 -0.2688
 3598SOL    HW141288   3.693   3.499  11.623 -1.8859 -0.1843 -1.5264
 3598SOL    HW241289   3.797   3.450  11.524  1.4044 -0.1944  1.6807
 3599SOL     OW41290   1.866   3.101  12.194  0.0203 -0.2486 -0.1111
 3599SOL    HW141291   1.779   3.061  12.189 -0.4643  0.7890 -0.2549
 3599SOL    HW241292   1.895   3.107  12.103  0.1207 -0.3545 -0.0851
 3600SOL     OW41293   5.866   0.218  11.479  0.1575 -0.5933  0.2879
 3600SOL    HW141294   5.915   0.240  11.558 -0.2225  1.4704 -0.0073
 3600SOL    HW241295   5.777   0.247  11.496  0.1830  0.4161 -1.0540
 3601SOL     OW41296   4.290   2.990  12.126 -0.3116  0.5931  0.1647
 3601SOL    HW141297   4.223   3.001  12.194 -1.3986  0.1954 -0.8186
 3601SOL    HW241298   4.243   3.003  12.044  0.9066  0.6679 -0.5387
 3602SOL     OW41299   4.048   4.448  11.855 -0.6259  0.5002  0.1889
 3602SOL    HW141300   3.965   4.494  11.866 -0.4800  0.6269  0.7968
 3602SOL    HW241301   4.093   4.461  11.939 -0.5535 -0.6920  0.3445
 3603SOL     OW41302   5.846   0.899  12.539 -0.4989  0.0996 -0.2191
 3603SOL    HW141303   5.835   0.958  12.465  1.6481  1.1884  0.2613
 3603SOL    HW241304   5.766   0.847  12.540 -0.9974  0.6797 -2.7199
 3604SOL     OW41305   4.191   6.182  12.498 -0.2852  0.3239 -0.0398
 3604SOL    HW141306   4.240   6.118  12.550 -1.2624 -1.3848 -1.1150
 3604SOL    HW241307   4.254   6.214  12.433  0.1942  0.4295  0.4698
 3605SOL     OW41308   0.358   1.406   1.187 -0.0946 -0.0344 -0.0073
 3605SOL    HW141309   0.316   1.467   1.248 -0.1496  1.1389 -1.1574
 3605SOL    HW241310   0.287   1.375   1.131 -0.0496 -1.1203  0.5084
 3606SOL     OW41311   6.448   4.763  12.257 -0.2078 -0.2098  1.2297
 3606SOL    HW141312   6.362   4.790  12.287  0.0124 -0.0231  1.6945
 3606SOL    HW241313   6.509   4.812  12.311  0.2002  0.6416  0.0309
 3607SOL     OW41314   0.225   5.109  11.629  0.3994  0.1298 -0.0603
 3607SOL    HW141315   0.286   5.049  11.586 -1.1657 -0.7114 -1.1734
 3607SOL    HW241316   0.139   5.087  11.594 -0.4755  1.8406  0.8472
 3608SOL     OW41317   2.525   4.926   1.116 -0.0392  0.0144 -0.0429
 3608SOL    HW141318   2.599   4.947   1.059 -0.5135  0.2916 -0.5647
 3608SOL    HW241319   2.564   4.912   1.202  0.4100  2.0229  0.1116
 3609SOL     OW41320   2.188   1.879   0.127  0.1744 -0.1467 -0.0411
 3609SOL    HW141321   2.224   1.794   0.151  0.8249 -0.1855 -1.0454
 3609SOL    HW241322   2.208   1.887   0.033 -2.3762 -0.1119 -0.6452
 3610SOL     OW41323   5.785   0.417   0.540 -0.6187  0.0097  0.0760
 3610SOL    HW141324   5.843   0.405   0.615  0.2298 -0.2736 -0.6099
 3610SOL    HW241325   5.789   0.510   0.521  0.2877 -0.1384 -0.4934
 3611SOL     OW41326   5.648   2.379   0.627  0.1935 -0.4116  0.2643
 3611SOL    HW141327   5.725   2.424   0.662 -0.5348  1.2628 -0.1846
 3611SOL    HW241328   5.580   2.394   0.693 -0.6618  1.1168 -0.9149
 3612SOL     OW41329   4.137   1.839  12.587  0.2025  0.5152  0.0370
 3612SOL    HW141330   4.142   1.884  12.503 -1.0337 -0.4650 -0.5973
 3612SOL    HW241331   4.060   1.877  12.630 -0.4672 -0.4747 -0.2332
 3613SOL     OW41332   4.493   6.000   1.236  0.1478 -0.1028  0.0261
 3613SOL    HW141333   4.475   6.049   1.155  1.3014 -2.7646 -1.9899
 3613SOL    HW241334   4.584   6.020   1.256  0.6447 -1.4115 -0.8458
 3614SOL     OW41335   0.137   5.004  11.062  0.0984  0.8223  0.0381
 3614SOL    HW141336   0.137   5.028  11.154 -1.3201  0.7557  0.0775
 3614SOL    HW241337   0.045   5.005  11.037  0.4061  0.1629 -1.2013
 3615SOL     OW41338   3.070   1.775  11.793 -0.1343 -0.4224 -0.1129
 3615SOL    HW141339   3.120   1.737  11.864 -1.3276 -0.4995  0.7171
 3615SOL    HW241340   3.061   1.704  11.729 -0.6444 -0.9534  0.5262
 3616SOL     OW41341   6.081   1.840  11.465 -0.4141 -0.0318  0.0203
 3616SOL    HW141342   6.070   1.934  11.480 -0.7281 -0.1148  0.3251
 3616SOL    HW241343   5.992   1.804  11.467 -0.2458 -0.4301  0.5802
 3617SOL     OW41344   0.479   5.057   0.173  0.3617 -0.0538 -0.1185
 3617SOL    HW141345   0.473   5.152   0.169 -1.1770 -0.1661 -1.2568
 3617SOL    HW241346   0.422   5.033   0.246  0.7432 -0.1090  0.1634
 3618SOL     OW41347   4.485   3.659   1.122  0.4324 -0.5003 -0.2597
 3618SOL    HW141348   4.455   3.739   1.078 -1.8895 -1.8038 -1.1821
 3618SOL    HW241349   4.515   3.603   1.050  1.1036 -0.8630  0.2948
 3619SOL     OW41350   2.874   5.945   1.197 -0.6648 -0.2888  0.3007
 3619SOL    HW141351   2.798   5.887   1.205 -0.6382 -0.3050  0.4336
 3619SOL    HW241352   2.932   5.899   1.136 -1.2071  0.1993 -0.6112
 3620SOL     OW41353   0.128   5.532  12.731 -0.1441  0.2951  0.2864
 3620SOL    HW141354   0.172   5.448  12.747 -2.0979 -0.4618  2.1843
 3620SOL    HW241355   0.035   5.513  12.740 -0.7490  2.3721 -0.9183
 3621SOL     OW41356   5.968   2.157   1.668 -0.4938  0.1122 -0.6178
 3621SOL    HW141357   5.897   2.122   1.721 -1.3176  1.0075 -1.0901
 3621SOL    HW241358   5.973   2.099   1.592  1.4543 -1.8606  0.9152
 3622SOL     OW41359   1.802   1.317  11.703  0.1717  0.2264 -0.4097
 3622SOL    HW141360   1.717   1.321  11.660  0.7186  0.4144 -1.5181
 3622SOL    HW241361   1.830   1.226  11.694  0.3586  0.3016 -0.6149
 3623SOL     OW41362   3.596   2.900   1.153 -0.3323  0.1515 -0.5846
 3623SOL    HW141363   3.577   2.840   1.081 -0.1912 -2.9459  1.7288
 3623SOL    HW241364   3.511   2.937   1.177 -0.8430 -0.9782 -0.5879
 3624SOL     OW41365   4.315   4.313   0.465  0.4995  0.3518 -0.1964
 3624SOL    HW141366   4.286   4.274   0.383  0.3637  1.9004 -0.9225
 3624SOL    HW241367   4.236   4.320   0.518  0.2032  1.1514 -0.7231
 3625SOL     OW41368   5.451   1.282  11.966 -0.0747  0.6837  0.1007
 3625SOL    HW141369   5.388   1.238  12.023  1.0358  1.2500  1.8538
 3625SOL    HW241370   5.444   1.375  11.991  0.6157  0.9113 -0.5182
 3626SOL     OW41371   2.497   0.066   0.694 -0.2487 -0.1696  0.2643
 3626SOL    HW141372   2.444   0.022   0.761 -0.8952 -0.0137 -0.1375
 3626SOL    HW241373   2.516  -0.002   0.630 -1.4676  0.1562 -0.4911
 3627SOL     OW41374   4.526   3.401   1.189  0.0941  0.3271  0.4469
 3627SOL    HW141375   4.495   3.361   1.270  0.9366 -0.4347  0.4073
 3627SOL    HW241376   4.517   3.495   1.204  1.6458  0.2806  2.0554
 3628SOL     OW41377   4.344   2.631   0.966  1.0103  0.2437  0.2374
 3628SOL    HW141378   4.407   2.591   0.907 -0.0445  0.5204 -1.1303
 3628SOL    HW241379   4.348   2.725   0.946 -1.1839  0.0868 -1.3331
 3629SOL     OW41380   0.130   2.905   0.386 -0.2770  0.8524 -0.0631
 3629SOL    HW141381   0.100   2.996   0.393 -0.4132  0.7172  1.5924
 3629SOL    HW241382   0.124   2.872   0.476 -1.3282 -1.1431 -0.8233
 3630SOL     OW41383   5.288   5.142  11.769  0.2561 -0.3354  0.2078
 3630SOL    HW141384   5.268   5.066  11.823 -2.3594 -0.3936 -0.7298
 3630SOL    HW241385   5.230   5.210  11.801  0.2741  0.2936 -1.0662
 3631SOL     OW41386   4.842   2.968  11.288 -0.0961 -0.0909 -0.3600
 3631SOL    HW141387   4.878   3.053  11.312 -1.5931  0.7785 -1.0466
 3631SOL    HW241388   4.911   2.905  11.311  0.9862  1.2781  0.2781
 3632SOL     OW41389   5.646   3.207   0.997  0.5016  0.0293  0.0437
 3632SOL    HW141390   5.596   3.137   0.954  0.1037  0.3863 -0.0796
 3632SOL    HW241391   5.581   3.256   1.047  0.7757  0.3324  0.1048
 3633SOL     OW41392   0.577   0.143   1.206 -0.4782 -0.3005  0.2403
 3633SOL    HW141393   0.628   0.221   1.227 -1.4132  0.4820 -0.3449
 3633SOL    HW241394   0.629   0.098   1.138  0.5826 -0.7722  1.3196
 3634SOL     OW41395   1.202   0.178  11.973  0.5308 -0.2754  0.0897
 3634SOL    HW141396   1.250   0.143  11.898 -2.8388 -3.1037 -0.9640
 3634SOL    HW241397   1.133   0.232  11.935 -1.8191 -2.5047  0.9226
 3635SOL     OW41398   3.180   0.533  11.415 -0.0759  0.2482  0.2974
 3635SOL    HW141399   3.221   0.598  11.472  0.6817 -1.8972  2.3315
 3635SOL    HW241400   3.200   0.449  11.455 -2.9418 -1.1753 -0.9398
 3636SOL     OW41401   0.781   3.872   1.637  0.4165  0.5761 -0.0458
 3636SOL    HW141402   0.735   3.834   1.712  0.5150  0.6162  0.0348
 3636SOL    HW241403   0.787   3.801   1.574  0.7566  0.4076  0.1751
 3637SOL     OW41404   2.100   6.107  12.213 -0.4480 -0.8128  0.1225
 3637SOL    HW141405   2.169   6.110  12.146 -0.8258  1.2705 -0.2240
 3637SOL    HW241406   2.020   6.090  12.163 -0.3773 -2.2192  0.4223
 3638SOL     OW41407   4.643   0.212  12.130  0.1955 -0.7819  0.0199
 3638SOL    HW141408   4.696   0.240  12.055  0.9585 -1.8417  0.1416
 3638SOL    HW241409   4.592   0.290  12.154  1.1170  0.0323 -0.5912
 3639SOL     OW41410   2.423   0.361  11.356 -0.0673 -0.9093  0.0018
 3639SOL    HW141411   2.502   0.339  11.405  0.4645  0.2149 -0.3298
 3639SOL    HW241412   2.376   0.278  11.349 -0.1830 -1.1385  2.4347
 3640SOL     OW41413   2.178   3.971  11.781  0.1532 -0.4338 -0.3493
 3640SOL    HW141414   2.084   3.976  11.766 -0.0918 -1.2570  0.7660
 3640SOL    HW241415   2.216   4.030  11.716 -1.1755  0.5198 -0.2997
 3641SOL     OW41416   6.166   0.398  12.252 -0.5694 -0.7440 -0.3039
 3641SOL    HW141417   6.083   0.377  12.297  0.5832  0.8189  2.8961
 3641SOL    HW241418   6.229   0.337  12.290  1.0692  2.5154  2.8367
 3642SOL     OW41419   1.209   2.310  12.635  0.6585 -0.5016 -0.3278
 3642SOL    HW141420   1.116   2.300  12.657  1.0873 -1.2035  1.3335
 3642SOL    HW241421   1.221   2.256  12.557 -0.2794 -0.5806 -0.4378
 3643SOL     OW41422   5.023   3.077  12.021 -0.8083 -0.1212 -0.2622
 3643SOL    HW141423   5.053   3.004  11.966  1.3145  1.3142 -1.1072
 3643SOL    HW241424   5.067   3.064  12.105 -0.0152  0.4535 -0.5829
 3644SOL     OW41425   5.584   1.077   1.047  0.1456 -0.1212 -0.1720
 3644SOL    HW141426   5.664   1.111   1.007  0.0644 -0.8767 -0.9829
 3644SOL    HW241427   5.559   1.002   0.993 -1.8859  0.9138 -0.7783
 3645SOL     OW41428   5.223   1.393   1.826  0.5090 -0.2929  0.1203
 3645SOL    HW141429   5.147   1.428   1.781 -0.0080 -0.1515  1.0652
 3645SOL    HW241430   5.253   1.465   1.882 -1.7092 -1.7571  3.5530
 3646SOL     OW41431   1.886   3.788   1.280  0.6213 -0.4852 -0.1939
 3646SOL    HW141432   1.976   3.802   1.308  0.1909 -1.3168  1.7107
 3646SOL    HW241433   1.890   3.711   1.224  0.8592 -1.6596  1.3911
 3647SOL     OW41434   2.208   3.831  11.229  0.5051 -0.5954  0.4264
 3647SOL    HW141435   2.263   3.768  11.182 -1.0164 -0.9797 -0.9143
 3647SOL    HW241436   2.209   3.909  11.174  1.1746  0.0516  1.3343
 3648SOL     OW41437   3.418   5.723  12.629  0.2073  0.0186  0.0446
 3648SOL    HW141438   3.343   5.712  12.571  0.0128  2.0182 -0.1561
 3648SOL    HW241439   3.474   5.648  12.610 -0.7777 -0.4200 -1.2865
 3649SOL     OW41440   5.734   1.773  12.778 -0.1717  0.4935  0.0561
 3649SOL    HW141441   5.771   1.766  12.865 -0.1508  3.1915  0.3590
 3649SOL    HW241442   5.639   1.780  12.792 -0.1939  0.6144 -0.1359
 3650SOL     OW41443   1.538   2.204  12.205  0.4915  0.4083 -0.2437
 3650SOL    HW141444   1.499   2.244  12.283 -1.2875  1.6253 -1.6814
 3650SOL    HW241445   1.551   2.277  12.145 -2.5182 -0.9788 -2.8426
 3651SOL     OW41446   5.863   1.479   0.860  0.6092 -1.1409 -0.4440
 3651SOL    HW141447   5.770   1.458   0.864  0.5055 -1.4825 -2.9048
 3651SOL    HW241448   5.872   1.530   0.779  2.5875 -1.3216 -0.3728
 3652SOL     OW41449   5.214   3.926  10.885  0.5552  0.5494  0.1631
 3652SOL    HW141450   5.279   3.996  10.893  1.3421 -0.3383  2.0843
 3652SOL    HW241451   5.162   3.933  10.965 -0.4676 -0.0136 -0.4304
 3653SOL     OW41452   5.116   5.590  12.218  0.0231  0.0943  0.9521
 3653SOL    HW141453   5.149   5.615  12.131  0.7886  2.0509  1.7307
 3653SOL    HW241454   5.126   5.495  12.221  0.9521  0.0909 -0.7192
 3654SOL     OW41455   4.587   0.939   0.026  0.4721 -0.2001 -0.4338
 3654SOL    HW141456   4.501   0.923  -0.014 -0.7895 -0.0692  2.0173
 3654SOL    HW241457   4.650   0.908  -0.039 -1.4565 -1.1679 -1.9450
 3655SOL     OW41458   2.542   5.419  11.803  0.1459 -0.8635 -0.2966
 3655SOL    HW141459   2.571   5.511  11.799 -2.2865 -0.0690 -1.0359
 3655SOL    HW241460   2.457   5.423  11.846 -0.8068 -2.5716 -1.9338
 3656SOL     OW41461   2.376   1.998   0.700  0.0385 -0.2650 -0.0510
 3656SOL    HW141462   2.347   1.972   0.613 -0.4686 -1.0111  0.3359
 3656SOL    HW241463   2.314   2.066   0.728 -0.2517 -0.5662  0.0366
 3657SOL     OW41464   4.740   3.219  12.161  0.3269  0.2909  0.1307
 3657SOL    HW141465   4.667   3.207  12.100  1.0661 -1.5590 -0.4346
 3657SOL    HW241466   4.703   3.197  12.247 -0.3136  1.4443  0.1768
 3658SOL     OW41467   1.177   1.369  12.183  0.7811  0.0914  0.2307
 3658SOL    HW141468   1.189   1.356  12.277 -1.1659 -0.2884  0.4613
 3658SOL    HW241469   1.219   1.294  12.142  2.5421  0.7633  0.6939
 3659SOL     OW41470   1.963   0.814  12.581  0.2427  0.6787 -0.0113
 3659SOL    HW141471   1.995   0.784  12.496  0.0612  1.0689 -0.2156
 3659SOL    HW241472   1.951   0.733  12.631 -0.0205  0.4170 -0.4829
 3660SOL     OW41473   1.648   1.648   0.371 -0.2339  0.3975  0.7175
 3660SOL    HW141474   1.692   1.733   0.370 -0.5304  0.6142  2.7677
 3660SOL    HW241475   1.683   1.603   0.447 -0.4799 -1.1339 -0.0325
 3661SOL     OW41476   0.706   4.129  12.031 -0.3359 -0.3174  0.1404
 3661SOL    HW141477   0.638   4.072  12.065  0.1832 -2.1034 -1.6028
 3661SOL    HW241478   0.659   4.205  11.996 -1.3727 -1.2021 -0.4159
 3662SOL     OW41479   4.149   4.479  11.390  0.3862  0.3606 -0.5247
 3662SOL    HW141480   4.216   4.421  11.353  0.8543  0.7830 -0.3485
 3662SOL    HW241481   4.182   4.500  11.478  0.1863  0.8393 -0.5665
 3663SOL     OW41482   5.682   3.099  11.207 -0.3084  0.1650 -0.3281
 3663SOL    HW141483   5.673   3.130  11.117  0.0180  0.4608 -0.2594
 3663SOL    HW241484   5.753   3.151  11.244 -0.0987 -0.3056 -0.0553
 3664SOL     OW41485   3.811   2.521  12.198 -0.8740 -0.3471  0.5109
 3664SOL    HW141486   3.783   2.444  12.247 -1.8672  0.1368  0.7152
 3664SOL    HW241487   3.891   2.549  12.243  0.0776 -1.8156 -0.1637
 3665SOL     OW41488   3.863   0.954  11.534  0.2121  0.2194  0.6798
 3665SOL    HW141489   3.818   1.024  11.487 -0.1783 -0.4436  0.0495
 3665SOL    HW241490   3.911   0.999  11.604 -1.8279  0.9191  1.7286
 3666SOL     OW41491   0.931   0.827  11.788 -0.2201  0.2021 -0.6292
 3666SOL    HW141492   1.012   0.832  11.736  0.6535  0.8616  0.7241
 3666SOL    HW241493   0.946   0.753  11.847 -0.9957 -0.2257 -0.9533
 3667SOL     OW41494   3.093   4.835  11.322 -0.2604  0.1125 -0.0137
 3667SOL    HW141495   3.037   4.913  11.328 -0.1425  0.0988  3.0092
 3667SOL    HW241496   3.037   4.763  11.350  0.7359 -0.1768  1.3230
 3668SOL     OW41497   5.886   5.148  12.692  0.1826 -0.1999 -0.1908
 3668SOL    HW141498   5.868   5.054  12.686  0.5305 -0.3466  0.9719
 3668SOL    HW241499   5.980   5.153  12.711 -0.5010  0.2010  3.8556
 3669SOL     OW41500   2.054   5.957  12.466  0.0590  0.0051 -0.0596
 3669SOL    HW141501   2.115   5.883  12.462  1.2682  1.0163 -1.5117
 3669SOL    HW241502   2.076   6.010  12.389 -3.2493 -0.0202 -1.1893
 3670SOL     OW41503   4.630   3.095  12.393 -0.4701  0.0047 -0.1275
 3670SOL    HW141504   4.637   3.026  12.327  0.9742  0.2142 -0.2386
 3670SOL    HW241505   4.550   3.075  12.441 -1.6414 -0.0543 -2.0385
 3671SOL     OW41506   4.110   1.331  12.716  0.5627 -0.3117 -0.4152
 3671SOL    HW141507   4.199   1.327  12.751  0.2736 -0.6784  0.2957
 3671SOL    HW241508   4.084   1.422  12.729  0.7193 -0.2766 -0.3340
 3672SOL     OW41509   1.955   1.970   1.498  0.2570 -0.6412 -0.1854
 3672SOL    HW141510   1.871   2.011   1.516  0.4236 -0.8641  1.2052
 3672SOL    HW241511   1.941   1.921   1.417 -0.2749  1.1524 -1.2437
 3673SOL     OW41512   2.604   4.910   0.781 -0.1791 -0.8700 -0.2432
 3673SOL    HW141513   2.640   4.995   0.805 -1.0852 -0.8775  1.2921
 3673SOL    HW241514   2.669   4.847   0.814 -0.5162 -0.8215  0.5338
 3674SOL     OW41515   3.426   0.536  11.946  0.9417  0.0117 -0.1589
 3674SOL    HW141516   3.354   0.595  11.969  0.2445 -1.1957  0.8778
 3674SOL    HW241517   3.502   0.594  11.938  0.5046  0.9647  1.8439
 3675SOL     OW41518   3.226   2.453   1.174  0.3432 -0.5158 -0.0917
 3675SOL    HW141519   3.152   2.503   1.139 -1.8217 -2.0811  1.8812
 3675SOL    HW241520   3.212   2.364   1.142  1.7271 -0.7269 -0.1533
 3676SOL     OW41521   1.455   4.171  11.550 -0.1258 -0.0837 -0.2234
 3676SOL    HW141522   1.417   4.148  11.635  2.9520 -1.5241  0.9157
 3676SOL    HW241523   1.463   4.267  11.552  0.9440 -0.1753  1.6528
 3677SOL     OW41524   0.056   2.725  12.517 -0.2827 -0.1824 -0.1967
 3677SOL    HW141525   0.079   2.639  12.481 -0.2402 -0.1821 -0.1706
 3677SOL    HW241526   0.140   2.766  12.537 -0.3073 -0.2122 -0.0277
 3678SOL     OW41527   2.731   4.303   1.654  0.0312  0.3185 -0.0577
 3678SOL    HW141528   2.670   4.373   1.629 -0.7076 -0.1815  0.3146
 3678SOL    HW241529   2.696   4.225   1.612  3.2472  0.7915 -4.3003
 3679SOL     OW41530   1.205   3.601  12.310  0.4686  0.6587 -0.2983
 3679SOL    HW141531   1.253   3.656  12.248 -0.0541  0.0061 -1.3217
 3679SOL    HW241532   1.116   3.596  12.273 -0.0886  0.9266  0.9551
 3680SOL     OW41533   4.899   3.584   0.403  0.5401 -0.2325 -0.2220
 3680SOL    HW141534   4.905   3.489   0.394 -1.0314 -0.2512 -1.7114
 3680SOL    HW241535   4.811   3.605   0.373  0.3313  1.5789  1.4150
 3681SOL     OW41536   2.460   4.597   0.039 -0.0331 -0.1506 -0.0946
 3681SOL    HW141537   2.554   4.615   0.043 -0.2757  1.5664 -0.8748
 3681SOL    HW241538   2.432   4.636  -0.044 -1.4104 -0.7526  0.0556
 3682SOL     OW41539   3.706   4.512   1.247  0.2085  0.0890  0.2681
 3682SOL    HW141540   3.624   4.532   1.293  1.6396  1.4718  2.3362
 3682SOL    HW241541   3.684   4.524   1.154 -2.2128 -0.7307  0.6407
 3683SOL     OW41542   0.873   2.778   1.652  0.1027  0.3818 -0.2970
 3683SOL    HW141543   0.834   2.759   1.566  0.1671 -0.4627 -0.1470
 3683SOL    HW241544   0.967   2.766   1.638 -0.0497 -3.0480  0.6285
 3684SOL     OW41545   5.433   3.385   1.080 -0.1062  0.2579 -0.6393
 3684SOL    HW141546   5.388   3.390   0.995 -0.8304  0.4961 -0.2506
 3684SOL    HW241547   5.374   3.335   1.136  1.2482 -1.6204 -0.7988
 3685SOL     OW41548   5.707   2.966   1.332  0.3091  0.0728  0.0742
 3685SOL    HW141549   5.615   2.945   1.314  0.6472  0.2155 -2.1278
 3685SOL    HW241550   5.703   3.048   1.382 -0.7706 -0.6921  1.3066
 3686SOL     OW41551   0.804   3.180   0.152  0.0193 -0.2153  0.4577
 3686SOL    HW141552   0.761   3.204   0.070  0.0343  0.5859  0.6818
 3686SOL    HW241553   0.739   3.197   0.220 -0.0330 -0.9873  0.6158
 3687SOL     OW41554   6.330   0.210  12.741  0.4124 -0.2471  0.2830
 3687SOL    HW141555   6.382   0.282  12.704 -2.5776  0.8414 -2.2164
 3687SOL    HW241556   6.367   0.131  12.700  1.5881  0.2110  0.4223
 3688SOL     OW41557   0.600   4.826   1.502  0.8239  0.2372 -0.0916
 3688SOL    HW141558   0.580   4.751   1.557  3.6386 -1.3087 -0.9608
 3688SOL    HW241559   0.564   4.804   1.417  1.6251 -0.1639 -0.3393
 3689SOL     OW41560   2.136   5.841   0.281  0.4837 -0.1990  0.0908
 3689SOL    HW141561   2.145   5.746   0.274 -0.2293 -0.2600 -0.0504
 3689SOL    HW241562   2.219   5.870   0.320  0.8216 -0.8430 -0.1317
 3690SOL     OW41563   4.642   3.572   0.252  0.0793  0.0599 -0.0772
 3690SOL    HW141564   4.587   3.495   0.265  2.6623 -1.7234  1.0647
 3690SOL    HW241565   4.677   3.562   0.163  3.0582 -2.0781  1.1772
 3691SOL     OW41566   0.146   4.718  12.767  0.0425 -0.0342 -0.3170
 3691SOL    HW141567   0.145   4.670  12.684 -0.9502 -0.1923 -0.2281
 3691SOL    HW241568   0.080   4.673  12.821  0.6857  0.0637  0.5589
 3692SOL     OW41569   1.867   5.201   1.864  0.5617 -0.0464 -0.0326
 3692SOL    HW141570   1.816   5.129   1.827  0.7909  0.1158 -0.6716
 3692SOL    HW241571   1.818   5.280   1.841  0.6573  0.0504  0.0932
 3693SOL     OW41572   5.115   5.564   0.500 -0.0853  0.3442 -0.3146
 3693SOL    HW141573   5.196   5.556   0.450  1.0645  0.1425  1.4915
 3693SOL    HW241574   5.113   5.487   0.557 -1.3414  0.5492 -0.0393
 3694SOL     OW41575   1.763   2.063   0.586 -0.6454  0.4609 -0.0865
 3694SOL    HW141576   1.704   2.030   0.518 -1.4226  0.9516  0.3399
 3694SOL    HW241577   1.804   2.139   0.547  4.3593 -3.0347 -2.7387
 3695SOL     OW41578   4.669   4.950   1.466 -0.4085 -0.3174 -0.6031
 3695SOL    HW141579   4.674   4.906   1.551  2.7272  0.8055 -0.0846
 3695SOL    HW241580   4.676   4.878   1.402 -2.2148 -1.1161  0.0477
 3696SOL     OW41581   1.990   5.786  12.084  0.8478  0.5817  0.7425
 3696SOL    HW141582   1.922   5.782  12.151 -0.1891  0.7319 -0.2588
 3696SOL    HW241583   2.046   5.711  12.103  1.0506  1.0704  2.2375
 3697SOL     OW41584   6.239   1.236  11.600  0.6795 -0.6667  0.1349
 3697SOL    HW141585   6.201   1.323  11.588 -1.6002 -1.4756  0.9470
 3697SOL    HW241586   6.333   1.251  11.601  0.3611  1.7542  0.0396
 3698SOL     OW41587   1.121   1.678   1.007 -0.5246 -0.6199 -0.0903
 3698SOL    HW141588   1.042   1.721   1.040 -2.7009 -1.5812 -3.4490
 3698SOL    HW241589   1.100   1.585   1.008  0.5702 -0.9096 -1.0016
 3699SOL     OW41590   0.325   5.080  12.071 -0.1508 -0.3390 -0.2247
 3699SOL    HW141591   0.322   5.132  12.152 -0.2229 -0.4966 -0.1252
 3699SOL    HW241592   0.365   5.138  12.007  1.2814 -0.7176  0.2978
 3700SOL     OW41593   3.901   1.350  11.874 -0.5876 -0.2601  0.0072
 3700SOL    HW141594   3.924   1.308  11.957  0.6659 -1.8536 -1.0771
 3700SOL    HW241595   3.895   1.443  11.894  0.4740 -0.5289  1.7245
 3701SOL     OW41596   0.134   2.373   0.903 -0.2387  0.7482 -1.2559
 3701SOL    HW141597   0.098   2.284   0.906 -0.2855  0.7768  0.6142
 3701SOL    HW241598   0.226   2.360   0.881 -0.3688  0.2821 -1.5510
 3702SOL     OW41599   4.126   1.846  12.215 -0.2633  0.2860  0.3287
 3702SOL    HW141600   4.045   1.894  12.233 -0.7592  0.1383 -1.3369
 3702SOL    HW241601   4.191   1.886  12.273 -1.6176  0.0093  2.1508
 3703SOL     OW41602   0.426   4.276  12.184 -0.0073  0.0856 -0.4602
 3703SOL    HW141603   0.441   4.187  12.216 -0.7575 -0.3842 -1.3466
 3703SOL    HW241604   0.412   4.329  12.263 -1.0567 -0.8851  0.0402
 3704SOL     OW41605   5.908   4.880  12.698  0.1373  0.1820 -0.1597
 3704SOL    HW141606   5.986   4.860  12.750 -0.2406  0.8519  0.7009
 3704SOL    HW241607   5.862   4.796  12.690 -0.3287  0.2240  1.5314
 3705SOL     OW41608   5.366   4.554   1.240 -0.8547 -0.2940 -0.4404
 3705SOL    HW141609   5.457   4.569   1.267  0.1926 -2.6846 -2.3093
 3705SOL    HW241610   5.337   4.480   1.295 -1.2146 -0.4106 -0.7849
 3706SOL     OW41611   2.418   4.715   0.968 -0.1840  0.0165 -0.4206
 3706SOL    HW141612   2.437   4.790   1.024 -0.7307 -0.5576  0.5765
 3706SOL    HW241613   2.353   4.665   1.017  0.7850 -1.5523 -0.6721
 3707SOL     OW41614   1.378   0.803   0.336  0.2101  0.6060 -0.4747
 3707SOL    HW141615   1.329   0.778   0.414 -0.2273  1.2574 -0.5346
 3707SOL    HW241616   1.432   0.877   0.364  1.8487 -0.6410 -0.1750
 3708SOL     OW41617   4.559   0.753   1.039  0.4935 -0.1829  0.0834
 3708SOL    HW141618   4.544   0.659   1.025 -1.4750 -0.1699  1.6672
 3708SOL    HW241619   4.654   0.763   1.035  1.1102 -2.8937  3.2815
 3709SOL     OW41620   4.083   3.365   0.841 -0.9012 -0.0321  0.1512
 3709SOL    HW141621   4.138   3.359   0.919 -1.7063  1.0702  0.8415
 3709SOL    HW241622   4.013   3.425   0.866 -1.1949  0.3312 -1.4198
 3710SOL     OW41623   3.464   4.001   1.499 -0.6263 -0.3713 -0.2207
 3710SOL    HW141624   3.412   3.924   1.479 -0.3585 -0.1384 -1.9241
 3710SOL    HW241625   3.552   3.979   1.466 -0.1847  0.1060  0.6042
 3711SOL     OW41626   5.525   5.094   0.524 -0.1774  0.2494 -0.0181
 3711SOL    HW141627   5.594   5.048   0.571 -0.5342  1.1330  1.4532
 3711SOL    HW241628   5.460   5.026   0.505 -0.3272 -0.0493  1.4053
 3712SOL     OW41629   0.970   1.670   1.470  0.2487  0.1206  0.3255
 3712SOL    HW141630   0.911   1.740   1.442 -0.9058 -1.3459 -1.0849
 3712SOL    HW241631   0.913   1.601   1.503  1.2575 -0.7009  0.4096
 3713SOL     OW41632   0.618   3.057   1.004  0.1673 -0.0463  0.2890
 3713SOL    HW141633   0.564   3.003   0.946  1.8269 -3.0484  1.3703
 3713SOL    HW241634   0.654   3.124   0.946 -0.6590 -1.0617 -1.4976
 3714SOL     OW41635   3.561   4.877   1.934 -0.3481 -0.1130 -0.4264
 3714SOL    HW141636   3.591   4.960   1.971  2.7089 -1.1744 -0.1976
 3714SOL    HW241637   3.642   4.829   1.913 -1.9702 -2.6264 -1.5107
 3715SOL     OW41638   0.646   0.885  12.817  0.4388  0.0348 -0.0660
 3715SOL    HW141639   0.740   0.866  12.816  0.3799 -0.2980 -0.9493
 3715SOL    HW241640   0.640   0.974  12.784  0.4909  0.3577  0.7782
 3716SOL     OW41641   3.705   2.738  12.527  0.4612 -0.3414 -0.0158
 3716SOL    HW141642   3.657   2.726  12.445  1.0374  1.6703 -0.7021
 3716SOL    HW241643   3.760   2.660  12.535 -1.0428 -1.4901 -0.5045
 3717SOL     OW41644   5.472   2.619  11.343 -0.0413 -0.1636  0.1870
 3717SOL    HW141645   5.490   2.614  11.249 -1.2793  0.3623 -0.1008
 3717SOL    HW241646   5.497   2.709  11.367  0.9581 -0.5203  0.5302
 3718SOL     OW41647   4.568   4.285   0.472  0.0262  0.6307 -0.2720
 3718SOL    HW141648   4.574   4.214   0.536 -0.9996  1.0528  0.3082
 3718SOL    HW241649   4.478   4.317   0.479  0.6015  2.3142 -0.1739
 3719SOL     OW41650   1.628   4.270   0.874 -0.0959  0.4961 -1.1607
 3719SOL    HW141651   1.677   4.349   0.853  0.3935  0.1978 -1.1697
 3719SOL    HW241652   1.585   4.245   0.793 -2.0009  1.9276 -0.6571
 3720SOL     OW41653   4.441   2.847   0.396  0.2238  0.0996 -0.0494
 3720SOL    HW141654   4.411   2.930   0.434  0.0465 -0.2342  0.5474
 3720SOL    HW241655   4.381   2.782   0.431  0.4842 -0.3101 -0.3622
 3721SOL     OW41656   2.609   0.708   1.336  0.2219 -0.1082  0.0694
 3721SOL    HW141657   2.670   0.733   1.266  2.4953 -0.3825  1.8325
 3721SOL    HW241658   2.522   0.717   1.296  1.3581  0.6922 -2.4585
 3722SOL     OW41659   1.008   5.003  12.575 -0.0602  0.1854 -0.0487
 3722SOL    HW141660   1.085   5.016  12.630 -0.9270  0.3908  1.1459
 3722SOL    HW241661   1.011   5.075  12.511  0.2332  0.7334  0.5743
 3723SOL     OW41662   2.899   3.583  12.046 -0.0069 -0.3492 -0.2780
 3723SOL    HW141663   2.866   3.516  11.987  1.3600  1.0042 -2.7171
 3723SOL    HW241664   2.826   3.644  12.056 -0.5667 -1.0891  0.2736
 3724SOL     OW41665   5.849   2.480   0.780 -0.6186 -0.0867  0.1971
 3724SOL    HW141666   5.879   2.511   0.865 -2.0775  1.2964  0.2646
 3724SOL    HW241667   5.848   2.558   0.725  0.4874 -0.9974 -1.1797
 3725SOL     OW41668   3.018   2.367  11.960 -0.1211 -0.4498  0.1523
 3725SOL    HW141669   3.092   2.312  11.986 -0.0524 -1.1590 -1.4858
 3725SOL    HW241670   3.018   2.366  11.865 -0.6352  1.7329  0.0611
 3726SOL     OW41671   2.750   2.031  11.670  0.2292 -0.5348  0.2894
 3726SOL    HW141672   2.826   2.043  11.726  0.0458 -4.3256  1.6239
 3726SOL    HW241673   2.785   2.041  11.581  1.6767  0.2804  0.9016
 3727SOL     OW41674   3.974   5.396  12.065  0.1063 -0.0942 -0.2273
 3727SOL    HW141675   3.981   5.422  11.973 -0.0957 -0.1512 -0.2589
 3727SOL    HW241676   4.033   5.455  12.111  2.0319 -1.5537 -0.6744
 3728SOL     OW41677   2.390   4.578  12.311  0.0527 -0.3939  0.1667
 3728SOL    HW141678   2.299   4.551  12.324 -0.1382  0.5442  0.9711
 3728SOL    HW241679   2.442   4.513  12.358 -0.3452  0.0997  1.3512
 3729SOL     OW41680   1.557   4.318  12.598 -0.0635 -0.0479  0.2643
 3729SOL    HW141681   1.588   4.311  12.688  1.3429 -1.1373 -0.2561
 3729SOL    HW241682   1.630   4.357  12.551 -1.0552  1.1996 -0.2981
 3730SOL     OW41683   1.267   5.811  12.565 -0.7245  0.0617 -0.2141
 3730SOL    HW141684   1.308   5.854  12.490  0.1429 -0.9604 -0.3615
 3730SOL    HW241685   1.186   5.859  12.579 -0.1028  1.3176 -0.7612
 3731SOL     OW41686   1.816   0.066  12.319  0.2286 -0.2843 -0.7670
 3731SOL    HW141687   1.869   0.142  12.343 -0.0876 -0.5242  0.8026
 3731SOL    HW241688   1.814   0.067  12.223  3.5815 -0.6107 -0.9539
 3732SOL     OW41689   5.388   2.473  10.846 -0.1691 -0.1693 -0.4626
 3732SOL    HW141690   5.304   2.427  10.845 -0.3955  0.2378 -0.4417
 3732SOL    HW241691   5.400   2.503  10.756 -0.7703  1.0583 -0.1539
 3733SOL     OW41692   2.891   1.323   0.024 -0.0306 -0.3095  0.4222
 3733SOL    HW141693   2.974   1.316  -0.024 -0.5953 -3.9066 -0.3380
 3733SOL    HW241694   2.827   1.348  -0.043  0.1867  1.1419  0.7326
 3734SOL     OW41695   2.586   0.251  11.971 -0.0531 -0.1537 -0.5036
 3734SOL    HW141696   2.676   0.220  11.978 -0.5497 -1.6195 -0.2674
 3734SOL    HW241697   2.587   0.337  12.014  1.4066  0.2598 -1.3108
 3735SOL     OW41698   4.371   2.890  10.985 -0.0605 -0.9171 -0.6397
 3735SOL    HW141699   4.455   2.892  10.939 -1.3361 -0.6881 -3.0989
 3735SOL    HW241700   4.334   2.977  10.971 -1.3120 -1.4559 -0.7843
 3736SOL     OW41701   4.999   3.120  12.654 -0.6771 -0.4496 -0.3146
 3736SOL    HW141702   5.018   3.078  12.570  0.1042 -0.7419  0.0001
 3736SOL    HW241703   4.955   3.052  12.705  0.7034 -0.9578  0.2418
 3737SOL     OW41704   5.677   1.043   1.371  0.6836  0.7457  0.8495
 3737SOL    HW141705   5.636   0.961   1.399  2.2433  0.0261  1.1532
 3737SOL    HW241706   5.689   1.033   1.277 -0.3002  1.1828  0.6711
 3738SOL     OW41707   1.586   2.727  12.806 -0.1186  0.0906 -0.3221
 3738SOL    HW141708   1.616   2.811  12.771  0.5478  0.3148  0.7432
 3738SOL    HW241709   1.638   2.714  12.885 -1.6510 -0.3346  0.6633
 3739SOL     OW41710   1.282   5.673   1.074  0.3496 -1.0891  0.4261
 3739SOL    HW141711   1.249   5.601   1.128  0.4930 -1.4518  0.0336
 3739SOL    HW241712   1.218   5.683   1.005 -0.0076 -0.3948  0.8512
 3740SOL     OW41713   3.671   1.005  12.004  0.1908 -0.2916  0.3616
 3740SOL    HW141714   3.658   0.955  11.924 -0.2977 -0.8536  0.7794
 3740SOL    HW241715   3.766   1.016  12.011  0.2068  0.1826 -0.5393
 3741SOL     OW41716   2.432   1.148  12.395 -0.4112 -0.0910 -0.5198
 3741SOL    HW141717   2.419   1.053  12.398 -0.0327 -0.1401 -0.3564
 3741SOL    HW241718   2.361   1.184  12.448  0.2273 -0.3651  0.5481
 3742SOL     OW41719   0.874   1.674  12.398  0.0862  0.1326 -0.3327
 3742SOL    HW141720   0.875   1.751  12.455  0.1667  0.2949 -0.5543
 3742SOL    HW241721   0.951   1.684  12.343  0.7775 -0.7122  0.4383
 3743SOL     OW41722   4.007   4.865   1.694  0.3508 -0.1406 -0.3444
 3743SOL    HW141723   4.024   4.772   1.682 -0.9029 -0.5268  0.6928
 3743SOL    HW241724   3.971   4.894   1.610 -1.2188 -1.0759 -0.0232
 3744SOL     OW41725   3.486   3.616  12.130 -0.2968  0.5389 -0.0921
 3744SOL    HW141726   3.461   3.684  12.192 -1.9079  1.3565 -1.5350
 3744SOL    HW241727   3.514   3.542  12.184 -0.5110  1.6144  1.5501
 3745SOL     OW41728   4.652   0.634   0.401  0.5357 -0.1375  0.2438
 3745SOL    HW141729   4.650   0.697   0.329  1.3340 -1.3711 -0.9161
 3745SOL    HW241730   4.560   0.611   0.415  0.4808 -1.4652 -1.8882
 3746SOL     OW41731   1.541   1.314  12.362 -0.1166 -0.3244 -0.1356
 3746SOL    HW141732   1.590   1.302  12.281 -0.1844 -0.1643 -0.2009
 3746SOL    HW241733   1.548   1.407  12.381  2.3937 -0.7716  1.6417
 3747SOL     OW41734   1.240   4.496  11.275  0.6107  0.0844 -0.0888
 3747SOL    HW141735   1.177   4.558  11.312  1.2393  0.5509  0.2142
 3747SOL    HW241736   1.218   4.494  11.181 -1.2502 -1.4149  0.3172
 3748SOL     OW41737   1.539   3.406   0.468  0.5689 -0.1619  0.0235
 3748SOL    HW141738   1.617   3.360   0.500  0.2816  1.0462  2.7556
 3748SOL    HW241739   1.573   3.486   0.429  0.8559 -1.1972 -1.9818
 3749SOL     OW41740   0.920   1.798  11.397  0.0080  0.0015  0.4519
 3749SOL    HW141741   0.985   1.866  11.379 -0.0033 -0.6184 -2.2865
 3749SOL    HW241742   0.836   1.839  11.378 -0.2792  0.1189  1.8433
 3750SOL     OW41743   1.858   0.030   1.546 -0.5333  0.1479 -0.2381
 3750SOL    HW141744   1.936   0.081   1.569  0.2139 -1.2153  0.3838
 3750SOL    HW241745   1.785   0.078   1.587  0.2948  0.0609  1.4305
 3751SOL     OW41746   2.009   4.837   0.155  0.0609 -0.3188  0.3435
 3751SOL    HW141747   2.019   4.780   0.079  2.0001 -2.1840  1.8679
 3751SOL    HW241748   1.970   4.780   0.223 -0.2683  0.8782  1.1889
 3752SOL     OW41749   5.263   2.742   1.413  0.1186 -0.2045  0.1031
 3752SOL    HW141750   5.268   2.746   1.508  1.2140 -0.5999  0.0835
 3752SOL    HW241751   5.183   2.788   1.390  0.1940  0.4797  1.1749
 3753SOL     OW41752   5.455   4.309  11.475 -0.3042 -0.5022  0.3022
 3753SOL    HW141753   5.382   4.279  11.529 -0.4021 -0.3825  0.2340
 3753SOL    HW241754   5.516   4.348  11.537  0.1169 -1.4028  0.4815
 3754SOL     OW41755   0.223   1.719  12.685 -0.2203 -0.8574  0.1057
 3754SOL    HW141756   0.259   1.747  12.769  0.5988 -0.2628 -0.4285
 3754SOL    HW241757   0.168   1.644  12.706 -2.1735  0.8657  1.5443
 3755SOL     OW41758   1.927   1.710  11.631 -0.6792 -0.2409  0.1667
 3755SOL    HW141759   1.846   1.686  11.586 -1.5759 -1.8231  2.4512
 3755SOL    HW241760   1.990   1.643  11.604 -0.0628  0.9467 -1.5503
 3756SOL     OW41761   6.334   2.451  11.865 -0.1882  0.0005 -0.4245
 3756SOL    HW141762   6.355   2.481  11.776  2.5993  1.3090  0.5556
 3756SOL    HW241763   6.286   2.524  11.904  0.4172  0.3042 -0.2335
 3757SOL     OW41764   4.392   0.451  12.552  0.2375  0.3324 -0.4589
 3757SOL    HW141765   4.395   0.531  12.604  1.3426 -0.4054  0.6589
 3757SOL    HW241766   4.469   0.455  12.495  0.9151 -0.4173  0.3760
 3758SOL     OW41767   1.641   5.167  11.705 -0.0080  0.2204 -0.8663
 3758SOL    HW141768   1.633   5.084  11.658  1.0279 -0.4148  0.0374
 3758SOL    HW241769   1.721   5.207  11.670  1.7381 -1.0362  1.4356
 3759SOL     OW41770   3.400   6.213  11.742 -0.1167 -1.1631  0.4166
 3759SOL    HW141771   3.389   6.129  11.788  0.2455 -0.9159  0.9672
 3759SOL    HW241772   3.312   6.247  11.733 -0.0999 -0.5387  2.2287
 3760SOL     OW41773   3.622   2.618   0.092 -0.6406  0.5037  0.6902
 3760SOL    HW141774   3.656   2.528   0.085 -2.4203 -0.2762  1.4429
 3760SOL    HW241775   3.699   2.671   0.109  0.3870 -0.9619  0.8349
 3761SOL     OW41776   4.501   2.596  11.064  0.0741 -0.2141  0.0908
 3761SOL    HW141777   4.439   2.620  10.995  1.4957  0.3772 -1.0362
 3761SOL    HW241778   4.446   2.566  11.136 -1.6101  2.0774 -0.1423
 3762SOL     OW41779   2.852   5.983   0.590  0.4827 -0.1918 -0.5047
 3762SOL    HW141780   2.894   6.052   0.539  0.9680 -0.3136 -0.2856
 3762SOL    HW241781   2.896   5.988   0.676 -0.2214 -0.0776 -0.1480
 3763SOL     OW41782   5.845   2.423  11.504 -0.0111 -0.3467 -0.0632
 3763SOL    HW141783   5.765   2.438  11.452  0.2775 -0.3497 -0.5122
 3763SOL    HW241784   5.912   2.404  11.439  0.2200 -0.9734  0.3526
 3764SOL     OW41785   3.951   2.800  12.351  0.0481  0.2902  0.3237
 3764SOL    HW141786   4.031   2.765  12.390  0.5155 -0.2700 -1.0777
 3764SOL    HW241787   3.911   2.851  12.421  0.1595 -1.7335  1.9270
 3765SOL     OW41788   5.755   0.256   1.123  0.2038  0.1465  0.4905
 3765SOL    HW141789   5.733   0.350   1.124  0.0108  0.0939  1.0923
 3765SOL    HW241790   5.672   0.213   1.106  0.4600  0.1241 -0.8456
 3766SOL     OW41791   0.318   1.583  11.679 -0.5831  0.2648 -0.0065
 3766SOL    HW141792   0.284   1.655  11.732  0.2049 -0.0818  1.0114
 3766SOL    HW241793   0.261   1.580  11.603 -1.1433  1.4224  0.3439
 3767SOL     OW41794   3.246   5.403  12.416  0.1647  0.7952  0.7006
 3767SOL    HW141795   3.228   5.493  12.442 -0.6777 -0.0133  3.1090
 3767SOL    HW241796   3.206   5.349  12.483 -2.5170 -1.5551 -2.4385
 3768SOL     OW41797   3.720   0.004   1.239  0.0527 -0.5501  0.5412
 3768SOL    HW141798   3.671  -0.031   1.165 -1.0673  0.1993  0.8964
 3768SOL    HW241799   3.719   0.099   1.225  0.5205 -0.4594  1.0948
 3769SOL     OW41800   4.977   3.919   1.470  0.0975  0.3090 -0.2733
 3769SOL    HW141801   4.987   3.824   1.479 -0.7690  0.0756 -1.4639
 3769SOL    HW241802   4.892   3.929   1.427 -0.3493  1.6836  0.8955
 3770SOL     OW41803   6.058   6.189   0.258 -0.3861 -0.0318  0.4644
 3770SOL    HW141804   6.075   6.179   0.351  0.0159  0.4739  0.4512
 3770SOL    HW241805   6.059   6.100   0.223 -1.8471 -0.3495  1.1519
 3771SOL     OW41806   5.333   4.608   0.587 -0.1588  0.2335  0.0868
 3771SOL    HW141807   5.390   4.531   0.593  2.2877  2.0377  1.2020
 3771SOL    HW241808   5.298   4.618   0.675  0.0670  0.7950  0.1120
 3772SOL     OW41809   3.670   4.584   0.712  0.6920  0.2988  0.5873
 3772SOL    HW141810   3.629   4.666   0.738  0.8437 -0.1894  2.5246
 3772SOL    HW241811   3.723   4.607   0.636  1.0812  2.1155  1.3347
 3773SOL     OW41812   0.861   2.006   1.336 -0.6361  0.0584 -0.1564
 3773SOL    HW141813   0.767   2.019   1.350 -0.2051  2.0375  1.3418
 3773SOL    HW241814   0.903   2.071   1.392  1.7081 -2.3348  1.1359
 3774SOL     OW41815   2.205   5.431   0.653  0.0161  0.2889  0.3206
 3774SOL    HW141816   2.154   5.388   0.584 -1.8037  0.8603  1.2349
 3774SOL    HW241817   2.291   5.389   0.649 -0.2029 -0.0884 -1.8995
 3775SOL     OW41818   2.253   6.412  12.046 -0.4263  0.0149 -0.5102
 3775SOL    HW141819   2.210   6.480  11.993 -0.3394  1.1119  0.7711
 3775SOL    HW241820   2.278   6.345  11.983  2.2919  2.5330 -2.3946
 3776SOL     OW41821   3.773   2.582   1.251 -0.5750 -0.7078  0.0113
 3776SOL    HW141822   3.797   2.638   1.178  0.4048  0.9360  1.5051
 3776SOL    HW241823   3.681   2.602   1.268 -1.2039 -2.0885 -1.5525
 3777SOL     OW41824   1.765   4.763   0.613  0.3785  0.8113 -0.1613
 3777SOL    HW141825   1.761   4.689   0.674  0.9095  1.2641  0.4360
 3777SOL    HW241826   1.723   4.835   0.660 -0.5391  0.7785 -0.9160
 3778SOL     OW41827   4.961   5.531   0.985 -0.2030  0.6819 -0.2139
 3778SOL    HW141828   4.977   5.461   0.923 -0.7893  0.4876 -0.1528
 3778SOL    HW241829   5.009   5.505   1.064 -0.6265  0.2132 -0.1024
 3779SOL     OW41830   1.251   1.273  11.575 -0.8583  0.1850 -0.6288
 3779SOL    HW141831   1.262   1.298  11.483 -0.0687 -0.2189 -0.6512
 3779SOL    HW241832   1.259   1.177  11.574 -0.9002  0.1784 -0.1439
 3780SOL     OW41833   1.651   3.867  12.119  0.1521  0.0806 -0.2615
 3780SOL    HW141834   1.726   3.809  12.107  0.0903 -0.1074  0.2346
 3780SOL    HW241835   1.580   3.826  12.070  0.3911  0.3003 -0.7984
 3781SOL     OW41836   2.691   5.379   0.509  0.2076 -1.0141 -0.4091
 3781SOL    HW141837   2.739   5.339   0.437  0.5400  0.0601 -0.7942
 3781SOL    HW241838   2.749   5.368   0.585  0.1334 -1.5754 -0.4252
 3782SOL     OW41839   0.701   5.309  12.055  0.6074  0.2610  0.1920
 3782SOL    HW141840   0.652   5.355  12.124  1.0045 -1.5634  1.7851
 3782SOL    HW241841   0.640   5.242  12.023  1.0274 -0.0543  0.0452
 3783SOL     OW41842   4.741   2.640  10.968 -0.3527  0.0949  0.0201
 3783SOL    HW141843   4.652   2.622  10.999 -1.1734 -1.1398 -2.7019
 3783SOL    HW241844   4.729   2.695  10.891  1.1669 -0.7146 -0.8514
 3784SOL     OW41845   5.016   3.677  11.951 -0.0731 -0.0942  0.0809
 3784SOL    HW141846   5.111   3.685  11.946 -0.1222  0.9187  0.4042
 3784SOL    HW241847   5.001   3.586  11.974  0.9970  0.4385  3.4717
 3785SOL     OW41848   1.240   5.649   0.613 -0.1853  0.0750 -0.2020
 3785SOL    HW141849   1.287   5.572   0.645 -0.3666 -0.4723 -1.1864
 3785SOL    HW241850   1.159   5.613   0.576 -0.4511  0.7831 -0.3229
 3786SOL     OW41851   5.418   4.579  12.229 -0.2840  0.0908  0.3525
 3786SOL    HW141852   5.384   4.492  12.253  1.1156 -0.7224 -0.4721
 3786SOL    HW241853   5.440   4.572  12.136 -1.0437  1.6502  0.0254
 3787SOL     OW41854   4.457   2.112  11.851  0.3381  0.4157 -0.4128
 3787SOL    HW141855   4.384   2.084  11.905  0.0845  0.9028 -0.4975
 3787SOL    HW241856   4.424   2.105  11.761 -0.4415  2.8169 -0.4019
 3788SOL     OW41857   5.867   3.720  12.750  0.1836  0.4569  0.2329
 3788SOL    HW141858   5.810   3.644  12.737 -0.8588  1.4238 -1.0477
 3788SOL    HW241859   5.844   3.780  12.680  4.2427  0.0763 -1.7123
 3789SOL     OW41860   2.728   4.161  12.451  0.4433  0.1041 -0.6986
 3789SOL    HW141861   2.761   4.189  12.537 -0.1509 -0.4393 -0.2848
 3789SOL    HW241862   2.636   4.187  12.451 -0.1704 -1.8862 -0.2522
 3790SOL     OW41863   0.119   6.412  11.323  0.1015 -0.0744 -0.5952
 3790SOL    HW141864   0.115   6.467  11.402  0.3660  0.8330 -1.1958
 3790SOL    HW241865   0.039   6.360  11.327 -0.0892  0.2459  0.0732
 3791SOL     OW41866   4.745   2.798  11.578 -0.3707  0.1465  0.1407
 3791SOL    HW141867   4.787   2.753  11.505 -2.4120  0.0986 -1.0889
 3791SOL    HW241868   4.781   2.886  11.576 -0.5583  0.2115 -1.0974
 3792SOL     OW41869   0.064   3.739   0.277 -0.5027  1.1368  0.0567
 3792SOL    HW141870   0.061   3.674   0.347 -1.8480  1.4024  0.2731
 3792SOL    HW241871   0.141   3.715   0.225 -0.7301 -0.3617  0.3770
 3793SOL     OW41872   2.851   5.996   0.292 -0.5123 -0.3243 -0.2159
 3793SOL    HW141873   2.841   6.040   0.208  1.1116  0.2958 -0.1098
 3793SOL    HW241874   2.762   5.993   0.328 -1.0396  0.5089 -1.3968
 3794SOL     OW41875   3.575   0.300   1.320  0.4492  0.5038  0.1208
 3794SOL    HW141876   3.481   0.287   1.333  0.6681  0.2046  1.5981
 3794SOL    HW241877   3.581   0.362   1.248 -0.7881 -2.1432 -2.4619
 3795SOL     OW41878   4.255   5.793  12.399  0.4584 -0.1737  0.5332
 3795SOL    HW141879   4.199   5.856  12.352 -2.2348 -1.4973  1.7386
 3795SOL    HW241880   4.325   5.772  12.338 -1.0035  0.7166 -1.5481
 3796SOL     OW41881   2.602   3.533   1.018  0.2058 -0.2572  0.3682
 3796SOL    HW141882   2.564   3.512   0.932 -0.8621  0.9049  0.5320
 3796SOL    HW241883   2.639   3.620   1.007  0.5131 -0.3106  0.9621
 3797SOL     OW41884   4.912   4.782  11.965  0.4712 -0.4309 -0.2736
 3797SOL    HW141885   4.816   4.774  11.965  0.3607  0.5447  1.0874
 3797SOL    HW241886   4.935   4.789  11.872 -0.6664 -1.6891 -0.6820
 3798SOL     OW41887   6.243   6.327  12.183  0.0845 -0.1980  0.7582
 3798SOL    HW141888   6.306   6.269  12.139 -0.5469 -0.7739  0.5855
 3798SOL    HW241889   6.182   6.352  12.114 -0.1187  0.0149  1.0167
 3799SOL     OW41890   0.516   0.238  11.555 -0.7882 -0.5719 -0.0592
 3799SOL    HW141891   0.533   0.322  11.597 -2.4783 -0.9541  1.5239
 3799SOL    HW241892   0.482   0.261  11.469  0.9788  0.2844 -0.5658
 3800SOL     OW41893   1.179   5.796  12.047  0.3077 -0.5281  0.6958
 3800SOL    HW141894   1.094   5.840  12.041 -0.4562 -1.5822  2.7787
 3800SOL    HW241895   1.169   5.734  12.119  2.9930 -0.3984  1.2866
 3801SOL     OW41896   1.270   2.765  12.453  0.2262 -0.6042  0.5415
 3801SOL    HW141897   1.222   2.716  12.520 -0.4831  1.3375  1.5532
 3801SOL    HW241898   1.362   2.756  12.478  0.0225 -0.5142  1.3783
 3802SOL     OW41899   0.667   3.727  11.818 -0.4520  0.3493  0.3041
 3802SOL    HW141900   0.709   3.812  11.803  1.1929 -0.0382  2.3555
 3802SOL    HW241901   0.589   3.729  11.762  0.8800  2.1683 -1.6060
 3803SOL     OW41902   0.168   0.326   1.083  0.0717  0.0082  0.1382
 3803SOL    HW141903   0.229   0.395   1.109  0.5285 -0.4159  0.2116
 3803SOL    HW241904   0.086   0.372   1.063  0.8760  0.7854 -1.5836
 3804SOL     OW41905   1.906   2.904   0.101  0.0169 -0.3943  0.3080
 3804SOL    HW141906   1.965   2.838   0.065 -0.0279 -0.8106  0.9971
 3804SOL    HW241907   1.835   2.854   0.142 -0.4140  0.0911  0.1731
 3805SOL     OW41908   6.089   1.208   0.425  0.0903  0.7349  0.2275
 3805SOL    HW141909   6.144   1.267   0.374  0.2514 -0.5598 -1.1750
 3805SOL    HW241910   6.064   1.258   0.503  0.6233  2.4374 -0.6669
 3806SOL     OW41911   5.432   2.179  11.501 -0.0321  0.1914  0.3992
 3806SOL    HW141912   5.424   2.089  11.532 -0.4867  0.3045  0.6211
 3806SOL    HW241913   5.411   2.174  11.408 -0.5642  0.1385  0.5156
 3807SOL     OW41914   0.931   5.601  10.953 -0.8791  0.1265  0.6073
 3807SOL    HW141915   0.852   5.646  10.984 -0.4481  0.7584  0.8186
 3807SOL    HW241916   0.965   5.658  10.884 -1.2999 -0.7862 -0.3925
 3808SOL     OW41917   1.672   2.994  12.813 -0.3648  0.8014  0.5292
 3808SOL    HW141918   1.615   3.015  12.887  0.7793 -0.8315  1.9656
 3808SOL    HW241919   1.760   3.020  12.842 -0.1511  2.1347 -1.1502
 3809SOL     OW41920   1.171   4.131   1.467  0.0605 -0.3456  0.0984
 3809SOL    HW141921   1.152   4.111   1.375 -1.2176 -0.9623  0.4756
 3809SOL    HW241922   1.086   4.150   1.505  0.5475 -0.4037  1.2411
 3810SOL     OW41923   1.693   1.310  12.098 -0.3705  0.2263  0.0322
 3810SOL    HW141924   1.778   1.344  12.071 -0.5202  0.6818  0.1254
 3810SOL    HW241925   1.630   1.353  12.040 -0.4487 -0.9445 -0.7768
 3811SOL     OW41926   2.120   4.042  12.133 -1.0697 -0.3868  0.4581
 3811SOL    HW141927   2.070   4.006  12.060 -0.5929 -0.2995  0.0823
 3811SOL    HW241928   2.076   4.009  12.212  0.3556 -3.2446  0.1718
 3812SOL     OW41929   3.833   6.250  11.503  0.2774 -0.6610 -0.6341
 3812SOL    HW141930   3.746   6.211  11.507  0.2411 -0.4665  1.2267
 3812SOL    HW241931   3.874   6.227  11.586  1.7407 -0.1333 -1.1723
 3813SOL     OW41932   2.317   3.714  11.742 -0.3364 -0.1356  0.3175
 3813SOL    HW141933   2.271   3.779  11.794 -1.7006 -1.9297  1.4663
 3813SOL    HW241934   2.249   3.654  11.711  1.0572 -2.6377  1.7141
 3814SOL     OW41935   4.498   3.592  12.302  1.0193 -0.1189  0.5911
 3814SOL    HW141936   4.443   3.568  12.377 -1.5047 -0.3427 -1.2296
 3814SOL    HW241937   4.528   3.680  12.322  0.3811 -0.1614  1.8577
 3815SOL     OW41938   2.641   6.009  12.564 -0.1886 -0.3965 -0.7218
 3815SOL    HW141939   2.615   6.049  12.481 -0.2507 -0.9891 -0.9864
 3815SOL    HW241940   2.604   6.068  12.630 -0.3417 -0.0506 -1.1088
 3816SOL     OW41941   3.977   3.452  11.907 -0.6299 -0.3764 -0.1301
 3816SOL    HW141942   4.028   3.420  11.982  0.7809  0.3141 -0.7664
 3816SOL    HW241943   3.893   3.405  11.913 -0.0391 -1.3123  1.1177
 3817SOL     OW41944   4.388   0.314  11.591 -0.6130  0.6644 -0.2373
 3817SOL    HW141945   4.457   0.363  11.547 -0.5474 -1.2214 -2.4524
 3817SOL    HW241946   4.418   0.304  11.681  1.8944  0.1974 -1.0368
 3818SOL     OW41947   0.141   1.676  11.500  0.2709 -0.6283 -0.0887
 3818SOL    HW141948   0.059   1.683  11.452  1.2835 -1.5639 -2.0701
 3818SOL    HW241949   0.167   1.766  11.519 -0.2961 -0.2518 -1.0717
 3819SOL     OW41950   1.068   5.647  12.275  0.2973 -0.3895  0.1922
 3819SOL    HW141951   1.016   5.715  12.233  0.3983 -0.4255  0.0085
 3819SOL    HW241952   1.026   5.633  12.360 -1.0147 -1.5992 -0.6175
 3820SOL     OW41953   0.730   2.542  12.681 -0.3917 -0.1814  0.5395
 3820SOL    HW141954   0.817   2.579  12.697 -0.5271  0.0377  0.7801
 3820SOL    HW241955   0.740   2.492  12.600 -0.2019  0.3523  0.2268
 3821SOL     OW41956   2.575   1.389  11.499 -0.5947 -0.1533 -0.3961
 3821SOL    HW141957   2.621   1.393  11.583  0.8739  1.9786 -1.2251
 3821SOL    HW241958   2.507   1.456  11.507  0.0861  0.6516 -1.1666
 3822SOL     OW41959   2.322   5.113  11.902 -0.1667  0.5047 -0.4088
 3822SOL    HW141960   2.233   5.081  11.915  0.2318 -0.0733  1.1210
 3822SOL    HW241961   2.312   5.206  11.883 -1.0518  0.6480  0.6959
 3823SOL     OW41962   4.670   3.073  11.119 -0.7147 -0.2974  0.2436
 3823SOL    HW141963   4.685   2.998  11.062 -1.3705 -0.6904  0.5776
 3823SOL    HW241964   4.710   3.049  11.202  2.3403  1.2093 -0.6514
 3824SOL     OW41965   4.586   2.981   1.556  0.2843  0.2829  0.7592
 3824SOL    HW141966   4.571   2.957   1.465 -0.6874 -0.1353  1.0119
 3824SOL    HW241967   4.645   2.913   1.590 -0.8252 -0.6273  0.9228
 3825SOL     OW41968   5.047   6.302  11.688 -0.0711 -0.0538 -0.6101
 3825SOL    HW141969   4.975   6.299  11.625  0.9326 -1.3908 -1.7459
 3825SOL    HW241970   5.073   6.211  11.700  2.7063  0.4720 -1.7773
 3826SOL     OW41971   4.846   4.179  11.620  0.0044 -0.1084  0.9042
 3826SOL    HW141972   4.783   4.165  11.691 -2.0557  0.1098 -0.7853
 3826SOL    HW241973   4.921   4.123  11.643 -0.8006 -0.4355  2.9445
 3827SOL     OW41974   6.119   2.126  11.485 -0.0134  0.1822  0.3807
 3827SOL    HW141975   6.067   2.170  11.552  0.7660  0.3998  0.8456
 3827SOL    HW241976   6.135   2.194  11.419  0.8452  0.5005  0.9033
 3828SOL     OW41977   5.407   0.597  12.278  0.2226 -0.6107  0.7794
 3828SOL    HW141978   5.316   0.570  12.289  0.6611 -2.0072  1.1263
 3828SOL    HW241979   5.403   0.666  12.212 -0.9732 -1.5541 -0.1985
 3829SOL     OW41980   6.232   6.305  11.919 -0.1795 -0.3349  0.2046
 3829SOL    HW141981   6.193   6.226  11.958 -0.8356  0.2165  0.7115
 3829SOL    HW241982   6.307   6.274  11.870 -1.9745 -1.6238 -1.8848
 3830SOL     OW41983   0.364   0.308   1.610  0.0314  0.2802  0.6863
 3830SOL    HW141984   0.285   0.298   1.664  0.2656 -1.4673  0.7732
 3830SOL    HW241985   0.405   0.222   1.613  1.4640  0.9114 -0.1219
 3831SOL     OW41986   5.963   6.194   1.645 -0.4193 -1.1214 -0.0719
 3831SOL    HW141987   5.945   6.100   1.646 -1.4123 -1.0071 -2.2372
 3831SOL    HW241988   6.058   6.201   1.633 -0.3229 -1.8394  0.2492
 3832SOL     OW41989   0.353   0.168   0.299 -1.0575 -0.3774  0.5296
 3832SOL    HW141990   0.443   0.184   0.269 -1.0187  0.0657  0.8923
 3832SOL    HW241991   0.350   0.204   0.387 -1.8168  0.3001  0.2303
 3833SOL     OW41992   4.878   5.552  12.776 -0.1763 -0.0404  0.6039
 3833SOL    HW141993   4.936   5.519  12.707  0.5103 -0.8063  1.5176
 3833SOL    HW241994   4.804   5.590  12.728  0.8649  0.5710 -0.5760
 3834SOL     OW41995   5.469   6.305  12.414  0.6867 -1.0436 -0.0069
 3834SOL    HW141996   5.399   6.313  12.349  1.6930  0.5850 -0.9594
 3834SOL    HW241997   5.518   6.227  12.386  2.3512  0.7632 -2.5637
 3835SOL     OW41998   5.000   2.344  11.602 -0.2165  0.5880  0.1598
 3835SOL    HW141999   5.073   2.297  11.641  0.1349 -0.1498 -1.2965
 3835SOL    HW242000   4.992   2.425  11.652 -0.4621 -0.7466  2.3680
 3836SOL     OW42001   3.009   1.342  11.491 -0.0615 -0.8462  0.2353
 3836SOL    HW142002   3.070   1.272  11.469  0.7569  0.6412 -2.6616
 3836SOL    HW242003   2.924   1.311  11.462  0.7200  0.3278 -3.9974
 3837SOL     OW42004   5.603   3.531  11.823 -0.0791  0.0440  1.2216
 3837SOL    HW142005   5.567   3.469  11.760 -0.5286  1.1318  0.3774
 3837SOL    HW242006   5.526   3.567  11.868  0.0263  1.2460  0.4850
 3838SOL     OW42007   0.087   1.278  12.590  0.2142  0.5245 -0.6047
 3838SOL    HW142008   0.025   1.209  12.566  0.2488  0.4022 -0.3371
 3838SOL    HW242009   0.136   1.295  12.509  0.3559  0.0814 -0.6150
 3839SOL     OW42010   5.737   5.975  12.035 -0.1830 -0.4710  0.3429
 3839SOL    HW142011   5.773   5.889  12.055  0.9277 -0.3104 -0.8289
 3839SOL    HW242012   5.642   5.961  12.032  0.0158 -1.8431 -0.6035
 3840SOL     OW42013   1.693   0.309  11.296 -0.9365  0.1724  0.4914
 3840SOL    HW142014   1.776   0.273  11.328 -0.0635 -0.0911 -1.8231
 3840SOL    HW242015   1.720   0.381  11.238 -2.3078  0.0324 -0.3529
 3841SOL     OW42016   0.715   0.909  12.511  0.0007  0.4199 -0.1300
 3841SOL    HW142017   0.698   0.998  12.542  0.0302  0.1491  0.6710
 3841SOL    HW242018   0.628   0.873  12.494 -0.0338  0.4306  0.0234
 3842SOL     OW42019   5.296   3.878  12.479 -0.5760  0.6462 -0.3031
 3842SOL    HW142020   5.260   3.892  12.391  1.8664 -0.7994 -1.6475
 3842SOL    HW242021   5.363   3.946  12.489  0.6199 -0.4690 -0.4843
 3843SOL     OW42022   5.874   1.753  11.868  0.2843  0.1167  0.0507
 3843SOL    HW142023   5.882   1.782  11.958  1.5417  0.9510 -0.3011
 3843SOL    HW242024   5.863   1.833  11.817 -1.8878 -0.4185 -0.4427
 3844SOL     OW42025   1.217   0.980  11.871 -0.3882  0.5573 -0.3003
 3844SOL    HW142026   1.240   0.915  11.804 -1.6453 -0.0557 -0.1808
 3844SOL    HW242027   1.166   1.046  11.823 -1.1762  0.1850  0.0108
 3845SOL     OW42028   0.549   5.472  12.253  0.4411 -0.5276  0.0685
 3845SOL    HW142029   0.550   5.493  12.346  0.2781 -0.4586  0.0548
 3845SOL    HW242030   0.591   5.546  12.211 -1.1136  0.3101 -0.0872
 3846SOL     OW42031   5.237   4.686  11.528 -0.0177 -0.4970  0.4846
 3846SOL    HW142032   5.214   4.596  11.553 -1.9391 -0.3895 -0.6435
 3846SOL    HW242033   5.294   4.676  11.452 -0.3682 -0.7787  0.2531
 3847SOL     OW42034   5.442   3.965  11.735  0.4080 -0.2382 -0.4821
 3847SOL    HW142035   5.494   4.042  11.712 -1.1880  0.5280 -1.7968
 3847SOL    HW242036   5.432   3.917  11.653 -1.0775 -0.2515 -0.3192
 3848SOL     OW42037   5.727   3.561   0.930 -0.8214  0.1704  0.0836
 3848SOL    HW142038   5.729   3.650   0.963 -1.1027  0.3449 -0.3543
 3848SOL    HW242039   5.649   3.558   0.875 -1.2224 -0.5522  0.6703
 3849SOL     OW42040   5.667   5.441   0.407 -0.3822 -0.1304 -0.1897
 3849SOL    HW142041   5.730   5.440   0.335 -1.2116  3.2543 -1.1167
 3849SOL    HW242042   5.587   5.476   0.368 -1.2015  0.7306  2.1113
 3850SOL     OW42043   0.497   0.006  11.071  0.4428 -0.3358  0.0611
 3850SOL    HW142044   0.542   0.090  11.084  1.0770 -0.6620 -0.0054
 3850SOL    HW242045   0.407   0.031  11.047  0.9989  0.3481 -1.4144
 3851SOL     OW42046   3.275   1.687   1.526 -1.0299  0.7472  0.3996
 3851SOL    HW142047   3.316   1.608   1.491 -3.2767 -0.7440  0.9183
 3851SOL    HW242048   3.184   1.663   1.540 -1.5087  3.0420  1.8667
 3852SOL     OW42049   3.167   0.928   1.212  0.5259  0.2531 -0.0893
 3852SOL    HW142050   3.145   0.984   1.138  1.1244 -0.4796 -0.8404
 3852SOL    HW242051   3.084   0.888   1.238  0.6834 -1.8130 -2.3230
 3853SOL     OW42052   1.606   4.672   1.690 -0.6388 -0.1067 -0.1130
 3853SOL    HW142053   1.633   4.665   1.599  0.0523  2.4911 -0.1759
 3853SOL    HW242054   1.525   4.621   1.695  0.3804 -2.0284 -1.6301
 3854SOL     OW42055   3.979   5.300   0.598 -0.3391  0.2858  0.0163
 3854SOL    HW142056   4.008   5.381   0.556 -1.2778 -0.0154 -1.2687
 3854SOL    HW242057   4.025   5.230   0.551 -1.0374 -0.0265 -0.2248
 3855SOL     OW42058   0.230   1.353  12.366 -0.1985  0.0247 -0.3395
 3855SOL    HW142059   0.256   1.443  12.384  2.3988 -1.2155  3.2059
 3855SOL    HW242060   0.264   1.336  12.278  1.0462  1.9398 -0.2936
 3856SOL     OW42061   0.684   1.177  12.547  0.6626  0.9364 -0.2636
 3856SOL    HW142062   0.696   1.174  12.452 -0.3761  0.6867 -0.3876
 3856SOL    HW242063   0.738   1.252  12.575 -0.3592  2.0881 -1.2648
 3857SOL     OW42064   2.868   5.346  12.553  0.1038 -0.2691 -0.6748
 3857SOL    HW142065   2.951   5.367  12.596 -0.4264 -1.0851  0.8261
 3857SOL    HW242066   2.843   5.261  12.589 -1.5777  0.1363 -0.7864
 3858SOL     OW42067   5.632   2.309  12.531 -0.1325  0.1368  0.5754
 3858SOL    HW142068   5.567   2.316  12.600 -1.4868 -1.7395 -0.3981
 3858SOL    HW242069   5.704   2.259  12.570 -1.0659 -1.2697  0.5593
 3859SOL     OW42070   6.207   3.949  11.356  0.1823  0.2629 -0.0692
 3859SOL    HW142071   6.126   3.946  11.304 -0.1565 -0.4427  0.4822
 3859SOL    HW242072   6.244   4.035  11.337 -0.2471  0.2580 -1.0020
 3860SOL     OW42073   2.105   3.841   1.447  0.2342 -0.3181 -0.1149
 3860SOL    HW142074   2.108   3.902   1.520  2.7538 -0.4139 -0.0508
 3860SOL    HW242075   2.154   3.765   1.477  0.5553 -0.7302 -1.5727
 3861SOL     OW42076   4.854   4.996   1.882 -0.0503  0.2235  0.3766
 3861SOL    HW142077   4.881   5.082   1.914  0.4324  0.8118 -1.4914
 3861SOL    HW242078   4.767   4.983   1.919  1.7660 -0.8172  4.8750
 3862SOL     OW42079   0.161   0.000   1.617  0.5265  0.6384  0.3481
 3862SOL    HW142080   0.152   0.052   1.537 -2.7036 -0.2486  0.0071
 3862SOL    HW242081   0.159   0.064   1.688 -0.1781  1.2009 -0.1712
 3863SOL     OW42082   0.667   0.369  12.772 -0.6689  0.7715 -0.3792
 3863SOL    HW142083   0.636   0.460  12.767  0.3966  1.0947 -2.2220
 3863SOL    HW242084   0.645   0.332  12.686  1.0690  0.0611 -0.5522
 3864SOL     OW42085   3.789   6.189   0.624 -0.0049 -0.5437 -0.2179
 3864SOL    HW142086   3.736   6.224   0.552 -1.7546 -1.0808  0.7527
 3864SOL    HW242087   3.754   6.101   0.639 -1.2654  0.3273  2.7109
 3865SOL     OW42088   1.757   5.856   0.891  0.5224  0.0905 -0.2472
 3865SOL    HW142089   1.763   5.949   0.910 -2.3041  0.6497 -1.6104
 3865SOL    HW242090   1.711   5.819   0.966  2.3793 -0.4516  0.6977
 3866SOL     OW42091   3.202   5.538  12.826 -0.1253  0.3755  1.0320
 3866SOL    HW142092   3.291   5.566  12.803 -0.2885 -0.3313 -0.6595
 3866SOL    HW242093   3.187   5.572  12.914  0.7233  3.0352  0.2178
 3867SOL     OW42094   4.562   0.078   0.621  0.1533 -0.2248  0.0551
 3867SOL    HW142095   4.467   0.088   0.623  0.3507  1.8674  1.0082
 3867SOL    HW242096   4.584   0.086   0.528 -0.3529  3.0286  0.0844
 3868SOL     OW42097   0.169   2.811   0.654 -0.1268  0.5368 -0.5191
 3868SOL    HW142098   0.128   2.737   0.700  1.7055 -0.6706 -0.7139
 3868SOL    HW242099   0.178   2.879   0.721  2.3012 -1.0982  0.9954
 3869SOL     OW42100   3.978   2.394   1.358  0.0492  0.3702 -0.3396
 3869SOL    HW142101   3.976   2.299   1.356  2.4842  0.2476  0.0047
 3869SOL    HW242102   3.892   2.421   1.326 -1.1454 -1.9227  0.7155
 3870SOL     OW42103   5.296   5.541  11.363 -0.4078 -0.5696 -0.6669
 3870SOL    HW142104   5.310   5.577  11.450 -3.4600 -1.2778  0.2469
 3870SOL    HW242105   5.294   5.617  11.305 -0.0106  0.0575  0.1219
 3871SOL     OW42106   2.057   4.232   1.466 -0.1216 -0.7850  0.4180
 3871SOL    HW142107   2.017   4.163   1.414 -1.0989 -0.1239  0.2575
 3871SOL    HW242108   2.135   4.257   1.417 -1.2266  0.0930 -0.9650
 3872SOL     OW42109   0.376   1.938   1.252 -0.2921 -0.5131  0.2936
 3872SOL    HW142110   0.379   1.900   1.164 -1.6905 -0.2324  0.1016
 3872SOL    HW242111   0.285   1.930   1.278 -0.1009  0.3899  1.2945
 3873SOL     OW42112   5.776   4.316  12.202 -0.7483  0.0930  0.5036
 3873SOL    HW142113   5.748   4.335  12.112 -1.2706 -1.4122  0.3188
 3873SOL    HW242114   5.870   4.297  12.195 -0.3358  1.9506  0.6150
 3874SOL     OW42115   6.158   5.160  12.736 -0.0195  0.4965  0.2480
 3874SOL    HW142116   6.233   5.173  12.677  0.9603 -0.3701  1.2668
 3874SOL    HW242117   6.179   5.079  12.783 -0.8665  1.0705  1.6483
 3875SOL     OW42118   2.224   0.401   1.199 -0.3361 -1.0478  0.6569
 3875SOL    HW142119   2.200   0.375   1.110  0.6336 -0.5705  0.2426
 3875SOL    HW242120   2.204   0.494   1.203 -0.1775 -1.0221  0.8710
 3876SOL     OW42121   1.350   3.005   1.103 -0.2851 -0.4206 -0.5635
 3876SOL    HW142122   1.390   3.068   1.042 -1.4717  0.3674 -0.5493
 3876SOL    HW242123   1.305   3.059   1.168 -0.9815 -1.2835 -0.3102
 3877SOL     OW42124   0.449   1.373   0.926  0.0481  0.0884 -0.8308
 3877SOL    HW142125   0.485   1.448   0.879  0.3768  0.4519  0.0004
 3877SOL    HW242126   0.431   1.405   1.014  0.2841 -0.8261 -0.4387
 3878SOL     OW42127   3.006   2.162  12.780 -0.1118 -0.5952 -0.3268
 3878SOL    HW142128   2.939   2.155  12.712  1.0733 -0.8188 -1.5098
 3878SOL    HW242129   3.049   2.077  12.780  1.0299 -0.0445 -0.5285
 3879SOL     OW42130   4.821   1.905  11.664  0.3959 -0.4769  0.4227
 3879SOL    HW142131   4.852   1.991  11.638  0.3298 -0.6605 -0.3069
 3879SOL    HW242132   4.762   1.921  11.738 -2.3267  0.5017 -1.7873
 3880SOL     OW42133   1.376   6.382   0.041  0.4687  0.4174 -0.2311
 3880SOL    HW142134   1.309   6.411  -0.021  0.1901  0.9084  0.2852
 3880SOL    HW242135   1.360   6.288   0.052 -1.3103  0.8130  1.2336
 3881SOL     OW42136   6.164   4.656   1.373 -0.3019 -0.1602 -0.0667
 3881SOL    HW142137   6.142   4.696   1.457 -2.1550 -0.6002 -0.2941
 3881SOL    HW242138   6.137   4.720   1.308  0.8064  0.0317 -0.3531
 3882SOL     OW42139   1.323   1.144   0.536 -0.3086  0.8135  0.3626
 3882SOL    HW142140   1.234   1.120   0.563 -0.9162 -0.2246 -2.1840
 3882SOL    HW242141   1.372   1.061   0.540  0.3900  1.2497  1.1314
 3883SOL     OW42142   4.867   4.373  12.791 -0.0057  0.1743 -0.7589
 3883SOL    HW142143   4.962   4.366  12.785 -0.1767 -4.2554 -1.2928
 3883SOL    HW242144   4.840   4.296  12.841 -3.3731  0.8706 -1.2622
 3884SOL     OW42145   2.359   2.557   0.346  0.3885  0.3016 -0.0349
 3884SOL    HW142146   2.399   2.479   0.385 -0.0096 -0.5804 -1.3357
 3884SOL    HW242147   2.306   2.594   0.416  0.1228 -0.9324  0.4373
 3885SOL     OW42148   0.088   0.173   1.390 -0.8297  0.2586 -0.3783
 3885SOL    HW142149   0.092   0.268   1.382  0.5005  0.2379 -0.2708
 3885SOL    HW242150  -0.004   0.153   1.407 -1.0906  1.5310 -0.2516
 3886SOL     OW42151   3.520   2.365   0.800 -0.2013  0.3896  0.8408
 3886SOL    HW142152   3.478   2.317   0.728 -2.0683  1.5646  1.0712
 3886SOL    HW242153   3.565   2.298   0.851  0.5174 -0.5657 -0.9794
 3887SOL     OW42154   1.206   5.338   1.070 -0.1029  0.0249  0.8048
 3887SOL    HW142155   1.214   5.358   0.977  0.3127  0.6438  0.9630
 3887SOL    HW242156   1.116   5.307   1.080 -0.2766  0.3330  0.2589
 3888SOL     OW42157   4.736   4.689  12.374  0.4919 -0.4755  0.3014
 3888SOL    HW142158   4.740   4.769  12.427 -0.0198 -0.9765  1.1245
 3888SOL    HW242159   4.780   4.623  12.428 -1.3584 -1.3580  0.8096
 3889SOL     OW42160   1.709   0.394   0.120  0.2101 -0.3709  0.0689
 3889SOL    HW142161   1.639   0.448   0.084  0.3370 -0.5782 -0.4928
 3889SOL    HW242162   1.665   0.312   0.145  0.1485 -0.2816  0.2559
 3890SOL     OW42163   1.147   3.566  11.258 -0.0312  0.3919  0.2250
 3890SOL    HW142164   1.198   3.639  11.293  1.0007  0.1671 -0.7587
 3890SOL    HW242165   1.208   3.493  11.255 -1.2491 -0.7780  1.9190
 3891SOL     OW42166   4.626   4.808   0.346 -0.4868  0.1798  0.4107
 3891SOL    HW142167   4.617   4.815   0.251  1.4355  0.8429  0.2402
 3891SOL    HW242168   4.718   4.787   0.360 -0.7327  0.1245  2.1413
 3892SOL     OW42169   5.003   6.378   0.717 -0.4635 -0.4320  0.0294
 3892SOL    HW142170   4.912   6.404   0.706 -0.2323 -0.4671 -2.5210
 3892SOL    HW242171   5.015   6.304   0.657  1.2173 -0.4695  0.3523
 3893SOL     OW42172   6.309   1.225   1.555 -0.4041  0.4008 -0.5099
 3893SOL    HW142173   6.219   1.194   1.560 -0.1757 -0.1383  0.4887
 3893SOL    HW242174   6.333   1.243   1.646  0.8886 -0.6084 -0.6215
 3894SOL     OW42175   6.172   3.568   0.256 -0.0764  0.3077 -0.3151
 3894SOL    HW142176   6.233   3.499   0.229  0.0769 -0.0724  0.9391
 3894SOL    HW242177   6.163   3.556   0.350 -1.8175  0.6045 -0.4179
 3895SOL     OW42178   0.197   5.341   0.207 -0.1635 -0.0315 -0.3591
 3895SOL    HW142179   0.145   5.275   0.253  0.1035 -0.4646 -0.6708
 3895SOL    HW242180   0.145   5.421   0.212 -1.1977 -0.6234 -1.2846
 3896SOL     OW42181   0.367   6.101  12.377  0.2335  0.2140 -0.7093
 3896SOL    HW142182   0.342   6.014  12.410  2.4012 -0.6394 -1.1281
 3896SOL    HW242183   0.420   6.083  12.299 -0.0974  1.9786 -1.3904
 3897SOL     OW42184   1.076   2.018   1.164  0.5531  0.0443  0.1247
 3897SOL    HW142185   1.063   2.090   1.103  1.5870  1.3219  1.3372
 3897SOL    HW242186   0.996   2.016   1.218 -0.6493 -1.5080 -1.5908
 3898SOL     OW42187   4.471   3.890   0.167  0.2679  0.1574  0.0569
 3898SOL    HW142188   4.563   3.890   0.140 -0.1395  0.0772 -1.3843
 3898SOL    HW242189   4.449   3.983   0.177  0.0843  0.2528 -1.1345
 3899SOL     OW42190   0.318   0.568   1.212 -0.0893  0.5852  0.5871
 3899SOL    HW142191   0.327   0.661   1.193 -2.2935  0.8990  0.7537
 3899SOL    HW242192   0.275   0.565   1.297 -0.6720 -0.5614  0.2747
 3900SOL     OW42193   4.374   3.126  12.722  0.4605  0.2597  0.7515
 3900SOL    HW142194   4.434   3.087  12.786 -0.1134  0.7364  1.6111
 3900SOL    HW242195   4.417   3.208  12.697  1.5940 -0.7909 -0.9408
 3901SOL     OW42196   1.010   5.933  12.549  0.0831  0.8587  0.5507
 3901SOL    HW142197   0.954   5.856  12.555  0.4474  0.5520  0.1707
 3901SOL    HW242198   0.982   5.990  12.621 -1.4958  1.2426 -0.3173
 3902SOL     OW42199   6.207   6.179  11.059 -0.4073  0.3592  0.1880
 3902SOL    HW142200   6.238   6.266  11.034  1.9680 -0.3024  0.5991
 3902SOL    HW242201   6.222   6.125  10.981  0.5937 -0.2198  0.7632
 3903SOL     OW42202   1.712   4.619   1.004  0.6768 -0.0893  0.4650
 3903SOL    HW142203   1.750   4.612   1.091 -1.1208 -2.2623  1.1758
 3903SOL    HW242204   1.783   4.592   0.945  1.3662 -0.3917  1.4026
 3904SOL     OW42205   6.321   3.711  11.320  0.5239  0.4724 -0.1771
 3904SOL    HW142206   6.359   3.733  11.235 -0.8441  1.7351 -0.5083
 3904SOL    HW242207   6.266   3.786  11.342  0.8761  0.1878  1.8594
 3905SOL     OW42208   2.417   3.855   0.516  0.2263  0.0286 -0.0328
 3905SOL    HW142209   2.370   3.909   0.453 -0.5908 -0.3901  0.2123
 3905SOL    HW242210   2.358   3.847   0.590  1.0927  0.3384  0.7138
 3906SOL     OW42211   0.614   4.665   0.573 -0.4370  0.4032  0.8195
 3906SOL    HW142212   0.595   4.572   0.586  0.6947 -0.0412 -0.4348
 3906SOL    HW242213   0.553   4.693   0.505 -1.2058  0.7535  1.6432
 3907SOL     OW42214   0.877   6.276  12.223  0.4589 -0.7475  0.0553
 3907SOL    HW142215   0.945   6.343  12.230 -1.6932  1.4408  1.8029
 3907SOL    HW242216   0.842   6.285  12.135  0.2556  0.4318  0.2378
 3908SOL     OW42217   6.175   0.289  11.944 -0.0744  0.7471  0.1212
 3908SOL    HW142218   6.160   0.286  12.038  1.6703 -1.6039  0.4231
 3908SOL    HW242219   6.126   0.215  11.909  0.1945  0.9324 -0.6768
 3909SOL     OW42220   1.716   2.261   0.874  0.3731 -0.0974  0.4537
 3909SOL    HW142221   1.643   2.262   0.812  0.4072  0.8033  0.4196
 3909SOL    HW242222   1.779   2.324   0.839  0.4663  0.3122  1.3098
 3910SOL     OW42223   4.018   2.085   0.870 -0.1389 -0.1209  0.3031
 3910SOL    HW142224   4.002   1.991   0.863 -0.5530 -0.1764  1.5859
 3910SOL    HW242225   3.993   2.106   0.960  2.2108  0.7751  0.8152
 3911SOL     OW42226   6.095   5.557  11.967 -0.0353 -0.1032  0.2510
 3911SOL    HW142227   6.102   5.497  11.892  3.1673 -0.1187  0.4029
 3911SOL    HW242228   6.163   5.527  12.027 -1.1299  1.2056  2.2199
 3912SOL     OW42229   0.677   0.011  11.461  0.2784 -0.3090  0.1572
 3912SOL    HW142230   0.603   0.069  11.444  1.0128  1.2542  1.9547
 3912SOL    HW242231   0.638  -0.063  11.508 -0.4384 -0.5632 -0.8057
 3913SOL     OW42232   3.891   2.507  12.535 -0.0519 -0.0022 -0.1182
 3913SOL    HW142233   3.973   2.543  12.567 -0.6202  0.5879  0.7172
 3913SOL    HW242234   3.915   2.422  12.499  0.8197 -0.1213  0.7054
 3914SOL     OW42235   2.802   0.528   0.574 -0.1966 -0.0806  0.8183
 3914SOL    HW142236   2.821   0.523   0.667  1.0254 -2.1736  0.5302
 3914SOL    HW242237   2.802   0.437   0.544  1.6938  0.5861 -1.5981
 3915SOL     OW42238   6.050   0.811  12.352  0.0116  0.0783  0.6848
 3915SOL    HW142239   6.000   0.884  12.389 -0.8513 -0.2518  0.2061
 3915SOL    HW242240   6.009   0.795  12.267  1.2452  0.0982  0.0549
 3916SOL     OW42241   3.645   5.503   0.595 -0.6022  0.0354  0.4153
 3916SOL    HW142242   3.637   5.408   0.585  1.0326 -0.0212 -0.8880
 3916SOL    HW242243   3.693   5.514   0.677  1.7694 -0.4875 -0.7866
 3917SOL     OW42244   5.410   0.239   1.308 -0.1027  0.1692  0.3965
 3917SOL    HW142245   5.384   0.331   1.306 -2.4014 -0.4148  0.2090
 3917SOL    HW242246   5.500   0.240   1.339 -0.0417  2.4845  0.3066
 3918SOL     OW42247   0.829   3.000  12.107 -0.1496 -0.0037  0.3607
 3918SOL    HW142248   0.867   3.048  12.033  0.9942 -0.9776  0.2981
 3918SOL    HW242249   0.895   3.004  12.176 -0.3010 -0.9396  0.5770
 3919SOL     OW42250   5.789   4.640  12.629  0.1543 -0.4246 -0.2451
 3919SOL    HW142251   5.757   4.584  12.558 -2.9730  1.2263 -0.3337
 3919SOL    HW242252   5.774   4.589  12.708  0.4838 -0.9723 -0.5271
 3920SOL     OW42253   0.259   1.647   0.430  0.1819 -0.1914  0.1518
 3920SOL    HW142254   0.325   1.627   0.364  1.0398 -0.8307  1.1629
 3920SOL    HW242255   0.306   1.703   0.493 -0.7628  0.8359 -0.0311
 3921SOL     OW42256   3.129   6.283  12.156 -0.2273  0.1616  0.6353
 3921SOL    HW142257   3.207   6.339  12.157 -0.5704  0.6348  1.1175
 3921SOL    HW242258   3.159   6.201  12.195  0.6899 -0.5735 -1.4759
 3922SOL     OW42259   0.862   4.800  12.771  0.3929  0.0742 -0.1806
 3922SOL    HW142260   0.868   4.717  12.817 -0.1564  1.1506  1.9942
 3922SOL    HW242261   0.937   4.851  12.803  0.3143  0.6734 -0.9116
 3923SOL     OW42262   0.073   2.593  12.169 -0.0061 -0.2124  0.2437
 3923SOL    HW142263   0.161   2.632  12.168  0.3159 -0.9332 -0.0584
 3923SOL    HW242264   0.016   2.663  12.138  0.5620  0.0366 -0.2619
 3924SOL     OW42265   2.951   6.412  12.359 -0.4939  1.1708  0.1350
 3924SOL    HW142266   3.024   6.398  12.299 -1.3493  0.7855 -0.8443
 3924SOL    HW242267   2.907   6.327  12.363 -0.2700  1.0881  1.5874
 3925SOL     OW42268   2.490   4.840   0.363 -0.2740 -0.1961  0.1434
 3925SOL    HW142269   2.492   4.860   0.269  1.0451 -2.4495 -0.3959
 3925SOL    HW242270   2.473   4.746   0.366 -2.1333  0.1250  2.2666
 3926SOL     OW42271   1.269   4.450  12.666  0.3145  0.3226  0.1691
 3926SOL    HW142272   1.177   4.470  12.683  0.6156  1.2752  0.7930
 3926SOL    HW242273   1.273   4.355  12.656 -0.7532  0.2910  0.0064
 3927SOL     OW42274   2.117   2.573   1.271 -0.2196  0.2422 -0.2270
 3927SOL    HW142275   2.163   2.499   1.232  1.1599  0.9538 -0.0247
 3927SOL    HW242276   2.084   2.540   1.354 -1.8776 -0.8516 -1.2479
 3928SOL     OW42277   3.986   3.221   1.225  0.1118 -0.7228  0.1939
 3928SOL    HW142278   3.944   3.153   1.279 -0.3558  0.5649  1.5107
 3928SOL    HW242279   4.074   3.188   1.210 -0.3706 -2.0161  0.0780
 3929SOL     OW42280   4.428   4.894  11.250  0.0823  0.4167  0.2412
 3929SOL    HW142281   4.374   4.868  11.325 -0.5400 -0.4627 -0.4868
 3929SOL    HW242282   4.384   4.971  11.215 -1.4103 -0.9338 -1.0169
 3930SOL     OW42283   0.483   0.744   1.580 -0.0631 -0.2586  0.1845
 3930SOL    HW142284   0.417   0.795   1.626 -0.0324 -0.4717  0.4618
 3930SOL    HW242285   0.434   0.678   1.532  0.0603 -1.7797  2.0572
 3931SOL     OW42286   0.993   2.745   0.302 -0.0059  0.0822  0.1816
 3931SOL    HW142287   1.056   2.738   0.230 -0.5395  0.7397 -0.3562
 3931SOL    HW242288   1.027   2.686   0.369  1.1527  0.3862 -0.1231
 3932SOL     OW42289   4.947   4.559   0.707 -0.5746  0.3831 -0.2943
 3932SOL    HW142290   4.920   4.584   0.796 -0.0189 -1.3085  0.3862
 3932SOL    HW242291   4.864   4.543   0.661 -0.8634 -0.8923  0.6065
 3933SOL     OW42292   1.379   0.445   1.392  0.4089 -0.2945 -0.0093
 3933SOL    HW142293   1.368   0.361   1.436 -1.3820  0.8139  1.8197
 3933SOL    HW242294   1.457   0.484   1.433 -1.0261  0.5646  2.0508
 3934SOL     OW42295   5.950   1.468  11.860 -0.3586  0.5227  0.2144
 3934SOL    HW142296   5.906   1.550  11.839 -0.0598  0.1320 -2.2683
 3934SOL    HW242297   5.896   1.400  11.818  0.0920 -0.4279  1.1121
 3935SOL     OW42298   2.973   4.342   1.767 -0.7410 -0.1219  0.5559
 3935SOL    HW142299   2.974   4.438   1.764 -1.2339 -0.0731  1.7311
 3935SOL    HW242300   2.885   4.317   1.739 -0.2453 -0.3076 -0.9538
 3936SOL     OW42301   3.669   6.045   1.191  0.0847 -0.1435  0.0575
 3936SOL    HW142302   3.719   5.970   1.161  1.6080 -0.4853  3.0691
 3936SOL    HW242303   3.577   6.019   1.180  0.5616 -1.2548 -1.5819
 3937SOL     OW42304   1.673   5.575   0.240 -0.7954  0.5570  0.0865
 3937SOL    HW142305   1.724   5.641   0.194 -0.4709 -0.2393 -0.7037
 3937SOL    HW242306   1.677   5.602   0.332  0.2807  1.0039 -0.0814
 3938SOL     OW42307   2.827   5.408   1.001 -0.4478  0.0917 -0.0336
 3938SOL    HW142308   2.797   5.430   1.089  0.2183  0.9665 -0.0160
 3938SOL    HW242309   2.858   5.318   1.008 -1.5496 -0.2799  0.3239
 3939SOL     OW42310   5.204   0.088   0.793 -0.5187  0.0740  1.0182
 3939SOL    HW142311   5.268   0.095   0.722  0.3867 -0.2886  1.7787
 3939SOL    HW242312   5.129   0.043   0.754  0.6079 -1.6266  0.6766
 3940SOL     OW42313   4.414   3.024  11.657 -0.2629  0.4430 -0.1927
 3940SOL    HW142314   4.386   2.971  11.583 -2.2144  0.1846  0.6603
 3940SOL    HW242315   4.501   3.055  11.633 -0.7845  0.2904 -2.5227
 3941SOL     OW42316   0.341   2.681   0.454 -0.6368 -0.8011 -0.1103
 3941SOL    HW142317   0.291   2.743   0.507  0.0257  1.3996 -1.8851
 3941SOL    HW242318   0.279   2.612   0.432 -2.1058  0.4271  0.0455
 3942SOL     OW42319   1.331   5.879   0.879 -0.1863 -0.2006 -0.3211
 3942SOL    HW142320   1.404   5.820   0.899 -0.5358 -0.7736 -0.7390
 3942SOL    HW242321   1.328   5.939   0.954  1.2619  0.3841 -0.7011
 3943SOL     OW42322   2.182   4.919   0.406  0.3890 -0.4882 -0.5770
 3943SOL    HW142323   2.117   4.921   0.337  1.5997 -0.1978 -1.7433
 3943SOL    HW242324   2.240   4.846   0.384  0.5374 -0.6881  0.3869
 3944SOL     OW42325   5.815   3.657   1.692 -0.1448 -0.9325 -0.0057
 3944SOL    HW142326   5.756   3.630   1.763 -0.7169  0.8480  0.2647
 3944SOL    HW242327   5.775   3.738   1.658  0.2518 -1.6087 -2.2186
 3945SOL     OW42328   4.682   4.742   1.691  0.3267 -0.0036 -0.0413
 3945SOL    HW142329   4.725   4.675   1.639 -1.1735 -1.7337  0.8533
 3945SOL    HW242330   4.707   4.724   1.781 -0.4930  0.3192  0.2656
 3946SOL     OW42331   3.695   4.737   0.122  0.0724  0.5231 -0.0987
 3946SOL    HW142332   3.734   4.811   0.169  0.7965  0.4289 -0.5246
 3946SOL    HW242333   3.771   4.690   0.086 -0.4407  1.5908 -2.8668
 3947SOL     OW42334   0.429   1.072  11.529  0.0688  0.6542 -0.0125
 3947SOL    HW142335   0.497   1.012  11.563 -1.1212  0.1024  1.5295
 3947SOL    HW242336   0.462   1.159  11.550  0.9659  0.4608 -0.5853
 3948SOL     OW42337   2.240   4.261   0.979  0.4401  0.3540 -0.3034
 3948SOL    HW142338   2.207   4.337   1.027  1.2471  1.5455 -1.5463
 3948SOL    HW242339   2.172   4.242   0.915  1.0078  1.2195 -1.1981
 3949SOL     OW42340   1.462   4.581  12.810 -0.8223  0.3797 -0.1602
 3949SOL    HW142341   1.424   4.621  12.888 -1.4213  0.8043 -0.6499
 3949SOL    HW242342   1.389   4.531  12.772 -0.5310  0.1617 -0.4299
 3950SOL     OW42343   3.121   1.413  11.871  0.8275 -0.1817  0.1577
 3950SOL    HW142344   3.036   1.430  11.830  1.2590 -1.2793 -1.2688
 3950SOL    HW242345   3.141   1.493  11.920 -0.3979  0.5996 -0.5789
 3951SOL     OW42346   1.175   3.130   0.395 -0.3907  0.0294  0.3221
 3951SOL    HW142347   1.087   3.099   0.420 -0.1010 -0.3360  0.9088
 3951SOL    HW242348   1.231   3.053   0.403 -0.4046 -0.3621 -2.3668
 3952SOL     OW42349   1.482   3.457  11.420  0.1721 -0.1380  0.0953
 3952SOL    HW142350   1.502   3.547  11.393 -0.3555  0.0415  0.2830
 3952SOL    HW242351   1.432   3.468  11.501 -1.2757 -0.5358 -0.7165
 3953SOL     OW42352   5.197   2.581  11.384 -1.0735  0.1787 -0.0147
 3953SOL    HW142353   5.198   2.546  11.473 -1.3877  0.7909  0.2329
 3953SOL    HW242354   5.289   2.604  11.366 -1.2706  1.7666  0.8461
 3954SOL     OW42355   2.448   3.591  12.110 -0.4246  0.1228  0.0954
 3954SOL    HW142356   2.356   3.618  12.104 -0.7760 -0.9973  0.2579
 3954SOL    HW242357   2.497   3.664  12.071 -1.4687  0.2426 -1.0600
 3955SOL     OW42358   0.481   2.056  11.568 -0.0072 -0.5137  0.1623
 3955SOL    HW142359   0.427   2.107  11.629  0.6876  0.1707  0.2217
 3955SOL    HW242360   0.571   2.081  11.589  0.3143 -1.3056 -0.2352
 3956SOL     OW42361   2.503   2.839  11.900 -0.5223  0.0397 -0.8611
 3956SOL    HW142362   2.461   2.925  11.899 -1.0698 -0.2243 -1.0275
 3956SOL    HW242363   2.430   2.777  11.902 -0.2192 -0.4724 -3.1674
 3957SOL     OW42364   1.948   3.913   0.047 -0.4222  0.1222  0.1884
 3957SOL    HW142365   1.879   3.965   0.089 -1.5999 -0.2159 -1.2593
 3957SOL    HW242366   1.988   3.863   0.119 -0.6353  1.4681  1.2816
 3958SOL     OW42367   0.084   5.896  12.430  0.0308 -0.0030 -0.7562
 3958SOL    HW142368   0.163   5.867  12.385 -1.0284 -1.5624 -1.7005
 3958SOL    HW242369   0.032   5.939  12.362 -0.0002  0.9537 -0.1552
 3959SOL     OW42370   0.909   4.034   0.051 -0.2710 -0.6963 -0.0956
 3959SOL    HW142371   0.949   3.950   0.071 -0.5407 -1.2302 -1.6661
 3959SOL    HW242372   0.959   4.098   0.102  0.8241 -1.6560  0.0570
 3960SOL     OW42373   1.081   2.021  11.430 -0.4385 -0.4251 -0.5051
 3960SOL    HW142374   1.169   2.046  11.458  0.3992 -0.8475 -2.5583
 3960SOL    HW242375   1.027   2.098  11.449  0.4810  0.0320  0.3294
 3961SOL     OW42376   6.344   5.175  12.543  0.1076 -0.4021  0.0081
 3961SOL    HW142377   6.438   5.191  12.548  0.1072 -0.7558  1.3411
 3961SOL    HW242378   6.315   5.227  12.468  1.4652 -0.8327 -0.8498
 3962SOL     OW42379   2.774   1.883  12.103 -0.3484 -0.1948  0.0342
 3962SOL    HW142380   2.772   1.798  12.059 -3.0824  0.4402 -1.2575
 3962SOL    HW242381   2.700   1.881  12.163  1.4986  0.1411  2.5092
 3963SOL     OW42382   5.243   4.933  11.938  0.0405  0.3305  0.6170
 3963SOL    HW142383   5.203   4.868  11.996 -0.4713 -1.1839 -1.3170
 3963SOL    HW242384   5.331   4.901  11.922  0.5220  1.2669  1.3006
 3964SOL     OW42385   3.789   4.676   0.478 -0.1983 -0.5500 -0.0274
 3964SOL    HW142386   3.877   4.654   0.509 -0.4759 -0.1619  1.0925
 3964SOL    HW242387   3.798   4.763   0.441 -0.1955 -0.2999  0.5430
 3965SOL     OW42388   1.229   4.169   1.169 -0.0832 -0.5024  0.4343
 3965SOL    HW142389   1.281   4.091   1.185 -0.1329 -2.0202 -4.8275
 3965SOL    HW242390   1.292   4.234   1.139 -0.4122  0.5679  1.9310
 3966SOL     OW42391   4.925   0.143  11.720 -0.2659  0.3634 -0.1628
 3966SOL    HW142392   4.991   0.185  11.667  1.7441 -0.7671  1.2813
 3966SOL    HW242393   4.964   0.058  11.744 -3.1299 -1.3283 -1.0088
 3967SOL     OW42394   2.335   6.112   1.281  0.0718  0.4032 -0.2423
 3967SOL    HW142395   2.370   6.067   1.359 -0.9348 -1.9211 -1.0409
 3967SOL    HW242396   2.350   6.205   1.299 -0.8593  0.0521  3.0985
 3968SOL     OW42397   1.356   4.560   1.650  0.3663  0.2574 -0.0931
 3968SOL    HW142398   1.272   4.571   1.605 -0.6771 -0.0645  1.7159
 3968SOL    HW242399   1.377   4.468   1.638 -0.2804  0.0024  0.6923
 3969SOL     OW42400   4.087   5.032   0.473  0.3855 -0.0185 -0.4008
 3969SOL    HW142401   4.162   4.976   0.449 -0.8182 -1.5873 -0.6809
 3969SOL    HW242402   4.010   4.977   0.455 -0.8335  1.4982  0.0191
 3970SOL     OW42403   6.321   2.765   0.515 -0.4656 -0.4671 -0.0515
 3970SOL    HW142404   6.355   2.749   0.603  0.5746  0.8414 -0.1830
 3970SOL    HW242405   6.233   2.802   0.530 -1.0034 -1.8254  0.3536
 3971SOL     OW42406   0.127   6.288   1.167  0.5137  0.0344  0.1464
 3971SOL    HW142407   0.075   6.315   1.243  0.2938  2.7005 -0.8682
 3971SOL    HW242408   0.193   6.356   1.157  2.5484 -1.8669 -0.2705
 3972SOL     OW42409   0.483   1.543  12.205 -0.2531 -0.5398  0.3730
 3972SOL    HW142410   0.441   1.615  12.158  0.9621  0.2922  0.5223
 3972SOL    HW242411   0.456   1.555  12.296 -0.0418 -0.2628  0.3990
 3973SOL     OW42412   5.428   0.577  11.759 -0.4087  0.6904  0.1594
 3973SOL    HW142413   5.463   0.506  11.705 -0.5954 -0.7470  1.8565
 3973SOL    HW242414   5.506   0.618  11.797 -0.3745  0.0888  0.7522
 3974SOL     OW42415   4.376   4.542   0.783 -0.5935  0.5750  0.1387
 3974SOL    HW142416   4.285   4.565   0.801 -1.0732 -0.4508 -0.8331
 3974SOL    HW242417   4.401   4.598   0.709  0.1186  2.0162  1.4229
 3975SOL     OW42418   3.187   2.336   0.529 -0.0156  0.2929 -0.3345
 3975SOL    HW142419   3.188   2.431   0.521 -1.6500  0.6035  2.0350
 3975SOL    HW242420   3.108   2.309   0.482  1.3048 -0.1621 -2.4417
 3976SOL     OW42421   0.518   1.968   0.192  0.4542  0.0995  0.0036
 3976SOL    HW142422   0.585   2.019   0.147 -0.1059  1.4054  0.5947
 3976SOL    HW242423   0.517   2.003   0.281 -1.9876  1.1958 -0.3570
 3977SOL     OW42424   3.681   2.826   0.627  0.3455 -0.2699 -0.2560
 3977SOL    HW142425   3.608   2.770   0.653 -0.6848  1.4672  0.8402
 3977SOL    HW242426   3.670   2.836   0.532  0.8590 -2.2646 -0.5650
 3978SOL     OW42427   5.742   0.319   0.258  0.9108  0.0845  0.1011
 3978SOL    HW142428   5.652   0.300   0.286  1.1557  0.3296  1.0805
 3978SOL    HW242429   5.733   0.394   0.199  0.6471  1.3783  1.7271
 3979SOL     OW42430   4.545   3.736   0.430 -0.1973 -0.4019  0.1664
 3979SOL    HW142431   4.555   3.799   0.359  2.5071  0.2114  0.9764
 3979SOL    HW242432   4.576   3.653   0.392  2.0561  0.1006  0.7877
 3980SOL     OW42433   0.573   4.778   1.000  0.1593  0.0850  0.4217
 3980SOL    HW142434   0.646   4.718   0.986  1.1437  1.1606  0.7354
 3980SOL    HW242435   0.525   4.779   0.917  2.9643  2.5364 -1.3795
 3981SOL     OW42436   3.366   1.632   0.797 -0.1670 -0.2386  0.7613
 3981SOL    HW142437   3.319   1.660   0.876 -1.1089  1.7428 -0.4137
 3981SOL    HW242438   3.458   1.648   0.818 -0.3826  0.0026  1.5780
 3982SOL     OW42439   4.149   4.058   0.933 -0.6368 -0.4192  0.0888
 3982SOL    HW142440   4.123   4.116   1.005 -1.4502 -1.8805  1.0167
 3982SOL    HW242441   4.093   4.084   0.860 -0.5539  0.3665  0.2923
 3983SOL     OW42442   4.108   0.091   1.098 -0.1135  0.3926 -0.2319
 3983SOL    HW142443   4.178   0.047   1.146 -1.0454 -0.9266 -0.0316
 3983SOL    HW242444   4.063   0.021   1.052 -0.6152  1.3712 -1.2622
 3984SOL     OW42445   6.213   6.121   1.220  0.0375  0.1184  0.0434
 3984SOL    HW142446   6.253   6.150   1.139 -0.7831 -0.5130 -0.6087
 3984SOL    HW242447   6.189   6.029   1.204 -1.2598  0.3474  0.5359
 3985SOL     OW42448   1.866   3.594  12.331 -0.2479  0.6731  0.1288
 3985SOL    HW142449   1.779   3.569  12.364 -0.2590  0.7603  0.1645
 3985SOL    HW242450   1.927   3.548  12.389 -0.2708  0.0001 -0.3595
 3986SOL     OW42451   5.202   3.675  12.259  0.2288 -0.6060  0.0505
 3986SOL    HW142452   5.219   3.650  12.168 -1.1469 -1.2369 -0.0607
 3986SOL    HW242453   5.194   3.770  12.257 -2.5130 -0.7633 -1.0425
 3987SOL     OW42454   5.971   5.982   1.412 -0.4518 -0.1502 -0.3602
 3987SOL    HW142455   6.050   6.029   1.387  0.4650 -1.2772  0.3324
 3987SOL    HW242456   5.977   5.899   1.365 -2.5776  0.7495 -2.4377
 3988SOL     OW42457   2.241   4.562   1.460 -0.4646 -0.1041 -0.2692
 3988SOL    HW142458   2.172   4.627   1.479 -1.8845 -1.1438 -1.5980
 3988SOL    HW242459   2.226   4.538   1.369  0.0939 -2.2137  0.1437
 3989SOL     OW42460   0.027   6.161  12.800 -0.4765 -0.3612  0.3930
 3989SOL    HW142461   0.079   6.213  12.739 -1.9020  0.3184 -0.2685
 3989SOL    HW242462   0.028   6.073  12.764  2.0709 -0.9249  1.5938
 3990SOL     OW42463   1.604   3.760   0.880  0.3402  0.3835  0.2643
 3990SOL    HW142464   1.601   3.833   0.818 -0.3141 -0.7758 -1.1250
 3990SOL    HW242465   1.592   3.682   0.826 -0.3082 -0.6816  1.8678
 3991SOL     OW42466   2.384   0.003  12.859  0.2260  0.3055 -0.2530
 3991SOL    HW142467   2.420   0.083  12.819 -2.5486  1.2966 -0.9616
 3991SOL    HW242468   2.312   0.034  12.913 -1.1775 -1.7432 -0.8610
 3992SOL     OW42469   5.417   1.925  11.604  0.3153  0.4282 -0.1234
 3992SOL    HW142470   5.442   1.912  11.513 -1.4457  2.2071 -0.9435
 3992SOL    HW242471   5.394   1.837  11.635  2.9471 -0.5334 -0.6709
 3993SOL     OW42472   3.534   4.155   1.045  0.0782 -0.0006 -0.1215
 3993SOL    HW142473   3.607   4.157   0.983 -0.1726 -0.3101 -0.4281
 3993SOL    HW242474   3.478   4.227   1.018  0.8643  1.0132  0.8548
 3994SOL     OW42475   2.182   1.533  12.812  0.0898 -0.1237  0.5198
 3994SOL    HW142476   2.138   1.449  12.801  0.4051 -0.3052  0.6469
 3994SOL    HW242477   2.133   1.576  12.882  0.3277 -0.4756  0.9078
 3995SOL     OW42478   3.567   2.704  12.302  0.2790  0.5471  0.2542
 3995SOL    HW142479   3.655   2.684  12.271 -0.6933 -1.0521 -1.6308
 3995SOL    HW242480   3.536   2.774  12.244  0.0010  0.5383  0.3895
 3996SOL     OW42481   4.525   2.905  12.223 -0.6936 -0.1968 -0.2586
 3996SOL    HW142482   4.537   2.810  12.226 -2.0249 -0.3729  0.0417
 3996SOL    HW242483   4.430   2.916  12.214 -0.5681  1.1133 -0.0272
 3997SOL     OW42484   4.903   5.169  11.353  0.1983 -0.0525 -0.0897
 3997SOL    HW142485   4.957   5.248  11.342 -0.9803  1.0677  1.5573
 3997SOL    HW242486   4.872   5.148  11.265 -0.6674  2.2740 -0.4235
 3998SOL     OW42487   1.594   0.078  11.410  0.7271  0.1268 -0.2224
 3998SOL    HW142488   1.627   0.017  11.345  0.3171 -0.5580  0.1928
 3998SOL    HW242489   1.618   0.165  11.378  1.3428 -0.2589 -0.8051
 3999SOL     OW42490   4.702   2.413  11.744  0.0780 -0.1430  0.1598
 3999SOL    HW142491   4.619   2.434  11.702 -0.3713 -1.1643  0.4937
 3999SOL    HW242492   4.745   2.498  11.757 -1.0078  0.4194  0.1910
 4000SOL     OW42493   5.840   2.729  11.509  0.1179  0.4387 -0.6194
 4000SOL    HW142494   5.777   2.796  11.485 -0.6676  0.7219  1.9706
 4000SOL    HW242495   5.905   2.775  11.562  1.0400 -0.3823 -0.9891
 4001SOL     OW42496   6.146   0.985   0.586 -0.4404 -0.2708 -0.1881
 4001SOL    HW142497   6.198   0.931   0.526  1.1722 -0.1879  1.0940
 4001SOL    HW242498   6.128   1.065   0.536  0.1845 -0.5250 -0.8427
 4002SOL     OW42499   2.157   2.402  12.238 -0.1668 -0.1222  0.1877
 4002SOL    HW142500   2.209   2.482  12.231 -2.4225  1.4303 -0.2661
 4002SOL    HW242501   2.093   2.422  12.307 -1.2627 -1.2452 -0.4605
 4003SOL     OW42502   6.082   5.110  11.600 -0.1803 -0.1515  0.0052
 4003SOL    HW142503   6.010   5.069  11.647 -1.5565  0.2732 -1.6211
 4003SOL    HW242504   6.039   5.164  11.533  1.5331  3.1988  1.3670
 4004SOL     OW42505   0.931   1.068  12.039 -0.3109  0.4858 -0.0182
 4004SOL    HW142506   0.920   1.012  12.116 -0.0468  0.1035 -0.2604
 4004SOL    HW242507   0.977   1.014  11.975 -0.3506  0.8672 -0.3767
 4005SOL     OW42508   3.225   3.062  11.829 -0.7181  0.3698  0.1078
 4005SOL    HW142509   3.185   3.051  11.916 -0.5930  1.4330  0.3086
 4005SOL    HW242510   3.162   3.021  11.769 -1.2539  0.4532  0.5987
 4006SOL     OW42511   1.114   3.820   0.060  0.0056 -0.0332 -0.1396
 4006SOL    HW142512   1.078   3.731   0.056  0.8130 -0.5321  2.2286
 4006SOL    HW242513   1.209   3.807   0.067  0.2198  1.0827 -0.6826
 4007SOL     OW42514   2.597   0.118  11.733  0.1430 -0.3463 -0.0312
 4007SOL    HW142515   2.579   0.172  11.810 -0.8837  0.4288 -0.7938
 4007SOL    HW242516   2.660   0.052  11.764 -0.4704 -0.2299  1.5398
 4008SOL     OW42517   5.256   5.921  11.668  0.0910  0.3052 -0.2085
 4008SOL    HW142518   5.299   5.911  11.753 -0.2742 -0.3449 -0.0943
 4008SOL    HW242519   5.300   5.996  11.627 -0.2534  1.1238  0.8705
 4009SOL     OW42520   3.584   5.402  11.582  0.5299  0.5074 -0.5181
 4009SOL    HW142521   3.491   5.420  11.594  0.7678  2.1162 -0.9348
 4009SOL    HW242522   3.625   5.430  11.663  0.7507  0.5673 -0.6481
 4010SOL     OW42523   3.739   2.060  12.123  0.6533  0.8272 -0.0535
 4010SOL    HW142524   3.646   2.063  12.143  0.2014 -1.7956 -1.4348
 4010SOL    HW242525   3.781   2.034  12.205 -0.0983 -0.1709  0.0265
 4011SOL     OW42526   1.926   3.700  12.075  0.3097 -0.1570 -0.2168
 4011SOL    HW142527   1.907   3.672  12.165 -0.3973  0.6165 -0.1106
 4011SOL    HW242528   2.020   3.719  12.076  0.3640 -0.4121  0.2837
 4012SOL     OW42529   5.224   5.799  11.235  0.1090 -0.0999 -0.2410
 4012SOL    HW142530   5.267   5.885  11.228  0.1264  0.0928  1.7112
 4012SOL    HW242531   5.131   5.818  11.224  0.1881 -0.0047 -0.8265
 4013SOL     OW42532   5.311   1.154  12.151  1.0919 -0.0549  0.6661
 4013SOL    HW142533   5.246   1.083  12.147  1.4800 -0.4399  1.0192
 4013SOL    HW242534   5.264   1.227  12.190  0.4318  0.1768 -0.5179
 4014SOL     OW42535   0.345   5.895   0.102  0.3135 -0.4354  0.0924
 4014SOL    HW142536   0.423   5.942   0.073 -0.6287  1.3284  0.3332
 4014SOL    HW242537   0.369   5.859   0.187  1.2644 -0.9914 -0.3910
 4015SOL     OW42538   4.450   5.641  11.634  0.4662  0.2405  0.3193
 4015SOL    HW142539   4.415   5.664  11.720  1.4034  0.6622  0.6040
 4015SOL    HW242540   4.491   5.721  11.603  1.5399 -0.3364  0.1938
 4016SOL     OW42541   3.236   1.718  12.488  0.0749  0.0779 -0.3393
 4016SOL    HW142542   3.186   1.724  12.570 -1.3405 -0.2039 -1.1479
 4016SOL    HW242543   3.177   1.674  12.427  1.7972 -1.4540 -0.9891
 4017SOL     OW42544   0.922   5.836   0.997  0.8509 -0.1854 -0.0996
 4017SOL    HW142545   0.912   5.758   1.052 -1.2510 -0.3405 -0.5984
 4017SOL    HW242546   0.893   5.909   1.053 -0.3581 -0.2190 -0.6562
 4018SOL     OW42547   5.276   0.274   1.011 -0.2071 -0.0523 -0.0903
 4018SOL    HW142548   5.218   0.210   0.969 -1.4366  0.7965  0.2705
 4018SOL    HW242549   5.265   0.260   1.104  2.1255 -1.5717  0.0535
 4019SOL     OW42550   3.682   1.168  12.472  0.5220 -0.1458  0.0143
 4019SOL    HW142551   3.679   1.217  12.389 -0.1233 -1.1292 -0.5556
 4019SOL    HW242552   3.718   1.083  12.448 -0.0714 -0.5867  0.6815
 4020SOL     OW42553   6.414   2.033  12.583 -0.0756  0.2211  0.8246
 4020SOL    HW142554   6.416   2.124  12.554 -0.1252 -0.2730 -0.8498
 4020SOL    HW242555   6.325   2.020  12.615  0.0289  0.8451  1.3756
 4021SOL     OW42556   5.920   5.356   1.376  0.3186  0.1802  0.2725
 4021SOL    HW142557   5.977   5.379   1.449  0.1856 -1.1827  0.8363
 4021SOL    HW242558   5.833   5.349   1.415  0.3104 -0.9742  0.1014
 4022SOL     OW42559   4.727   2.802   1.739  0.6878 -0.6956 -0.1374
 4022SOL    HW142560   4.699   2.711   1.727 -0.3174 -0.2441 -1.5965
 4022SOL    HW242561   4.701   2.824   1.828 -0.5488 -1.3707 -0.3033
 4023SOL     OW42562   4.424   4.449  12.454 -0.4436  0.3632 -0.3481
 4023SOL    HW142563   4.459   4.512  12.391 -2.4581  0.3493 -1.5537
 4023SOL    HW242564   4.424   4.495  12.538  2.1689  0.4229 -0.3069
 4024SOL     OW42565   0.772   1.391  12.759 -0.2482  0.2684 -0.1993
 4024SOL    HW142566   0.837   1.449  12.719 -1.2155  0.8359 -1.0037
 4024SOL    HW242567   0.823   1.321  12.798  0.8505  0.7416 -0.7495
 4025SOL     OW42568   1.539   2.732  12.472 -0.4235  0.3424 -0.1012
 4025SOL    HW142569   1.577   2.650  12.500 -1.1966  0.3664  1.0845
 4025SOL    HW242570   1.609   2.777  12.425  0.1338 -0.7935 -0.3748
 4026SOL     OW42571   4.376   0.702  12.702  0.3494 -0.5383  0.0678
 4026SOL    HW142572   4.412   0.751  12.628 -0.6500 -0.8344 -0.6435
 4026SOL    HW242573   4.304   0.756  12.734  0.7951 -0.3965  0.8647
 4027SOL     OW42574   1.476   4.614  12.285  0.0880 -0.5415 -0.0313
 4027SOL    HW142575   1.432   4.534  12.313 -0.5171 -0.1381  0.1844
 4027SOL    HW242576   1.406   4.677  12.271  0.4261 -0.4845 -1.6849
 4028SOL     OW42577   1.576   5.297   0.770  0.1631 -0.1457 -0.3718
 4028SOL    HW142578   1.659   5.254   0.790 -0.1150 -0.1124  0.9294
 4028SOL    HW242579   1.534   5.241   0.705  0.1029 -1.5188  0.7968
 4029SOL     OW42580   0.782   1.007  11.531  0.7184 -0.3974 -0.1097
 4029SOL    HW142581   0.744   1.007  11.619  1.0639 -2.9898  0.1226
 4029SOL    HW242582   0.790   1.099  11.509 -1.4837  0.3295  1.6517
 4030SOL     OW42583   6.181   2.138   0.908 -0.0652 -0.5885  0.7854
 4030SOL    HW142584   6.148   2.078   0.841  1.1553  0.7832 -1.1377
 4030SOL    HW242585   6.103   2.185   0.938 -0.6829 -1.4735  0.6179
 4031SOL     OW42586   2.620   4.553  11.690  0.4126  0.0760 -0.2874
 4031SOL    HW142587   2.671   4.598  11.623  0.4989 -0.8381 -0.8539
 4031SOL    HW242588   2.684   4.499  11.736  0.1295 -0.3175 -0.3516
 4032SOL     OW42589   4.429   0.917  11.636 -0.9199 -0.5093  0.0885
 4032SOL    HW142590   4.494   0.876  11.580  1.2751  0.0894  2.0444
 4032SOL    HW242591   4.427   0.864  11.716 -1.7478  0.3183  0.6547
 4033SOL     OW42592   3.098   5.808   1.037  0.9960  0.2532  0.5999
 4033SOL    HW142593   3.104   5.740   0.970  1.6096  0.9170 -0.0254
 4033SOL    HW242594   3.189   5.829   1.058  0.8075  0.8606  0.8172
 4034SOL     OW42595   5.073   1.425   0.453  0.5277  0.1367 -0.1855
 4034SOL    HW142596   5.092   1.504   0.402 -1.3973 -0.5483 -2.1309
 4034SOL    HW242597   5.107   1.353   0.400  2.1775 -0.4173  1.5192
 4035SOL     OW42598   2.369   0.698  12.114  0.0554  0.5368  0.1261
 4035SOL    HW142599   2.379   0.776  12.061  0.8689  1.2020  1.2300
 4035SOL    HW242600   2.274   0.681  12.113  0.0839  0.2467 -1.8745
 4036SOL     OW42601   6.350   0.908   1.507 -0.6186 -0.0543 -0.2467
 4036SOL    HW142602   6.286   0.914   1.578 -1.3954 -0.9393 -0.8403
 4036SOL    HW242603   6.332   0.986   1.453 -0.0756  0.5771  0.4713
 4037SOL     OW42604   0.989   0.550   0.864  0.5229 -0.8078 -0.3595
 4037SOL    HW142605   0.936   0.488   0.814  1.6979 -2.3180  0.1946
 4037SOL    HW242606   1.051   0.587   0.800  0.7584 -1.2917 -0.4139
 4038SOL     OW42607   0.403   1.145  12.540  0.5767 -0.2337  0.1216
 4038SOL    HW142608   0.495   1.169  12.546  0.2826  0.7458  1.2745
 4038SOL    HW242609   0.368   1.199  12.469  0.6598  0.2802  0.4604
 4039SOL     OW42610   2.040   4.753   1.535 -0.1852  0.4803 -0.4880
 4039SOL    HW142611   1.984   4.829   1.520 -0.5851  0.6503  1.5212
 4039SOL    HW242612   1.986   4.694   1.587  1.5438  0.8442  1.9315
 4040SOL     OW42613   4.536   5.290  12.813  0.3962  0.1886  0.0881
 4040SOL    HW142614   4.585   5.318  12.891 -0.7839  1.9973  0.2270
 4040SOL    HW242615   4.445   5.287  12.842 -0.1915  1.7880 -1.4266
 4041SOL     OW42616   2.105   5.659  12.748  0.1796 -0.1456 -0.4567
 4041SOL    HW142617   2.095   5.640  12.655 -1.6552  0.4136 -0.4116
 4041SOL    HW242618   2.094   5.574  12.791 -0.1400 -0.2313 -0.6999
 4042SOL     OW42619   0.962   0.398   1.461 -0.7148  0.5696 -0.2079
 4042SOL    HW142620   0.998   0.339   1.528 -0.6630  1.0870  0.2278
 4042SOL    HW242621   0.869   0.404   1.483 -0.6459  0.9544 -0.0154
 4043SOL     OW42622   0.587   0.655  12.688 -0.0534 -0.2192  0.4245
 4043SOL    HW142623   0.575   0.744  12.723  0.7986 -0.6013  1.7580
 4043SOL    HW242624   0.513   0.643  12.629  0.4047  1.7818 -0.6594
 4044SOL     OW42625   1.463   5.310  11.385 -0.3720 -0.2859 -0.5601
 4044SOL    HW142626   1.478   5.376  11.452 -0.6186  0.8124 -1.5538
 4044SOL    HW242627   1.550   5.290  11.350 -0.4030  0.3907 -1.0487
 4045SOL     OW42628   3.785   0.081   0.611  0.2650 -0.2526 -0.3436
 4045SOL    HW142629   3.776   0.048   0.701  2.6697  0.6228  0.2893
 4045SOL    HW242630   3.736   0.018   0.558 -1.7261 -0.4778  1.5904
 4046SOL     OW42631   2.987   4.065  11.379 -0.2555  0.4461 -0.1622
 4046SOL    HW142632   3.048   4.123  11.333 -0.8887  0.2783 -1.2552
 4046SOL    HW242633   2.979   4.103  11.466 -0.0519  1.5540 -0.6071
 4047SOL     OW42634   0.895   4.523  11.088 -0.5211  0.4991 -0.1762
 4047SOL    HW142635   0.935   4.566  11.164 -0.6303  1.7861 -0.8186
 4047SOL    HW242636   0.809   4.495  11.118  0.3613 -1.2453  0.8793
 4048SOL     OW42637   6.026   5.949   0.160  0.1389  0.2448 -0.4167
 4048SOL    HW142638   6.007   5.939   0.066 -1.4895 -1.2202  0.0265
 4048SOL    HW242639   6.097   5.887   0.176 -1.7011 -1.9089 -0.1224
 4049SOL     OW42640   0.475   4.469  11.316  0.3293 -0.2677  0.3148
 4049SOL    HW142641   0.440   4.394  11.364 -0.6414  0.1433  0.2751
 4049SOL    HW242642   0.482   4.439  11.225  1.7168 -0.8915  0.5978
 4050SOL     OW42643   0.368   5.328  12.557  0.0549  0.3437  0.4733
 4050SOL    HW142644   0.376   5.421  12.535  1.5897  0.3884  1.0780
 4050SOL    HW242645   0.365   5.326  12.653  1.3790 -0.2831  0.5234
 4051SOL     OW42646   4.304   2.523  11.240  0.5895 -0.0129 -0.4112
 4051SOL    HW142647   4.242   2.597  11.239  0.3584 -0.2040 -0.5106
 4051SOL    HW242648   4.259   2.455  11.290 -0.0910 -0.8244 -2.0295
 4052SOL     OW42649   6.023   1.728  12.371 -0.4151 -0.2314 -0.0613
 4052SOL    HW142650   6.003   1.647  12.324 -2.6773 -0.3001  0.9102
 4052SOL    HW242651   6.104   1.709  12.418 -0.2778 -1.5063 -0.7701
 4053SOL     OW42652   0.808   0.971   1.180  0.6645  0.2295 -0.6687
 4053SOL    HW142653   0.744   1.031   1.142  1.3674  2.5290  1.5417
 4053SOL    HW242654   0.756   0.912   1.235  0.2407  0.7047 -0.5536
 4054SOL     OW42655   0.953   6.297   1.286  0.3322  0.1081  0.0729
 4054SOL    HW142656   0.979   6.376   1.237  0.5758  0.3677  0.6118
 4054SOL    HW242657   0.861   6.285   1.264  0.6703 -0.3363 -1.1964
 4055SOL     OW42658   5.978   2.981   0.908 -0.8185  0.6593  0.3086
 4055SOL    HW142659   5.886   3.002   0.889 -1.3362 -0.0591  1.8449
 4055SOL    HW242660   5.973   2.903   0.963  0.7342  0.5635  0.3360
 4056SOL     OW42661   4.907   1.167  11.374  0.3954  0.3043  0.0662
 4056SOL    HW142662   4.965   1.155  11.450 -0.7541 -0.1704  0.8957
 4056SOL    HW242663   4.943   1.243  11.329  1.0867  0.6328  1.1228
 4057SOL     OW42664   4.142   5.300  12.477  0.3264 -0.3649  0.6711
 4057SOL    HW142665   4.237   5.312  12.471  0.3599 -1.0246 -0.6078
 4057SOL    HW242666   4.106   5.381  12.440  0.3954 -0.2327  0.8931
 4058SOL     OW42667   3.070   2.561  11.714  0.5121  0.2690 -0.2502
 4058SOL    HW142668   3.042   2.470  11.707 -1.5219  0.7652  0.5590
 4058SOL    HW242669   3.003   2.610  11.665  1.4534  1.3632 -0.5026
 4059SOL     OW42670   1.992   3.152  11.960 -0.0487 -0.1884  0.1041
 4059SOL    HW142671   1.988   3.096  11.882  0.0828  1.1499 -0.8898
 4059SOL    HW242672   2.005   3.240  11.926 -1.3760  0.6265  1.5729
 4060SOL     OW42673   1.424   1.678  11.672  0.5524  0.1909 -0.0433
 4060SOL    HW142674   1.381   1.606  11.718  0.3230  0.9395  0.9532
 4060SOL    HW242675   1.497   1.702  11.729 -0.1406  1.5798  0.3024
 4061SOL     OW42676   1.345   1.672   0.429 -0.0823 -0.1373  0.1971
 4061SOL    HW142677   1.296   1.747   0.396  0.3423  0.6081  1.2061
 4061SOL    HW242678   1.436   1.693   0.411  0.0758 -0.1894  0.9278
 4062SOL     OW42679   1.339   2.505  11.487  0.0748  0.3177 -0.8852
 4062SOL    HW142680   1.290   2.443  11.433  0.7826 -2.0132  0.9312
 4062SOL    HW242681   1.272   2.554  11.535 -0.5810 -1.3036 -0.0543
 4063SOL     OW42682   4.271   5.648  11.893  0.6744  0.9798 -0.4522
 4063SOL    HW142683   4.283   5.738  11.864 -0.9895  1.0097 -1.2092
 4063SOL    HW242684   4.326   5.639  11.971  1.2585  2.4825 -0.6681
 4064SOL     OW42685   1.804   3.058   0.799  1.0592  0.4730 -0.4718
 4064SOL    HW142686   1.793   3.153   0.793 -1.4301  0.3262  0.5383
 4064SOL    HW242687   1.766   3.024   0.718  0.4726  0.2820 -0.1225
 4065SOL     OW42688   0.387   6.388  12.391  0.2662 -0.2535 -0.7270
 4065SOL    HW142689   0.342   6.355  12.313  0.5211 -0.4029 -0.8102
 4065SOL    HW242690   0.352   6.335  12.463 -1.7204  1.4106 -0.3664
 4066SOL     OW42691   0.064   0.889   0.484 -0.5889 -0.1638 -0.0259
 4066SOL    HW142692   0.067   0.912   0.577 -1.5835  1.1117 -0.2833
 4066SOL    HW242693  -0.029   0.891   0.462 -0.2462  2.9520 -1.8053
 4067SOL     OW42694   3.483   0.736  11.668  0.2838  0.2698  0.2416
 4067SOL    HW142695   3.515   0.721  11.579 -2.1804  2.7748 -1.2513
 4067SOL    HW242696   3.523   0.819  11.694  0.3755 -0.0574  1.1747
 4068SOL     OW42697   4.772   1.705   0.421  0.7630  0.5914  0.4635
 4068SOL    HW142698   4.745   1.793   0.393 -0.1190 -0.3245 -1.8057
 4068SOL    HW242699   4.744   1.648   0.349  0.5625 -1.6740  2.2458
 4069SOL     OW42700   1.734   5.791  11.916  0.4898 -0.2639 -0.4368
 4069SOL    HW142701   1.696   5.790  11.828  0.9134  0.2744 -0.6357
 4069SOL    HW242702   1.828   5.779  11.902  0.6121  0.2400 -0.0978
 4070SOL     OW42703   3.975   0.687  12.395  0.7028 -0.1934  0.6063
 4070SOL    HW142704   3.931   0.602  12.396  0.7287 -0.2256 -0.2608
 4070SOL    HW242705   4.065   0.667  12.372  0.7609  0.0428  0.6254
 4071SOL     OW42706   4.727   6.399  12.243 -0.3639  0.0904 -0.0641
 4071SOL    HW142707   4.668   6.465  12.209 -0.0997 -0.0098 -0.7205
 4071SOL    HW242708   4.777   6.444  12.311 -0.3358  0.5061 -0.3597
 4072SOL     OW42709   1.301   4.477   0.854 -0.1713  0.3743 -0.6705
 4072SOL    HW142710   1.343   4.411   0.908 -0.6642  1.0600  0.5930
 4072SOL    HW242711   1.352   4.556   0.868  0.5588  0.2517 -2.3507
 4073SOL     OW42712   6.233   4.645   0.795 -0.6053 -0.2243 -0.2615
 4073SOL    HW142713   6.140   4.668   0.802 -0.5996 -0.4661  0.8650
 4073SOL    HW242714   6.270   4.668   0.881 -0.0809 -2.0832  0.0657
 4074SOL     OW42715   6.031   0.628   1.641 -0.3354  0.3768  0.2753
 4074SOL    HW142716   6.045   0.534   1.652  0.3622  0.5135  0.6140
 4074SOL    HW242717   5.939   0.636   1.615 -0.1919 -0.4594 -0.5396
 4075SOL     OW42718   2.574   6.077  12.307  0.1945 -0.7687 -0.0436
 4075SOL    HW142719   2.625   6.108  12.232  1.5586  0.4280  1.3080
 4075SOL    HW242720   2.556   5.986  12.287  2.1091 -0.9905 -1.0275
 4076SOL     OW42721   4.446   1.310   0.755 -0.4205  0.1346  0.6562
 4076SOL    HW142722   4.385   1.314   0.681  0.4530  2.4346 -0.0420
 4076SOL    HW242723   4.532   1.303   0.714 -0.0816 -1.3579  1.5708
 4077SOL     OW42724   5.476   0.363   0.674  0.0269 -0.1186  0.0072
 4077SOL    HW142725   5.475   0.387   0.767 -0.4023 -0.0828 -0.0047
 4077SOL    HW242726   5.496   0.444   0.629  0.1878 -0.1257  0.0645
 4078SOL     OW42727   5.600   1.440   0.870 -0.0417 -0.3277 -0.0506
 4078SOL    HW142728   5.523   1.449   0.926 -0.4021  0.1367 -0.6178
 4078SOL    HW242729   5.571   1.386   0.797 -0.1327  0.6946 -0.7943
 4079SOL     OW42730   3.729   2.269  12.376  0.6163  0.0688  0.1155
 4079SOL    HW142731   3.666   2.237  12.311  0.3476  0.5254  0.1415
 4079SOL    HW242732   3.789   2.196  12.391  0.6308 -0.0626 -0.5841
 4080SOL     OW42733   0.693   0.741  12.071  0.2679 -0.2231 -0.1572
 4080SOL    HW142734   0.779   0.758  12.111  0.4758 -0.3119 -0.5678
 4080SOL    HW242735   0.665   0.658  12.110  2.3044 -2.5319 -3.1521
 4081SOL     OW42736   5.490   3.571  11.007 -0.2183 -0.0894 -0.0708
 4081SOL    HW142737   5.408   3.599  10.967 -0.1933  0.5642  0.3272
 4081SOL    HW242738   5.544   3.650  11.012 -0.6117  0.1050  2.1970
 4082SOL     OW42739   4.725   4.086  11.201 -0.1256 -0.4715 -0.8754
 4082SOL    HW142740   4.698   4.005  11.158  0.3272 -1.3943  0.5229
 4082SOL    HW242741   4.696   4.076  11.292  1.3085  0.2530 -0.3000
 4083SOL     OW42742   3.111   3.412  12.027 -0.3176  0.1245  0.2200
 4083SOL    HW142743   3.108   3.393  11.933 -0.6547  0.6964  0.1020
 4083SOL    HW242744   3.036   3.470  12.041 -0.4332 -0.1773  0.8968
 4084SOL     OW42745   0.614   5.103   0.484 -0.0196  0.0932  0.1024
 4084SOL    HW142746   0.709   5.093   0.474  0.0535  1.4340 -0.7787
 4084SOL    HW242747   0.598   5.196   0.470 -1.4729 -0.1080  0.2856
 4085SOL     OW42748   2.367   6.154   1.012 -0.4104  0.8596 -0.2075
 4085SOL    HW142749   2.402   6.242   0.997  3.1236 -0.3692  0.0543
 4085SOL    HW242750   2.327   6.158   1.099  0.9284  1.8906  0.3918
 4086SOL     OW42751   4.433   2.044   1.238  0.2116 -0.4054 -0.3406
 4086SOL    HW142752   4.394   2.013   1.157  0.2430 -0.7871 -0.2135
 4086SOL    HW242753   4.528   2.041   1.223  0.1977  0.5400 -0.6561
 4087SOL     OW42754   1.121   4.502   0.592 -0.3501 -0.4743  0.2871
 4087SOL    HW142755   1.143   4.592   0.615 -1.9889 -0.5857  2.6067
 4087SOL    HW242756   1.057   4.510   0.522  1.2812  0.0317 -1.2153
 4088SOL     OW42757   6.127   3.873  12.614  0.0766 -0.4859  0.2238
 4088SOL    HW142758   6.119   3.856  12.708  3.6558 -1.2772  0.5212
 4088SOL    HW242759   6.211   3.917  12.604 -1.1026  1.4353 -2.4762
 4089SOL     OW42760   0.388   3.892  11.690  0.0959 -0.2107 -0.1881
 4089SOL    HW142761   0.459   3.940  11.648 -0.1943  1.2068  0.8587
 4089SOL    HW242762   0.351   3.837  11.621  0.7006  0.7979 -1.3429
 4090SOL     OW42763   1.672   1.683  12.670  0.0623  0.1245  0.8842
 4090SOL    HW142764   1.583   1.684  12.705  0.9280  0.9208  3.3317
 4090SOL    HW242765   1.726   1.711  12.744  2.4203 -0.9676 -0.3254
 4091SOL     OW42766   1.760   0.317   0.772 -0.1241  0.1779  0.0836
 4091SOL    HW142767   1.686   0.379   0.769  1.1219  1.8930  2.2322
 4091SOL    HW242768   1.771   0.297   0.864  2.3389  0.3171 -0.1149
 4092SOL     OW42769   4.735   3.891   0.183  0.5020  0.4099  0.2677
 4092SOL    HW142770   4.749   3.890   0.088 -0.5528 -0.8325  0.0994
 4092SOL    HW242771   4.823   3.881   0.219  0.8249 -0.0526 -0.6015
 4093SOL     OW42772   0.199   3.001   0.845  0.5624  0.3070  0.2651
 4093SOL    HW142773   0.203   3.092   0.815 -3.3769 -0.0596 -2.0693
 4093SOL    HW242774   0.121   2.998   0.899  0.3860 -1.7660 -0.0472
 4094SOL     OW42775   5.268   3.184   1.191  0.2163  0.7780  0.4525
 4094SOL    HW142776   5.341   3.136   1.153 -2.1310 -0.5904 -2.8192
 4094SOL    HW242777   5.262   3.153   1.281  1.5632 -1.6795 -0.2314
 4095SOL     OW42778   0.352   5.736  11.282  0.2979  0.0895  0.2629
 4095SOL    HW142779   0.426   5.784  11.247 -0.2724  0.0625 -1.0284
 4095SOL    HW242780   0.322   5.680  11.210 -1.5368  0.7742  0.4303
 4096SOL     OW42781   4.902   0.176   0.590  0.0122  0.4570 -0.5901
 4096SOL    HW142782   4.981   0.124   0.603  0.0822 -0.0994 -2.9152
 4096SOL    HW242783   4.928   0.266   0.611  0.6661  0.0028  0.6526
 4097SOL     OW42784   3.597   6.276   1.036 -0.2062  0.0074 -0.4356
 4097SOL    HW142785   3.611   6.192   1.081 -0.4081 -0.0796 -0.5325
 4097SOL    HW242786   3.503   6.292   1.045 -0.1986  0.1323 -0.5795
 4098SOL     OW42787   4.398   1.832  12.658 -0.0478 -0.2627  0.3824
 4098SOL    HW142788   4.303   1.840  12.646  0.1525  0.4493 -0.8552
 4098SOL    HW242789   4.435   1.865  12.576  1.3618  2.4216  1.9709
 4099SOL     OW42790   5.957   3.368   1.369 -0.7967 -0.0505 -0.3337
 4099SOL    HW142791   5.916   3.355   1.283 -0.0124 -0.3052 -0.6824
 4099SOL    HW242792   5.916   3.303   1.425 -0.2664 -0.8876 -0.8953
 4100SOL     OW42793   0.590   3.890  12.718  0.1733 -0.2037  0.4167
 4100SOL    HW142794   0.517   3.829  12.730  1.0656 -1.6167 -0.9540
 4100SOL    HW242795   0.667   3.834  12.715  1.0819  1.0492 -0.3984
 4101SOL     OW42796   6.292   5.028   1.396  0.5458  0.2370  0.5979
 4101SOL    HW142797   6.352   4.996   1.464  0.6497 -0.3291  0.2419
 4101SOL    HW242798   6.346   5.037   1.318  0.2374  0.0364  0.3590
 4102SOL     OW42799   4.072   2.816  11.561 -0.6888  0.7293  0.2890
 4102SOL    HW142800   3.993   2.809  11.615  0.0885 -0.1576  1.3557
 4102SOL    HW242801   4.106   2.727  11.558  0.5711  1.1934  0.3216
 4103SOL     OW42802   2.419   0.859  12.375 -0.0156  0.0033 -0.1326
 4103SOL    HW142803   2.501   0.881  12.418 -0.6142 -0.5071  1.3510
 4103SOL    HW242804   2.445   0.806  12.299  1.1003  1.4472 -0.7991
 4104SOL     OW42805   0.562   0.268  11.070  0.0695 -0.0832  0.1663
 4104SOL    HW142806   0.529   0.345  11.116 -1.0492 -0.8402  0.7002
 4104SOL    HW242807   0.649   0.293  11.038 -0.2791  1.3850  0.3112
 4105SOL     OW42808   3.306   5.397  11.616 -0.1318  0.8918 -0.2184
 4105SOL    HW142809   3.319   5.319  11.670  0.9569 -1.4185 -3.5525
 4105SOL    HW242810   3.260   5.366  11.539 -1.9376  4.1101 -0.6247
 4106SOL     OW42811   2.059   4.848  11.313 -0.6187  0.6345 -0.1632
 4106SOL    HW142812   2.085   4.810  11.230 -0.0687  0.8010 -0.0724
 4106SOL    HW242813   2.036   4.772  11.368  1.2498  0.3438  0.2820
 4107SOL     OW42814   2.838   3.835   1.586 -0.2003  0.5869  0.5993
 4107SOL    HW142815   2.849   3.894   1.661  1.3592 -0.1839  1.0297
 4107SOL    HW242816   2.833   3.893   1.510  0.6197  1.2994  1.0758
 4108SOL     OW42817   3.531   2.615   0.693 -0.3730  0.1624  0.8785
 4108SOL    HW142818   3.549   2.532   0.738  2.8300  0.4748  0.4379
 4108SOL    HW242819   3.527   2.591   0.600 -1.0982  0.3068  0.8686
 4109SOL     OW42820   1.906   3.317   1.552  0.1787  0.1359 -0.5106
 4109SOL    HW142821   1.857   3.344   1.630 -0.7451 -3.3234  0.2750
 4109SOL    HW242822   1.860   3.358   1.479 -1.6882 -0.0559  0.4940
 4110SOL     OW42823   2.461   0.008   1.061  0.0496 -1.2410 -0.0563
 4110SOL    HW142824   2.465   0.035   0.969  1.9754 -0.2402  0.2720
 4110SOL    HW242825   2.552   0.004   1.089 -0.4769 -1.9619  1.7104
 4111SOL     OW42826   1.990   1.170  12.100  0.3356 -0.3509  0.1314
 4111SOL    HW142827   1.909   1.184  12.149 -0.0309 -0.6559 -0.3768
 4111SOL    HW242828   2.004   1.075  12.102  0.2199 -0.3883 -0.4982
 4112SOL     OW42829   5.229   6.318   0.413  0.2820  0.2498 -0.7112
 4112SOL    HW142830   5.193   6.366   0.338 -0.5385  2.5228  1.0000
 4112SOL    HW242831   5.165   6.251   0.433 -0.1499  0.4979 -1.2535
 4113SOL     OW42832   4.287   5.133  11.162 -0.2670 -0.2614 -0.2639
 4113SOL    HW142833   4.254   5.194  11.228 -1.5316 -0.7054 -0.4524
 4113SOL    HW242834   4.269   5.175  11.078  1.6894  0.4759 -0.3617
 4114SOL     OW42835   2.050   5.251   0.851 -0.1101 -0.0201 -0.0504
 4114SOL    HW142836   2.072   5.189   0.921 -1.0980 -0.4881 -0.1424
 4114SOL    HW242837   2.090   5.214   0.772  1.8473  1.0030  0.3949
 4115SOL     OW42838   5.812   4.883   0.188  0.2948 -0.2817  0.4497
 4115SOL    HW142839   5.843   4.968   0.155 -1.7569  0.2166 -0.3636
 4115SOL    HW242840   5.748   4.907   0.255  0.5725 -1.2251  1.0568
 4116SOL     OW42841   6.058   4.742  11.326  0.7120  0.3241 -0.6094
 4116SOL    HW142842   6.074   4.832  11.297 -1.7359  0.5163 -1.6233
 4116SOL    HW242843   6.096   4.688  11.257  0.5912  0.6226 -0.9153
 4117SOL     OW42844   4.380   5.100   1.763 -0.0642 -0.2889 -0.3843
 4117SOL    HW142845   4.300   5.148   1.785  0.0132 -0.6532  0.7817
 4117SOL    HW242846   4.401   5.128   1.674 -0.8564  0.6748 -0.2934
 4118SOL     OW42847   4.507   1.144   0.373  0.1067  0.3205 -0.0464
 4118SOL    HW142848   4.555   1.063   0.353  1.1009  0.6781  0.8118
 4118SOL    HW242849   4.536   1.206   0.306  1.4199  0.7353  0.8511
 4119SOL     OW42850   1.632   4.033  11.265  0.3740  0.3778  0.0119
 4119SOL    HW142851   1.649   4.117  11.221 -0.3714  1.1867  1.1956
 4119SOL    HW242852   1.547   4.046  11.307  0.7086 -0.6430  1.0238
 4120SOL     OW42853   2.325   4.826  12.399 -0.1087 -0.4020  0.1810
 4120SOL    HW142854   2.336   4.732  12.381 -0.5845 -0.3407 -0.4356
 4120SOL    HW242855   2.303   4.864  12.315 -1.3408  0.0527  0.6988
 4121SOL     OW42856   3.103   1.878   7.925 -0.4637 -0.1409 -0.8089
 4121SOL    HW142857   3.190   1.918   7.929 -0.5799  0.2368 -1.8331
 4121SOL    HW242858   3.117   1.793   7.883 -0.4664 -0.4852 -0.1374
 4122SOL     OW42859   2.677   5.565  12.556  0.0866  0.0244  0.0412
 4122SOL    HW142860   2.703   5.646  12.601  0.7892 -0.7997  1.1888
 4122SOL    HW242861   2.728   5.497  12.599  0.3606 -0.9059 -1.6689
 4123SOL     OW42862   5.383   6.013   0.351  0.3566  0.1951 -0.8621
 4123SOL    HW142863   5.381   6.006   0.446  0.9606  1.2014 -0.7532
 4123SOL    HW242864   5.291   6.009   0.324  0.0331  1.6115 -0.0698
 4124SOL     OW42865   1.601   3.726  11.367  0.5251  0.4118  0.5395
 4124SOL    HW142866   1.682   3.685  11.395 -0.3142 -0.6566  1.5037
 4124SOL    HW242867   1.628   3.802  11.315  2.1892 -2.3248 -2.9229
 4125SOL     OW42868   3.225   0.732  11.968  0.0876  0.0520  0.0222
 4125SOL    HW142869   3.165   0.715  11.895 -0.8724 -0.1272  0.8253
 4125SOL    HW242870   3.251   0.823  11.956 -0.0321  0.0180 -0.5529
 4126SOL     OW42871   1.341   6.440  11.432  0.1475  0.0976  0.3018
 4126SOL    HW142872   1.429   6.477  11.441  0.1341  0.0976  0.4395
 4126SOL    HW242873   1.348   6.377  11.360 -0.4673  2.3521 -1.8713
 4127SOL     OW42874   0.682   0.554   1.311  0.4592 -0.0552  0.1394
 4127SOL    HW142875   0.648   0.596   1.232  0.0221 -0.5257  0.0768
 4127SOL    HW242876   0.678   0.623   1.377  0.8571  0.3524 -0.2489
 4128SOL     OW42877   0.508   2.996   1.486 -0.3520  0.4362  0.0231
 4128SOL    HW142878   0.444   2.929   1.511  1.2093 -1.8500 -1.6125
 4128SOL    HW242879   0.586   2.975   1.537  0.7955 -0.3218 -1.9305
 4129SOL     OW42880   0.810   4.529  12.856 -0.4484  0.4532  0.2879
 4129SOL    HW142881   0.786   4.472  12.783  0.7880  0.8308 -0.4305
 4129SOL    HW242882   0.855   4.472  12.918 -0.7681  0.3013  0.3830
 4130SOL     OW42883   0.931   1.347  12.073  0.5121  0.0041 -0.3862
 4130SOL    HW142884   0.935   1.253  12.056 -1.1127 -0.2771  0.5218
 4130SOL    HW242885   1.013   1.366  12.118 -0.2467 -1.5708  1.8659
 4131SOL     OW42886   2.251   4.600  11.894 -0.3908 -1.1040  0.2503
 4131SOL    HW142887   2.302   4.519  11.883 -0.8944 -1.3940  0.0504
 4131SOL    HW242888   2.211   4.591  11.980  0.7842 -0.3741  0.8932
 4132SOL     OW42889   1.199   2.493   0.929  0.2285 -0.4058  0.2645
 4132SOL    HW142890   1.111   2.529   0.941 -0.1661 -1.8119  1.9182
 4132SOL    HW242891   1.189   2.425   0.863 -0.8623 -3.3708  3.2514
 4133SOL     OW42892   5.790   6.109  11.774  0.1592  0.5037 -0.4158
 4133SOL    HW142893   5.804   6.098  11.869 -2.0585  0.1642 -0.0799
 4133SOL    HW242894   5.865   6.064  11.734  0.7773  0.0311  1.1601
 4134SOL     OW42895   4.031   5.931  11.787 -0.3116  0.4461 -0.5682
 4134SOL    HW142896   4.119   5.895  11.776 -0.5572 -0.2370 -0.3820
 4134SOL    HW242897   4.009   5.911  11.878 -0.3766  1.2674 -0.4041
 4135SOL     OW42898   5.684   4.499  12.430  0.0462 -0.6839  0.1256
 4135SOL    HW142899   5.711   4.463  12.345  1.1327  0.4574 -0.0510
 4135SOL    HW242900   5.595   4.530  12.415  0.5183  0.2795 -0.8869
 4136SOL     OW42901   4.762   5.874  12.031 -0.6561 -0.6457 -0.1759
 4136SOL    HW142902   4.807   5.832  11.957 -2.5055 -0.6166 -1.3862
 4136SOL    HW242903   4.832   5.915  12.082  0.6368  0.2536 -2.5068
 4137SOL     OW42904   4.651   4.251   1.148 -0.1956  0.4111 -0.2988
 4137SOL    HW142905   4.645   4.160   1.117  0.2636  0.5412 -0.8009
 4137SOL    HW242906   4.565   4.288   1.131  0.1821  0.6264 -1.9732
 4138SOL     OW42907   3.544   1.291   0.956  0.1434 -0.1800 -0.1655
 4138SOL    HW142908   3.631   1.330   0.954  0.5678 -1.1385 -1.4449
 4138SOL    HW242909   3.551   1.219   1.019  0.6260 -0.9690 -1.0842
 4139SOL     OW42910   5.294   1.489   0.013  0.3737 -0.4017 -0.1945
 4139SOL    HW142911   5.322   1.404   0.047  1.1278  0.6709  2.0283
 4139SOL    HW242912   5.372   1.524  -0.030  1.0649  0.4875  1.6992
 4140SOL     OW42913   0.072   6.190   1.655  0.4154  0.0274 -0.7409
 4140SOL    HW142914   0.102   6.127   1.589  1.7817  1.0358 -1.1194
 4140SOL    HW242915   0.116   6.271   1.632  0.4326  0.5687  1.0755
 4141SOL     OW42916   2.403   0.445   1.626  0.6149 -0.3756 -0.0141
 4141SOL    HW142917   2.362   0.529   1.610 -0.0320 -0.9610 -1.5881
 4141SOL    HW242918   2.466   0.434   1.554  1.8465 -0.5559  1.0397
 4142SOL     OW42919   5.192   2.867  12.810 -0.7626 -0.2842  0.1460
 4142SOL    HW142920   5.107   2.845  12.773 -0.7271 -1.8095  0.8881
 4142SOL    HW242921   5.250   2.873  12.734 -1.0717 -1.4878 -0.2063
 4143SOL     OW42922   5.943   4.696   0.821 -0.4190 -0.1802 -0.4918
 4143SOL    HW142923   5.883   4.771   0.816 -0.5501 -0.2911 -0.5758
 4143SOL    HW242924   5.944   4.673   0.914  1.0942  1.1289 -0.1476
 4144SOL     OW42925   5.600   0.015   0.394 -0.2505  0.5111 -0.4309
 4144SOL    HW142926   5.565   0.057   0.472  0.8189 -0.4170  0.5807
 4144SOL    HW242927   5.687   0.053   0.383  0.7131 -1.3220  0.4715
 4145SOL     OW42928   0.046   2.630   0.837 -0.3641 -0.8085 -0.2042
 4145SOL    HW142929  -0.023   2.655   0.899  2.1451  1.0389  2.0678
 4145SOL    HW242930   0.085   2.552   0.875 -0.0975 -0.8424 -0.5436
 4146SOL     OW42931   3.250   0.318  11.785  0.0653 -0.4850 -0.3331
 4146SOL    HW142932   3.230   0.251  11.850  0.0795 -0.1771 -0.0118
 4146SOL    HW242933   3.198   0.294  11.709  0.8865 -1.4857 -0.6056
 4147SOL     OW42934   4.827   1.030   1.187  0.1436 -0.2570  0.1864
 4147SOL    HW142935   4.804   0.944   1.154  0.0136 -0.4351  0.7291
 4147SOL    HW242936   4.745   1.064   1.225  0.8925 -1.2700  2.9730
 4148SOL     OW42937   3.981   4.814   1.420  0.2793  0.0629  0.1972
 4148SOL    HW142938   3.894   4.814   1.379  0.3331 -0.8768  0.0592
 4148SOL    HW242939   3.989   4.726   1.458  1.9809 -0.6142 -1.5516
 4149SOL     OW42940   5.315   5.823   0.793 -0.2259  0.2748  0.1819
 4149SOL    HW142941   5.374   5.755   0.760 -1.1427 -0.4992  0.1122
 4149SOL    HW242942   5.366   5.867   0.861  0.1878 -0.8550  0.6268
 4150SOL     OW42943   3.941   1.693   1.436 -0.3806  0.3733 -0.2306
 4150SOL    HW142944   3.964   1.601   1.423 -0.2743  0.4299 -0.4518
 4150SOL    HW242945   4.022   1.735   1.464 -0.4714  0.3650  0.0413
 4151SOL     OW42946   4.399   1.734   0.288  0.3738 -0.0626 -0.7602
 4151SOL    HW142947   4.456   1.801   0.327  0.8042  0.3257 -1.9924
 4151SOL    HW242948   4.334   1.716   0.355  2.3485 -1.0664  1.0316
 4152SOL     OW42949   3.389   4.368   0.890 -0.2166 -0.0169 -0.1070
 4152SOL    HW142950   3.401   4.443   0.832  0.6460  1.4585  1.8472
 4152SOL    HW242951   3.298   4.373   0.917  0.4571  2.0254  2.0825
 4153SOL     OW42952   0.983   2.268  11.617  0.0163 -0.2570  0.3918
 4153SOL    HW142953   0.936   2.344  11.582 -0.7659 -1.4112 -1.2035
 4153SOL    HW242954   1.020   2.299  11.700  1.0014  2.3028 -0.8765
 4154SOL     OW42955   4.705   2.797   1.062 -0.2741 -0.4596 -0.3226
 4154SOL    HW142956   4.721   2.703   1.054  0.6115 -0.2510 -1.1845
 4154SOL    HW242957   4.687   2.826   0.973  1.2521  0.4669 -0.3699
 4155SOL     OW42958   3.481   5.899   0.192  0.2871  0.3959  0.3435
 4155SOL    HW142959   3.448   5.896   0.282  1.2301 -0.8142  0.6714
 4155SOL    HW242960   3.515   5.988   0.182 -1.8966  1.3032  0.3835
 4156SOL     OW42961   3.993   0.764  11.412  0.5087  0.1183 -0.4996
 4156SOL    HW142962   3.950   0.772  11.327 -2.3174  0.1965  0.8402
 4156SOL    HW242963   3.950   0.829  11.468  0.7181 -1.3996  1.5673
 4157SOL     OW42964   2.812   0.630   1.124  0.4645  0.3032 -0.0768
 4157SOL    HW142965   2.782   0.681   1.049 -0.3581 -0.5968 -0.3868
 4157SOL    HW242966   2.758   0.551   1.122  0.0123  0.5134  1.8037
 4158SOL     OW42967   3.795   0.596   0.419  0.4301  0.0132 -0.4812
 4158SOL    HW142968   3.843   0.584   0.501  1.2708 -1.1485 -1.1187
 4158SOL    HW242969   3.777   0.508   0.388 -1.3304  0.4277 -0.7520
 4159SOL     OW42970   0.767   0.347   1.148  0.1118  0.5018  0.5560
 4159SOL    HW142971   0.776   0.402   1.226  0.9558 -0.5490  1.2295
 4159SOL    HW242972   0.713   0.399   1.088  0.3288  1.7754  1.4202
 4160SOL     OW42973   4.284   0.084   0.657  0.4689  0.3079 -0.0077
 4160SOL    HW142974   4.283   0.024   0.732 -1.2975  0.1661 -0.0980
 4160SOL    HW242975   4.255   0.031   0.583 -0.3708  1.0690 -0.2480
 4161SOL     OW42976   1.135   0.356   1.251  0.7188  0.1102  0.0513
 4161SOL    HW142977   1.221   0.376   1.287  0.7006 -0.7018  0.5745
 4161SOL    HW242978   1.078   0.347   1.327 -0.1155  1.7834 -0.3287
 4162SOL     OW42979   1.749   2.563  11.864  0.2524  0.5807 -0.0661
 4162SOL    HW142980   1.794   2.520  11.937 -2.3624 -1.3463  0.5914
 4162SOL    HW242981   1.819   2.602  11.812  2.3784  0.4323  2.4424
 4163SOL     OW42982   2.568   5.162  12.158 -0.1335 -0.0539 -0.1858
 4163SOL    HW142983   2.489   5.211  12.181 -0.5378 -1.6876  2.2317
 4163SOL    HW242984   2.635   5.196  12.217  0.6758  0.4174 -1.3408
 4164SOL     OW42985   6.194   6.176  12.731  0.0592 -0.1582  0.2433
 4164SOL    HW142986   6.219   6.158  12.641  0.9030  0.4986  0.3338
 4164SOL    HW242987   6.277   6.186  12.778 -0.3625 -0.7286  1.1494
 4165SOL     OW42988   2.411   4.354  11.942 -0.0883 -0.4732 -0.5714
 4165SOL    HW142989   2.377   4.309  12.019  0.8297  0.5987  0.4876
 4165SOL    HW242990   2.404   4.289  11.872  2.8224 -3.0007  1.2325
 4166SOL     OW42991   2.778   2.868  11.903  0.2393  0.1378 -0.3060
 4166SOL    HW142992   2.797   2.774  11.896 -0.7525 -0.4226  2.7618
 4166SOL    HW242993   2.684   2.872  11.923  0.5970  1.6144  1.3423
 4167SOL     OW42994   3.177   5.148   0.932  0.0698 -0.2466  0.8818
 4167SOL    HW142995   3.169   5.057   0.962 -1.8835  0.2387  2.0414
 4167SOL    HW242996   3.220   5.142   0.847  0.1279 -2.2488  1.0108
 4168SOL     OW42997   4.006   2.656   1.697 -0.3626  0.1558  0.0256
 4168SOL    HW142998   4.024   2.732   1.753  0.6445  1.2029 -1.6311
 4168SOL    HW242999   3.980   2.694   1.613 -2.5212 -1.3575 -0.0735
 4169SOL     OW43000   6.120   4.326   1.590 -0.2808  0.2645 -0.3107
 4169SOL    HW143001   6.216   4.330   1.587 -0.2432  0.2888  0.6938
 4169SOL    HW243002   6.099   4.235   1.572 -0.0162  0.0421  0.4747
 4170SOL     OW43003   4.134   5.659   1.458 -0.7392 -0.5045  0.5279
 4170SOL    HW143004   4.148   5.577   1.504  1.9021 -0.7227 -0.4942
 4170SOL    HW243005   4.221   5.700   1.454 -1.7679  1.8320  0.0525
 4171SOL     OW43006   2.796   0.398  12.596 -0.2733 -0.1035  0.1337
 4171SOL    HW143007   2.714   0.406  12.549 -0.3374  1.2442  0.4118
 4171SOL    HW243008   2.863   0.396  12.528 -0.3344  2.2758 -0.0812
 4172SOL     OW43009   3.492   0.408  11.675  0.2897 -0.6535  0.8433
 4172SOL    HW143010   3.410   0.367  11.701 -0.1727 -0.5009 -0.3034
 4172SOL    HW243011   3.553   0.335  11.663 -0.1755 -0.9225  0.0387
 4173SOL     OW43012   5.177   4.266   1.287 -0.1850 -0.0982 -0.1658
 4173SOL    HW143013   5.203   4.197   1.349  0.5898  0.2223 -0.1240
 4173SOL    HW243014   5.104   4.311   1.331  1.1328  0.9098  1.1043
 4174SOL     OW43015   5.134   0.841   1.156 -0.2130  0.2947  0.2073
 4174SOL    HW143016   5.213   0.892   1.177 -0.2372  0.4560 -0.0871
 4174SOL    HW243017   5.086   0.896   1.095 -0.9919  0.5791  1.0606
 4175SOL     OW43018   1.332   0.807  12.067  1.0026 -0.4354 -0.0611
 4175SOL    HW143019   1.389   0.857  12.126  0.7304 -0.5215  0.2739
 4175SOL    HW243020   1.279   0.874  12.023 -0.4906 -0.4940  1.5435
 4176SOL     OW43021   5.219   1.087  11.073 -0.1242  0.4260  0.3158
 4176SOL    HW143022   5.209   1.183  11.072  2.0261  0.6976 -1.5436
 4176SOL    HW243023   5.262   1.066  10.990  2.0098 -1.8426  1.8469
 4177SOL     OW43024   0.881   5.322  10.896  0.0630 -0.0172  0.0233
 4177SOL    HW143025   0.886   5.393  10.960 -1.0093 -1.1121  1.3815
 4177SOL    HW243026   0.964   5.276  10.906  0.0683  0.0556  0.3448
 4178SOL     OW43027   1.574   2.498   1.577  0.4949  0.4982 -0.1876
 4178SOL    HW143028   1.516   2.505   1.501 -0.2243 -0.1444  0.2908
 4178SOL    HW243029   1.600   2.588   1.595 -1.1965  0.9317  0.2316
 4179SOL     OW43030   3.631   4.538   0.984 -0.0741  0.1092  0.4780
 4179SOL    HW143031   3.544   4.498   0.987  0.1429 -0.4467 -0.3360
 4179SOL    HW243032   3.654   4.537   0.891  0.2173  1.5397  0.5158
 4180SOL     OW43033   6.034   2.329  12.436 -0.1607  0.3427  0.2110
 4180SOL    HW143034   5.996   2.365  12.516 -1.8754 -0.8990 -0.0023
 4180SOL    HW243035   5.963   2.333  12.371  0.2423 -1.4218 -0.3988
 4181SOL     OW43036   0.566   3.689   1.670 -0.1896  0.5211 -0.1915
 4181SOL    HW143037   0.513   3.643   1.604  0.4090 -1.9898  0.9426
 4181SOL    HW243038   0.502   3.742   1.718 -1.0373  0.4593 -1.2029
 4182SOL     OW43039   4.810   2.901  12.139 -0.4093  0.2107  0.2259
 4182SOL    HW143040   4.844   2.977  12.092 -2.5201  1.9056  1.2357
 4182SOL    HW243041   4.716   2.903  12.122 -0.3640 -3.3423 -1.2210
 4183SOL     OW43042   0.932   4.786  12.072 -0.2041  0.6001 -0.1917
 4183SOL    HW143043   0.904   4.700  12.040 -1.0033  0.8097 -0.0679
 4183SOL    HW243044   0.854   4.822  12.115  0.1648  1.3318 -0.1305
 4184SOL     OW43045   1.557   0.154   0.098  0.1420  0.5289 -0.8036
 4184SOL    HW143046   1.468   0.163   0.133 -0.3401  2.1630 -2.2931
 4184SOL    HW243047   1.559   0.065   0.061 -1.0639  0.6522 -1.2102
 4185SOL     OW43048   5.114   2.974  10.631  0.2843 -0.0776 -0.0942
 4185SOL    HW143049   5.119   3.069  10.636  1.5053 -0.0482 -1.4460
 4185SOL    HW243050   5.074   2.948  10.715 -2.1972  1.7239 -0.6103
 4186SOL     OW43051   6.419   4.563  12.063  0.1049 -0.1008  0.1538
 4186SOL    HW143052   6.448   4.485  12.111  0.1749  0.5571  1.2107
 4186SOL    HW243053   6.431   4.635  12.124 -0.5891  0.6606 -0.5756
 4187SOL     OW43054   3.441   0.724  12.391  0.8861 -0.6056  0.0018
 4187SOL    HW143055   3.449   0.636  12.354 -0.7211 -1.2039  0.9950
 4187SOL    HW243056   3.449   0.782  12.315  1.8371 -1.5972 -0.6844
 4188SOL     OW43057   2.774   1.234  11.409  0.3483 -0.8190 -0.4248
 4188SOL    HW143058   2.755   1.151  11.454 -1.5982  1.0498  2.5332
 4188SOL    HW243059   2.696   1.288  11.424  1.2993  1.4104 -2.7472
 4189SOL     OW43060   5.991   4.294  11.444 -0.2647 -0.2683  0.9634
 4189SOL    HW143061   5.908   4.288  11.398  1.3183 -1.5530 -2.0362
 4189SOL    HW243062   5.970   4.281  11.536 -3.3473 -0.4605  0.3161
 4190SOL     OW43063   5.117   5.194   0.865 -0.0646 -0.2704  0.0569
 4190SOL    HW143064   5.045   5.133   0.851 -1.4025  1.2476 -0.0913
 4190SOL    HW243065   5.151   5.171   0.952 -1.6023 -0.2276  0.7088
 4191SOL     OW43066   5.816   1.027  12.304  0.1741  0.7009 -0.2713
 4191SOL    HW143067   5.842   1.115  12.276 -2.1366  1.3678 -0.5984
 4191SOL    HW243068   5.725   1.020  12.275 -0.0965 -1.3072  0.9220
 4192SOL     OW43069   0.802   2.483  11.510 -0.0328  0.7966  0.2799
 4192SOL    HW143070   0.843   2.568  11.497  4.2065 -1.2077 -1.2421
 4192SOL    HW243071   0.741   2.474  11.437 -0.3355  2.4052  0.3185
 4193SOL     OW43072   1.484   5.770  11.412  0.3090 -0.2477  0.0582
 4193SOL    HW143073   1.433   5.693  11.387  0.5885 -1.3441  2.5500
 4193SOL    HW243074   1.419   5.840  11.420 -0.2912 -0.7815 -0.0335
 4194SOL     OW43075   2.067   1.382   0.295  0.3419  0.0385 -0.1252
 4194SOL    HW143076   2.050   1.433   0.216  0.9213  0.1507 -0.1805
 4194SOL    HW243077   2.136   1.320   0.269  0.3310 -0.1159  0.2134
 4195SOL     OW43078   4.837   2.277  11.936 -0.4684 -0.1483  0.6441
 4195SOL    HW143079   4.909   2.215  11.919 -1.3567 -1.0237 -0.0151
 4195SOL    HW243080   4.807   2.302  11.850 -1.5686 -0.5209  0.9068
 4196SOL     OW43081   3.583   1.885   0.611  0.0584 -0.1185  0.0662
 4196SOL    HW143082   3.510   1.925   0.657 -0.6104  0.8274 -1.7603
 4196SOL    HW243083   3.543   1.831   0.543  1.0399 -0.7371 -0.0512
 4197SOL     OW43084   1.117   3.803   1.524  0.7906  0.0871  0.2412
 4197SOL    HW143085   1.172   3.852   1.463  0.7288  0.5506  0.5482
 4197SOL    HW243086   1.065   3.871   1.568  0.8683 -0.2386  0.8352
 4198SOL     OW43087   0.249   2.197   1.194  0.2220  0.2311  0.1686
 4198SOL    HW143088   0.179   2.188   1.129 -1.3443 -1.1892  1.9401
 4198SOL    HW243089   0.292   2.112   1.195  1.0377  0.6302  0.1672
 4199SOL     OW43090   5.552   0.830   0.872 -0.0015  0.0109  0.4192
 4199SOL    HW143091   5.470   0.805   0.915 -0.2394 -0.0363 -0.0526
 4199SOL    HW243092   5.526   0.854   0.783  0.2846  1.4525  0.6972
 4200SOL     OW43093   3.839   1.092   0.426 -0.1882  0.4617  0.2633
 4200SOL    HW143094   3.815   1.183   0.408  2.2483  1.4113  1.3780
 4200SOL    HW243095   3.868   1.092   0.517  0.8690 -1.1844 -0.0265
 4201SOL     OW43096   0.001   0.477  12.346  0.1551 -0.4192  0.1412
 4201SOL    HW143097   0.036   0.393  12.316  1.8759  0.2426  0.1991
 4201SOL    HW243098   0.047   0.543  12.294 -2.7471  0.4989 -1.5089
 4202SOL     OW43099   3.781   0.562   1.583  0.5367  0.7554  0.1879
 4202SOL    HW143100   3.739   0.577   1.498  1.2098  2.8476  0.1915
 4202SOL    HW243101   3.859   0.616   1.581  0.3502  1.1614  2.3173
 4203SOL     OW43102   0.669   1.303  11.977 -0.0911  0.5040 -0.2078
 4203SOL    HW143103   0.755   1.298  12.017  0.0710  1.2035 -0.4590
 4203SOL    HW243104   0.661   1.394  11.947 -0.5691  0.2182 -0.9615
 4204SOL     OW43105   4.967   0.417  11.615  0.2869  0.0742 -0.3144
 4204SOL    HW143106   4.922   0.444  11.695 -1.0440 -2.1591 -0.2397
 4204SOL    HW243107   4.977   0.498  11.565 -1.9207  1.0138  0.6330
 4205SOL     OW43108   5.265   0.654   0.269  0.6133  0.3888 -0.2010
 4205SOL    HW143109   5.184   0.604   0.271  0.1476  1.0463 -1.7594
 4205SOL    HW243110   5.329   0.595   0.228  0.4719  0.5171 -0.6004
 4206SOL     OW43111   3.333   1.950  11.785 -0.5838 -0.4204  0.2800
 4206SOL    HW143112   3.322   1.997  11.868 -1.1296 -0.7605  0.4091
 4206SOL    HW243113   3.267   1.881  11.788  0.3350 -1.3348  0.1901
 4207SOL     OW43114   0.848   5.129   0.202  0.0244  0.5403  0.4536
 4207SOL    HW143115   0.936   5.141   0.166 -0.5682  0.9098 -0.9535
 4207SOL    HW243116   0.860   5.073   0.279  1.5080  0.7987  0.4274
 4208SOL     OW43117   4.388   3.539   1.383  0.0815  0.3415 -0.5017
 4208SOL    HW143118   4.376   3.497   1.469  1.6689  1.6239  0.4066
 4208SOL    HW243119   4.320   3.606   1.379  0.3287  0.6352  0.0167
 4209SOL     OW43120   5.624   1.332   1.235  0.2470 -0.1207  0.3986
 4209SOL    HW143121   5.576   1.306   1.314  2.4210  0.3121  1.9500
 4209SOL    HW243122   5.595   1.269   1.169 -0.8938 -1.1600  1.7985
 4210SOL     OW43123   3.919   5.362   1.741 -0.0657 -0.1890  0.1638
 4210SOL    HW143124   3.880   5.444   1.711 -1.5356 -1.0087 -0.2377
 4210SOL    HW243125   3.852   5.296   1.725  0.2333 -1.1487  2.5137
 4211SOL     OW43126   1.872   1.384  12.645  0.4926  0.4284 -0.2026
 4211SOL    HW143127   1.825   1.325  12.586  1.9042  0.6331 -1.6305
 4211SOL    HW243128   1.949   1.334  12.674 -0.0551  0.4214  1.3118
 4212SOL     OW43129   0.633   1.003   0.393  0.0938  0.2266  0.4977
 4212SOL    HW143130   0.692   1.072   0.362 -1.2831  0.8267 -0.9792
 4212SOL    HW243131   0.580   1.046   0.460 -0.2196  0.3774  0.1563
 4213SOL     OW43132   0.423   4.789  11.062  0.1194 -0.2848  0.5086
 4213SOL    HW143133   0.355   4.767  10.998 -1.4805  2.4139  1.1296
 4213SOL    HW243134   0.375   4.827  11.135  2.2792  1.4930  1.0918
 4214SOL     OW43135   0.820   6.051   1.152 -0.0212 -0.2854 -0.4358
 4214SOL    HW143136   0.826   6.137   1.111 -0.0669 -0.3788 -0.6450
 4214SOL    HW243137   0.860   6.061   1.238 -0.8147  0.1613 -0.1164
 4215SOL     OW43138   6.121   2.636  11.683 -0.1695  0.6340  0.4095
 4215SOL    HW143139   6.141   2.625  11.590 -0.6187 -1.0698  0.4833
 4215SOL    HW243140   6.191   2.692  11.716  0.4555  0.5965 -0.7840
 4216SOL     OW43141   3.357   5.976  11.850 -0.0938 -0.1676  0.0828
 4216SOL    HW143142   3.431   5.936  11.804  1.4293  1.9431  0.5255
 4216SOL    HW243143   3.364   5.942  11.940 -2.1597 -3.0963 -0.7345
 4217SOL     OW43144   1.996   2.746  12.326  0.8060  0.0995  0.1896
 4217SOL    HW143145   2.062   2.783  12.384  0.3094 -0.2942  1.0301
 4217SOL    HW243146   1.980   2.658  12.361  0.5040 -0.1513 -0.5554
 4218SOL     OW43147   6.328   3.974  12.225 -0.2784 -0.2701  0.1494
 4218SOL    HW143148   6.340   4.040  12.157 -0.5601 -0.9070 -0.5309
 4218SOL    HW243149   6.279   3.904  12.182  1.3529 -1.6311  0.4247
 4219SOL     OW43150   1.841   0.650   0.158  0.1364 -0.1362 -0.2405
 4219SOL    HW143151   1.813   0.561   0.140 -0.0982  0.0888 -1.0453
 4219SOL    HW243152   1.761   0.702   0.152  0.2859  0.1500  0.1262
 4220SOL     OW43153   4.376   6.312   1.504 -0.0518  1.0523 -0.0174
 4220SOL    HW143154   4.470   6.314   1.483  0.1536 -0.2243  0.6682
 4220SOL    HW243155   4.356   6.401   1.533  0.4149  1.9582 -2.2390
 4221SOL     OW43156   4.959   6.006  12.162  0.3119 -0.1813  0.0790
 4221SOL    HW143157   4.989   6.053  12.240  0.2817 -1.3844  0.8449
 4221SOL    HW243158   4.896   6.065  12.121 -1.6469 -0.4895  2.3898
 4222SOL     OW43159   3.951   3.611  11.289 -0.2657 -0.4369  0.8282
 4222SOL    HW143160   3.882   3.676  11.302  0.5053  0.0949  2.4061
 4222SOL    HW243161   3.939   3.582  11.198 -1.1157  1.3219  0.3363
 4223SOL     OW43162   5.147   2.405  11.189  0.1799  0.5606 -0.4251
 4223SOL    HW143163   5.164   2.462  11.264  1.7746 -2.2997  1.6346
 4223SOL    HW243164   5.053   2.413  11.173 -0.2732  1.1216  2.0796
 4224SOL     OW43165   4.903   1.421  11.666 -0.2194  0.0218  0.2017
 4224SOL    HW143166   4.903   1.500  11.721 -0.1059  0.2991 -0.1930
 4224SOL    HW243167   4.864   1.450  11.583 -2.6127 -0.9427  0.9033
 4225SOL     OW43168   0.625   5.091  11.153  0.0701  0.1189 -0.2333
 4225SOL    HW143169   0.604   5.141  11.074  1.9857 -0.3525 -1.0827
 4225SOL    HW243170   0.661   5.009  11.121  1.1695  0.0342  1.1278
 4226SOL     OW43171   1.943   2.857   0.454  0.0251 -0.5293 -0.2661
 4226SOL    HW143172   1.848   2.873   0.457  0.0088 -0.4782 -0.9298
 4226SOL    HW243173   1.982   2.941   0.478 -0.0876 -0.0484 -1.6811
 4227SOL     OW43174   4.555   1.922  12.441  0.4164 -0.1207  0.0925
 4227SOL    HW143175   4.625   1.916  12.507 -0.2747 -4.5619  0.7375
 4227SOL    HW243176   4.602   1.929  12.358  1.6637 -1.3412  0.6353
 4228SOL     OW43177   4.577   5.500   1.091  0.0124 -0.0117 -0.1207
 4228SOL    HW143178   4.492   5.480   1.051  0.3507 -2.4349  0.2705
 4228SOL    HW243179   4.639   5.444   1.046  1.5813  2.1242 -0.7818
 4229SOL     OW43180   3.606   4.393   1.699 -0.3932 -0.0319  0.0615
 4229SOL    HW143181   3.547   4.318   1.698 -0.0824 -0.2785  0.2098
 4229SOL    HW243182   3.670   4.372   1.766 -0.8079  0.7501  0.7308
 4230SOL     OW43183   4.896   2.097  10.895 -0.0112  0.1749 -0.1014
 4230SOL    HW143184   4.836   2.167  10.920  0.7333  0.7753  0.0674
 4230SOL    HW243185   4.842   2.035  10.847 -0.4624  1.4852 -1.3925
 4231SOL     OW43186   0.141   3.922   1.013  0.1271  0.1725  0.1992
 4231SOL    HW143187   0.061   3.873   1.034 -0.0300  0.8896  1.3562
 4231SOL    HW243188   0.158   3.974   1.092  2.0968 -0.4390  0.2181
 4232SOL     OW43189   3.353   1.479  12.147 -0.6403  0.3073 -0.0274
 4232SOL    HW143190   3.346   1.388  12.175  1.2343 -0.2763 -1.2529
 4232SOL    HW243191   3.397   1.524  12.219  1.3673 -0.5102 -0.6795
 4233SOL     OW43192   2.084   4.048  12.714  0.4867 -0.1086  0.1454
 4233SOL    HW143193   2.032   3.997  12.776 -2.1122  1.4365 -0.5851
 4233SOL    HW243194   2.081   3.998  12.633  2.0835 -1.0818  0.6384
 4234SOL     OW43195   4.856   1.757  11.111  0.0333 -0.1607  0.2992
 4234SOL    HW143196   4.850   1.828  11.176  0.5087  1.0052 -0.8865
 4234SOL    HW243197   4.930   1.704  11.141 -1.2711 -1.0883  2.0458
 4235SOL     OW43198   1.048   3.568   0.062 -0.5750  0.3388  0.7791
 4235SOL    HW143199   1.030   3.511  -0.013 -0.6752  3.3194 -1.7017
 4235SOL    HW243200   1.120   3.526   0.108 -0.5385 -1.6695 -0.9611
 4236SOL     OW43201   1.922   1.731   1.645  0.1932 -0.3198  0.6553
 4236SOL    HW143202   1.935   1.819   1.610 -0.7500 -0.8099 -1.0381
 4236SOL    HW243203   1.994   1.680   1.607 -0.0845 -0.5810  0.4791
 4237SOL     OW43204   3.804   2.055   0.076  0.0782 -0.0554 -0.4084
 4237SOL    HW143205   3.810   1.981   0.015  2.8824 -0.7868  0.6013
 4237SOL    HW243206   3.781   2.015   0.160  0.8447  0.3087 -0.0186
 4238SOL     OW43207   5.130   3.628  11.113 -0.0627  0.3339  0.0405
 4238SOL    HW143208   5.189   3.623  11.038 -0.0884  2.2937 -0.1707
 4238SOL    HW243209   5.185   3.660  11.184 -0.5090  0.5540  0.2873
 4239SOL     OW43210   4.946   4.944   0.958  0.2213  0.7729  0.2670
 4239SOL    HW143211   4.937   4.969   1.050  2.0949 -1.4104  1.1479
 4239SOL    HW243212   4.920   4.852   0.955  1.2510  0.4980 -1.1545
 4240SOL     OW43213   1.660   1.078  11.904  0.1229 -0.5454 -0.1465
 4240SOL    HW143214   1.674   1.155  11.958 -1.3703  0.8152 -1.5712
 4240SOL    HW243215   1.748   1.046  11.883  0.7846  1.1778 -0.0820
 4241SOL     OW43216   4.204   4.437  12.140  0.1067 -0.0854  0.5149
 4241SOL    HW143217   4.138   4.502  12.166  0.4464  0.0612  1.0349
 4241SOL    HW243218   4.238   4.404  12.223  3.0209  2.1928  0.3996
 4242SOL     OW43219   2.994   0.733   0.791  0.3803  0.6276 -0.2736
 4242SOL    HW143220   3.075   0.742   0.842  0.8436  0.0563 -0.8915
 4242SOL    HW243221   3.001   0.799   0.722  0.6960  0.0362 -0.8105
 4243SOL     OW43222   5.116   1.462  12.583  0.5191 -0.3332 -0.3207
 4243SOL    HW143223   5.060   1.519  12.532 -1.7606 -1.3040  0.9402
 4243SOL    HW243224   5.197   1.456  12.532 -0.8234  0.4141 -2.6984
 4244SOL     OW43225   0.606   0.870  11.328 -0.1061 -0.3888 -0.0362
 4244SOL    HW143226   0.638   0.860  11.239  0.8012 -2.6505  0.4709
 4244SOL    HW243227   0.648   0.950  11.360 -0.2631  0.3242 -1.5304
 4245SOL     OW43228   4.529   2.488  12.524  0.5269 -0.7237 -0.6243
 4245SOL    HW143229   4.567   2.567  12.561 -0.2590 -0.7597  0.3051
 4245SOL    HW243230   4.590   2.418  12.547  0.0149 -0.7550  0.6959
 4246SOL     OW43231   0.178   0.482  11.903  0.5003 -0.0482 -0.2686
 4246SOL    HW143232   0.098   0.528  11.930  0.2398 -1.1820  1.0086
 4246SOL    HW243233   0.222   0.544  11.846 -0.5877  1.1858  0.1542
 4247SOL     OW43234   1.513   0.115   0.774  0.0615 -0.5032 -0.6505
 4247SOL    HW143235   1.436   0.155   0.735  0.0106 -0.6306 -0.6818
 4247SOL    HW243236   1.526   0.163   0.856  0.2727 -0.1219 -0.9060
 4248SOL     OW43237   1.136   2.778   1.585 -0.3344 -0.6430  0.2762
 4248SOL    HW143238   1.200   2.784   1.514 -0.6188  0.7421  0.1131
 4248SOL    HW243239   1.188   2.761   1.663 -0.0013 -1.9992 -0.2054
 4249SOL     OW43240   2.697   6.288   0.541  0.3191 -0.3451 -0.3695
 4249SOL    HW143241   2.704   6.278   0.636  0.9649 -1.5076 -0.5192
 4249SOL    HW243242   2.765   6.351   0.517  0.1218 -0.0134 -0.0638
 4250SOL     OW43243   3.901   1.429   1.287 -0.5477 -0.0628 -0.6374
 4250SOL    HW143244   3.933   1.339   1.287 -0.1288  0.0308  1.8486
 4250SOL    HW243245   3.932   1.465   1.204  3.6491 -0.7842  0.4006
 4251SOL     OW43246   4.489   4.287   0.815 -0.4985  0.2054  0.1591
 4251SOL    HW143247   4.422   4.225   0.787 -0.7660  0.7107 -0.3187
 4251SOL    HW243248   4.454   4.373   0.793  0.1308  0.4971  0.2704
 4252SOL     OW43249   4.536   3.450  11.302 -0.0612  0.5853 -0.0684
 4252SOL    HW143250   4.463   3.405  11.345 -0.5468 -0.4814 -1.9118
 4252SOL    HW243251   4.614   3.417  11.346 -0.6341  1.7925  1.9797
 4253SOL     OW43252   3.732   0.855   0.360 -0.0529 -0.2746 -0.0152
 4253SOL    HW143253   3.786   0.925   0.396  0.7520  0.2534 -2.1276
 4253SOL    HW243254   3.770   0.775   0.396 -0.0864  0.2580  1.2721
 4254SOL     OW43255   6.213   6.189   1.584 -0.3947  0.0678 -0.2846
 4254SOL    HW143256   6.268   6.214   1.658  0.8422 -1.1783 -0.7385
 4254SOL    HW243257   6.253   6.234   1.509 -2.1753  2.0733 -0.1494
 4255SOL     OW43258   2.835   6.015   1.655 -0.4461  0.9023  0.5020
 4255SOL    HW143259   2.931   6.017   1.656 -0.4395  2.9328  2.3023
 4255SOL    HW243260   2.814   5.937   1.603  2.1525  0.6126 -0.2843
 4256SOL     OW43261   4.694   3.934  11.669 -0.2829 -0.2146 -0.2924
 4256SOL    HW143262   4.787   3.924  11.645  0.0335  0.6851  0.5083
 4256SOL    HW243263   4.671   3.849  11.706 -0.1195 -0.8329 -1.5448
 4257SOL     OW43264   2.517   2.460  12.000  0.1593 -0.0173 -0.1095
 4257SOL    HW143265   2.438   2.512  11.984  0.4713  0.1268 -1.2485
 4257SOL    HW243266   2.585   2.503  11.948  0.1158 -2.3336 -2.2833
 4258SOL     OW43267   0.607   1.630   1.134  0.3210 -0.1811 -0.1862
 4258SOL    HW143268   0.520   1.661   1.111 -0.8542 -3.1086 -0.2119
 4258SOL    HW243269   0.666   1.680   1.078 -0.9252  4.0420  1.8983
 4259SOL     OW43270   4.731   3.364  12.467 -0.4128  0.0998  0.1649
 4259SOL    HW143271   4.712   3.270  12.467 -1.0329  0.2209  0.4285
 4259SOL    HW243272   4.806   3.373  12.408 -0.1070 -0.6067  0.4270
 4260SOL     OW43273   4.298   3.249  11.816  0.1894 -0.0874 -0.2046
 4260SOL    HW143274   4.382   3.261  11.772  1.0304  0.4887  1.4500
 4260SOL    HW243275   4.249   3.328  11.796  0.7433  0.3783  0.2414
 4261SOL     OW43276   3.752   6.033  11.933 -0.0096 -0.2176  0.4552
 4261SOL    HW143277   3.799   5.951  11.947 -0.7313 -0.8568 -0.7379
 4261SOL    HW243278   3.700   6.045  12.012 -0.2104 -1.1390  0.4708
 4262SOL     OW43279   3.620   2.352  12.643  0.4958  0.8060 -0.0947
 4262SOL    HW143280   3.634   2.333  12.550  0.9195  1.3023 -0.1371
 4262SOL    HW243281   3.704   2.332  12.684  0.1451  0.0519  0.2766
 4263SOL     OW43282   3.723   5.103   1.981  0.8612 -0.1245 -0.0799
 4263SOL    HW143283   3.723   5.177   2.042 -1.8969 -1.0822  1.2330
 4263SOL    HW243284   3.781   5.131   1.910 -1.4260  4.1058 -0.5927
 4264SOL     OW43285   3.657   2.987  11.773  0.4863  0.0198  0.5458
 4264SOL    HW143286   3.727   3.051  11.759  1.1023 -0.5824  0.8522
 4264SOL    HW243287   3.584   3.039  11.807  1.3544  0.4059  1.8922
 4265SOL     OW43288   0.496   1.142   0.586  0.6351  0.5073  0.8197
 4265SOL    HW143289   0.558   1.192   0.640  1.9053 -1.1974  1.0285
 4265SOL    HW243290   0.459   1.207   0.526  2.1443  1.7284  1.1367
 4266SOL     OW43291   5.770   1.963   1.258 -0.4762  0.0857 -0.1890
 4266SOL    HW143292   5.679   1.933   1.255 -0.1873 -0.7619 -0.7953
 4266SOL    HW243293   5.805   1.944   1.171 -0.0530  1.5462 -0.3673
 4267SOL     OW43294   2.521   4.327   0.885 -0.5654  0.2799  0.0773
 4267SOL    HW143295   2.483   4.391   0.824 -1.3139 -0.5045 -0.3102
 4267SOL    HW243296   2.446   4.295   0.936  0.0237  0.7767  1.2930
 4268SOL     OW43297   1.736   0.586   1.332 -0.3261  0.8864  0.5318
 4268SOL    HW143298   1.830   0.593   1.348 -0.3529  0.6999  0.7865
 4268SOL    HW243299   1.730   0.545   1.246 -0.1504 -1.2064  1.4489
 4269SOL     OW43300   4.203   4.831   1.204 -0.4731 -0.7306 -0.0562
 4269SOL    HW143301   4.122   4.829   1.255 -0.2016 -0.0120  0.4100
 4269SOL    HW243302   4.179   4.875   1.123  0.1009  2.4253  1.3183
 4270SOL     OW43303   5.645   6.449   1.587 -0.0446  0.1966 -0.7433
 4270SOL    HW143304   5.582   6.387   1.624  2.0368 -1.4295  0.2540
 4270SOL    HW243305   5.708   6.395   1.540  0.8554  1.7301 -1.3826
 4271SOL     OW43306   0.586   2.111   1.345  0.2297  0.1610  0.6828
 4271SOL    HW143307   0.516   2.049   1.364  0.0133 -0.5465 -2.0914
 4271SOL    HW243308   0.551   2.196   1.371 -2.4453  0.0907 -2.1345
 4272SOL     OW43309   2.147   5.640   1.351 -0.3221  0.5247  1.0831
 4272SOL    HW143310   2.082   5.612   1.286  0.6184 -1.0028  0.7385
 4272SOL    HW243311   2.203   5.701   1.303 -1.1003  1.3624  1.2063
 4273SOL     OW43312   3.339   6.091  12.591 -0.0254  0.4840 -0.0591
 4273SOL    HW143313   3.342   6.029  12.664  0.3995  0.2247 -0.2882
 4273SOL    HW243314   3.427   6.087  12.554 -0.2802  0.5190 -0.6670
 4274SOL     OW43315   0.789   4.822  11.373 -0.2222 -0.2819 -0.0381
 4274SOL    HW143316   0.805   4.916  11.385  0.5886 -0.1874 -1.6054
 4274SOL    HW243317   0.741   4.815  11.291 -0.6576 -1.2247  0.2784
 4275SOL     OW43318   5.188   5.331  12.183  0.1464  0.1878  0.1872
 4275SOL    HW143319   5.183   5.324  12.088  0.7255  1.3059  0.0614
 4275SOL    HW243320   5.114   5.280  12.215  0.1635 -0.5069 -0.8455
 4276SOL     OW43321   0.040   4.452  11.419  0.4472  0.0090 -0.1687
 4276SOL    HW143322  -0.020   4.437  11.491  0.5344 -0.3325 -0.1668
 4276SOL    HW243323   0.003   4.527  11.372  1.5543  1.7075  1.4972
 4277SOL     OW43324   5.460   2.095   0.458 -0.5827  0.1714 -0.4088
 4277SOL    HW143325   5.473   2.003   0.436 -0.5097  0.2389 -0.6577
 4277SOL    HW243326   5.549   2.131   0.462 -0.6322  0.3586 -0.8896
 4278SOL     OW43327   2.673   2.976   0.757  0.4576  0.0145  0.1734
 4278SOL    HW143328   2.769   2.968   0.755  0.5625  1.1591 -1.3895
 4278SOL    HW243329   2.644   2.940   0.673 -0.2694  1.5512 -0.2693
 4279SOL     OW43330   0.922   5.574   1.031  0.3246  0.5637  0.0034
 4279SOL    HW143331   0.829   5.572   1.010  0.1245  0.0181  0.8987
 4279SOL    HW243332   0.966   5.542   0.952 -0.1851  1.5257 -0.6863
 4280SOL     OW43333   4.685   1.305   0.927  0.3872 -0.4613 -0.3651
 4280SOL    HW143334   4.594   1.284   0.904  0.8364 -0.9965 -1.8072
 4280SOL    HW243335   4.687   1.400   0.930 -0.1130 -0.4295 -0.8506
 4281SOL     OW43336   3.061   4.472   0.395 -0.6635  0.0522 -0.7258
 4281SOL    HW143337   3.099   4.406   0.337  1.5799  0.3348  0.3083
 4281SOL    HW243338   2.979   4.433   0.425  0.3909 -2.1369 -0.4511
 4282SOL     OW43339   2.624   6.413   1.383  0.5544  0.3030 -0.3377
 4282SOL    HW143340   2.535   6.380   1.370  0.0738  1.7528 -0.8376
 4282SOL    HW243341   2.669   6.341   1.428 -0.5863 -0.8381 -0.9315
 4283SOL     OW43342   5.494   1.101   0.475  0.0841  0.2850 -0.0193
 4283SOL    HW143343   5.498   1.018   0.522  0.1116 -1.5358 -2.9653
 4283SOL    HW243344   5.556   1.090   0.402 -2.2153  1.5924 -2.3240
 4284SOL     OW43345   5.449   4.233   1.188 -0.3342  0.6694  0.1720
 4284SOL    HW143346   5.486   4.197   1.269  0.5364 -2.2901 -1.4244
 4284SOL    HW243347   5.356   4.245   1.208 -0.0243  0.6983  1.7862
 4285SOL     OW43348   5.674   6.069  11.496 -0.3142  0.3232 -0.1094
 4285SOL    HW143349   5.587   6.037  11.520 -0.3457  0.4850 -0.0037
 4285SOL    HW243350   5.685   6.041  11.405 -0.3382  0.0140 -0.0177
 4286SOL     OW43351   5.278   1.035  11.310  0.3044  0.1596 -0.5947
 4286SOL    HW143352   5.368   1.053  11.284  0.3779 -0.0079 -0.4606
 4286SOL    HW243353   5.228   1.041  11.229  0.1086  2.2674 -0.3649
 4287SOL     OW43354   3.077   1.836  11.359  0.3659 -0.9222 -0.1887
 4287SOL    HW143355   3.095   1.786  11.438 -2.0572  0.8024  1.5972
 4287SOL    HW243356   3.152   1.895  11.350 -0.2736  0.3827  2.1839
 4288SOL     OW43357   5.584   2.875  12.056  0.9563  0.0837 -0.0397
 4288SOL    HW143358   5.631   2.795  12.081  1.6568  0.6067  0.3580
 4288SOL    HW243359   5.654   2.940  12.042  0.3677  0.7555  0.1107
 4289SOL     OW43360   5.901   5.713  11.815  0.1536 -0.2530 -0.6392
 4289SOL    HW143361   5.988   5.677  11.832  0.7336  0.0787 -2.7385
 4289SOL    HW243362   5.914   5.781  11.750 -1.3628  1.6834  0.9386
 4290SOL     OW43363   3.148   5.328   1.612 -0.2582 -0.2823 -0.4597
 4290SOL    HW143364   3.134   5.315   1.518  1.3956 -0.8025 -0.6625
 4290SOL    HW243365   3.192   5.248   1.641  1.6731  0.9480  0.1817
 4291SOL     OW43366   3.088   6.002   1.557  0.0136 -0.5557 -0.4768
 4291SOL    HW143367   3.170   6.051   1.552 -0.1189 -0.3824 -1.0253
 4291SOL    HW243368   3.114   5.910   1.551  0.2183 -0.5294 -0.0095
 4292SOL     OW43369   1.901   0.451  11.781  0.1996 -0.1254  0.1817
 4292SOL    HW143370   1.974   0.429  11.723  0.8893 -0.5692  1.1844
 4292SOL    HW243371   1.837   0.381  11.767  1.2874 -1.4530  1.4869
 4293SOL     OW43372   1.796   4.998  11.349  0.4384 -0.0115 -0.3020
 4293SOL    HW143373   1.765   4.971  11.436  0.2718  1.2132  0.0375
 4293SOL    HW243374   1.887   4.968  11.345  1.0624  1.5892  1.0722
 4294SOL     OW43375   3.531   0.945  12.245  0.2692  0.1431 -0.0808
 4294SOL    HW143376   3.564   0.992  12.168 -0.2104  1.5547  0.5388
 4294SOL    HW243377   3.610   0.925  12.296  0.7739 -2.2165 -1.6291
 4295SOL     OW43378   0.411   4.063  12.319 -0.3295 -0.0711 -0.1294
 4295SOL    HW143379   0.473   3.994  12.345  0.2274  0.9088  1.2859
 4295SOL    HW243380   0.325   4.028  12.342 -0.0707 -0.3953  0.3824
 4296SOL     OW43381   2.661   1.661  11.605 -0.2678  0.6616  0.2934
 4296SOL    HW143382   2.668   1.714  11.525 -1.1576  0.9836  0.4167
 4296SOL    HW243383   2.630   1.722  11.672 -0.1039  0.2584  0.7503
 4297SOL     OW43384   2.121   5.140   1.287  0.1340  0.7073 -0.6542
 4297SOL    HW143385   2.184   5.091   1.341  0.1572  2.3640  0.9520
 4297SOL    HW243386   2.087   5.208   1.346 -1.6054  1.1778 -2.0995
 4298SOL     OW43387   2.787   2.456   0.944 -0.5743  0.0757  0.4316
 4298SOL    HW143388   2.844   2.531   0.929 -0.8610  0.4553  1.1523
 4298SOL    HW243389   2.756   2.467   1.035  0.0157 -1.3369  0.8346
 4299SOL     OW43390   4.664   2.999   0.601 -0.2779 -0.0237 -0.1073
 4299SOL    HW143391   4.631   3.075   0.648  1.0461  0.5585 -0.0837
 4299SOL    HW243392   4.707   3.035   0.524 -1.6134 -0.9124 -1.3209
 4300SOL     OW43393   0.224   0.124  11.918 -0.2600  0.1267 -0.6980
 4300SOL    HW143394   0.137   0.109  11.954 -0.7186 -1.8230 -2.4903
 4300SOL    HW243395   0.248   0.211  11.951 -1.6996 -0.4130  2.0743
 4301SOL     OW43396   0.929   4.138   1.615 -0.1263 -0.1246  0.2933
 4301SOL    HW143397   0.837   4.160   1.600 -0.5046 -0.3561  2.0934
 4301SOL    HW243398   0.928   4.049   1.650  1.0741 -1.4642 -2.7385
 4302SOL     OW43399   0.428   4.741  11.365 -0.6198  0.5291 -0.8391
 4302SOL    HW143400   0.373   4.723  11.441  2.1975  0.2605  1.3309
 4302SOL    HW243401   0.453   4.654  11.333  0.6763  0.5585 -0.0204
 4303SOL     OW43402   3.840   3.211  11.733  0.0410 -0.3537 -0.2106
 4303SOL    HW143403   3.910   3.175  11.679  0.6130  2.2725 -1.3782
 4303SOL    HW243404   3.794   3.271  11.675 -0.1649  1.5719  1.8262
 4304SOL     OW43405   1.995   3.801  12.573 -0.5410  0.3800  0.5729
 4304SOL    HW143406   2.031   3.783  12.660 -1.1155  0.6770  0.8812
 4304SOL    HW243407   1.903   3.776  12.580 -0.0097 -2.2398 -0.7811
 4305SOL     OW43408   0.712   0.668  11.497 -0.2549  0.3921  0.0645
 4305SOL    HW143409   0.727   0.735  11.564  1.7475  1.5585 -1.4643
 4305SOL    HW243410   0.662   0.713  11.429  1.2597  0.4391 -1.0588
 4306SOL     OW43411   0.352   4.158  11.165  0.3069  0.1772  0.6752
 4306SOL    HW143412   0.294   4.177  11.091 -0.6777  1.2869  1.6913
 4306SOL    HW243413   0.342   4.064  11.179 -0.6929  0.2172  0.3502
 4307SOL     OW43414   0.597   3.575  11.102  0.2275  0.3970  0.1723
 4307SOL    HW143415   0.687   3.588  11.131  0.4788 -0.0269 -0.3818
 4307SOL    HW243416   0.600   3.494  11.051 -0.3295  0.7423 -0.4251
 4308SOL     OW43417   5.202   4.575  12.830  0.0528  0.1124 -0.1091
 4308SOL    HW143418   5.135   4.625  12.784  1.6161 -0.8335 -3.8044
 4308SOL    HW243419   5.172   4.484  12.826  0.8320 -0.1404 -0.4859
 4309SOL     OW43420   0.060   6.024   9.158  0.5363 -0.1169 -0.4829
 4309SOL    HW143421   0.084   6.073   9.079  3.7805 -1.6558 -0.6364
 4309SOL    HW243422   0.008   5.950   9.126 -0.6105  0.7747 -0.7628
 4310SOL     OW43423   1.676   4.930  12.467 -0.3906  0.3465 -0.3205
 4310SOL    HW143424   1.630   5.004  12.506 -0.7138  0.4088 -0.8139
 4310SOL    HW243425   1.644   4.926  12.377  0.4169  0.2632 -0.6127
 4311SOL     OW43426   3.078   4.589  11.129 -0.2733 -0.2164  0.5146
 4311SOL    HW143427   3.136   4.614  11.201 -0.6657  1.6432  0.2192
 4311SOL    HW243428   3.112   4.636  11.053 -0.4661 -1.3763 -0.3171
 4312SOL     OW43429   4.426   5.639   1.396 -0.6368  0.3884 -0.2453
 4312SOL    HW143430   4.469   5.638   1.482 -0.6315  0.3620 -0.2485
 4312SOL    HW243431   4.444   5.553   1.359  0.8685  0.9988 -1.0211
 4313SOL     OW43432   5.277   3.864  12.744  0.0390  0.5678 -0.2810
 4313SOL    HW143433   5.282   3.860  12.649  1.2232  1.0075 -0.2567
 4313SOL    HW243434   5.336   3.936  12.768  2.2886 -1.5295  0.9493
 4314SOL     OW43435   0.193   4.409   0.606 -0.5771  0.2433  0.0125
 4314SOL    HW143436   0.099   4.419   0.622 -0.6950 -1.0062  0.1932
 4314SOL    HW243437   0.226   4.360   0.681  0.2853  0.9357  0.0987
 4315SOL     OW43438   0.659   2.055  10.674 -0.0418 -0.1057  0.0025
 4315SOL    HW143439   0.589   1.993  10.695 -0.4596  0.3903  0.1140
 4315SOL    HW243440   0.718   2.006  10.617  0.5577 -1.1530  1.4598
 4316SOL     OW43441   1.929   4.245   9.929 -0.0436 -0.2286  0.0368
 4316SOL    HW143442   1.837   4.254   9.904 -0.6715 -1.6524  1.6174
 4316SOL    HW243443   1.930   4.171   9.989  2.3169 -0.8861 -0.7040
 4317SOL     OW43444   5.562   2.576  11.067  0.3140  0.0291  0.8561
 4317SOL    HW143445   5.526   2.508  11.010  1.1618  0.4388 -0.2325
 4317SOL    HW243446   5.591   2.644  11.006  0.8667  0.6807  1.8204
 4318SOL     OW43447   6.058   0.629  12.129 -0.1068  0.0075 -0.4064
 4318SOL    HW143448   6.125   0.667  12.072  0.3458  2.4970  1.6057
 4318SOL    HW243449   6.104   0.559  12.176  1.1505  1.5803  0.8329
 4319SOL     OW43450   6.053   0.529   1.280 -0.2864  0.2682 -0.8849
 4319SOL    HW143451   6.011   0.444   1.291  0.6977 -0.0124  1.4806
 4319SOL    HW243452   6.136   0.509   1.237 -0.4881  0.1832 -1.2416
 4320SOL     OW43453   0.475   3.526   1.478  0.2011 -0.1105  0.0100
 4320SOL    HW143454   0.538   3.509   1.409  1.3842  1.2801  0.6860
 4320SOL    HW243455   0.401   3.468   1.458  1.1867 -0.9342 -1.4579
 4321SOL     OW43456   5.764   3.824   1.006 -0.4014 -0.0388  0.3418
 4321SOL    HW143457   5.733   3.911   0.979 -0.8514 -0.5270 -0.7369
 4321SOL    HW243458   5.732   3.816   1.096 -0.5537  0.8227  0.3813
 4322SOL     OW43459   5.701   0.760   1.365 -0.0848  0.2704  0.0229
 4322SOL    HW143460   5.793   0.788   1.365  0.1285 -0.2539  2.2863
 4322SOL    HW243461   5.697   0.691   1.432 -2.1776  0.4731  0.1597
 4323SOL     OW43462   0.167   3.579   0.493 -0.1708 -1.0371 -0.1334
 4323SOL    HW143463   0.226   3.529   0.436  0.5813 -1.6491  1.1452
 4323SOL    HW243464   0.165   3.529   0.575  1.4648  1.5221  1.6138
 4324SOL     OW43465   1.870   6.039  12.036  0.3186 -0.3690  0.1309
 4324SOL    HW143466   1.903   6.073  11.953 -0.6520  0.0402 -0.0958
 4324SOL    HW243467   1.918   5.957  12.049 -0.2001 -0.9454 -1.3191
 4325SOL     OW43468   1.758   0.461   2.484  0.2473  0.1981  0.0109
 4325SOL    HW143469   1.756   0.457   2.388  0.3038  1.6078 -0.0784
 4325SOL    HW243470   1.745   0.371   2.512  5.5662 -1.3122 -1.3329
 4326SOL     OW43471   0.996   0.864  12.460 -0.0362  0.3141 -1.1987
 4326SOL    HW143472   1.041   0.945  12.485 -0.1037 -0.4221  1.6178
 4326SOL    HW243473   0.903   0.886  12.465 -0.0704  0.5417 -2.3879
 4327SOL     OW43474   2.342   1.780  11.629  0.4606  0.0357  0.4318
 4327SOL    HW143475   2.277   1.850  11.622  0.9988  0.4330 -0.8884
 4327SOL    HW243476   2.410   1.817  11.685  0.4593  0.3471  0.2298
 4328SOL     OW43477   4.943   5.041  12.710 -0.0622 -0.2235 -0.4293
 4328SOL    HW143478   4.910   5.078  12.792  0.6356  1.3182 -0.8179
 4328SOL    HW243479   5.029   5.081  12.699  0.1678 -1.0025 -1.5359
 4329SOL     OW43480   1.586   1.656  12.147 -0.0765 -0.1111 -0.2700
 4329SOL    HW143481   1.506   1.692  12.185  0.0915  1.1799 -1.0487
 4329SOL    HW243482   1.650   1.660  12.218 -0.7096 -1.2262  0.3786
 4330SOL     OW43483   0.107   5.625   0.691 -0.3098  0.9461 -0.2976
 4330SOL    HW143484   0.119   5.536   0.725  0.4429  1.1917  0.0979
 4330SOL    HW243485   0.158   5.680   0.750  0.9946  1.4022 -1.7813
 4331SOL     OW43486   6.037   0.503   2.942  0.1551  0.1811  0.1087
 4331SOL    HW143487   5.973   0.499   3.013 -0.8940 -1.4815 -0.8433
 4331SOL    HW243488   6.108   0.556   2.976 -1.2203  1.1504  1.6414
 4332SOL     OW43489   1.503   1.191   1.038  0.0572 -0.1585  0.0133
 4332SOL    HW143490   1.531   1.100   1.035  0.5756 -0.0087  0.2567
 4332SOL    HW243491   1.415   1.188   1.075  1.1329 -0.3376  2.7347
 4333SOL     OW43492   3.959   4.305   0.890 -0.0295  0.3421 -0.0663
 4333SOL    HW143493   3.867   4.291   0.870  0.7334 -1.4373 -2.8030
 4333SOL    HW243494   3.972   4.264   0.976 -1.2137 -2.0290 -0.9512
 4334SOL     OW43495   1.015   2.557  12.471  0.1200  0.2581  0.1469
 4334SOL    HW143496   1.044   2.467  12.480  0.0528  0.3499  1.4614
 4334SOL    HW243497   1.061   2.604  12.540  0.9321  1.4370 -1.1435
 4335SOL     OW43498   5.690   5.786   0.905  0.0440 -0.0547 -0.5001
 4335SOL    HW143499   5.693   5.881   0.894 -2.5006  0.0753 -0.5621
 4335SOL    HW243500   5.654   5.753   0.823 -1.6532 -0.7830  0.4892
 4336SOL     OW43501   3.527   3.461  12.432 -0.3824  0.3134 -0.7903
 4336SOL    HW143502   3.592   3.505  12.487 -0.7721  0.6869 -0.6302
 4336SOL    HW243503   3.578   3.395  12.384 -0.2503 -0.9099  0.9491
 4337SOL     OW43504   5.936   6.189  12.641 -0.5258  0.1422 -0.1331
 4337SOL    HW143505   6.016   6.177  12.691  0.2008 -2.2387 -1.6846
 4337SOL    HW243506   5.869   6.143  12.691 -0.2459 -0.4766 -0.3185
 4338SOL     OW43507   5.512   4.465  11.139  0.1639  0.2575  0.1120
 4338SOL    HW143508   5.529   4.516  11.060 -0.3610 -0.2495 -0.3347
 4338SOL    HW243509   5.456   4.393  11.110 -0.6802  0.4994  1.0851
 4339SOL     OW43510   1.109   6.301   0.750  0.1189  0.0651 -0.5383
 4339SOL    HW143511   1.058   6.364   0.699  0.3097  0.4936 -0.1969
 4339SOL    HW243512   1.140   6.350   0.826 -0.4432 -0.6549  0.1736
 4340SOL     OW43513   2.102   5.089   0.165 -0.0865  0.2057 -0.1757
 4340SOL    HW143514   2.063   5.002   0.173 -0.4410  0.4723  1.3238
 4340SOL    HW243515   2.190   5.073   0.129  0.1539 -0.8554  0.8260
 4341SOL     OW43516   6.387   1.061  12.363  0.1906  0.3526  0.6662
 4341SOL    HW143517   6.464   1.012  12.392  1.3679  0.7805 -1.5441
 4341SOL    HW243518   6.343   1.004  12.301  1.6763  1.9986 -2.0823
 4342SOL     OW43519   1.720   0.405   2.216  0.2088 -0.8657 -0.1035
 4342SOL    HW143520   1.755   0.447   2.138 -1.6396  0.7782 -0.1350
 4342SOL    HW243521   1.660   0.338   2.183 -2.3595  1.3353 -0.2849
 4343SOL     OW43522   0.385   3.914   1.644 -0.5501 -0.1394  0.7262
 4343SOL    HW143523   0.339   3.856   1.705 -1.4284 -1.0060 -0.7100
 4343SOL    HW243524   0.345   3.896   1.559 -0.5751  2.2906  0.1490
 4344SOL     OW43525   6.087   1.121   1.205 -0.1715  0.4200  0.1600
 4344SOL    HW143526   6.169   1.097   1.161  1.4064  3.6937  1.0152
 4344SOL    HW243527   6.067   1.208   1.173 -1.0102  1.4085  3.0648
 4345SOL     OW43528   2.249   6.145  12.731  0.0934 -0.3242 -0.0043
 4345SOL    HW143529   2.155   6.144  12.713 -0.0763 -1.2287  0.8133
 4345SOL    HW243530   2.264   6.066  12.783  1.6219 -1.1865 -1.6361
 4346SOL     OW43531   0.198   2.262  12.375 -0.2318  0.8136 -0.1471
 4346SOL    HW143532   0.259   2.325  12.413  0.6170 -1.5315  2.7759
 4346SOL    HW243533   0.122   2.265  12.433 -0.8921  0.3059 -0.9635
 4347SOL     OW43534   1.204   4.742  10.888  0.3873  0.5437  0.3560
 4347SOL    HW143535   1.288   4.783  10.908 -0.1326  1.2532  1.1419
 4347SOL    HW243536   1.157   4.740  10.972 -0.3327  0.0560 -0.0473
 4348SOL     OW43537   4.214   3.023  12.531 -0.0825 -0.4616  0.5386
 4348SOL    HW143538   4.261   3.047  12.611  0.2806 -2.8380  1.1021
 4348SOL    HW243539   4.226   2.929  12.523 -1.4715 -0.5347 -1.4690
 4349SOL     OW43540   5.199   5.607  11.944  0.5772  0.0126 -0.6749
 4349SOL    HW143541   5.196   5.513  11.931  3.4205 -0.4237  0.9720
 4349SOL    HW243542   5.287   5.633  11.916  0.6671  1.7602  0.9745
 4350SOL     OW43543   5.313   1.839  11.150 -0.3261 -0.1285  0.1263
 4350SOL    HW143544   5.322   1.866  11.242  0.0649  0.2113 -0.0063
 4350SOL    HW243545   5.263   1.910  11.109 -1.0418 -0.5787  0.2085
 4351SOL     OW43546   4.011   0.006  11.904  0.2464  0.6497 -0.1044
 4351SOL    HW143547   3.942  -0.043  11.859 -0.2240  1.1499  0.0580
 4351SOL    HW243548   3.976   0.021  11.992  1.3984 -0.8265  0.6367
 4352SOL     OW43549   3.677   5.218   0.487  0.7848 -0.2434 -0.5179
 4352SOL    HW143550   3.590   5.203   0.449  0.4723 -1.3601  0.5612
 4352SOL    HW243551   3.735   5.162   0.436  0.9782  0.8632 -1.5508
 4353SOL     OW43552   5.200   1.254   1.028  0.0787  0.0263 -0.2172
 4353SOL    HW143553   5.220   1.188   0.961  0.8374 -0.5068  0.5171
 4353SOL    HW243554   5.105   1.262   1.026  0.0039 -0.8383 -0.5546
 4354SOL     OW43555   0.266   5.572   1.281 -0.4873 -0.1128 -0.0004
 4354SOL    HW143556   0.250   5.592   1.373 -0.6137 -1.4873  0.2984
 4354SOL    HW243557   0.291   5.656   1.242 -0.9721  0.5915  1.1603
 4355SOL     OW43558   1.022   0.392  12.643  0.5043 -0.2725 -0.3749
 4355SOL    HW143559   0.952   0.447  12.610  0.6212 -1.7437 -3.3989
 4355SOL    HW243560   1.089   0.453  12.674 -1.4685  1.1508  1.2822
 4356SOL     OW43561   4.820   2.352   0.678  0.6072 -0.3839  0.1916
 4356SOL    HW143562   4.859   2.404   0.608 -0.8809 -0.0060 -0.4096
 4356SOL    HW243563   4.839   2.261   0.654  0.3169 -0.2499 -0.6040
 4357SOL     OW43564   3.610   4.613   1.536 -0.1736  0.0425  0.4926
 4357SOL    HW143565   3.636   4.684   1.595 -0.2474  0.4438  0.0455
 4357SOL    HW243566   3.605   4.536   1.593 -1.2917  0.6368  1.2405
 4358SOL     OW43567   4.499   2.598   0.150  0.1886  0.1808 -0.1844
 4358SOL    HW143568   4.412   2.581   0.116  1.3028 -1.6054 -2.3920
 4358SOL    HW243569   4.495   2.573   0.242 -1.0461 -2.2457 -0.8230
 4359SOL     OW43570   2.697   3.865   0.074  0.1707 -0.3139  0.2710
 4359SOL    HW143571   2.686   3.873   0.169 -1.2947 -0.1748  0.1214
 4359SOL    HW243572   2.654   3.783   0.052  1.9181 -1.1774 -0.1005
 4360SOL     OW43573   0.526   2.422   1.156 -0.2337  0.4617 -0.8262
 4360SOL    HW143574   0.447   2.399   1.204 -0.2910  1.7677 -0.2467
 4360SOL    HW243575   0.527   2.363   1.081 -1.3245 -0.1162 -0.4071
 4361SOL     OW43576   2.389   5.542  12.602  0.1963  0.5417  0.7757
 4361SOL    HW143577   2.356   5.609  12.661 -1.7271  1.3489 -1.0956
 4361SOL    HW243578   2.480   5.568  12.585  0.0675  1.5719  1.5821
 4362SOL     OW43579   4.714   2.304  12.570 -0.2687 -0.1861 -0.1065
 4362SOL    HW143580   4.799   2.348  12.573 -0.9118  1.0830  0.8568
 4362SOL    HW243581   4.705   2.274  12.480  0.8997  0.2787 -0.3950
 4363SOL     OW43582   5.740   0.572   0.130  1.0161 -0.4573  0.1262
 4363SOL    HW143583   5.700   0.628   0.063 -0.1148 -2.6499 -1.1339
 4363SOL    HW243584   5.791   0.633   0.185 -0.0534  1.7565 -1.1959
 4364SOL     OW43585   0.440   2.613   1.389  0.0295 -0.3691  0.1184
 4364SOL    HW143586   0.498   2.537   1.378 -0.2840 -0.4896 -0.8071
 4364SOL    HW243587   0.436   2.652   1.302 -0.2665  0.3844  0.4664
 4365SOL     OW43588   3.283   2.255   0.210 -0.5870 -0.3097  0.1080
 4365SOL    HW143589   3.218   2.301   0.263 -1.9177 -2.2311  0.2710
 4365SOL    HW243590   3.367   2.274   0.253 -1.2007  1.0042  0.7877
 4366SOL     OW43591   3.396   4.208   1.647  0.0231  0.2069 -0.2830
 4366SOL    HW143592   3.302   4.192   1.642 -0.1549  1.2372 -0.5920
 4366SOL    HW243593   3.435   4.135   1.600 -0.5704 -0.6258  0.4867
 4367SOL     OW43594   6.255   0.167   6.626 -0.0558  0.1155 -0.5245
 4367SOL    HW143595   6.271   0.077   6.599  0.0302  0.0861 -0.3768
 4367SOL    HW243596   6.319   0.183   6.695 -0.5559  0.0566 -0.0414
 4368SOL     OW43597   6.352   6.087   9.362  0.2700 -0.0390  0.0095
 4368SOL    HW143598   6.423   6.079   9.300  1.1982  2.5845  0.5986
 4368SOL    HW243599   6.313   6.172   9.343 -2.4493 -1.1702  0.0338
 4369SOL     OW43600   4.513   5.947  12.135  0.0258 -0.5630  0.1497
 4369SOL    HW143601   4.564   5.932  12.055 -1.6210  0.6222 -1.2029
 4369SOL    HW243602   4.494   5.859  12.168  0.8656 -1.0703 -0.6727
 4370SOL     OW43603   5.020   3.207  10.374  0.1115  0.1220 -0.1346
 4370SOL    HW143604   5.082   3.154  10.324 -1.9805 -1.8272 -0.8251
 4370SOL    HW243605   5.058   3.211  10.462  0.7276 -1.9410 -0.2450
 4371SOL     OW43606   2.939   2.883   0.702  0.1383 -0.0129 -0.1843
 4371SOL    HW143607   3.024   2.927   0.706  0.3136 -0.4399  1.1204
 4371SOL    HW243608   2.936   2.844   0.614  0.1008  2.2796 -1.2865
 4372SOL     OW43609   2.078   0.346  12.663  0.1734  0.4814 -0.0080
 4372SOL    HW143610   2.057   0.296  12.742  0.8487 -0.1816 -0.2323
 4372SOL    HW243611   2.173   0.338  12.654  0.0623  0.1866 -1.1144
 4373SOL     OW43612   0.151   5.109  11.319  0.0932  0.2011  0.1755
 4373SOL    HW143613   0.112   5.196  11.311 -1.6702 -0.5583 -0.0304
 4373SOL    HW243614   0.094   5.063  11.382  1.1817 -0.7020  0.5358
 4374SOL     OW43615   1.853   5.770   0.156  0.1479 -1.0697 -0.3068
 4374SOL    HW143616   1.845   5.725   0.072  1.6014 -1.5713 -0.2114
 4374SOL    HW243617   1.945   5.757   0.181  0.4899  1.5078 -0.0096
 4375SOL     OW43618   6.273   6.062  12.499  0.1659 -0.3654 -0.7764
 4375SOL    HW143619   6.226   6.040  12.419  0.6838 -0.3550 -1.0863
 4375SOL    HW243620   6.298   5.977  12.536 -1.7430 -0.4632  0.4036
 4376SOL     OW43621   2.147   5.902  12.845 -0.2768 -0.0670  0.6787
 4376SOL    HW143622   2.133   5.822  12.795  0.3942 -0.2236  0.7284
 4376SOL    HW243623   2.141   5.874  12.937  0.9500 -0.2657  0.7141
 4377SOL     OW43624   0.391   0.449   0.412 -0.4261  0.0476  0.1092
 4377SOL    HW143625   0.486   0.439   0.419 -0.2604  2.2161  1.7176
 4377SOL    HW243626   0.378   0.500   0.332 -0.1316  0.8480  0.5658
 4378SOL     OW43627   5.379   1.449   1.086 -0.1303 -0.5429  0.0180
 4378SOL    HW143628   5.309   1.395   1.049 -0.5171  0.3352 -0.5633
 4378SOL    HW243629   5.352   1.464   1.177 -0.6096 -0.3554 -0.1546
 4379SOL     OW43630   1.028   6.011   0.795 -0.0969  0.5645 -0.4165
 4379SOL    HW143631   0.974   6.001   0.873  1.0912 -0.3303  0.3226
 4379SOL    HW243632   1.052   6.104   0.795  1.1180  0.2941  1.1601
 4380SOL     OW43633   5.085   0.442   1.249  0.4183  0.3617 -0.0504
 4380SOL    HW143634   5.021   0.395   1.196  0.0450  1.2003 -0.3719
 4380SOL    HW243635   5.110   0.380   1.318 -0.7951  0.0321  0.1182
 4381SOL     OW43636   2.981   5.341   1.386  0.2293 -0.0291  0.0773
 4381SOL    HW143637   2.899   5.307   1.350 -0.5833  0.1484  1.7017
 4381SOL    HW243638   3.021   5.388   1.313 -1.5429  0.6462 -0.5164
 4382SOL     OW43639   0.427   3.095   0.154  0.1155 -0.0102  0.0085
 4382SOL    HW143640   0.491   3.042   0.202  0.0015  0.8458  1.1490
 4382SOL    HW243641   0.480   3.157   0.104  0.2104  0.8300  1.1057
 4383SOL     OW43642   6.191   0.366   2.758 -0.1834 -0.8057 -0.7064
 4383SOL    HW143643   6.139   0.355   2.678  0.5157  0.6125 -1.3833
 4383SOL    HW243644   6.134   0.416   2.816 -0.9652 -2.4312  0.0011
 4384SOL     OW43645   5.858   1.831   1.016 -0.0909 -0.0003  0.3858
 4384SOL    HW143646   5.779   1.816   0.963 -0.0790 -2.0472  0.8885
 4384SOL    HW243647   5.925   1.776   0.976  0.4574 -0.0268  1.3117
 4385SOL     OW43648   6.401   3.989   0.042  0.4266  0.7103  0.5552
 4385SOL    HW143649   6.389   4.013   0.134  1.3178  2.0646  0.3550
 4385SOL    HW243650   6.347   4.051  -0.007 -0.4746 -0.3534  0.1738
 4386SOL     OW43651   2.796   5.573   1.374  0.1270 -1.3738  0.2697
 4386SOL    HW143652   2.891   5.577   1.366  0.4729 -0.0281  3.5412
 4386SOL    HW243653   2.777   5.480   1.382  0.5513 -2.0932 -4.3740
 4387SOL     OW43654   2.157   5.710   0.575  0.1333 -0.2766  0.1555
 4387SOL    HW143655   2.188   5.670   0.494  1.7460 -0.3288  0.7561
 4387SOL    HW243656   2.103   5.784   0.547 -0.1176 -0.8735 -0.9562
 4388SOL     OW43657   5.778   2.658   0.129  0.0273  0.0695  0.2291
 4388SOL    HW143658   5.699   2.663   0.182  0.0549 -0.8101  0.3678
 4388SOL    HW243659   5.838   2.721   0.169  0.4342 -1.3168  1.9301
 4389SOL     OW43660   2.205   5.484   1.029  0.2937  0.3538 -0.0699
 4389SOL    HW143661   2.252   5.409   1.066 -0.4286 -0.7229 -1.2523
 4389SOL    HW243662   2.271   5.553   1.024  1.2303 -0.4927  0.1820
 4390SOL     OW43663   1.158   1.518   1.297 -0.0632  0.2129  0.0645
 4390SOL    HW143664   1.107   1.511   1.217  1.1293 -0.5136 -0.6593
 4390SOL    HW243665   1.098   1.557   1.360 -1.1122  0.5341 -1.0934
 4391SOL     OW43666   4.495   6.171   3.468 -0.2744  0.8225  0.4182
 4391SOL    HW143667   4.581   6.212   3.481 -0.2891  0.4873  1.7836
 4391SOL    HW243668   4.438   6.242   3.441  0.9020  0.6582 -2.9134
 4392SOL     OW43669   2.799   1.890   9.612  0.1827  0.0352 -0.3509
 4392SOL    HW143670   2.835   1.863   9.527 -0.1370 -2.5774  0.2520
 4392SOL    HW243671   2.707   1.864   9.607  0.1000  0.1064  0.6918
 4393SOL     OW43672   4.926   1.167   0.703  0.3692 -0.4699  1.1392
 4393SOL    HW143673   4.890   1.083   0.731 -2.3402 -0.7599 -2.4534
 4393SOL    HW243674   4.922   1.223   0.781 -2.7878 -2.1835  2.3766
 4394SOL     OW43675   5.055   3.989  11.117 -0.0331  0.5517 -0.3193
 4394SOL    HW143676   5.026   4.056  11.179  0.1901  0.6046 -0.2688
 4394SOL    HW243677   4.976   3.941  11.094  0.1938 -1.0527  1.8528
 4395SOL     OW43678   6.341   3.036   0.034 -0.1502 -0.8502 -0.3046
 4395SOL    HW143679   6.340   2.994  -0.053 -0.3592  0.3017 -0.8729
 4395SOL    HW243680   6.434   3.039   0.057 -0.2303 -3.7611  0.8510
 4396SOL     OW43681   5.795   5.122   1.243 -0.3220  0.0085  0.9463
 4396SOL    HW143682   5.857   5.195   1.246 -1.3900  0.9240  1.6114
 4396SOL    HW243683   5.810   5.081   1.158  1.8742 -0.4366  1.4809
 4397SOL     OW43684   5.774   2.481  11.183 -0.6982 -0.5758  0.3683
 4397SOL    HW143685   5.688   2.512  11.152 -1.0156  2.1896  3.4843
 4397SOL    HW243686   5.835   2.551  11.159 -0.3580 -0.0110  2.6128
 4398SOL     OW43687   6.337   5.802   1.686 -0.4146 -0.1576 -0.2357
 4398SOL    HW143688   6.304   5.730   1.741  1.7059  0.9809  2.8007
 4398SOL    HW243689   6.276   5.874   1.703 -0.6418 -0.2556 -0.6298
 4399SOL     OW43690   5.956   5.951  11.652  0.0067 -0.0812 -0.5534
 4399SOL    HW143691   6.044   5.915  11.663 -0.4992 -1.2582 -0.1796
 4399SOL    HW243692   5.962   6.006  11.574  1.4344  1.1034  0.3409
 4400SOL     OW43693   3.822   1.407   0.844  0.4041  0.1521  0.3427
 4400SOL    HW143694   3.860   1.416   0.756  0.1710 -0.7793  0.1329
 4400SOL    HW243695   3.839   1.315   0.868 -0.9734 -0.0659  0.5829
 4401SOL     OW43696   0.267   4.226   0.822 -0.4106 -0.6692 -0.7434
 4401SOL    HW143697   0.211   4.264   0.889  0.9275  0.7014 -0.3678
 4401SOL    HW243698   0.260   4.131   0.836 -0.8130 -0.4334  0.7699
 4402SOL     OW43699   3.728   2.721  11.473  0.6724  0.4541 -0.2706
 4402SOL    HW143700   3.773   2.782  11.531 -0.9339  1.1008  0.3558
 4402SOL    HW243701   3.738   2.758  11.385  3.5215 -0.7742 -0.5794
 4403SOL     OW43702   2.567   0.166  12.431 -0.0917 -0.4810  0.0735
 4403SOL    HW143703   2.562   0.261  12.430  0.3715 -0.4090  1.4570
 4403SOL    HW243704   2.512   0.137  12.359 -2.3079  0.7768  1.1666
 4404SOL     OW43705   5.201   5.122  12.751 -0.3169 -0.3600  0.4648
 4404SOL    HW143706   5.240   5.144  12.836 -0.3157 -0.6857  0.5495
 4404SOL    HW243707   5.268   5.073  12.705 -0.2419 -0.0061  0.1899
 4405SOL     OW43708   3.052   2.283  11.685  0.0168 -0.1766  0.2685
 4405SOL    HW143709   3.037   2.198  11.725 -0.5197  0.2806  1.0766
 4405SOL    HW243710   3.146   2.284  11.667 -0.0853 -1.1956 -0.3918
 4406SOL     OW43711   2.408   1.636  12.725  0.0491  0.2299 -0.2787
 4406SOL    HW143712   2.466   1.633  12.801  0.2874 -0.3066 -0.4803
 4406SOL    HW243713   2.327   1.595  12.755 -0.2305  0.9710 -0.0003
 4407SOL     OW43714   6.391   2.164   1.080 -0.5316  0.9817 -0.3292
 4407SOL    HW143715   6.343   2.172   1.163 -2.6328  0.6616 -1.4415
 4407SOL    HW243716   6.323   2.169   1.013  0.7817 -1.3897 -1.9702
 4408SOL     OW43717   3.159   3.795  12.141 -0.7175 -0.2772 -0.2061
 4408SOL    HW143718   3.192   3.741  12.069  0.4625 -0.1957  0.2408
 4408SOL    HW243719   3.136   3.878  12.100  1.9972  0.5664 -0.2565
 4409SOL     OW43720   1.851   0.774  11.452  0.3278 -0.2368  0.1296
 4409SOL    HW143721   1.937   0.815  11.457 -0.1388  0.9171 -0.8059
 4409SOL    HW243722   1.856   0.717  11.375  0.5411 -0.9219  0.6372
 4410SOL     OW43723   6.345   5.536  12.155  0.4694  0.3907 -0.1197
 4410SOL    HW143724   6.400   5.505  12.228 -1.1040  0.6557  1.2404
 4410SOL    HW243725   6.392   5.509  12.076  1.8753 -0.5644  0.9920
 4411SOL     OW43726   0.917   3.065  11.851  0.4052  0.5077 -0.1302
 4411SOL    HW143727   0.935   3.021  11.768 -0.9671  2.3435 -1.4705
 4411SOL    HW243728   0.940   3.156  11.835 -3.7179  1.7649  0.0410
 4412SOL     OW43729   1.768   4.206  12.804  0.0990 -0.3501  0.2254
 4412SOL    HW143730   1.760   4.292  12.845 -1.2428 -0.3755  0.0674
 4412SOL    HW243731   1.809   4.151  12.872 -0.2295  0.1026  0.8004
 4413SOL     OW43732   5.363   1.992   0.136  0.3145 -0.1880  0.1258
 4413SOL    HW143733   5.347   1.929   0.207  1.5314 -0.6896 -0.0273
 4413SOL    HW243734   5.455   2.017   0.146  0.1711  0.6691 -0.5501
 4414SOL     OW43735   5.205   4.287  11.592  0.0267  0.0154  0.0962
 4414SOL    HW143736   5.154   4.347  11.537  0.1348  0.2249  0.2222
 4414SOL    HW243737   5.160   4.203  11.584  0.8602 -0.3174 -1.4393
 4415SOL     OW43738   2.958   4.958   1.688  0.3842 -0.9264  0.3216
 4415SOL    HW143739   2.920   5.044   1.706 -0.6878 -0.8407 -1.9991
 4415SOL    HW243740   3.050   4.975   1.669  0.1796 -0.2592 -0.1017
 4416SOL     OW43741   2.552   5.016  11.371 -0.5992  0.2982 -0.8263
 4416SOL    HW143742   2.518   5.077  11.436 -1.7151 -1.0976 -0.0491
 4416SOL    HW243743   2.480   5.004  11.309 -0.7278 -0.8986 -0.4636
 4417SOL     OW43744   5.852   1.270  11.266  0.3117  0.2160  0.0930
 4417SOL    HW143745   5.906   1.228  11.334  1.7295  2.7228  0.6588
 4417SOL    HW243746   5.853   1.208  11.193  2.0405 -0.8808  0.9640
 4418SOL     OW43747   4.437   4.306  11.638  0.2117  0.0486 -0.4660
 4418SOL    HW143748   4.518   4.319  11.589  0.5973  2.1954  0.5910
 4418SOL    HW243749   4.455   4.232  11.696  2.6135  2.2214  1.8478
 4419SOL     OW43750   3.112   1.691   9.485  0.0984 -0.1228  0.0806
 4419SOL    HW143751   3.068   1.685   9.570 -1.0381  0.0856 -0.4590
 4419SOL    HW243752   3.152   1.606   9.472 -0.3736 -0.4160  0.4928
 4420SOL     OW43753   2.109   4.346  11.373  0.1155 -0.0995 -0.4881
 4420SOL    HW143754   2.169   4.341  11.448  1.6947  0.3251 -1.6751
 4420SOL    HW243755   2.123   4.434  11.337 -0.5812 -0.3184 -1.3185
 4421SOL     OW43756   0.061   4.347   0.985  0.3841  0.1438 -0.2495
 4421SOL    HW143757   0.029   4.422   0.934 -0.5736 -0.4924 -0.6121
 4421SOL    HW243758   0.039   4.369   1.075  3.5249  2.0296  0.2112
 4422SOL     OW43759   0.471   6.197  10.961 -0.6332 -0.1145 -0.3907
 4422SOL    HW143760   0.559   6.163  10.974 -0.5298  0.5336  0.7501
 4422SOL    HW243761   0.473   6.284  11.000 -1.9359 -0.3163  0.1711
 4423SOL     OW43762   3.187   1.087  11.526  0.2772  0.1538 -0.3734
 4423SOL    HW143763   3.231   1.093  11.442  1.0446 -0.1641 -0.0060
 4423SOL    HW243764   3.129   1.011  11.517  1.7805 -1.0968 -0.0036
 4424SOL     OW43765   0.578   3.337  12.467  0.2080 -0.6536 -0.0912
 4424SOL    HW143766   0.663   3.326  12.511  0.4177  0.6773 -0.1263
 4424SOL    HW243767   0.544   3.248  12.459  1.0891 -1.1118  0.9443
 4425SOL     OW43768   4.899   0.434  11.921  0.4278  0.4395 -0.3410
 4425SOL    HW143769   4.957   0.462  11.993 -0.6480 -0.8362  1.1022
 4425SOL    HW243770   4.927   0.345  11.902 -0.2519  0.2534 -0.4857
 4426SOL     OW43771   1.561   0.377  12.248  0.1351  0.2508 -0.1178
 4426SOL    HW143772   1.637   0.344  12.200 -0.4683  0.8093 -1.5318
 4426SOL    HW243773   1.537   0.458  12.202 -0.7581  0.5595  0.8594
 4427SOL     OW43774   2.400   5.584   0.028 -0.1590 -0.3086 -0.2299
 4427SOL    HW143775   2.362   5.669   0.051 -0.3406 -0.4292 -0.0872
 4427SOL    HW243776   2.347   5.520   0.074  0.0002 -0.5001 -0.3099
 4428SOL     OW43777   6.328   5.827   9.408 -0.7001 -0.3289  0.7476
 4428SOL    HW143778   6.401   5.807   9.467 -1.8252  0.5789  2.5352
 4428SOL    HW243779   6.339   5.920   9.388  0.5785 -0.9550 -1.8786
 4429SOL     OW43780   3.183   4.680   0.634  0.0153  0.7048  0.9460
 4429SOL    HW143781   3.179   4.722   0.720 -1.2544  0.1565  1.1785
 4429SOL    HW243782   3.091   4.669   0.609  0.3392 -0.7647  0.3208
 4430SOL     OW43783   4.041   2.482   0.144 -0.2424 -0.0852  0.5795
 4430SOL    HW143784   4.063   2.416   0.210  1.1662  1.2725  1.5445
 4430SOL    HW243785   4.121   2.490   0.091 -1.0089 -0.4156 -0.6542
 4431SOL     OW43786   2.058   4.150   0.747 -0.4588  0.1800  0.5679
 4431SOL    HW143787   1.978   4.098   0.756 -2.4063  2.7393 -0.4854
 4431SOL    HW243788   2.047   4.196   0.664  1.8316  1.1586  0.7237
 4432SOL     OW43789   6.214   2.700  12.151  0.4650  0.1443  0.1404
 4432SOL    HW143790   6.242   2.780  12.106  0.9562 -0.9364 -1.5923
 4432SOL    HW243791   6.119   2.699  12.141  0.4431  0.5936  0.3055
 4433SOL     OW43792   6.098   5.770   9.072  0.2698 -0.0167 -0.0532
 4433SOL    HW143793   6.089   5.797   9.164  0.9270 -2.5681  0.8418
 4433SOL    HW243794   6.014   5.728   9.052  0.2470  0.2546 -0.5342
 4434SOL     OW43795   3.863   2.962   1.294  0.5217 -0.8810  0.2771
 4434SOL    HW143796   3.784   2.951   1.241  1.0963  2.3325 -1.5007
 4434SOL    HW243797   3.929   2.910   1.248  0.6035  0.5291 -1.2996
 4435SOL     OW43798   5.667   3.251   1.476 -0.3205  0.7785  0.1004
 4435SOL    HW143799   5.576   3.270   1.452 -1.0973  0.3685  2.5106
 4435SOL    HW243800   5.677   3.289   1.563  1.5145 -0.1196  0.3233
 4436SOL     OW43801   1.476   6.275  12.538  0.0461 -0.1935 -0.2873
 4436SOL    HW143802   1.437   6.268  12.451  0.3344 -0.8256 -0.3694
 4436SOL    HW243803   1.510   6.364  12.541 -0.4276  0.0033 -0.6273
 4437SOL     OW43804   1.324   0.419   0.344  0.1459 -0.3037 -0.3335
 4437SOL    HW143805   1.234   0.425   0.378  0.8121  0.8700  1.3782
 4437SOL    HW243806   1.314   0.421   0.249 -1.6412 -0.0735 -0.1732
 4438SOL     OW43807   1.905   3.153   1.153  0.0393  0.5042 -0.3878
 4438SOL    HW143808   1.979   3.213   1.165 -0.0293  0.4007  0.6472
 4438SOL    HW243809   1.829   3.209   1.145 -0.1835  0.5845  1.7007
 4439SOL     OW43810   0.329   4.012   0.019 -0.1058 -0.3335 -0.1591
 4439SOL    HW143811   0.380   4.070  -0.038  0.6745 -0.7297  0.1188
 4439SOL    HW243812   0.361   4.031   0.107  0.1219 -1.1429 -0.0612
 4440SOL     OW43813   0.040   4.574   1.150  0.2277  0.2878 -0.4742
 4440SOL    HW143814  -0.017   4.644   1.118 -0.1870  0.2033  0.0588
 4440SOL    HW243815  -0.003   4.543   1.230 -0.8204 -2.0816 -1.8480
 4441SOL     OW43816   5.866   1.776   1.580  0.1970 -0.0967 -0.4866
 4441SOL    HW143817   5.940   1.836   1.592  1.1641 -1.6308  2.0474
 4441SOL    HW243818   5.881   1.736   1.494 -0.0876  2.6087 -1.9234
 4442SOL     OW43819   4.506   1.401   1.205  0.4460 -0.0220  0.3593
 4442SOL    HW143820   4.500   1.450   1.287 -1.4911 -0.8693  0.7921
 4442SOL    HW243821   4.471   1.459   1.139  1.2610  0.3719  0.2686
 4443SOL     OW43822   1.666   4.766  12.788  0.0200 -0.4356  0.1769
 4443SOL    HW143823   1.633   4.846  12.747 -0.1978 -1.2766 -1.3657
 4443SOL    HW243824   1.601   4.699  12.768  0.4631 -1.1396  0.9703
 4444SOL     OW43825   3.879   5.233  11.677  0.0782  0.8159 -0.2907
 4444SOL    HW143826   3.961   5.279  11.694 -0.2353  1.7560 -1.2395
 4444SOL    HW243827   3.851   5.201  11.762  0.0042  2.9040  0.5144
 4445SOL     OW43828   1.479   2.332   0.683 -0.3231  0.1908  0.8609
 4445SOL    HW143829   1.488   2.393   0.757 -3.5547  1.6083  0.2713
 4445SOL    HW243830   1.498   2.385   0.606 -0.3333 -0.3316  0.4945
 4446SOL     OW43831   0.675   2.677   0.267  0.3729  0.0693 -0.1894
 4446SOL    HW143832   0.673   2.687   0.362  1.0368 -3.7924  0.4116
 4446SOL    HW243833   0.591   2.712   0.237 -1.1395 -1.2257  2.2293
 4447SOL     OW43834   3.463   4.240   0.247  0.1022  0.5388  0.1656
 4447SOL    HW143835   3.553   4.271   0.263  0.8669 -0.5177 -1.8231
 4447SOL    HW243836   3.469   4.145   0.252 -1.2835  0.4783  1.5893
 4448SOL     OW43837   5.440   4.750  12.426  0.4589  0.0570 -0.2806
 4448SOL    HW143838   5.440   4.671  12.372  0.3261  1.3336 -2.2891
 4448SOL    HW243839   5.349   4.779  12.426  0.5274  0.2878  0.3247
 4449SOL     OW43840   0.147   6.114   8.894 -0.3183  0.2169  0.0050
 4449SOL    HW143841   0.200   6.169   8.837  2.3905 -1.6743  0.5021
 4449SOL    HW243842   0.126   6.037   8.841 -0.0554 -0.3570  0.7105
 4450SOL     OW43843   2.362   4.346   3.228  0.0921 -0.2562  0.4252
 4450SOL    HW143844   2.390   4.374   3.315 -0.5612 -2.6468  1.4616
 4450SOL    HW243845   2.275   4.309   3.240  0.5445 -1.9247 -0.9438
 4451SOL     OW43846   4.831   5.927   0.638  0.1599  0.3744 -0.6606
 4451SOL    HW143847   4.918   5.889   0.626 -0.3138 -0.2765 -2.2842
 4451SOL    HW243848   4.797   5.884   0.716  1.6980  1.4652  0.6726
 4452SOL     OW43849   5.591   5.202  11.684 -0.4238  0.0845 -0.2610
 4452SOL    HW143850   5.626   5.133  11.741  0.4641  1.8903  1.5053
 4452SOL    HW243851   5.498   5.182  11.677 -0.5543 -0.2256  1.8402
 4453SOL     OW43852   0.941   2.649   0.937 -0.1222  0.1028 -0.3083
 4453SOL    HW143853   0.927   2.649   1.031  1.4888 -0.1805 -0.0516
 4453SOL    HW243854   0.957   2.741   0.915 -1.8036  0.3773 -0.5512
 4454SOL     OW43855   3.643   1.613   2.945 -0.0989 -0.0275  0.2375
 4454SOL    HW143856   3.570   1.592   2.887 -1.3966 -0.9667  2.1242
 4454SOL    HW243857   3.698   1.535   2.945 -1.2042 -0.8525  1.8138
 4455SOL     OW43858   3.224   4.393   1.480  0.0351  0.1835 -0.5066
 4455SOL    HW143859   3.301   4.350   1.443  1.5307  2.6633 -0.5143
 4455SOL    HW243860   3.169   4.413   1.405  0.7330  0.8738 -0.8413
 4456SOL     OW43861   4.814   1.269   0.480 -0.3209 -0.1311 -0.4683
 4456SOL    HW143862   4.829   1.228   0.565 -1.3967  1.3839  0.5071
 4456SOL    HW243863   4.878   1.340   0.477 -0.6527  0.1606 -0.6695
 4457SOL     OW43864   6.268   3.356  12.615 -0.2334  0.2796 -0.3898
 4457SOL    HW143865   6.251   3.295  12.544  0.1623  1.0684 -1.1706
 4457SOL    HW243866   6.198   3.420  12.610  0.5555  1.1149 -0.9395
 4458SOL     OW43867   1.514   2.473  11.691  0.0578 -0.5243 -0.1507
 4458SOL    HW143868   1.448   2.479  11.623 -1.2253  0.0588  1.1027
 4458SOL    HW243869   1.572   2.547  11.676  1.0180 -1.5422 -1.7955
 4459SOL     OW43870   2.180   0.230   0.752  0.0718  0.0021  0.6073
 4459SOL    HW143871   2.128   0.178   0.690 -1.3591  2.5751 -0.4923
 4459SOL    HW243872   2.268   0.231   0.714 -0.2011 -0.4641 -0.0593
 4460SOL     OW43873   2.744   0.713   0.860  0.8111 -0.4661 -0.1187
 4460SOL    HW143874   2.708   0.681   0.778  1.9698 -0.8591 -0.4959
 4460SOL    HW243875   2.837   0.724   0.843  0.6205  2.4845  0.2201
 4461SOL     OW43876   4.185   2.367  12.033  0.1035 -0.1582  0.4933
 4461SOL    HW143877   4.231   2.308  12.092  0.5995 -1.6565 -1.2858
 4461SOL    HW243878   4.244   2.442  12.022  1.2342 -1.1029 -0.1451
 4462SOL     OW43879   0.039   3.994  11.070  0.0566  0.3323  0.1394
 4462SOL    HW143880  -0.051   4.015  11.094 -0.9193 -1.5221 -1.6362
 4462SOL    HW243881   0.033   3.912  11.021  2.6704  0.3632 -0.3923
 4463SOL     OW43882   5.869   1.454  11.472  0.5557 -0.1818  0.6010
 4463SOL    HW143883   5.863   1.405  11.390 -1.6979  1.4271 -0.3054
 4463SOL    HW243884   5.831   1.540  11.452 -0.3045  0.1985  3.3742
 4464SOL     OW43885   1.336   4.189  12.677 -0.2520 -0.9566 -0.2407
 4464SOL    HW143886   1.297   4.151  12.598 -0.1654 -1.9077  0.1631
 4464SOL    HW243887   1.412   4.237  12.645 -0.2919 -1.2275 -0.7540
 4465SOL     OW43888   2.934   0.342  12.078  0.0772 -0.0738  0.2566
 4465SOL    HW143889   3.018   0.380  12.104  0.5566 -0.5115 -0.6067
 4465SOL    HW243890   2.871   0.377  12.141  0.7271  1.0675  0.2943
 4466SOL     OW43891   3.870   1.961  12.382  0.0234 -0.5292 -0.3127
 4466SOL    HW143892   3.796   1.919  12.428 -0.2837 -0.0572 -0.3674
 4466SOL    HW243893   3.912   2.015  12.449  0.3563 -0.8412 -0.2675
 4467SOL     OW43894   2.271   4.449   0.694  0.0033  0.4205  0.0126
 4467SOL    HW143895   2.243   4.358   0.692  0.3049  0.3348 -1.5797
 4467SOL    HW243896   2.204   4.497   0.645 -1.4452  1.5089  2.7970
 4468SOL     OW43897   2.168   1.770   0.905  0.2506  0.0795 -0.1703
 4468SOL    HW143898   2.115   1.804   0.833 -0.9571 -1.0299  0.1534
 4468SOL    HW243899   2.254   1.753   0.867 -0.7859 -1.9817 -1.7963
 4469SOL     OW43900   0.266   5.838   1.362  0.0468 -0.0311 -0.5475
 4469SOL    HW143901   0.275   5.896   1.287 -0.9162 -0.2509 -0.8392
 4469SOL    HW243902   0.186   5.867   1.406 -0.1404 -0.7813 -0.3805
 4470SOL     OW43903   0.103   2.002   0.020  0.4757 -0.2451 -0.0991
 4470SOL    HW143904   0.077   2.028  -0.069 -0.3620 -2.3034 -0.5071
 4470SOL    HW243905   0.120   2.085   0.065  2.3777  0.8551 -2.5776
 4471SOL     OW43906   1.693   4.538  11.480  0.3623  0.3676  0.1712
 4471SOL    HW143907   1.637   4.461  11.489 -0.7024  1.2133  1.1693
 4471SOL    HW243908   1.664   4.597  11.550  2.2685  1.0063  0.5021
 4472SOL     OW43909   1.896   3.967  10.029  0.3405  0.2783  0.5104
 4472SOL    HW143910   1.845   3.911  10.087 -0.6686  0.8041  0.1604
 4472SOL    HW243911   1.952   3.907   9.980 -1.5117 -0.5632 -0.6541
 4473SOL     OW43912   2.963   1.691   9.749  0.3476 -0.0991  0.5752
 4473SOL    HW143913   2.947   1.679   9.843  1.1668  1.3141  0.9144
 4473SOL    HW243914   2.923   1.776   9.729  1.2969  0.2075 -0.0704
 4474SOL     OW43915   6.005   1.545   0.390 -0.0782  0.1806 -0.0414
 4474SOL    HW143916   6.083   1.504   0.353 -1.5523 -0.1190 -3.1480
 4474SOL    HW243917   6.028   1.638   0.396  0.5783  0.0797 -0.8047
 4475SOL     OW43918   3.282   1.673  11.959  0.2005  0.6275  1.0238
 4475SOL    HW143919   3.370   1.702  11.935  1.0280 -0.8059  2.1086
 4475SOL    HW243920   3.297   1.596  12.014 -1.7538  0.2004  1.0324
 4476SOL     OW43921   4.079   1.094  11.229  0.4921  0.2651 -0.7513
 4476SOL    HW143922   4.132   1.075  11.151  1.0045  0.1011 -0.3725
 4476SOL    HW243923   3.991   1.064  11.206  0.2369  1.7623 -1.8772
 4477SOL     OW43924   1.161   1.454  10.831 -0.0395  0.3075 -0.3705
 4477SOL    HW143925   1.131   1.413  10.912  0.4546  0.8139  0.0751
 4477SOL    HW243926   1.171   1.547  10.853 -0.9266  0.6481 -1.3051
 4478SOL     OW43927   2.220   2.984   0.415 -0.1263  0.0393  0.2221
 4478SOL    HW143928   2.287   2.947   0.472  0.4070 -1.0323 -1.0620
 4478SOL    HW243929   2.163   3.034   0.475  0.9919 -0.1829  1.5264
 4479SOL     OW43930   3.711   5.431  11.840 -0.3556  0.3101 -0.7260
 4479SOL    HW143931   3.736   5.339  11.849 -2.1221 -0.1310  0.2581
 4479SOL    HW243932   3.785   5.480  11.875 -0.0956 -0.8324  0.4046
 4480SOL     OW43933   0.243   1.918  11.584 -0.2791 -0.0926  0.2448
 4480SOL    HW143934   0.244   1.904  11.678  1.4471  0.9244  0.4401
 4480SOL    HW243935   0.328   1.959  11.565 -0.9242  0.5224 -1.6237
 4481SOL     OW43936   0.804   6.072   0.643 -0.2330  0.2800 -0.2831
 4481SOL    HW143937   0.892   6.040   0.663 -0.3261  0.2341  0.0696
 4481SOL    HW243938   0.808   6.097   0.551  0.9230  2.7857  0.3620
 4482SOL     OW43939   0.760   2.283   0.694  0.0105 -0.4583 -0.2840
 4482SOL    HW143940   0.722   2.263   0.779  1.2265  1.3907  0.7632
 4482SOL    HW243941   0.853   2.262   0.703  0.5174  1.4850 -0.4721
 4483SOL     OW43942   5.759   2.999   0.618  0.3127  0.1079  0.5066
 4483SOL    HW143943   5.753   3.086   0.657 -0.5527  1.2572 -1.9386
 4483SOL    HW243944   5.668   2.973   0.605  0.5565 -0.1690 -0.7567
 4484SOL     OW43945   1.772   3.333   0.774 -0.2713 -0.0393 -0.1010
 4484SOL    HW143946   1.840   3.340   0.706  1.9095 -2.1460  1.7015
 4484SOL    HW243947   1.776   3.417   0.820  1.3262 -0.1859  0.0953
 4485SOL     OW43948   6.062   5.783   9.356 -0.3723 -0.0791  0.1907
 4485SOL    HW143949   6.019   5.833   9.426  0.9079  1.1561  0.1389
 4485SOL    HW243950   6.154   5.780   9.382  0.1353  0.4274 -1.4276
 4486SOL     OW43951   2.932   1.878   9.363 -0.4106 -0.5395 -0.2015
 4486SOL    HW143952   2.989   1.933   9.309  1.3421  0.2404  2.2439
 4486SOL    HW243953   2.987   1.804   9.388 -1.9762 -2.2186 -1.4248
 4487SOL     OW43954   1.971   3.749   9.872 -0.1040  0.3806 -0.2306
 4487SOL    HW143955   1.976   3.819   9.807 -0.3478  0.7208  0.1107
 4487SOL    HW243956   1.957   3.670   9.821 -1.1709  0.7571 -0.5515
 4488SOL     OW43957   2.570   5.291   0.222  0.1464 -0.3227  0.1888
 4488SOL    HW143958   2.601   5.316   0.134 -0.7895  2.5477  0.5650
 4488SOL    HW243959   2.627   5.218   0.247  2.4723  0.7169 -1.6041
 4489SOL     OW43960   0.507   1.323  11.576 -0.0543 -0.3426 -0.8060
 4489SOL    HW143961   0.445   1.388  11.610  1.9675  1.0807  0.3863
 4489SOL    HW243962   0.564   1.373  11.517  0.9926 -1.2409 -0.5829
 4490SOL     OW43963   2.850   0.996  11.944  0.5085 -0.2746 -0.0880
 4490SOL    HW143964   2.895   1.059  11.887 -1.0719  0.4874 -0.5339
 4490SOL    HW243965   2.816   1.049  12.016  0.3658 -0.8535  0.2791
 4491SOL     OW43966   1.276   1.323   0.714  0.2776 -0.7188  0.2379
 4491SOL    HW143967   1.295   1.249   0.656 -1.3210 -2.0464  1.3086
 4491SOL    HW243968   1.345   1.321   0.779 -0.2684 -1.9131  0.8121
 4492SOL     OW43969   3.060   2.267   1.368 -0.1609  0.7367  0.1414
 4492SOL    HW143970   3.074   2.324   1.443 -0.5734  1.0730 -0.0289
 4492SOL    HW243971   2.967   2.243   1.372 -0.8949  2.8574 -1.6583
 4493SOL     OW43972   5.022   1.562  12.831  0.1978  0.0651 -0.0924
 4493SOL    HW143973   5.041   1.534  12.742 -0.0222  1.0295 -0.4545
 4493SOL    HW243974   5.096   1.530  12.883  0.9725  0.5971 -0.8440
 4494SOL     OW43975   1.565   0.391   0.465  0.2976 -0.2496 -0.3088
 4494SOL    HW143976   1.569   0.417   0.557 -1.8357 -1.3319  0.1450
 4494SOL    HW243977   1.478   0.418   0.436  1.3438  1.1172 -2.3859
 4495SOL     OW43978   3.214   2.848  12.223  0.5860  0.3903 -0.2731
 4495SOL    HW143979   3.157   2.924  12.212  1.3881  1.2467  1.1573
 4495SOL    HW243980   3.289   2.865  12.166 -0.5084 -0.7450 -2.1695
 4496SOL     OW43981   4.814   2.675  11.814 -0.4434 -0.2910  0.4291
 4496SOL    HW143982   4.784   2.725  11.739 -0.5798 -0.6190  0.2618
 4496SOL    HW243983   4.900   2.642  11.788  0.7726  1.8798  1.4663
 4497SOL     OW43984   1.869   4.592   1.735 -0.1735 -0.5306 -0.3337
 4497SOL    HW143985   1.782   4.632   1.742  0.5037  0.9356 -0.1894
 4497SOL    HW243986   1.911   4.611   1.819  1.6489  2.0820 -1.7226
 4498SOL     OW43987   4.250   1.267  12.051 -0.3462 -0.2278  0.2884
 4498SOL    HW143988   4.265   1.207  11.978 -0.5419 -1.0411  0.8971
 4498SOL    HW243989   4.336   1.303  12.071 -0.3929  0.4819 -0.7355
 4499SOL     OW43990   4.182   3.358  12.596 -0.1142 -0.1030  0.1320
 4499SOL    HW143991   4.247   3.298  12.559 -1.9753 -1.6923 -0.7553
 4499SOL    HW243992   4.181   3.337  12.690 -0.0321 -0.7521 -0.0068
 4500SOL     OW43993   5.289   5.553   0.884 -0.1164 -0.5451  0.3085
 4500SOL    HW143994   5.329   5.485   0.938 -1.5735 -0.6163  1.3287
 4500SOL    HW243995   5.261   5.507   0.805  0.5745 -0.7461  0.1702
 4501SOL     OW43996   2.248   4.978  12.651  0.1258 -0.4929 -0.1076
 4501SOL    HW143997   2.155   4.986  12.672  0.2170  1.9526 -0.3519
 4501SOL    HW243998   2.250   4.963  12.557 -0.0591  2.4373 -0.6820
 4502SOL     OW43999   6.370   5.768   9.083 -0.3877  0.1983 -0.4677
 4502SOL    HW144000   6.372   5.748   9.176  1.1537  0.9503 -0.3078
 4502SOL    HW244001   6.277   5.764   9.060 -0.6952 -1.0846  0.8332
 4503SOL     OW44002   3.252   5.502   0.450 -0.5673  0.0344 -0.0015
 4503SOL    HW144003   3.326   5.493   0.390  1.1707  2.4030  1.5584
 4503SOL    HW244004   3.241   5.597   0.459 -1.4042 -0.2289  2.5743
 4504SOL     OW44005   3.126   6.016  10.027  0.6253 -0.0462  0.5666
 4504SOL    HW144006   3.040   6.058  10.032  0.6674  0.1095 -0.0096
 4504SOL    HW244007   3.187   6.088  10.009  0.6612 -0.3816 -0.7277
 4505SOL     OW44008   2.200   0.716   0.853 -0.4540  0.2505 -0.3840
 4505SOL    HW144009   2.145   0.640   0.874 -0.1474  0.0447 -0.3225
 4505SOL    HW244010   2.219   0.757   0.937  3.2459 -2.2531  0.2547
 4506SOL     OW44011   3.378   2.057   7.912  0.2236  0.0387  0.0221
 4506SOL    HW144012   3.469   2.047   7.938 -0.3558  2.7679  3.9595
 4506SOL    HW244013   3.347   2.133   7.961 -3.7084  0.4149 -2.5947
 4507SOL     OW44014   3.103   5.745  10.130  0.5864  0.2959 -0.4292
 4507SOL    HW144015   3.142   5.830  10.111 -0.2376  0.9574  0.6975
 4507SOL    HW244016   3.066   5.716  10.047  1.4071  0.7356 -0.9627
 4508SOL     OW44017   6.217   5.340  11.729 -0.0441 -0.5118 -1.0037
 4508SOL    HW144018   6.285   5.373  11.670  2.3931 -1.6564  0.9718
 4508SOL    HW244019   6.185   5.260  11.686 -0.0039 -0.0890 -1.8437
 4509SOL     OW44020   2.538   5.390   5.777 -0.3813 -0.0854 -0.4419
 4509SOL    HW144021   2.535   5.297   5.757 -0.6967  0.1063 -1.3570
 4509SOL    HW244022   2.446   5.417   5.779 -0.2887  0.2303 -0.3409
 4510SOL     OW44023   4.403   6.289  12.332 -0.4658 -0.5746  0.1562
 4510SOL    HW144024   4.413   6.366  12.275 -2.2421 -1.1742 -1.0747
 4510SOL    HW244025   4.471   6.228  12.302 -0.9397 -0.6080 -0.8905
 4511SOL     OW44026   4.841   5.932   9.785  0.0584  0.0640  0.6175
 4511SOL    HW144027   4.796   5.960   9.865  1.1249 -0.8358  1.5733
 4511SOL    HW244028   4.829   5.837   9.783  0.2694  0.0480 -0.1623
 4512SOL     OW44029   1.694   5.375   0.520  0.0785  0.0786 -0.4820
 4512SOL    HW144030   1.712   5.412   0.434  0.3402  0.8237 -0.1146
 4512SOL    HW244031   1.618   5.318   0.506  2.3037 -2.7275 -1.9461
 4513SOL     OW44032   5.128   4.333  12.729  0.4967 -0.3486  0.7247
 4513SOL    HW144033   5.114   4.273  12.655 -0.7405  0.2467  0.4596
 4513SOL    HW244034   5.179   4.282  12.792  0.2104 -1.3895  0.1352
 4514SOL     OW44035   0.967   5.740   1.802 -0.2208 -0.2634  0.3415
 4514SOL    HW144036   0.969   5.789   1.719  1.0209 -1.7630 -0.5569
 4514SOL    HW244037   1.011   5.798   1.864  1.8821 -0.4290 -0.8728
 4515SOL     OW44038   4.594   4.179  12.419  0.7657 -0.2031 -0.0307
 4515SOL    HW144039   4.573   4.271  12.434 -2.3136 -0.8568  0.3015
 4515SOL    HW244040   4.601   4.171  12.324  0.5486  0.2489 -0.0869
 4516SOL     OW44041   0.951   0.826  12.192  0.5256 -0.4712 -0.2609
 4516SOL    HW144042   0.986   0.851  12.278  0.0148  1.3461 -0.5475
 4516SOL    HW244043   0.996   0.744  12.171  0.9967 -0.7151  1.5336
 4517SOL     OW44044   2.525   1.888   1.577  0.4409  0.5007 -0.4305
 4517SOL    HW144045   2.544   1.897   1.670 -0.7196 -1.0151 -0.0137
 4517SOL    HW244046   2.582   1.952   1.534  0.6653  1.5404  1.3459
 4518SOL     OW44047   0.697   1.164   1.011  0.2038 -0.2001  0.6066
 4518SOL    HW144048   0.757   1.238   1.015 -0.2971  0.1747  1.3009
 4518SOL    HW244049   0.628   1.191   0.950 -1.0832  0.7633  2.3893
 4519SOL     OW44050   6.068   1.118   1.478 -0.4867  0.8732  0.3345
 4519SOL    HW144051   6.054   1.098   1.386 -1.3766 -0.7916  0.7840
 4519SOL    HW244052   5.981   1.146   1.509 -0.3461  0.7912  0.8075
 4520SOL     OW44053   4.171   4.775   1.874  0.6124 -0.1752  0.4821
 4520SOL    HW144054   4.244   4.835   1.861  0.8900 -0.6129  0.0408
 4520SOL    HW244055   4.097   4.819   1.832  0.6100  0.2689  0.9320
 4521SOL     OW44056   5.444   1.848  12.771 -0.1856 -0.1889 -0.4820
 4521SOL    HW144057   5.398   1.888  12.697  2.6626  0.1059 -2.2228
 4521SOL    HW244058   5.401   1.886  12.848 -1.7516  1.2923 -1.9702
 4522SOL     OW44059   1.663   1.632   1.600 -0.4926  0.4781  0.3639
 4522SOL    HW144060   1.745   1.682   1.598 -0.3481  0.2918  1.2693
 4522SOL    HW244061   1.690   1.541   1.604 -0.7429  0.4269  0.8979
 4523SOL     OW44062   3.780   4.554  12.786  0.5306 -0.5201  0.1273
 4523SOL    HW144063   3.736   4.630  12.749  0.0056 -1.5873 -1.5443
 4523SOL    HW244064   3.865   4.587  12.814  0.0792  0.8063 -0.0085
 4524SOL     OW44065   4.652   1.201  11.449 -0.0804  0.2462  0.1720
 4524SOL    HW144066   4.747   1.196  11.440  0.0874  0.7972  1.5286
 4524SOL    HW244067   4.631   1.292  11.430 -0.2606  0.2789  0.5287
 4525SOL     OW44068   0.131   0.592  11.203 -0.2607 -0.0350 -0.4013
 4525SOL    HW144069   0.096   0.625  11.120 -3.3125 -1.1422  0.3297
 4525SOL    HW244070   0.193   0.660  11.231  0.3638  0.6799 -3.1980
 4526SOL     OW44071   5.353   3.098  11.042  0.2125 -0.5439  0.4540
 4526SOL    HW144072   5.263   3.115  11.013  1.0472  1.0119 -1.5224
 4526SOL    HW244073   5.374   3.011  11.007  0.2924  0.1871 -1.4531
 4527SOL     OW44074   0.170   6.362   0.589 -0.2591 -0.1351  0.3048
 4527SOL    HW144075   0.239   6.299   0.606  0.6764  0.8098  0.1039
 4527SOL    HW244076   0.152   6.354   0.495  1.8302  1.7908 -0.3296
 4528SOL     OW44077   5.479   3.879   1.447 -0.3660  0.0960 -0.0945
 4528SOL    HW144078   5.435   3.798   1.471  2.2573 -0.9523  1.6691
 4528SOL    HW244079   5.408   3.943   1.434 -2.4815 -2.2648 -1.0003
 4529SOL     OW44080   4.977   1.842   0.521 -0.2622 -0.2712 -0.6160
 4529SOL    HW144081   5.048   1.794   0.563  0.3129  1.8825  1.0979
 4529SOL    HW244082   4.922   1.775   0.480  0.6222 -2.3192  1.3559
 4530NA      NA44083   4.024   0.128  12.551 -0.0015  0.3347 -0.1061
 4531NA      NA44084   0.173   5.487   0.994 -0.2570 -0.0472  0.0652
 4532NA      NA44085   1.184   4.166  11.931  0.1746 -0.3490  0.6212
 4533NA      NA44086   2.986   1.449   0.771 -0.1275  0.1066 -0.5435
 4534NA      NA44087   3.327   3.720  11.681  0.2199  0.2354  0.0198
 4535NA      NA44088   2.626   6.323   0.006 -0.4717 -0.6598  0.1609
 4536NA      NA44089   5.990   0.286   0.227  0.1373 -0.1083 -0.2325
 4537NA      NA44090   1.474   2.345   0.261 -0.0510 -0.0317 -0.0576
 4538NA      NA44091   1.046   2.333   0.447 -0.1185  0.1994  0.3322
 4539NA      NA44092   3.360   1.902  12.406  0.3201 -0.1206  0.2336
 4540NA      NA44093   3.429   1.869   1.430  0.0532 -0.0454  0.3161
 4541NA      NA44094   5.907   2.546   1.392  0.3032 -0.3159 -0.1029
 4542NA      NA44095   5.361   2.904  11.917 -0.3579 -0.3355 -0.4565
 4543NA      NA44096   4.649   0.605  12.262 -0.2846  0.1021 -0.1938
 4544NA      NA44097   5.262   3.941  11.897 -0.0597 -0.2724 -0.4388
 4545NA      NA44098   1.105   4.093   0.666  0.0116  0.5996  0.2177
 4546NA      NA44099   5.794   6.306  11.569 -0.0269  0.2280 -0.1812
 4547NA      NA44100   1.427   1.704   1.536  0.3210  0.0957 -0.5137
 4548NA      NA44101   2.829   1.146   0.155 -0.4102 -0.1786 -0.1864
 4549NA      NA44102   1.331   2.158   0.667  0.1133 -0.0768  0.0891
 4550NA      NA44103   3.732   5.248  11.478  0.0997 -0.0667  0.0471
 4551NA      NA44104   2.065   5.494   0.836 -0.5116 -0.0733  0.4850
 4552NA      NA44105   5.268   4.064   0.482  0.2286 -0.0010  0.0809
 4553NA      NA44106   6.276   3.753   0.135  0.1269 -0.4596 -0.0712
 4554NA      NA44107   0.234   5.729  12.827  0.7044  0.2934  0.2622
 4555NA      NA44108   3.231   4.992  12.853 -0.1384 -0.0079 -0.1621
 4556NA      NA44109   0.791   4.907  12.555 -0.2758 -0.4357  0.0757
 4557NA      NA44110   3.229   0.082   0.488  0.5224  0.0255 -0.0804
 4558NA      NA44111   1.627   5.976  12.052  0.1615 -0.5101 -0.5708
 4559NA      NA44112   0.900   1.586  12.012 -0.4861  0.2702  0.6031
 4560NA      NA44113   2.334   0.812   0.680  0.2792 -0.0266 -0.2516
 4561NA      NA44114   5.694   2.587  11.658 -0.3467 -0.2243 -0.5438
 4562NA      NA44115   1.226   5.877   0.669  0.4405  0.2046 -0.2069
 4563NA      NA44116   4.233   1.463  12.263 -0.2896 -0.3805  0.1584
 4564NA      NA44117   4.937   3.940  12.001 -0.3756 -0.0016 -0.2889
 4565NA      NA44118   5.138   5.725   0.902  0.0783  0.2416  0.1418
 4566NA      NA44119   0.523   5.762   0.908 -0.0189  0.0762 -0.5345
 4567NA      NA44120   1.638   2.649   1.170 -0.6614  0.0696 -0.2947
 4568NA      NA44121   4.439   1.104  11.496 -0.3573 -0.1790  0.3586
 4569NA      NA44122   4.250   4.102  12.191  0.0416  0.1668  0.2922
 4570NA      NA44123   2.223   4.906   0.639 -0.2837  0.1510 -0.6954
 4571NA      NA44124   4.294   0.280  12.397 -0.3671  0.5983  0.5983
 4572NA      NA44125   1.072   0.477   1.059  0.0923 -0.1177  0.1884
 4573NA      NA44126   6.125   1.540  12.006 -0.4911 -0.2561  0.0041
 4574NA      NA44127   1.075   4.694   1.414  0.1763 -0.2627  0.0303
 4575NA      NA44128   0.919   6.079  12.339  0.1825  0.1170 -0.1439
 4576NA      NA44129   3.470   0.606   0.018  0.1070  0.4976  0.2982
 4577NA      NA44130   5.248   4.212  12.302 -0.1248 -0.2199  0.3864
 4578CL      CL44131   1.947   6.127  11.723 -0.0173 -0.3791  0.5472
 4579CL      CL44132   0.258   5.763   0.937 -0.2893 -0.0596 -0.2033
 4580CL      CL44133   1.532   2.562   0.439 -0.1112  0.2497  0.1323
 4581CL      CL44134   2.582   1.141   0.090 -0.1741  0.5746  0.5688
 4582CL      CL44135   2.992   6.426   0.349 -0.1133  0.1090  0.0925
 4583CL      CL44136   3.792   4.940   0.351 -0.4688 -0.2824  0.0384
 4584CL      CL44137   4.031   0.360  12.411  0.0557  0.1232  0.1334
 4585CL      CL44138   4.354   1.364  11.546  0.2892  0.3027  0.2859
 4586CL      CL44139   1.224   2.233   0.280  0.1591 -0.2774  0.1805
 4587CL      CL44140   4.246   4.455  12.807 -0.0128 -0.2411 -0.0837
 4588CL      CL44141   0.471   2.271   0.892 -0.0956  0.1079  0.0642
 4589CL      CL44142   0.447   3.586  12.815 -0.1754 -0.1987  0.3152
 4590CL      CL44143   3.388   5.886   1.137 -0.0381  0.1513  0.0713
 4591CL      CL44144   1.278   3.890   0.507 -0.2445 -0.1000 -0.0860
 4592CL      CL44145   0.647   5.544   0.861 -0.3066 -0.4478 -0.2447
 4593CL      CL44146   5.908   2.851  12.106  0.1799  0.1812  0.0009
 4594CL      CL44147   4.437   0.448  12.220  0.7227 -0.1422 -0.1708
 4595CL      CL44148   5.510   2.768  11.708  0.0670 -0.0310  0.0764
 4596CL      CL44149   5.186   3.989  12.171  0.1737  0.2627  0.2109
 4597CL      CL44150   4.524   4.109  12.135  0.4159 -0.0128 -0.2063
 4598CL      CL44151   2.320   0.737   1.175  0.0009  0.0091 -0.4583
 4599CL      CL44152   6.202   4.910   0.026  0.8591 -0.1939  0.1777
 4600CL      CL44153   2.145   3.336   1.140  0.3570  0.5316 -0.5157
 4601CL      CL44154   4.591   3.216   0.815 -0.4065  0.1347  0.0324
 4602CL      CL44155   2.811   6.128   0.002 -0.0840 -0.3102  0.1558
 4603CL      CL44156   2.951   0.997   0.614 -0.2217 -0.3374 -0.2447
 4604CL      CL44157   2.157   4.550   1.138 -0.0457  0.2493  0.0380
 4605CL      CL44158   3.562   1.855  12.574 -0.3362 -0.3378 -0.1943
 4606CL      CL44159   4.727   0.854  12.338 -0.0010  0.1368  0.1827
 4607CL      CL44160   4.990   0.811  12.767 -0.0367 -0.1280  0.4465
 4608CL      CL44161   5.589   4.488  11.921 -0.4837  0.3179 -0.0547
 4609CL      CL44162   1.394   2.647   1.296  0.3850  0.2086 -0.2825
 4610CL      CL44163   1.586   5.073   0.341 -0.5465  0.2485  0.2438
 4611CL      CL44164   5.314   3.660  11.922  0.1561 -0.3293  0.4039
 4612CL      CL44165   5.455   1.768   0.376 -0.0487  0.3160 -0.3603
 4613CL      CL44166   3.253   2.144  12.008 -0.1245  0.0488 -0.5661
 4614CL      CL44167   5.027   3.985  11.751 -0.0454  0.1221  0.0759
 4615CL      CL44168   2.778   4.339   0.467  0.0956  0.3846  0.2995
 4616CL      CL44169   5.967   2.678   1.012  0.0827 -0.0664  0.2035
 4617CL      CL44170   1.087   2.281   0.691  0.2651  0.1263 -0.4688
 4618CL      CL44171   0.880   5.914  12.137 -0.1874  0.3632  0.1292
 4619CL      CL44172   3.046   4.908  12.676  0.3088 -0.3112  0.2377
 4620CL      CL44173   4.174   2.695  12.567  0.1871  0.6019 -0.0076
 4621CL      CL44174   5.580   0.325  11.587 -0.0460 -0.0158  0.0695
 4622CL      CL44175   1.075   4.527  11.650  0.3076  0.3224 -0.3081
 4623CL      CL44176   3.794   0.152  12.719 -0.1864  0.0389 -0.2098
 4624CL      CL44177   1.691   2.961  11.808 -0.2093  0.0800 -0.1072
 4625CL      CL44178   3.068   4.115  11.687 -0.0335 -0.0982 -0.1535
 4626CL      CL44179   1.019   1.046   0.568  0.0080 -0.0104 -0.0886
 4627CL      CL44180   0.858   5.652  12.491 -0.0361  0.0475 -0.0332
 4628CL      CL44181   0.062   3.277   0.680  0.1758  0.4665 -0.5296
 4629CL      CL44182   3.054   1.523   0.529  0.3185 -0.1318 -0.1028
   6.44980   6.44980  12.86200
