;
;	File 'peptide.top' was generated
;	By user: unknown (1000)
;	On host: ShuMus
;	At date: Fri May  8 22:50:02 2026
;
;	This is a standalone topology file
;
;	Created by:
;	                    :-) GROMACS - gmx pdb2gmx, 2024.3 (-:
;	
;	Executable:   /usr/local/gromacs/bin/gmx
;	Data prefix:  /usr/local/gromacs
;	Working dir:  /mnt/c/Users/ashra/OneDrive/Desktop/LIPID MEMBRANE/mdsimulationpeptidemembrane/sim_run/topology
;	Command line:
;	  gmx pdb2gmx -f ../peptide.pdb -o peptide_processed.gro -p peptide.top -i posre_peptide.itp -ff amber99sb-ildn -water tip3p -ignh
;	Force field was read from the standard GROMACS share directory.
;

; Include forcefield parameters
#include "amber99sb-ildn.ff/forcefield.itp"

[ moleculetype ]
; Name            nrexcl
Protein_chain_A     3

[ atoms ]
;   nr       type  resnr residue  atom   cgnr     charge       mass  typeB    chargeB      massB
; residue   1 LEU rtp NLEU q +1.0
     1         N3      1    LEU      N      1      0.101      14.01
     2          H      1    LEU     H1      2     0.2148      1.008
     3          H      1    LEU     H2      3     0.2148      1.008
     4          H      1    LEU     H3      4     0.2148      1.008
     5         CT      1    LEU     CA      5     0.0104      12.01
     6         HP      1    LEU     HA      6     0.1053      1.008
     7         CT      1    LEU     CB      7    -0.0244      12.01
     8         HC      1    LEU    HB1      8     0.0256      1.008
     9         HC      1    LEU    HB2      9     0.0256      1.008
    10         CT      1    LEU     CG     10     0.3421      12.01
    11         HC      1    LEU     HG     11     -0.038      1.008
    12         CT      1    LEU    CD1     12    -0.4106      12.01
    13         HC      1    LEU   HD11     13      0.098      1.008
    14         HC      1    LEU   HD12     14      0.098      1.008
    15         HC      1    LEU   HD13     15      0.098      1.008
    16         CT      1    LEU    CD2     16    -0.4104      12.01
    17         HC      1    LEU   HD21     17      0.098      1.008
    18         HC      1    LEU   HD22     18      0.098      1.008
    19         HC      1    LEU   HD23     19      0.098      1.008
    20          C      1    LEU      C     20     0.6123      12.01
    21          O      1    LEU      O     21    -0.5713         16   ; qtot 1
; residue   2 ILE rtp ILE  q  0.0
    22          N      2    ILE      N     22    -0.4157      14.01
    23          H      2    ILE      H     23     0.2719      1.008
    24         CT      2    ILE     CA     24    -0.0597      12.01
    25         H1      2    ILE     HA     25     0.0869      1.008
    26         CT      2    ILE     CB     26     0.1303      12.01
    27         HC      2    ILE     HB     27     0.0187      1.008
    28         CT      2    ILE    CG2     28    -0.3204      12.01
    29         HC      2    ILE   HG21     29     0.0882      1.008
    30         HC      2    ILE   HG22     30     0.0882      1.008
    31         HC      2    ILE   HG23     31     0.0882      1.008
    32         CT      2    ILE    CG1     32     -0.043      12.01
    33         HC      2    ILE   HG11     33     0.0236      1.008
    34         HC      2    ILE   HG12     34     0.0236      1.008
    35         CT      2    ILE     CD     35     -0.066      12.01
    36         HC      2    ILE    HD1     36     0.0186      1.008
    37         HC      2    ILE    HD2     37     0.0186      1.008
    38         HC      2    ILE    HD3     38     0.0186      1.008
    39          C      2    ILE      C     39     0.5973      12.01
    40          O      2    ILE      O     40    -0.5679         16   ; qtot 1
; residue   3 SER rtp SER  q  0.0
    41          N      3    SER      N     41    -0.4157      14.01
    42          H      3    SER      H     42     0.2719      1.008
    43         CT      3    SER     CA     43    -0.0249      12.01
    44         H1      3    SER     HA     44     0.0843      1.008
    45         CT      3    SER     CB     45     0.2117      12.01
    46         H1      3    SER    HB1     46     0.0352      1.008
    47         H1      3    SER    HB2     47     0.0352      1.008
    48         OH      3    SER     OG     48    -0.6546         16
    49         HO      3    SER     HG     49     0.4275      1.008
    50          C      3    SER      C     50     0.5973      12.01
    51          O      3    SER      O     51    -0.5679         16   ; qtot 1
; residue   4 GLY rtp GLY  q  0.0
    52          N      4    GLY      N     52    -0.4157      14.01
    53          H      4    GLY      H     53     0.2719      1.008
    54         CT      4    GLY     CA     54    -0.0252      12.01
    55         H1      4    GLY    HA1     55     0.0698      1.008
    56         H1      4    GLY    HA2     56     0.0698      1.008
    57          C      4    GLY      C     57     0.5973      12.01
    58          O      4    GLY      O     58    -0.5679         16   ; qtot 1
; residue   5 LEU rtp LEU  q  0.0
    59          N      5    LEU      N     59    -0.4157      14.01
    60          H      5    LEU      H     60     0.2719      1.008
    61         CT      5    LEU     CA     61    -0.0518      12.01
    62         H1      5    LEU     HA     62     0.0922      1.008
    63         CT      5    LEU     CB     63    -0.1102      12.01
    64         HC      5    LEU    HB1     64     0.0457      1.008
    65         HC      5    LEU    HB2     65     0.0457      1.008
    66         CT      5    LEU     CG     66     0.3531      12.01
    67         HC      5    LEU     HG     67    -0.0361      1.008
    68         CT      5    LEU    CD1     68    -0.4121      12.01
    69         HC      5    LEU   HD11     69        0.1      1.008
    70         HC      5    LEU   HD12     70        0.1      1.008
    71         HC      5    LEU   HD13     71        0.1      1.008
    72         CT      5    LEU    CD2     72    -0.4121      12.01
    73         HC      5    LEU   HD21     73        0.1      1.008
    74         HC      5    LEU   HD22     74        0.1      1.008
    75         HC      5    LEU   HD23     75        0.1      1.008
    76          C      5    LEU      C     76     0.5973      12.01
    77          O      5    LEU      O     77    -0.5679         16   ; qtot 1
; residue   6 ALA rtp ALA  q  0.0
    78          N      6    ALA      N     78    -0.4157      14.01
    79          H      6    ALA      H     79     0.2719      1.008
    80         CT      6    ALA     CA     80     0.0337      12.01
    81         H1      6    ALA     HA     81     0.0823      1.008
    82         CT      6    ALA     CB     82    -0.1825      12.01
    83         HC      6    ALA    HB1     83     0.0603      1.008
    84         HC      6    ALA    HB2     84     0.0603      1.008
    85         HC      6    ALA    HB3     85     0.0603      1.008
    86          C      6    ALA      C     86     0.5973      12.01
    87          O      6    ALA      O     87    -0.5679         16   ; qtot 1
; residue   7 ALA rtp ALA  q  0.0
    88          N      7    ALA      N     88    -0.4157      14.01
    89          H      7    ALA      H     89     0.2719      1.008
    90         CT      7    ALA     CA     90     0.0337      12.01
    91         H1      7    ALA     HA     91     0.0823      1.008
    92         CT      7    ALA     CB     92    -0.1825      12.01
    93         HC      7    ALA    HB1     93     0.0603      1.008
    94         HC      7    ALA    HB2     94     0.0603      1.008
    95         HC      7    ALA    HB3     95     0.0603      1.008
    96          C      7    ALA      C     96     0.5973      12.01
    97          O      7    ALA      O     97    -0.5679         16   ; qtot 1
; residue   8 ASN rtp ASN  q  0.0
    98          N      8    ASN      N     98    -0.4157      14.01
    99          H      8    ASN      H     99     0.2719      1.008
   100         CT      8    ASN     CA    100     0.0143      12.01
   101         H1      8    ASN     HA    101     0.1048      1.008
   102         CT      8    ASN     CB    102    -0.2041      12.01
   103         HC      8    ASN    HB1    103     0.0797      1.008
   104         HC      8    ASN    HB2    104     0.0797      1.008
   105          C      8    ASN     CG    105      0.713      12.01
   106          O      8    ASN    OD1    106    -0.5931         16
   107          N      8    ASN    ND2    107    -0.9191      14.01
   108          H      8    ASN   HD21    108     0.4196      1.008
   109          H      8    ASN   HD22    109     0.4196      1.008
   110          C      8    ASN      C    110     0.5973      12.01
   111          O      8    ASN      O    111    -0.5679         16   ; qtot 1
; residue   9 PHE rtp PHE  q  0.0
   112          N      9    PHE      N    112    -0.4157      14.01
   113          H      9    PHE      H    113     0.2719      1.008
   114         CT      9    PHE     CA    114    -0.0024      12.01
   115         H1      9    PHE     HA    115     0.0978      1.008
   116         CT      9    PHE     CB    116    -0.0343      12.01
   117         HC      9    PHE    HB1    117     0.0295      1.008
   118         HC      9    PHE    HB2    118     0.0295      1.008
   119         CA      9    PHE     CG    119     0.0118      12.01
   120         CA      9    PHE    CD1    120    -0.1256      12.01
   121         HA      9    PHE    HD1    121      0.133      1.008
   122         CA      9    PHE    CE1    122    -0.1704      12.01
   123         HA      9    PHE    HE1    123      0.143      1.008
   124         CA      9    PHE     CZ    124    -0.1072      12.01
   125         HA      9    PHE     HZ    125     0.1297      1.008
   126         CA      9    PHE    CE2    126    -0.1704      12.01
   127         HA      9    PHE    HE2    127      0.143      1.008
   128         CA      9    PHE    CD2    128    -0.1256      12.01
   129         HA      9    PHE    HD2    129      0.133      1.008
   130          C      9    PHE      C    130     0.5973      12.01
   131          O      9    PHE      O    131    -0.5679         16   ; qtot 1
; residue  10 LEU rtp LEU  q  0.0
   132          N     10    LEU      N    132    -0.4157      14.01
   133          H     10    LEU      H    133     0.2719      1.008
   134         CT     10    LEU     CA    134    -0.0518      12.01
   135         H1     10    LEU     HA    135     0.0922      1.008
   136         CT     10    LEU     CB    136    -0.1102      12.01
   137         HC     10    LEU    HB1    137     0.0457      1.008
   138         HC     10    LEU    HB2    138     0.0457      1.008
   139         CT     10    LEU     CG    139     0.3531      12.01
   140         HC     10    LEU     HG    140    -0.0361      1.008
   141         CT     10    LEU    CD1    141    -0.4121      12.01
   142         HC     10    LEU   HD11    142        0.1      1.008
   143         HC     10    LEU   HD12    143        0.1      1.008
   144         HC     10    LEU   HD13    144        0.1      1.008
   145         CT     10    LEU    CD2    145    -0.4121      12.01
   146         HC     10    LEU   HD21    146        0.1      1.008
   147         HC     10    LEU   HD22    147        0.1      1.008
   148         HC     10    LEU   HD23    148        0.1      1.008
   149          C     10    LEU      C    149     0.5973      12.01
   150          O     10    LEU      O    150    -0.5679         16   ; qtot 1
; residue  11 PRO rtp PRO  q  0.0
   151          N     11    PRO      N    151    -0.2548      14.01
   152         CT     11    PRO     CD    152     0.0192      12.01
   153         H1     11    PRO    HD1    153     0.0391      1.008
   154         H1     11    PRO    HD2    154     0.0391      1.008
   155         CT     11    PRO     CG    155     0.0189      12.01
   156         HC     11    PRO    HG1    156     0.0213      1.008
   157         HC     11    PRO    HG2    157     0.0213      1.008
   158         CT     11    PRO     CB    158     -0.007      12.01
   159         HC     11    PRO    HB1    159     0.0253      1.008
   160         HC     11    PRO    HB2    160     0.0253      1.008
   161         CT     11    PRO     CA    161    -0.0266      12.01
   162         H1     11    PRO     HA    162     0.0641      1.008
   163          C     11    PRO      C    163     0.5896      12.01
   164          O     11    PRO      O    164    -0.5748         16   ; qtot 1
; residue  12 GLN rtp GLN  q  0.0
   165          N     12    GLN      N    165    -0.4157      14.01
   166          H     12    GLN      H    166     0.2719      1.008
   167         CT     12    GLN     CA    167    -0.0031      12.01
   168         H1     12    GLN     HA    168      0.085      1.008
   169         CT     12    GLN     CB    169    -0.0036      12.01
   170         HC     12    GLN    HB1    170     0.0171      1.008
   171         HC     12    GLN    HB2    171     0.0171      1.008
   172         CT     12    GLN     CG    172    -0.0645      12.01
   173         HC     12    GLN    HG1    173     0.0352      1.008
   174         HC     12    GLN    HG2    174     0.0352      1.008
   175          C     12    GLN     CD    175     0.6951      12.01
   176          O     12    GLN    OE1    176    -0.6086         16
   177          N     12    GLN    NE2    177    -0.9407      14.01
   178          H     12    GLN   HE21    178     0.4251      1.008
   179          H     12    GLN   HE22    179     0.4251      1.008
   180          C     12    GLN      C    180     0.5973      12.01
   181          O     12    GLN      O    181    -0.5679         16   ; qtot 1
; residue  13 ILE rtp ILE  q  0.0
   182          N     13    ILE      N    182    -0.4157      14.01
   183          H     13    ILE      H    183     0.2719      1.008
   184         CT     13    ILE     CA    184    -0.0597      12.01
   185         H1     13    ILE     HA    185     0.0869      1.008
   186         CT     13    ILE     CB    186     0.1303      12.01
   187         HC     13    ILE     HB    187     0.0187      1.008
   188         CT     13    ILE    CG2    188    -0.3204      12.01
   189         HC     13    ILE   HG21    189     0.0882      1.008
   190         HC     13    ILE   HG22    190     0.0882      1.008
   191         HC     13    ILE   HG23    191     0.0882      1.008
   192         CT     13    ILE    CG1    192     -0.043      12.01
   193         HC     13    ILE   HG11    193     0.0236      1.008
   194         HC     13    ILE   HG12    194     0.0236      1.008
   195         CT     13    ILE     CD    195     -0.066      12.01
   196         HC     13    ILE    HD1    196     0.0186      1.008
   197         HC     13    ILE    HD2    197     0.0186      1.008
   198         HC     13    ILE    HD3    198     0.0186      1.008
   199          C     13    ILE      C    199     0.5973      12.01
   200          O     13    ILE      O    200    -0.5679         16   ; qtot 1
; residue  14 LEU rtp LEU  q  0.0
   201          N     14    LEU      N    201    -0.4157      14.01
   202          H     14    LEU      H    202     0.2719      1.008
   203         CT     14    LEU     CA    203    -0.0518      12.01
   204         H1     14    LEU     HA    204     0.0922      1.008
   205         CT     14    LEU     CB    205    -0.1102      12.01
   206         HC     14    LEU    HB1    206     0.0457      1.008
   207         HC     14    LEU    HB2    207     0.0457      1.008
   208         CT     14    LEU     CG    208     0.3531      12.01
   209         HC     14    LEU     HG    209    -0.0361      1.008
   210         CT     14    LEU    CD1    210    -0.4121      12.01
   211         HC     14    LEU   HD11    211        0.1      1.008
   212         HC     14    LEU   HD12    212        0.1      1.008
   213         HC     14    LEU   HD13    213        0.1      1.008
   214         CT     14    LEU    CD2    214    -0.4121      12.01
   215         HC     14    LEU   HD21    215        0.1      1.008
   216         HC     14    LEU   HD22    216        0.1      1.008
   217         HC     14    LEU   HD23    217        0.1      1.008
   218          C     14    LEU      C    218     0.5973      12.01
   219          O     14    LEU      O    219    -0.5679         16   ; qtot 1
; residue  15 LYS rtp LYS  q +1.0
   220          N     15    LYS      N    220    -0.3479      14.01
   221          H     15    LYS      H    221     0.2747      1.008
   222         CT     15    LYS     CA    222      -0.24      12.01
   223         H1     15    LYS     HA    223     0.1426      1.008
   224         CT     15    LYS     CB    224    -0.0094      12.01
   225         HC     15    LYS    HB1    225     0.0362      1.008
   226         HC     15    LYS    HB2    226     0.0362      1.008
   227         CT     15    LYS     CG    227     0.0187      12.01
   228         HC     15    LYS    HG1    228     0.0103      1.008
   229         HC     15    LYS    HG2    229     0.0103      1.008
   230         CT     15    LYS     CD    230    -0.0479      12.01
   231         HC     15    LYS    HD1    231     0.0621      1.008
   232         HC     15    LYS    HD2    232     0.0621      1.008
   233         CT     15    LYS     CE    233    -0.0143      12.01
   234         HP     15    LYS    HE1    234     0.1135      1.008
   235         HP     15    LYS    HE2    235     0.1135      1.008
   236         N3     15    LYS     NZ    236    -0.3854      14.01
   237          H     15    LYS    HZ1    237       0.34      1.008
   238          H     15    LYS    HZ2    238       0.34      1.008
   239          H     15    LYS    HZ3    239       0.34      1.008
   240          C     15    LYS      C    240     0.7341      12.01
   241          O     15    LYS      O    241    -0.5894         16   ; qtot 2
; residue  16 LYS rtp LYS  q +1.0
   242          N     16    LYS      N    242    -0.3479      14.01
   243          H     16    LYS      H    243     0.2747      1.008
   244         CT     16    LYS     CA    244      -0.24      12.01
   245         H1     16    LYS     HA    245     0.1426      1.008
   246         CT     16    LYS     CB    246    -0.0094      12.01
   247         HC     16    LYS    HB1    247     0.0362      1.008
   248         HC     16    LYS    HB2    248     0.0362      1.008
   249         CT     16    LYS     CG    249     0.0187      12.01
   250         HC     16    LYS    HG1    250     0.0103      1.008
   251         HC     16    LYS    HG2    251     0.0103      1.008
   252         CT     16    LYS     CD    252    -0.0479      12.01
   253         HC     16    LYS    HD1    253     0.0621      1.008
   254         HC     16    LYS    HD2    254     0.0621      1.008
   255         CT     16    LYS     CE    255    -0.0143      12.01
   256         HP     16    LYS    HE1    256     0.1135      1.008
   257         HP     16    LYS    HE2    257     0.1135      1.008
   258         N3     16    LYS     NZ    258    -0.3854      14.01
   259          H     16    LYS    HZ1    259       0.34      1.008
   260          H     16    LYS    HZ2    260       0.34      1.008
   261          H     16    LYS    HZ3    261       0.34      1.008
   262          C     16    LYS      C    262     0.7341      12.01
   263          O     16    LYS      O    263    -0.5894         16   ; qtot 3
; residue  17 ILE rtp ILE  q  0.0
   264          N     17    ILE      N    264    -0.4157      14.01
   265          H     17    ILE      H    265     0.2719      1.008
   266         CT     17    ILE     CA    266    -0.0597      12.01
   267         H1     17    ILE     HA    267     0.0869      1.008
   268         CT     17    ILE     CB    268     0.1303      12.01
   269         HC     17    ILE     HB    269     0.0187      1.008
   270         CT     17    ILE    CG2    270    -0.3204      12.01
   271         HC     17    ILE   HG21    271     0.0882      1.008
   272         HC     17    ILE   HG22    272     0.0882      1.008
   273         HC     17    ILE   HG23    273     0.0882      1.008
   274         CT     17    ILE    CG1    274     -0.043      12.01
   275         HC     17    ILE   HG11    275     0.0236      1.008
   276         HC     17    ILE   HG12    276     0.0236      1.008
   277         CT     17    ILE     CD    277     -0.066      12.01
   278         HC     17    ILE    HD1    278     0.0186      1.008
   279         HC     17    ILE    HD2    279     0.0186      1.008
   280         HC     17    ILE    HD3    280     0.0186      1.008
   281          C     17    ILE      C    281     0.5973      12.01
   282          O     17    ILE      O    282    -0.5679         16   ; qtot 3
; residue  18 ALA rtp ALA  q  0.0
   283          N     18    ALA      N    283    -0.4157      14.01
   284          H     18    ALA      H    284     0.2719      1.008
   285         CT     18    ALA     CA    285     0.0337      12.01
   286         H1     18    ALA     HA    286     0.0823      1.008
   287         CT     18    ALA     CB    287    -0.1825      12.01
   288         HC     18    ALA    HB1    288     0.0603      1.008
   289         HC     18    ALA    HB2    289     0.0603      1.008
   290         HC     18    ALA    HB3    290     0.0603      1.008
   291          C     18    ALA      C    291     0.5973      12.01
   292          O     18    ALA      O    292    -0.5679         16   ; qtot 3
; residue  19 ARG rtp ARG  q +1.0
   293          N     19    ARG      N    293    -0.3479      14.01
   294          H     19    ARG      H    294     0.2747      1.008
   295         CT     19    ARG     CA    295    -0.2637      12.01
   296         H1     19    ARG     HA    296      0.156      1.008
   297         CT     19    ARG     CB    297    -0.0007      12.01
   298         HC     19    ARG    HB1    298     0.0327      1.008
   299         HC     19    ARG    HB2    299     0.0327      1.008
   300         CT     19    ARG     CG    300      0.039      12.01
   301         HC     19    ARG    HG1    301     0.0285      1.008
   302         HC     19    ARG    HG2    302     0.0285      1.008
   303         CT     19    ARG     CD    303     0.0486      12.01
   304         H1     19    ARG    HD1    304     0.0687      1.008
   305         H1     19    ARG    HD2    305     0.0687      1.008
   306         N2     19    ARG     NE    306    -0.5295      14.01
   307          H     19    ARG     HE    307     0.3456      1.008
   308         CA     19    ARG     CZ    308     0.8076      12.01
   309         N2     19    ARG    NH1    309    -0.8627      14.01
   310          H     19    ARG   HH11    310     0.4478      1.008
   311          H     19    ARG   HH12    311     0.4478      1.008
   312         N2     19    ARG    NH2    312    -0.8627      14.01
   313          H     19    ARG   HH21    313     0.4478      1.008
   314          H     19    ARG   HH22    314     0.4478      1.008
   315          C     19    ARG      C    315     0.7341      12.01
   316          O     19    ARG      O    316    -0.5894         16   ; qtot 4
; residue  20 LYS rtp LYS  q +1.0
   317          N     20    LYS      N    317    -0.3479      14.01
   318          H     20    LYS      H    318     0.2747      1.008
   319         CT     20    LYS     CA    319      -0.24      12.01
   320         H1     20    LYS     HA    320     0.1426      1.008
   321         CT     20    LYS     CB    321    -0.0094      12.01
   322         HC     20    LYS    HB1    322     0.0362      1.008
   323         HC     20    LYS    HB2    323     0.0362      1.008
   324         CT     20    LYS     CG    324     0.0187      12.01
   325         HC     20    LYS    HG1    325     0.0103      1.008
   326         HC     20    LYS    HG2    326     0.0103      1.008
   327         CT     20    LYS     CD    327    -0.0479      12.01
   328         HC     20    LYS    HD1    328     0.0621      1.008
   329         HC     20    LYS    HD2    329     0.0621      1.008
   330         CT     20    LYS     CE    330    -0.0143      12.01
   331         HP     20    LYS    HE1    331     0.1135      1.008
   332         HP     20    LYS    HE2    332     0.1135      1.008
   333         N3     20    LYS     NZ    333    -0.3854      14.01
   334          H     20    LYS    HZ1    334       0.34      1.008
   335          H     20    LYS    HZ2    335       0.34      1.008
   336          H     20    LYS    HZ3    336       0.34      1.008
   337          C     20    LYS      C    337     0.7341      12.01
   338          O     20    LYS      O    338    -0.5894         16   ; qtot 5
; residue  21 SER rtp CSER q -1.0
   339          N     21    SER      N    339    -0.3821      14.01
   340          H     21    SER      H    340     0.2681      1.008
   341         CT     21    SER     CA    341    -0.2722      12.01
   342         H1     21    SER     HA    342     0.1304      1.008
   343         CT     21    SER     CB    343     0.1123      12.01
   344         H1     21    SER    HB1    344     0.0813      1.008
   345         H1     21    SER    HB2    345     0.0813      1.008
   346         OH     21    SER     OG    346    -0.6514         16
   347         HO     21    SER     HG    347     0.4474      1.008
   348          C     21    SER      C    348     0.8113      12.01
   349         O2     21    SER    OC1    349    -0.8132         16
   350         O2     21    SER    OC2    350    -0.8132         16   ; qtot 4

[ bonds ]
;  ai    aj funct            c0            c1            c2            c3
    1     2     1 
    1     3     1 
    1     4     1 
    1     5     1 
    5     6     1 
    5     7     1 
    5    20     1 
    7     8     1 
    7     9     1 
    7    10     1 
   10    11     1 
   10    12     1 
   10    16     1 
   12    13     1 
   12    14     1 
   12    15     1 
   16    17     1 
   16    18     1 
   16    19     1 
   20    21     1 
   20    22     1 
   22    23     1 
   22    24     1 
   24    25     1 
   24    26     1 
   24    39     1 
   26    27     1 
   26    28     1 
   26    32     1 
   28    29     1 
   28    30     1 
   28    31     1 
   32    33     1 
   32    34     1 
   32    35     1 
   35    36     1 
   35    37     1 
   35    38     1 
   39    40     1 
   39    41     1 
   41    42     1 
   41    43     1 
   43    44     1 
   43    45     1 
   43    50     1 
   45    46     1 
   45    47     1 
   45    48     1 
   48    49     1 
   50    51     1 
   50    52     1 
   52    53     1 
   52    54     1 
   54    55     1 
   54    56     1 
   54    57     1 
   57    58     1 
   57    59     1 
   59    60     1 
   59    61     1 
   61    62     1 
   61    63     1 
   61    76     1 
   63    64     1 
   63    65     1 
   63    66     1 
   66    67     1 
   66    68     1 
   66    72     1 
   68    69     1 
   68    70     1 
   68    71     1 
   72    73     1 
   72    74     1 
   72    75     1 
   76    77     1 
   76    78     1 
   78    79     1 
   78    80     1 
   80    81     1 
   80    82     1 
   80    86     1 
   82    83     1 
   82    84     1 
   82    85     1 
   86    87     1 
   86    88     1 
   88    89     1 
   88    90     1 
   90    91     1 
   90    92     1 
   90    96     1 
   92    93     1 
   92    94     1 
   92    95     1 
   96    97     1 
   96    98     1 
   98    99     1 
   98   100     1 
  100   101     1 
  100   102     1 
  100   110     1 
  102   103     1 
  102   104     1 
  102   105     1 
  105   106     1 
  105   107     1 
  107   108     1 
  107   109     1 
  110   111     1 
  110   112     1 
  112   113     1 
  112   114     1 
  114   115     1 
  114   116     1 
  114   130     1 
  116   117     1 
  116   118     1 
  116   119     1 
  119   120     1 
  119   128     1 
  120   121     1 
  120   122     1 
  122   123     1 
  122   124     1 
  124   125     1 
  124   126     1 
  126   127     1 
  126   128     1 
  128   129     1 
  130   131     1 
  130   132     1 
  132   133     1 
  132   134     1 
  134   135     1 
  134   136     1 
  134   149     1 
  136   137     1 
  136   138     1 
  136   139     1 
  139   140     1 
  139   141     1 
  139   145     1 
  141   142     1 
  141   143     1 
  141   144     1 
  145   146     1 
  145   147     1 
  145   148     1 
  149   150     1 
  149   151     1 
  151   152     1 
  151   161     1 
  152   153     1 
  152   154     1 
  152   155     1 
  155   156     1 
  155   157     1 
  155   158     1 
  158   159     1 
  158   160     1 
  158   161     1 
  161   162     1 
  161   163     1 
  163   164     1 
  163   165     1 
  165   166     1 
  165   167     1 
  167   168     1 
  167   169     1 
  167   180     1 
  169   170     1 
  169   171     1 
  169   172     1 
  172   173     1 
  172   174     1 
  172   175     1 
  175   176     1 
  175   177     1 
  177   178     1 
  177   179     1 
  180   181     1 
  180   182     1 
  182   183     1 
  182   184     1 
  184   185     1 
  184   186     1 
  184   199     1 
  186   187     1 
  186   188     1 
  186   192     1 
  188   189     1 
  188   190     1 
  188   191     1 
  192   193     1 
  192   194     1 
  192   195     1 
  195   196     1 
  195   197     1 
  195   198     1 
  199   200     1 
  199   201     1 
  201   202     1 
  201   203     1 
  203   204     1 
  203   205     1 
  203   218     1 
  205   206     1 
  205   207     1 
  205   208     1 
  208   209     1 
  208   210     1 
  208   214     1 
  210   211     1 
  210   212     1 
  210   213     1 
  214   215     1 
  214   216     1 
  214   217     1 
  218   219     1 
  218   220     1 
  220   221     1 
  220   222     1 
  222   223     1 
  222   224     1 
  222   240     1 
  224   225     1 
  224   226     1 
  224   227     1 
  227   228     1 
  227   229     1 
  227   230     1 
  230   231     1 
  230   232     1 
  230   233     1 
  233   234     1 
  233   235     1 
  233   236     1 
  236   237     1 
  236   238     1 
  236   239     1 
  240   241     1 
  240   242     1 
  242   243     1 
  242   244     1 
  244   245     1 
  244   246     1 
  244   262     1 
  246   247     1 
  246   248     1 
  246   249     1 
  249   250     1 
  249   251     1 
  249   252     1 
  252   253     1 
  252   254     1 
  252   255     1 
  255   256     1 
  255   257     1 
  255   258     1 
  258   259     1 
  258   260     1 
  258   261     1 
  262   263     1 
  262   264     1 
  264   265     1 
  264   266     1 
  266   267     1 
  266   268     1 
  266   281     1 
  268   269     1 
  268   270     1 
  268   274     1 
  270   271     1 
  270   272     1 
  270   273     1 
  274   275     1 
  274   276     1 
  274   277     1 
  277   278     1 
  277   279     1 
  277   280     1 
  281   282     1 
  281   283     1 
  283   284     1 
  283   285     1 
  285   286     1 
  285   287     1 
  285   291     1 
  287   288     1 
  287   289     1 
  287   290     1 
  291   292     1 
  291   293     1 
  293   294     1 
  293   295     1 
  295   296     1 
  295   297     1 
  295   315     1 
  297   298     1 
  297   299     1 
  297   300     1 
  300   301     1 
  300   302     1 
  300   303     1 
  303   304     1 
  303   305     1 
  303   306     1 
  306   307     1 
  306   308     1 
  308   309     1 
  308   312     1 
  309   310     1 
  309   311     1 
  312   313     1 
  312   314     1 
  315   316     1 
  315   317     1 
  317   318     1 
  317   319     1 
  319   320     1 
  319   321     1 
  319   337     1 
  321   322     1 
  321   323     1 
  321   324     1 
  324   325     1 
  324   326     1 
  324   327     1 
  327   328     1 
  327   329     1 
  327   330     1 
  330   331     1 
  330   332     1 
  330   333     1 
  333   334     1 
  333   335     1 
  333   336     1 
  337   338     1 
  337   339     1 
  339   340     1 
  339   341     1 
  341   342     1 
  341   343     1 
  341   348     1 
  343   344     1 
  343   345     1 
  343   346     1 
  346   347     1 
  348   349     1 
  348   350     1 

[ pairs ]
;  ai    aj funct            c0            c1            c2            c3
    1     8     1 
    1     9     1 
    1    10     1 
    1    21     1 
    1    22     1 
    2     6     1 
    2     7     1 
    2    20     1 
    3     6     1 
    3     7     1 
    3    20     1 
    4     6     1 
    4     7     1 
    4    20     1 
    5    11     1 
    5    12     1 
    5    16     1 
    5    23     1 
    5    24     1 
    6     8     1 
    6     9     1 
    6    10     1 
    6    21     1 
    6    22     1 
    7    13     1 
    7    14     1 
    7    15     1 
    7    17     1 
    7    18     1 
    7    19     1 
    7    21     1 
    7    22     1 
    8    11     1 
    8    12     1 
    8    16     1 
    8    20     1 
    9    11     1 
    9    12     1 
    9    16     1 
    9    20     1 
   10    20     1 
   11    13     1 
   11    14     1 
   11    15     1 
   11    17     1 
   11    18     1 
   11    19     1 
   12    17     1 
   12    18     1 
   12    19     1 
   13    16     1 
   14    16     1 
   15    16     1 
   20    25     1 
   20    26     1 
   20    39     1 
   21    23     1 
   21    24     1 
   22    27     1 
   22    28     1 
   22    32     1 
   22    40     1 
   22    41     1 
   23    25     1 
   23    26     1 
   23    39     1 
   24    29     1 
   24    30     1 
   24    31     1 
   24    33     1 
   24    34     1 
   24    35     1 
   24    42     1 
   24    43     1 
   25    27     1 
   25    28     1 
   25    32     1 
   25    40     1 
   25    41     1 
   26    36     1 
   26    37     1 
   26    38     1 
   26    40     1 
   26    41     1 
   27    29     1 
   27    30     1 
   27    31     1 
   27    33     1 
   27    34     1 
   27    35     1 
   27    39     1 
   28    33     1 
   28    34     1 
   28    35     1 
   28    39     1 
   29    32     1 
   30    32     1 
   31    32     1 
   32    39     1 
   33    36     1 
   33    37     1 
   33    38     1 
   34    36     1 
   34    37     1 
   34    38     1 
   39    44     1 
   39    45     1 
   39    50     1 
   40    42     1 
   40    43     1 
   41    46     1 
   41    47     1 
   41    48     1 
   41    51     1 
   41    52     1 
   42    44     1 
   42    45     1 
   42    50     1 
   43    49     1 
   43    53     1 
   43    54     1 
   44    46     1 
   44    47     1 
   44    48     1 
   44    51     1 
   44    52     1 
   45    51     1 
   45    52     1 
   46    49     1 
   46    50     1 
   47    49     1 
   47    50     1 
   48    50     1 
   50    55     1 
   50    56     1 
   50    57     1 
   51    53     1 
   51    54     1 
   52    58     1 
   52    59     1 
   53    55     1 
   53    56     1 
   53    57     1 
   54    60     1 
   54    61     1 
   55    58     1 
   55    59     1 
   56    58     1 
   56    59     1 
   57    62     1 
   57    63     1 
   57    76     1 
   58    60     1 
   58    61     1 
   59    64     1 
   59    65     1 
   59    66     1 
   59    77     1 
   59    78     1 
   60    62     1 
   60    63     1 
   60    76     1 
   61    67     1 
   61    68     1 
   61    72     1 
   61    79     1 
   61    80     1 
   62    64     1 
   62    65     1 
   62    66     1 
   62    77     1 
   62    78     1 
   63    69     1 
   63    70     1 
   63    71     1 
   63    73     1 
   63    74     1 
   63    75     1 
   63    77     1 
   63    78     1 
   64    67     1 
   64    68     1 
   64    72     1 
   64    76     1 
   65    67     1 
   65    68     1 
   65    72     1 
   65    76     1 
   66    76     1 
   67    69     1 
   67    70     1 
   67    71     1 
   67    73     1 
   67    74     1 
   67    75     1 
   68    73     1 
   68    74     1 
   68    75     1 
   69    72     1 
   70    72     1 
   71    72     1 
   76    81     1 
   76    82     1 
   76    86     1 
   77    79     1 
   77    80     1 
   78    83     1 
   78    84     1 
   78    85     1 
   78    87     1 
   78    88     1 
   79    81     1 
   79    82     1 
   79    86     1 
   80    89     1 
   80    90     1 
   81    83     1 
   81    84     1 
   81    85     1 
   81    87     1 
   81    88     1 
   82    87     1 
   82    88     1 
   83    86     1 
   84    86     1 
   85    86     1 
   86    91     1 
   86    92     1 
   86    96     1 
   87    89     1 
   87    90     1 
   88    93     1 
   88    94     1 
   88    95     1 
   88    97     1 
   88    98     1 
   89    91     1 
   89    92     1 
   89    96     1 
   90    99     1 
   90   100     1 
   91    93     1 
   91    94     1 
   91    95     1 
   91    97     1 
   91    98     1 
   92    97     1 
   92    98     1 
   93    96     1 
   94    96     1 
   95    96     1 
   96   101     1 
   96   102     1 
   96   110     1 
   97    99     1 
   97   100     1 
   98   103     1 
   98   104     1 
   98   105     1 
   98   111     1 
   98   112     1 
   99   101     1 
   99   102     1 
   99   110     1 
  100   106     1 
  100   107     1 
  100   113     1 
  100   114     1 
  101   103     1 
  101   104     1 
  101   105     1 
  101   111     1 
  101   112     1 
  102   108     1 
  102   109     1 
  102   111     1 
  102   112     1 
  103   106     1 
  103   107     1 
  103   110     1 
  104   106     1 
  104   107     1 
  104   110     1 
  105   110     1 
  106   108     1 
  106   109     1 
  110   115     1 
  110   116     1 
  110   130     1 
  111   113     1 
  111   114     1 
  112   117     1 
  112   118     1 
  112   119     1 
  112   131     1 
  112   132     1 
  113   115     1 
  113   116     1 
  113   130     1 
  114   120     1 
  114   128     1 
  114   133     1 
  114   134     1 
  115   117     1 
  115   118     1 
  115   119     1 
  115   131     1 
  115   132     1 
  116   121     1 
  116   122     1 
  116   126     1 
  116   129     1 
  116   131     1 
  116   132     1 
  117   120     1 
  117   128     1 
  117   130     1 
  118   120     1 
  118   128     1 
  118   130     1 
  119   123     1 
  119   124     1 
  119   127     1 
  119   130     1 
  120   125     1 
  120   126     1 
  120   129     1 
  121   123     1 
  121   124     1 
  121   128     1 
  122   127     1 
  122   128     1 
  123   125     1 
  123   126     1 
  124   129     1 
  125   127     1 
  125   128     1 
  127   129     1 
  130   135     1 
  130   136     1 
  130   149     1 
  131   133     1 
  131   134     1 
  132   137     1 
  132   138     1 
  132   139     1 
  132   150     1 
  132   151     1 
  133   135     1 
  133   136     1 
  133   149     1 
  134   140     1 
  134   141     1 
  134   145     1 
  134   152     1 
  134   161     1 
  135   137     1 
  135   138     1 
  135   139     1 
  135   150     1 
  135   151     1 
  136   142     1 
  136   143     1 
  136   144     1 
  136   146     1 
  136   147     1 
  136   148     1 
  136   150     1 
  136   151     1 
  137   140     1 
  137   141     1 
  137   145     1 
  137   149     1 
  138   140     1 
  138   141     1 
  138   145     1 
  138   149     1 
  139   149     1 
  140   142     1 
  140   143     1 
  140   144     1 
  140   146     1 
  140   147     1 
  140   148     1 
  141   146     1 
  141   147     1 
  141   148     1 
  142   145     1 
  143   145     1 
  144   145     1 
  149   153     1 
  149   154     1 
  149   155     1 
  149   158     1 
  149   162     1 
  149   163     1 
  150   152     1 
  150   161     1 
  151   156     1 
  151   157     1 
  151   159     1 
  151   160     1 
  151   164     1 
  151   165     1 
  152   159     1 
  152   160     1 
  152   162     1 
  152   163     1 
  153   156     1 
  153   157     1 
  153   158     1 
  153   161     1 
  154   156     1 
  154   157     1 
  154   158     1 
  154   161     1 
  155   162     1 
  155   163     1 
  156   159     1 
  156   160     1 
  156   161     1 
  157   159     1 
  157   160     1 
  157   161     1 
  158   164     1 
  158   165     1 
  159   162     1 
  159   163     1 
  160   162     1 
  160   163     1 
  161   166     1 
  161   167     1 
  162   164     1 
  162   165     1 
  163   168     1 
  163   169     1 
  163   180     1 
  164   166     1 
  164   167     1 
  165   170     1 
  165   171     1 
  165   172     1 
  165   181     1 
  165   182     1 
  166   168     1 
  166   169     1 
  166   180     1 
  167   173     1 
  167   174     1 
  167   175     1 
  167   183     1 
  167   184     1 
  168   170     1 
  168   171     1 
  168   172     1 
  168   181     1 
  168   182     1 
  169   176     1 
  169   177     1 
  169   181     1 
  169   182     1 
  170   173     1 
  170   174     1 
  170   175     1 
  170   180     1 
  171   173     1 
  171   174     1 
  171   175     1 
  171   180     1 
  172   178     1 
  172   179     1 
  172   180     1 
  173   176     1 
  173   177     1 
  174   176     1 
  174   177     1 
  176   178     1 
  176   179     1 
  180   185     1 
  180   186     1 
  180   199     1 
  181   183     1 
  181   184     1 
  182   187     1 
  182   188     1 
  182   192     1 
  182   200     1 
  182   201     1 
  183   185     1 
  183   186     1 
  183   199     1 
  184   189     1 
  184   190     1 
  184   191     1 
  184   193     1 
  184   194     1 
  184   195     1 
  184   202     1 
  184   203     1 
  185   187     1 
  185   188     1 
  185   192     1 
  185   200     1 
  185   201     1 
  186   196     1 
  186   197     1 
  186   198     1 
  186   200     1 
  186   201     1 
  187   189     1 
  187   190     1 
  187   191     1 
  187   193     1 
  187   194     1 
  187   195     1 
  187   199     1 
  188   193     1 
  188   194     1 
  188   195     1 
  188   199     1 
  189   192     1 
  190   192     1 
  191   192     1 
  192   199     1 
  193   196     1 
  193   197     1 
  193   198     1 
  194   196     1 
  194   197     1 
  194   198     1 
  199   204     1 
  199   205     1 
  199   218     1 
  200   202     1 
  200   203     1 
  201   206     1 
  201   207     1 
  201   208     1 
  201   219     1 
  201   220     1 
  202   204     1 
  202   205     1 
  202   218     1 
  203   209     1 
  203   210     1 
  203   214     1 
  203   221     1 
  203   222     1 
  204   206     1 
  204   207     1 
  204   208     1 
  204   219     1 
  204   220     1 
  205   211     1 
  205   212     1 
  205   213     1 
  205   215     1 
  205   216     1 
  205   217     1 
  205   219     1 
  205   220     1 
  206   209     1 
  206   210     1 
  206   214     1 
  206   218     1 
  207   209     1 
  207   210     1 
  207   214     1 
  207   218     1 
  208   218     1 
  209   211     1 
  209   212     1 
  209   213     1 
  209   215     1 
  209   216     1 
  209   217     1 
  210   215     1 
  210   216     1 
  210   217     1 
  211   214     1 
  212   214     1 
  213   214     1 
  218   223     1 
  218   224     1 
  218   240     1 
  219   221     1 
  219   222     1 
  220   225     1 
  220   226     1 
  220   227     1 
  220   241     1 
  220   242     1 
  221   223     1 
  221   224     1 
  221   240     1 
  222   228     1 
  222   229     1 
  222   230     1 
  222   243     1 
  222   244     1 
  223   225     1 
  223   226     1 
  223   227     1 
  223   241     1 
  223   242     1 
  224   231     1 
  224   232     1 
  224   233     1 
  224   241     1 
  224   242     1 
  225   228     1 
  225   229     1 
  225   230     1 
  225   240     1 
  226   228     1 
  226   229     1 
  226   230     1 
  226   240     1 
  227   234     1 
  227   235     1 
  227   236     1 
  227   240     1 
  228   231     1 
  228   232     1 
  228   233     1 
  229   231     1 
  229   232     1 
  229   233     1 
  230   237     1 
  230   238     1 
  230   239     1 
  231   234     1 
  231   235     1 
  231   236     1 
  232   234     1 
  232   235     1 
  232   236     1 
  234   237     1 
  234   238     1 
  234   239     1 
  235   237     1 
  235   238     1 
  235   239     1 
  240   245     1 
  240   246     1 
  240   262     1 
  241   243     1 
  241   244     1 
  242   247     1 
  242   248     1 
  242   249     1 
  242   263     1 
  242   264     1 
  243   245     1 
  243   246     1 
  243   262     1 
  244   250     1 
  244   251     1 
  244   252     1 
  244   265     1 
  244   266     1 
  245   247     1 
  245   248     1 
  245   249     1 
  245   263     1 
  245   264     1 
  246   253     1 
  246   254     1 
  246   255     1 
  246   263     1 
  246   264     1 
  247   250     1 
  247   251     1 
  247   252     1 
  247   262     1 
  248   250     1 
  248   251     1 
  248   252     1 
  248   262     1 
  249   256     1 
  249   257     1 
  249   258     1 
  249   262     1 
  250   253     1 
  250   254     1 
  250   255     1 
  251   253     1 
  251   254     1 
  251   255     1 
  252   259     1 
  252   260     1 
  252   261     1 
  253   256     1 
  253   257     1 
  253   258     1 
  254   256     1 
  254   257     1 
  254   258     1 
  256   259     1 
  256   260     1 
  256   261     1 
  257   259     1 
  257   260     1 
  257   261     1 
  262   267     1 
  262   268     1 
  262   281     1 
  263   265     1 
  263   266     1 
  264   269     1 
  264   270     1 
  264   274     1 
  264   282     1 
  264   283     1 
  265   267     1 
  265   268     1 
  265   281     1 
  266   271     1 
  266   272     1 
  266   273     1 
  266   275     1 
  266   276     1 
  266   277     1 
  266   284     1 
  266   285     1 
  267   269     1 
  267   270     1 
  267   274     1 
  267   282     1 
  267   283     1 
  268   278     1 
  268   279     1 
  268   280     1 
  268   282     1 
  268   283     1 
  269   271     1 
  269   272     1 
  269   273     1 
  269   275     1 
  269   276     1 
  269   277     1 
  269   281     1 
  270   275     1 
  270   276     1 
  270   277     1 
  270   281     1 
  271   274     1 
  272   274     1 
  273   274     1 
  274   281     1 
  275   278     1 
  275   279     1 
  275   280     1 
  276   278     1 
  276   279     1 
  276   280     1 
  281   286     1 
  281   287     1 
  281   291     1 
  282   284     1 
  282   285     1 
  283   288     1 
  283   289     1 
  283   290     1 
  283   292     1 
  283   293     1 
  284   286     1 
  284   287     1 
  284   291     1 
  285   294     1 
  285   295     1 
  286   288     1 
  286   289     1 
  286   290     1 
  286   292     1 
  286   293     1 
  287   292     1 
  287   293     1 
  288   291     1 
  289   291     1 
  290   291     1 
  291   296     1 
  291   297     1 
  291   315     1 
  292   294     1 
  292   295     1 
  293   298     1 
  293   299     1 
  293   300     1 
  293   316     1 
  293   317     1 
  294   296     1 
  294   297     1 
  294   315     1 
  295   301     1 
  295   302     1 
  295   303     1 
  295   318     1 
  295   319     1 
  296   298     1 
  296   299     1 
  296   300     1 
  296   316     1 
  296   317     1 
  297   304     1 
  297   305     1 
  297   306     1 
  297   316     1 
  297   317     1 
  298   301     1 
  298   302     1 
  298   303     1 
  298   315     1 
  299   301     1 
  299   302     1 
  299   303     1 
  299   315     1 
  300   307     1 
  300   308     1 
  300   315     1 
  301   304     1 
  301   305     1 
  301   306     1 
  302   304     1 
  302   305     1 
  302   306     1 
  303   309     1 
  303   312     1 
  304   307     1 
  304   308     1 
  305   307     1 
  305   308     1 
  306   310     1 
  306   311     1 
  306   313     1 
  306   314     1 
  307   309     1 
  307   312     1 
  309   313     1 
  309   314     1 
  310   312     1 
  311   312     1 
  315   320     1 
  315   321     1 
  315   337     1 
  316   318     1 
  316   319     1 
  317   322     1 
  317   323     1 
  317   324     1 
  317   338     1 
  317   339     1 
  318   320     1 
  318   321     1 
  318   337     1 
  319   325     1 
  319   326     1 
  319   327     1 
  319   340     1 
  319   341     1 
  320   322     1 
  320   323     1 
  320   324     1 
  320   338     1 
  320   339     1 
  321   328     1 
  321   329     1 
  321   330     1 
  321   338     1 
  321   339     1 
  322   325     1 
  322   326     1 
  322   327     1 
  322   337     1 
  323   325     1 
  323   326     1 
  323   327     1 
  323   337     1 
  324   331     1 
  324   332     1 
  324   333     1 
  324   337     1 
  325   328     1 
  325   329     1 
  325   330     1 
  326   328     1 
  326   329     1 
  326   330     1 
  327   334     1 
  327   335     1 
  327   336     1 
  328   331     1 
  328   332     1 
  328   333     1 
  329   331     1 
  329   332     1 
  329   333     1 
  331   334     1 
  331   335     1 
  331   336     1 
  332   334     1 
  332   335     1 
  332   336     1 
  337   342     1 
  337   343     1 
  337   348     1 
  338   340     1 
  338   341     1 
  339   344     1 
  339   345     1 
  339   346     1 
  339   349     1 
  339   350     1 
  340   342     1 
  340   343     1 
  340   348     1 
  341   347     1 
  342   344     1 
  342   345     1 
  342   346     1 
  342   349     1 
  342   350     1 
  343   349     1 
  343   350     1 
  344   347     1 
  344   348     1 
  345   347     1 
  345   348     1 
  346   348     1 

[ angles ]
;  ai    aj    ak funct            c0            c1            c2            c3
    2     1     3     1 
    2     1     4     1 
    2     1     5     1 
    3     1     4     1 
    3     1     5     1 
    4     1     5     1 
    1     5     6     1 
    1     5     7     1 
    1     5    20     1 
    6     5     7     1 
    6     5    20     1 
    7     5    20     1 
    5     7     8     1 
    5     7     9     1 
    5     7    10     1 
    8     7     9     1 
    8     7    10     1 
    9     7    10     1 
    7    10    11     1 
    7    10    12     1 
    7    10    16     1 
   11    10    12     1 
   11    10    16     1 
   12    10    16     1 
   10    12    13     1 
   10    12    14     1 
   10    12    15     1 
   13    12    14     1 
   13    12    15     1 
   14    12    15     1 
   10    16    17     1 
   10    16    18     1 
   10    16    19     1 
   17    16    18     1 
   17    16    19     1 
   18    16    19     1 
    5    20    21     1 
    5    20    22     1 
   21    20    22     1 
   20    22    23     1 
   20    22    24     1 
   23    22    24     1 
   22    24    25     1 
   22    24    26     1 
   22    24    39     1 
   25    24    26     1 
   25    24    39     1 
   26    24    39     1 
   24    26    27     1 
   24    26    28     1 
   24    26    32     1 
   27    26    28     1 
   27    26    32     1 
   28    26    32     1 
   26    28    29     1 
   26    28    30     1 
   26    28    31     1 
   29    28    30     1 
   29    28    31     1 
   30    28    31     1 
   26    32    33     1 
   26    32    34     1 
   26    32    35     1 
   33    32    34     1 
   33    32    35     1 
   34    32    35     1 
   32    35    36     1 
   32    35    37     1 
   32    35    38     1 
   36    35    37     1 
   36    35    38     1 
   37    35    38     1 
   24    39    40     1 
   24    39    41     1 
   40    39    41     1 
   39    41    42     1 
   39    41    43     1 
   42    41    43     1 
   41    43    44     1 
   41    43    45     1 
   41    43    50     1 
   44    43    45     1 
   44    43    50     1 
   45    43    50     1 
   43    45    46     1 
   43    45    47     1 
   43    45    48     1 
   46    45    47     1 
   46    45    48     1 
   47    45    48     1 
   45    48    49     1 
   43    50    51     1 
   43    50    52     1 
   51    50    52     1 
   50    52    53     1 
   50    52    54     1 
   53    52    54     1 
   52    54    55     1 
   52    54    56     1 
   52    54    57     1 
   55    54    56     1 
   55    54    57     1 
   56    54    57     1 
   54    57    58     1 
   54    57    59     1 
   58    57    59     1 
   57    59    60     1 
   57    59    61     1 
   60    59    61     1 
   59    61    62     1 
   59    61    63     1 
   59    61    76     1 
   62    61    63     1 
   62    61    76     1 
   63    61    76     1 
   61    63    64     1 
   61    63    65     1 
   61    63    66     1 
   64    63    65     1 
   64    63    66     1 
   65    63    66     1 
   63    66    67     1 
   63    66    68     1 
   63    66    72     1 
   67    66    68     1 
   67    66    72     1 
   68    66    72     1 
   66    68    69     1 
   66    68    70     1 
   66    68    71     1 
   69    68    70     1 
   69    68    71     1 
   70    68    71     1 
   66    72    73     1 
   66    72    74     1 
   66    72    75     1 
   73    72    74     1 
   73    72    75     1 
   74    72    75     1 
   61    76    77     1 
   61    76    78     1 
   77    76    78     1 
   76    78    79     1 
   76    78    80     1 
   79    78    80     1 
   78    80    81     1 
   78    80    82     1 
   78    80    86     1 
   81    80    82     1 
   81    80    86     1 
   82    80    86     1 
   80    82    83     1 
   80    82    84     1 
   80    82    85     1 
   83    82    84     1 
   83    82    85     1 
   84    82    85     1 
   80    86    87     1 
   80    86    88     1 
   87    86    88     1 
   86    88    89     1 
   86    88    90     1 
   89    88    90     1 
   88    90    91     1 
   88    90    92     1 
   88    90    96     1 
   91    90    92     1 
   91    90    96     1 
   92    90    96     1 
   90    92    93     1 
   90    92    94     1 
   90    92    95     1 
   93    92    94     1 
   93    92    95     1 
   94    92    95     1 
   90    96    97     1 
   90    96    98     1 
   97    96    98     1 
   96    98    99     1 
   96    98   100     1 
   99    98   100     1 
   98   100   101     1 
   98   100   102     1 
   98   100   110     1 
  101   100   102     1 
  101   100   110     1 
  102   100   110     1 
  100   102   103     1 
  100   102   104     1 
  100   102   105     1 
  103   102   104     1 
  103   102   105     1 
  104   102   105     1 
  102   105   106     1 
  102   105   107     1 
  106   105   107     1 
  105   107   108     1 
  105   107   109     1 
  108   107   109     1 
  100   110   111     1 
  100   110   112     1 
  111   110   112     1 
  110   112   113     1 
  110   112   114     1 
  113   112   114     1 
  112   114   115     1 
  112   114   116     1 
  112   114   130     1 
  115   114   116     1 
  115   114   130     1 
  116   114   130     1 
  114   116   117     1 
  114   116   118     1 
  114   116   119     1 
  117   116   118     1 
  117   116   119     1 
  118   116   119     1 
  116   119   120     1 
  116   119   128     1 
  120   119   128     1 
  119   120   121     1 
  119   120   122     1 
  121   120   122     1 
  120   122   123     1 
  120   122   124     1 
  123   122   124     1 
  122   124   125     1 
  122   124   126     1 
  125   124   126     1 
  124   126   127     1 
  124   126   128     1 
  127   126   128     1 
  119   128   126     1 
  119   128   129     1 
  126   128   129     1 
  114   130   131     1 
  114   130   132     1 
  131   130   132     1 
  130   132   133     1 
  130   132   134     1 
  133   132   134     1 
  132   134   135     1 
  132   134   136     1 
  132   134   149     1 
  135   134   136     1 
  135   134   149     1 
  136   134   149     1 
  134   136   137     1 
  134   136   138     1 
  134   136   139     1 
  137   136   138     1 
  137   136   139     1 
  138   136   139     1 
  136   139   140     1 
  136   139   141     1 
  136   139   145     1 
  140   139   141     1 
  140   139   145     1 
  141   139   145     1 
  139   141   142     1 
  139   141   143     1 
  139   141   144     1 
  142   141   143     1 
  142   141   144     1 
  143   141   144     1 
  139   145   146     1 
  139   145   147     1 
  139   145   148     1 
  146   145   147     1 
  146   145   148     1 
  147   145   148     1 
  134   149   150     1 
  134   149   151     1 
  150   149   151     1 
  149   151   152     1 
  149   151   161     1 
  152   151   161     1 
  151   152   153     1 
  151   152   154     1 
  151   152   155     1 
  153   152   154     1 
  153   152   155     1 
  154   152   155     1 
  152   155   156     1 
  152   155   157     1 
  152   155   158     1 
  156   155   157     1 
  156   155   158     1 
  157   155   158     1 
  155   158   159     1 
  155   158   160     1 
  155   158   161     1 
  159   158   160     1 
  159   158   161     1 
  160   158   161     1 
  151   161   158     1 
  151   161   162     1 
  151   161   163     1 
  158   161   162     1 
  158   161   163     1 
  162   161   163     1 
  161   163   164     1 
  161   163   165     1 
  164   163   165     1 
  163   165   166     1 
  163   165   167     1 
  166   165   167     1 
  165   167   168     1 
  165   167   169     1 
  165   167   180     1 
  168   167   169     1 
  168   167   180     1 
  169   167   180     1 
  167   169   170     1 
  167   169   171     1 
  167   169   172     1 
  170   169   171     1 
  170   169   172     1 
  171   169   172     1 
  169   172   173     1 
  169   172   174     1 
  169   172   175     1 
  173   172   174     1 
  173   172   175     1 
  174   172   175     1 
  172   175   176     1 
  172   175   177     1 
  176   175   177     1 
  175   177   178     1 
  175   177   179     1 
  178   177   179     1 
  167   180   181     1 
  167   180   182     1 
  181   180   182     1 
  180   182   183     1 
  180   182   184     1 
  183   182   184     1 
  182   184   185     1 
  182   184   186     1 
  182   184   199     1 
  185   184   186     1 
  185   184   199     1 
  186   184   199     1 
  184   186   187     1 
  184   186   188     1 
  184   186   192     1 
  187   186   188     1 
  187   186   192     1 
  188   186   192     1 
  186   188   189     1 
  186   188   190     1 
  186   188   191     1 
  189   188   190     1 
  189   188   191     1 
  190   188   191     1 
  186   192   193     1 
  186   192   194     1 
  186   192   195     1 
  193   192   194     1 
  193   192   195     1 
  194   192   195     1 
  192   195   196     1 
  192   195   197     1 
  192   195   198     1 
  196   195   197     1 
  196   195   198     1 
  197   195   198     1 
  184   199   200     1 
  184   199   201     1 
  200   199   201     1 
  199   201   202     1 
  199   201   203     1 
  202   201   203     1 
  201   203   204     1 
  201   203   205     1 
  201   203   218     1 
  204   203   205     1 
  204   203   218     1 
  205   203   218     1 
  203   205   206     1 
  203   205   207     1 
  203   205   208     1 
  206   205   207     1 
  206   205   208     1 
  207   205   208     1 
  205   208   209     1 
  205   208   210     1 
  205   208   214     1 
  209   208   210     1 
  209   208   214     1 
  210   208   214     1 
  208   210   211     1 
  208   210   212     1 
  208   210   213     1 
  211   210   212     1 
  211   210   213     1 
  212   210   213     1 
  208   214   215     1 
  208   214   216     1 
  208   214   217     1 
  215   214   216     1 
  215   214   217     1 
  216   214   217     1 
  203   218   219     1 
  203   218   220     1 
  219   218   220     1 
  218   220   221     1 
  218   220   222     1 
  221   220   222     1 
  220   222   223     1 
  220   222   224     1 
  220   222   240     1 
  223   222   224     1 
  223   222   240     1 
  224   222   240     1 
  222   224   225     1 
  222   224   226     1 
  222   224   227     1 
  225   224   226     1 
  225   224   227     1 
  226   224   227     1 
  224   227   228     1 
  224   227   229     1 
  224   227   230     1 
  228   227   229     1 
  228   227   230     1 
  229   227   230     1 
  227   230   231     1 
  227   230   232     1 
  227   230   233     1 
  231   230   232     1 
  231   230   233     1 
  232   230   233     1 
  230   233   234     1 
  230   233   235     1 
  230   233   236     1 
  234   233   235     1 
  234   233   236     1 
  235   233   236     1 
  233   236   237     1 
  233   236   238     1 
  233   236   239     1 
  237   236   238     1 
  237   236   239     1 
  238   236   239     1 
  222   240   241     1 
  222   240   242     1 
  241   240   242     1 
  240   242   243     1 
  240   242   244     1 
  243   242   244     1 
  242   244   245     1 
  242   244   246     1 
  242   244   262     1 
  245   244   246     1 
  245   244   262     1 
  246   244   262     1 
  244   246   247     1 
  244   246   248     1 
  244   246   249     1 
  247   246   248     1 
  247   246   249     1 
  248   246   249     1 
  246   249   250     1 
  246   249   251     1 
  246   249   252     1 
  250   249   251     1 
  250   249   252     1 
  251   249   252     1 
  249   252   253     1 
  249   252   254     1 
  249   252   255     1 
  253   252   254     1 
  253   252   255     1 
  254   252   255     1 
  252   255   256     1 
  252   255   257     1 
  252   255   258     1 
  256   255   257     1 
  256   255   258     1 
  257   255   258     1 
  255   258   259     1 
  255   258   260     1 
  255   258   261     1 
  259   258   260     1 
  259   258   261     1 
  260   258   261     1 
  244   262   263     1 
  244   262   264     1 
  263   262   264     1 
  262   264   265     1 
  262   264   266     1 
  265   264   266     1 
  264   266   267     1 
  264   266   268     1 
  264   266   281     1 
  267   266   268     1 
  267   266   281     1 
  268   266   281     1 
  266   268   269     1 
  266   268   270     1 
  266   268   274     1 
  269   268   270     1 
  269   268   274     1 
  270   268   274     1 
  268   270   271     1 
  268   270   272     1 
  268   270   273     1 
  271   270   272     1 
  271   270   273     1 
  272   270   273     1 
  268   274   275     1 
  268   274   276     1 
  268   274   277     1 
  275   274   276     1 
  275   274   277     1 
  276   274   277     1 
  274   277   278     1 
  274   277   279     1 
  274   277   280     1 
  278   277   279     1 
  278   277   280     1 
  279   277   280     1 
  266   281   282     1 
  266   281   283     1 
  282   281   283     1 
  281   283   284     1 
  281   283   285     1 
  284   283   285     1 
  283   285   286     1 
  283   285   287     1 
  283   285   291     1 
  286   285   287     1 
  286   285   291     1 
  287   285   291     1 
  285   287   288     1 
  285   287   289     1 
  285   287   290     1 
  288   287   289     1 
  288   287   290     1 
  289   287   290     1 
  285   291   292     1 
  285   291   293     1 
  292   291   293     1 
  291   293   294     1 
  291   293   295     1 
  294   293   295     1 
  293   295   296     1 
  293   295   297     1 
  293   295   315     1 
  296   295   297     1 
  296   295   315     1 
  297   295   315     1 
  295   297   298     1 
  295   297   299     1 
  295   297   300     1 
  298   297   299     1 
  298   297   300     1 
  299   297   300     1 
  297   300   301     1 
  297   300   302     1 
  297   300   303     1 
  301   300   302     1 
  301   300   303     1 
  302   300   303     1 
  300   303   304     1 
  300   303   305     1 
  300   303   306     1 
  304   303   305     1 
  304   303   306     1 
  305   303   306     1 
  303   306   307     1 
  303   306   308     1 
  307   306   308     1 
  306   308   309     1 
  306   308   312     1 
  309   308   312     1 
  308   309   310     1 
  308   309   311     1 
  310   309   311     1 
  308   312   313     1 
  308   312   314     1 
  313   312   314     1 
  295   315   316     1 
  295   315   317     1 
  316   315   317     1 
  315   317   318     1 
  315   317   319     1 
  318   317   319     1 
  317   319   320     1 
  317   319   321     1 
  317   319   337     1 
  320   319   321     1 
  320   319   337     1 
  321   319   337     1 
  319   321   322     1 
  319   321   323     1 
  319   321   324     1 
  322   321   323     1 
  322   321   324     1 
  323   321   324     1 
  321   324   325     1 
  321   324   326     1 
  321   324   327     1 
  325   324   326     1 
  325   324   327     1 
  326   324   327     1 
  324   327   328     1 
  324   327   329     1 
  324   327   330     1 
  328   327   329     1 
  328   327   330     1 
  329   327   330     1 
  327   330   331     1 
  327   330   332     1 
  327   330   333     1 
  331   330   332     1 
  331   330   333     1 
  332   330   333     1 
  330   333   334     1 
  330   333   335     1 
  330   333   336     1 
  334   333   335     1 
  334   333   336     1 
  335   333   336     1 
  319   337   338     1 
  319   337   339     1 
  338   337   339     1 
  337   339   340     1 
  337   339   341     1 
  340   339   341     1 
  339   341   342     1 
  339   341   343     1 
  339   341   348     1 
  342   341   343     1 
  342   341   348     1 
  343   341   348     1 
  341   343   344     1 
  341   343   345     1 
  341   343   346     1 
  344   343   345     1 
  344   343   346     1 
  345   343   346     1 
  343   346   347     1 
  341   348   349     1 
  341   348   350     1 
  349   348   350     1 

[ dihedrals ]
;  ai    aj    ak    al funct            c0            c1            c2            c3            c4            c5
    2     1     5     6     9 
    2     1     5     7     9 
    2     1     5    20     9 
    3     1     5     6     9 
    3     1     5     7     9 
    3     1     5    20     9 
    4     1     5     6     9 
    4     1     5     7     9 
    4     1     5    20     9 
   20     5     7    10     9    torsion_LEU_C_CA_CB_CG_mult1
   20     5     7    10     9    torsion_LEU_C_CA_CB_CG_mult2
   20     5     7    10     9    torsion_LEU_C_CA_CB_CG_mult3
    1     5     7     8     9 
    1     5     7     9     9 
    1     5     7    10     9 
    6     5     7     8     9 
    6     5     7     9     9 
    6     5     7    10     9 
   20     5     7     8     9 
   20     5     7     9     9 
    1     5    20    21     9 
    1     5    20    22     9 
    6     5    20    21     9 
    6     5    20    22     9 
    7     5    20    21     9 
    7     5    20    22     9 
    5     7    10    11     9 
    5     7    10    12     9 
    5     7    10    16     9 
    8     7    10    11     9 
    8     7    10    12     9 
    8     7    10    16     9 
    9     7    10    11     9 
    9     7    10    12     9 
    9     7    10    16     9 
    7    10    12    13     9 
    7    10    12    14     9 
    7    10    12    15     9 
   11    10    12    13     9 
   11    10    12    14     9 
   11    10    12    15     9 
   16    10    12    13     9 
   16    10    12    14     9 
   16    10    12    15     9 
    7    10    16    17     9 
    7    10    16    18     9 
    7    10    16    19     9 
   11    10    16    17     9 
   11    10    16    18     9 
   11    10    16    19     9 
   12    10    16    17     9 
   12    10    16    18     9 
   12    10    16    19     9 
    5    20    22    23     9 
    5    20    22    24     9 
   21    20    22    23     9 
   21    20    22    24     9 
   20    22    24    25     9 
   20    22    24    26     9 
   20    22    24    39     9 
   23    22    24    25     9 
   23    22    24    26     9 
   23    22    24    39     9 
   22    24    26    28     9    torsion_ILE_N_CA_CB_CG2_mult1
   22    24    26    28     9    torsion_ILE_N_CA_CB_CG2_mult2
   22    24    26    27     9 
   22    24    26    32     9 
   25    24    26    27     9 
   25    24    26    28     9 
   25    24    26    32     9 
   39    24    26    27     9 
   39    24    26    28     9 
   39    24    26    32     9 
   22    24    39    40     9 
   22    24    39    41     9 
   25    24    39    40     9 
   25    24    39    41     9 
   26    24    39    40     9 
   26    24    39    41     9 
   24    26    28    29     9 
   24    26    28    30     9 
   24    26    28    31     9 
   27    26    28    29     9 
   27    26    28    30     9 
   27    26    28    31     9 
   32    26    28    29     9 
   32    26    28    30     9 
   32    26    28    31     9 
   24    26    32    33     9 
   24    26    32    34     9 
   24    26    32    35     9 
   27    26    32    33     9 
   27    26    32    34     9 
   27    26    32    35     9 
   28    26    32    33     9 
   28    26    32    34     9 
   28    26    32    35     9 
   26    32    35    36     9 
   26    32    35    37     9 
   26    32    35    38     9 
   33    32    35    36     9 
   33    32    35    37     9 
   33    32    35    38     9 
   34    32    35    36     9 
   34    32    35    37     9 
   34    32    35    38     9 
   24    39    41    42     9 
   24    39    41    43     9 
   40    39    41    42     9 
   40    39    41    43     9 
   39    41    43    44     9 
   39    41    43    45     9 
   39    41    43    50     9 
   42    41    43    44     9 
   42    41    43    45     9 
   42    41    43    50     9 
   41    43    45    46     9 
   41    43    45    47     9 
   41    43    45    48     9 
   44    43    45    46     9 
   44    43    45    47     9 
   44    43    45    48     9 
   50    43    45    46     9 
   50    43    45    47     9 
   50    43    45    48     9 
   41    43    50    51     9 
   41    43    50    52     9 
   44    43    50    51     9 
   44    43    50    52     9 
   45    43    50    51     9 
   45    43    50    52     9 
   43    45    48    49     9 
   46    45    48    49     9 
   47    45    48    49     9 
   43    50    52    53     9 
   43    50    52    54     9 
   51    50    52    53     9 
   51    50    52    54     9 
   50    52    54    55     9 
   50    52    54    56     9 
   50    52    54    57     9 
   53    52    54    55     9 
   53    52    54    56     9 
   53    52    54    57     9 
   52    54    57    58     9 
   52    54    57    59     9 
   55    54    57    58     9 
   55    54    57    59     9 
   56    54    57    58     9 
   56    54    57    59     9 
   54    57    59    60     9 
   54    57    59    61     9 
   58    57    59    60     9 
   58    57    59    61     9 
   57    59    61    62     9 
   57    59    61    63     9 
   57    59    61    76     9 
   60    59    61    62     9 
   60    59    61    63     9 
   60    59    61    76     9 
   76    61    63    66     9    torsion_LEU_C_CA_CB_CG_mult1
   76    61    63    66     9    torsion_LEU_C_CA_CB_CG_mult2
   76    61    63    66     9    torsion_LEU_C_CA_CB_CG_mult3
   59    61    63    64     9 
   59    61    63    65     9 
   59    61    63    66     9 
   62    61    63    64     9 
   62    61    63    65     9 
   62    61    63    66     9 
   76    61    63    64     9 
   76    61    63    65     9 
   59    61    76    77     9 
   59    61    76    78     9 
   62    61    76    77     9 
   62    61    76    78     9 
   63    61    76    77     9 
   63    61    76    78     9 
   61    63    66    67     9 
   61    63    66    68     9 
   61    63    66    72     9 
   64    63    66    67     9 
   64    63    66    68     9 
   64    63    66    72     9 
   65    63    66    67     9 
   65    63    66    68     9 
   65    63    66    72     9 
   63    66    68    69     9 
   63    66    68    70     9 
   63    66    68    71     9 
   67    66    68    69     9 
   67    66    68    70     9 
   67    66    68    71     9 
   72    66    68    69     9 
   72    66    68    70     9 
   72    66    68    71     9 
   63    66    72    73     9 
   63    66    72    74     9 
   63    66    72    75     9 
   67    66    72    73     9 
   67    66    72    74     9 
   67    66    72    75     9 
   68    66    72    73     9 
   68    66    72    74     9 
   68    66    72    75     9 
   61    76    78    79     9 
   61    76    78    80     9 
   77    76    78    79     9 
   77    76    78    80     9 
   76    78    80    81     9 
   76    78    80    82     9 
   76    78    80    86     9 
   79    78    80    81     9 
   79    78    80    82     9 
   79    78    80    86     9 
   78    80    82    83     9 
   78    80    82    84     9 
   78    80    82    85     9 
   81    80    82    83     9 
   81    80    82    84     9 
   81    80    82    85     9 
   86    80    82    83     9 
   86    80    82    84     9 
   86    80    82    85     9 
   78    80    86    87     9 
   78    80    86    88     9 
   81    80    86    87     9 
   81    80    86    88     9 
   82    80    86    87     9 
   82    80    86    88     9 
   80    86    88    89     9 
   80    86    88    90     9 
   87    86    88    89     9 
   87    86    88    90     9 
   86    88    90    91     9 
   86    88    90    92     9 
   86    88    90    96     9 
   89    88    90    91     9 
   89    88    90    92     9 
   89    88    90    96     9 
   88    90    92    93     9 
   88    90    92    94     9 
   88    90    92    95     9 
   91    90    92    93     9 
   91    90    92    94     9 
   91    90    92    95     9 
   96    90    92    93     9 
   96    90    92    94     9 
   96    90    92    95     9 
   88    90    96    97     9 
   88    90    96    98     9 
   91    90    96    97     9 
   91    90    96    98     9 
   92    90    96    97     9 
   92    90    96    98     9 
   90    96    98    99     9 
   90    96    98   100     9 
   97    96    98    99     9 
   97    96    98   100     9 
   96    98   100   101     9 
   96    98   100   102     9 
   96    98   100   110     9 
   99    98   100   101     9 
   99    98   100   102     9 
   99    98   100   110     9 
  110   100   102   105     9    torsion_ASN_C_CA_CB_CG_mult1
  110   100   102   105     9    torsion_ASN_C_CA_CB_CG_mult2
  110   100   102   105     9    torsion_ASN_C_CA_CB_CG_mult3
  110   100   102   105     9    torsion_ASN_C_CA_CB_CG_mult4
  110   100   102   105     9    torsion_ASN_C_CA_CB_CG_mult5
  110   100   102   105     9    torsion_ASN_C_CA_CB_CG_mult6
   98   100   102   103     9 
   98   100   102   104     9 
   98   100   102   105     9 
  101   100   102   103     9 
  101   100   102   104     9 
  101   100   102   105     9 
  110   100   102   103     9 
  110   100   102   104     9 
   98   100   110   111     9 
   98   100   110   112     9 
  101   100   110   111     9 
  101   100   110   112     9 
  102   100   110   111     9 
  102   100   110   112     9 
  100   102   105   107     9    torsion_ASN_CA_CB_CG_ND2_mult1
  100   102   105   107     9    torsion_ASN_CA_CB_CG_ND2_mult2
  100   102   105   107     9    torsion_ASN_CA_CB_CG_ND2_mult3
  100   102   105   107     9    torsion_ASN_CA_CB_CG_ND2_mult4
  100   102   105   107     9    torsion_ASN_CA_CB_CG_ND2_mult5
  100   102   105   107     9    torsion_ASN_CA_CB_CG_ND2_mult6
  100   102   105   106     9 
  103   102   105   106     9 
  103   102   105   107     9 
  104   102   105   106     9 
  104   102   105   107     9 
  102   105   107   108     9 
  102   105   107   109     9 
  106   105   107   108     9 
  106   105   107   109     9 
  100   110   112   113     9 
  100   110   112   114     9 
  111   110   112   113     9 
  111   110   112   114     9 
  110   112   114   115     9 
  110   112   114   116     9 
  110   112   114   130     9 
  113   112   114   115     9 
  113   112   114   116     9 
  113   112   114   130     9 
  112   114   116   117     9 
  112   114   116   118     9 
  112   114   116   119     9 
  115   114   116   117     9 
  115   114   116   118     9 
  115   114   116   119     9 
  130   114   116   117     9 
  130   114   116   118     9 
  130   114   116   119     9 
  112   114   130   131     9 
  112   114   130   132     9 
  115   114   130   131     9 
  115   114   130   132     9 
  116   114   130   131     9 
  116   114   130   132     9 
  114   116   119   120     9 
  114   116   119   128     9 
  117   116   119   120     9 
  117   116   119   128     9 
  118   116   119   120     9 
  118   116   119   128     9 
  116   119   120   121     9 
  116   119   120   122     9 
  128   119   120   121     9 
  128   119   120   122     9 
  116   119   128   126     9 
  116   119   128   129     9 
  120   119   128   126     9 
  120   119   128   129     9 
  119   120   122   123     9 
  119   120   122   124     9 
  121   120   122   123     9 
  121   120   122   124     9 
  120   122   124   125     9 
  120   122   124   126     9 
  123   122   124   125     9 
  123   122   124   126     9 
  122   124   126   127     9 
  122   124   126   128     9 
  125   124   126   127     9 
  125   124   126   128     9 
  124   126   128   119     9 
  124   126   128   129     9 
  127   126   128   119     9 
  127   126   128   129     9 
  114   130   132   133     9 
  114   130   132   134     9 
  131   130   132   133     9 
  131   130   132   134     9 
  130   132   134   135     9 
  130   132   134   136     9 
  130   132   134   149     9 
  133   132   134   135     9 
  133   132   134   136     9 
  133   132   134   149     9 
  149   134   136   139     9    torsion_LEU_C_CA_CB_CG_mult1
  149   134   136   139     9    torsion_LEU_C_CA_CB_CG_mult2
  149   134   136   139     9    torsion_LEU_C_CA_CB_CG_mult3
  132   134   136   137     9 
  132   134   136   138     9 
  132   134   136   139     9 
  135   134   136   137     9 
  135   134   136   138     9 
  135   134   136   139     9 
  149   134   136   137     9 
  149   134   136   138     9 
  132   134   149   150     9 
  132   134   149   151     9 
  135   134   149   150     9 
  135   134   149   151     9 
  136   134   149   150     9 
  136   134   149   151     9 
  134   136   139   140     9 
  134   136   139   141     9 
  134   136   139   145     9 
  137   136   139   140     9 
  137   136   139   141     9 
  137   136   139   145     9 
  138   136   139   140     9 
  138   136   139   141     9 
  138   136   139   145     9 
  136   139   141   142     9 
  136   139   141   143     9 
  136   139   141   144     9 
  140   139   141   142     9 
  140   139   141   143     9 
  140   139   141   144     9 
  145   139   141   142     9 
  145   139   141   143     9 
  145   139   141   144     9 
  136   139   145   146     9 
  136   139   145   147     9 
  136   139   145   148     9 
  140   139   145   146     9 
  140   139   145   147     9 
  140   139   145   148     9 
  141   139   145   146     9 
  141   139   145   147     9 
  141   139   145   148     9 
  134   149   151   152     9 
  134   149   151   161     9 
  150   149   151   152     9 
  150   149   151   161     9 
  149   151   152   153     9 
  149   151   152   154     9 
  149   151   152   155     9 
  161   151   152   153     9 
  161   151   152   154     9 
  161   151   152   155     9 
  149   151   161   158     9 
  149   151   161   162     9 
  149   151   161   163     9 
  152   151   161   158     9 
  152   151   161   162     9 
  152   151   161   163     9 
  151   152   155   156     9 
  151   152   155   157     9 
  151   152   155   158     9 
  153   152   155   156     9 
  153   152   155   157     9 
  153   152   155   158     9 
  154   152   155   156     9 
  154   152   155   157     9 
  154   152   155   158     9 
  152   155   158   159     9 
  152   155   158   160     9 
  152   155   158   161     9 
  156   155   158   159     9 
  156   155   158   160     9 
  156   155   158   161     9 
  157   155   158   159     9 
  157   155   158   160     9 
  157   155   158   161     9 
  155   158   161   151     9 
  155   158   161   162     9 
  155   158   161   163     9 
  159   158   161   151     9 
  159   158   161   162     9 
  159   158   161   163     9 
  160   158   161   151     9 
  160   158   161   162     9 
  160   158   161   163     9 
  151   161   163   164     9 
  151   161   163   165     9 
  158   161   163   164     9 
  158   161   163   165     9 
  162   161   163   164     9 
  162   161   163   165     9 
  161   163   165   166     9 
  161   163   165   167     9 
  164   163   165   166     9 
  164   163   165   167     9 
  163   165   167   168     9 
  163   165   167   169     9 
  163   165   167   180     9 
  166   165   167   168     9 
  166   165   167   169     9 
  166   165   167   180     9 
  165   167   169   170     9 
  165   167   169   171     9 
  165   167   169   172     9 
  168   167   169   170     9 
  168   167   169   171     9 
  168   167   169   172     9 
  180   167   169   170     9 
  180   167   169   171     9 
  180   167   169   172     9 
  165   167   180   181     9 
  165   167   180   182     9 
  168   167   180   181     9 
  168   167   180   182     9 
  169   167   180   181     9 
  169   167   180   182     9 
  167   169   172   173     9 
  167   169   172   174     9 
  167   169   172   175     9 
  170   169   172   173     9 
  170   169   172   174     9 
  170   169   172   175     9 
  171   169   172   173     9 
  171   169   172   174     9 
  171   169   172   175     9 
  169   172   175   176     9 
  169   172   175   177     9 
  173   172   175   176     9 
  173   172   175   177     9 
  174   172   175   176     9 
  174   172   175   177     9 
  172   175   177   178     9 
  172   175   177   179     9 
  176   175   177   178     9 
  176   175   177   179     9 
  167   180   182   183     9 
  167   180   182   184     9 
  181   180   182   183     9 
  181   180   182   184     9 
  180   182   184   185     9 
  180   182   184   186     9 
  180   182   184   199     9 
  183   182   184   185     9 
  183   182   184   186     9 
  183   182   184   199     9 
  182   184   186   188     9    torsion_ILE_N_CA_CB_CG2_mult1
  182   184   186   188     9    torsion_ILE_N_CA_CB_CG2_mult2
  182   184   186   187     9 
  182   184   186   192     9 
  185   184   186   187     9 
  185   184   186   188     9 
  185   184   186   192     9 
  199   184   186   187     9 
  199   184   186   188     9 
  199   184   186   192     9 
  182   184   199   200     9 
  182   184   199   201     9 
  185   184   199   200     9 
  185   184   199   201     9 
  186   184   199   200     9 
  186   184   199   201     9 
  184   186   188   189     9 
  184   186   188   190     9 
  184   186   188   191     9 
  187   186   188   189     9 
  187   186   188   190     9 
  187   186   188   191     9 
  192   186   188   189     9 
  192   186   188   190     9 
  192   186   188   191     9 
  184   186   192   193     9 
  184   186   192   194     9 
  184   186   192   195     9 
  187   186   192   193     9 
  187   186   192   194     9 
  187   186   192   195     9 
  188   186   192   193     9 
  188   186   192   194     9 
  188   186   192   195     9 
  186   192   195   196     9 
  186   192   195   197     9 
  186   192   195   198     9 
  193   192   195   196     9 
  193   192   195   197     9 
  193   192   195   198     9 
  194   192   195   196     9 
  194   192   195   197     9 
  194   192   195   198     9 
  184   199   201   202     9 
  184   199   201   203     9 
  200   199   201   202     9 
  200   199   201   203     9 
  199   201   203   204     9 
  199   201   203   205     9 
  199   201   203   218     9 
  202   201   203   204     9 
  202   201   203   205     9 
  202   201   203   218     9 
  218   203   205   208     9    torsion_LEU_C_CA_CB_CG_mult1
  218   203   205   208     9    torsion_LEU_C_CA_CB_CG_mult2
  218   203   205   208     9    torsion_LEU_C_CA_CB_CG_mult3
  201   203   205   206     9 
  201   203   205   207     9 
  201   203   205   208     9 
  204   203   205   206     9 
  204   203   205   207     9 
  204   203   205   208     9 
  218   203   205   206     9 
  218   203   205   207     9 
  201   203   218   219     9 
  201   203   218   220     9 
  204   203   218   219     9 
  204   203   218   220     9 
  205   203   218   219     9 
  205   203   218   220     9 
  203   205   208   209     9 
  203   205   208   210     9 
  203   205   208   214     9 
  206   205   208   209     9 
  206   205   208   210     9 
  206   205   208   214     9 
  207   205   208   209     9 
  207   205   208   210     9 
  207   205   208   214     9 
  205   208   210   211     9 
  205   208   210   212     9 
  205   208   210   213     9 
  209   208   210   211     9 
  209   208   210   212     9 
  209   208   210   213     9 
  214   208   210   211     9 
  214   208   210   212     9 
  214   208   210   213     9 
  205   208   214   215     9 
  205   208   214   216     9 
  205   208   214   217     9 
  209   208   214   215     9 
  209   208   214   216     9 
  209   208   214   217     9 
  210   208   214   215     9 
  210   208   214   216     9 
  210   208   214   217     9 
  203   218   220   221     9 
  203   218   220   222     9 
  219   218   220   221     9 
  219   218   220   222     9 
  218   220   222   223     9 
  218   220   222   224     9 
  218   220   222   240     9 
  221   220   222   223     9 
  221   220   222   224     9 
  221   220   222   240     9 
  220   222   224   225     9 
  220   222   224   226     9 
  220   222   224   227     9 
  223   222   224   225     9 
  223   222   224   226     9 
  223   222   224   227     9 
  240   222   224   225     9 
  240   222   224   226     9 
  240   222   224   227     9 
  220   222   240   241     9 
  220   222   240   242     9 
  223   222   240   241     9 
  223   222   240   242     9 
  224   222   240   241     9 
  224   222   240   242     9 
  222   224   227   228     9 
  222   224   227   229     9 
  222   224   227   230     9 
  225   224   227   228     9 
  225   224   227   229     9 
  225   224   227   230     9 
  226   224   227   228     9 
  226   224   227   229     9 
  226   224   227   230     9 
  224   227   230   231     9 
  224   227   230   232     9 
  224   227   230   233     9 
  228   227   230   231     9 
  228   227   230   232     9 
  228   227   230   233     9 
  229   227   230   231     9 
  229   227   230   232     9 
  229   227   230   233     9 
  227   230   233   234     9 
  227   230   233   235     9 
  227   230   233   236     9 
  231   230   233   234     9 
  231   230   233   235     9 
  231   230   233   236     9 
  232   230   233   234     9 
  232   230   233   235     9 
  232   230   233   236     9 
  230   233   236   237     9 
  230   233   236   238     9 
  230   233   236   239     9 
  234   233   236   237     9 
  234   233   236   238     9 
  234   233   236   239     9 
  235   233   236   237     9 
  235   233   236   238     9 
  235   233   236   239     9 
  222   240   242   243     9 
  222   240   242   244     9 
  241   240   242   243     9 
  241   240   242   244     9 
  240   242   244   245     9 
  240   242   244   246     9 
  240   242   244   262     9 
  243   242   244   245     9 
  243   242   244   246     9 
  243   242   244   262     9 
  242   244   246   247     9 
  242   244   246   248     9 
  242   244   246   249     9 
  245   244   246   247     9 
  245   244   246   248     9 
  245   244   246   249     9 
  262   244   246   247     9 
  262   244   246   248     9 
  262   244   246   249     9 
  242   244   262   263     9 
  242   244   262   264     9 
  245   244   262   263     9 
  245   244   262   264     9 
  246   244   262   263     9 
  246   244   262   264     9 
  244   246   249   250     9 
  244   246   249   251     9 
  244   246   249   252     9 
  247   246   249   250     9 
  247   246   249   251     9 
  247   246   249   252     9 
  248   246   249   250     9 
  248   246   249   251     9 
  248   246   249   252     9 
  246   249   252   253     9 
  246   249   252   254     9 
  246   249   252   255     9 
  250   249   252   253     9 
  250   249   252   254     9 
  250   249   252   255     9 
  251   249   252   253     9 
  251   249   252   254     9 
  251   249   252   255     9 
  249   252   255   256     9 
  249   252   255   257     9 
  249   252   255   258     9 
  253   252   255   256     9 
  253   252   255   257     9 
  253   252   255   258     9 
  254   252   255   256     9 
  254   252   255   257     9 
  254   252   255   258     9 
  252   255   258   259     9 
  252   255   258   260     9 
  252   255   258   261     9 
  256   255   258   259     9 
  256   255   258   260     9 
  256   255   258   261     9 
  257   255   258   259     9 
  257   255   258   260     9 
  257   255   258   261     9 
  244   262   264   265     9 
  244   262   264   266     9 
  263   262   264   265     9 
  263   262   264   266     9 
  262   264   266   267     9 
  262   264   266   268     9 
  262   264   266   281     9 
  265   264   266   267     9 
  265   264   266   268     9 
  265   264   266   281     9 
  264   266   268   270     9    torsion_ILE_N_CA_CB_CG2_mult1
  264   266   268   270     9    torsion_ILE_N_CA_CB_CG2_mult2
  264   266   268   269     9 
  264   266   268   274     9 
  267   266   268   269     9 
  267   266   268   270     9 
  267   266   268   274     9 
  281   266   268   269     9 
  281   266   268   270     9 
  281   266   268   274     9 
  264   266   281   282     9 
  264   266   281   283     9 
  267   266   281   282     9 
  267   266   281   283     9 
  268   266   281   282     9 
  268   266   281   283     9 
  266   268   270   271     9 
  266   268   270   272     9 
  266   268   270   273     9 
  269   268   270   271     9 
  269   268   270   272     9 
  269   268   270   273     9 
  274   268   270   271     9 
  274   268   270   272     9 
  274   268   270   273     9 
  266   268   274   275     9 
  266   268   274   276     9 
  266   268   274   277     9 
  269   268   274   275     9 
  269   268   274   276     9 
  269   268   274   277     9 
  270   268   274   275     9 
  270   268   274   276     9 
  270   268   274   277     9 
  268   274   277   278     9 
  268   274   277   279     9 
  268   274   277   280     9 
  275   274   277   278     9 
  275   274   277   279     9 
  275   274   277   280     9 
  276   274   277   278     9 
  276   274   277   279     9 
  276   274   277   280     9 
  266   281   283   284     9 
  266   281   283   285     9 
  282   281   283   284     9 
  282   281   283   285     9 
  281   283   285   286     9 
  281   283   285   287     9 
  281   283   285   291     9 
  284   283   285   286     9 
  284   283   285   287     9 
  284   283   285   291     9 
  283   285   287   288     9 
  283   285   287   289     9 
  283   285   287   290     9 
  286   285   287   288     9 
  286   285   287   289     9 
  286   285   287   290     9 
  291   285   287   288     9 
  291   285   287   289     9 
  291   285   287   290     9 
  283   285   291   292     9 
  283   285   291   293     9 
  286   285   291   292     9 
  286   285   291   293     9 
  287   285   291   292     9 
  287   285   291   293     9 
  285   291   293   294     9 
  285   291   293   295     9 
  292   291   293   294     9 
  292   291   293   295     9 
  291   293   295   296     9 
  291   293   295   297     9 
  291   293   295   315     9 
  294   293   295   296     9 
  294   293   295   297     9 
  294   293   295   315     9 
  293   295   297   298     9 
  293   295   297   299     9 
  293   295   297   300     9 
  296   295   297   298     9 
  296   295   297   299     9 
  296   295   297   300     9 
  315   295   297   298     9 
  315   295   297   299     9 
  315   295   297   300     9 
  293   295   315   316     9 
  293   295   315   317     9 
  296   295   315   316     9 
  296   295   315   317     9 
  297   295   315   316     9 
  297   295   315   317     9 
  295   297   300   301     9 
  295   297   300   302     9 
  295   297   300   303     9 
  298   297   300   301     9 
  298   297   300   302     9 
  298   297   300   303     9 
  299   297   300   301     9 
  299   297   300   302     9 
  299   297   300   303     9 
  297   300   303   304     9 
  297   300   303   305     9 
  297   300   303   306     9 
  301   300   303   304     9 
  301   300   303   305     9 
  301   300   303   306     9 
  302   300   303   304     9 
  302   300   303   305     9 
  302   300   303   306     9 
  300   303   306   307     9 
  300   303   306   308     9 
  304   303   306   307     9 
  304   303   306   308     9 
  305   303   306   307     9 
  305   303   306   308     9 
  303   306   308   309     9 
  303   306   308   312     9 
  307   306   308   309     9 
  307   306   308   312     9 
  306   308   309   310     9 
  306   308   309   311     9 
  312   308   309   310     9 
  312   308   309   311     9 
  306   308   312   313     9 
  306   308   312   314     9 
  309   308   312   313     9 
  309   308   312   314     9 
  295   315   317   318     9 
  295   315   317   319     9 
  316   315   317   318     9 
  316   315   317   319     9 
  315   317   319   320     9 
  315   317   319   321     9 
  315   317   319   337     9 
  318   317   319   320     9 
  318   317   319   321     9 
  318   317   319   337     9 
  317   319   321   322     9 
  317   319   321   323     9 
  317   319   321   324     9 
  320   319   321   322     9 
  320   319   321   323     9 
  320   319   321   324     9 
  337   319   321   322     9 
  337   319   321   323     9 
  337   319   321   324     9 
  317   319   337   338     9 
  317   319   337   339     9 
  320   319   337   338     9 
  320   319   337   339     9 
  321   319   337   338     9 
  321   319   337   339     9 
  319   321   324   325     9 
  319   321   324   326     9 
  319   321   324   327     9 
  322   321   324   325     9 
  322   321   324   326     9 
  322   321   324   327     9 
  323   321   324   325     9 
  323   321   324   326     9 
  323   321   324   327     9 
  321   324   327   328     9 
  321   324   327   329     9 
  321   324   327   330     9 
  325   324   327   328     9 
  325   324   327   329     9 
  325   324   327   330     9 
  326   324   327   328     9 
  326   324   327   329     9 
  326   324   327   330     9 
  324   327   330   331     9 
  324   327   330   332     9 
  324   327   330   333     9 
  328   327   330   331     9 
  328   327   330   332     9 
  328   327   330   333     9 
  329   327   330   331     9 
  329   327   330   332     9 
  329   327   330   333     9 
  327   330   333   334     9 
  327   330   333   335     9 
  327   330   333   336     9 
  331   330   333   334     9 
  331   330   333   335     9 
  331   330   333   336     9 
  332   330   333   334     9 
  332   330   333   335     9 
  332   330   333   336     9 
  319   337   339   340     9 
  319   337   339   341     9 
  338   337   339   340     9 
  338   337   339   341     9 
  337   339   341   342     9 
  337   339   341   343     9 
  337   339   341   348     9 
  340   339   341   342     9 
  340   339   341   343     9 
  340   339   341   348     9 
  339   341   343   344     9 
  339   341   343   345     9 
  339   341   343   346     9 
  342   341   343   344     9 
  342   341   343   345     9 
  342   341   343   346     9 
  348   341   343   344     9 
  348   341   343   345     9 
  348   341   343   346     9 
  339   341   348   349     9 
  339   341   348   350     9 
  342   341   348   349     9 
  342   341   348   350     9 
  343   341   348   349     9 
  343   341   348   350     9 
  341   343   346   347     9 
  344   343   346   347     9 
  345   343   346   347     9 

[ dihedrals ]
;  ai    aj    ak    al funct            c0            c1            c2            c3
    5    22    20    21     4 
   20    24    22    23     4 
   24    41    39    40     4 
   39    43    41    42     4 
   43    52    50    51     4 
   50    54    52    53     4 
   54    59    57    58     4 
   57    61    59    60     4 
   61    78    76    77     4 
   76    80    78    79     4 
   80    88    86    87     4 
   86    90    88    89     4 
   90    98    96    97     4 
   96   100    98    99     4 
  100   112   110   111     4 
  102   107   105   106     4 
  105   108   107   109     4 
  110   114   112   113     4 
  114   132   130   131     4 
  116   119   128   120     4 
  119   122   120   121     4 
  119   126   128   129     4 
  120   124   122   123     4 
  122   126   124   125     4 
  124   128   126   127     4 
  130   134   132   133     4 
  134   151   149   150     4 
  149   152   151   161     4 
  161   165   163   164     4 
  163   167   165   166     4 
  167   182   180   181     4 
  172   177   175   176     4 
  175   178   177   179     4 
  180   184   182   183     4 
  184   201   199   200     4 
  199   203   201   202     4 
  203   220   218   219     4 
  218   222   220   221     4 
  222   242   240   241     4 
  240   244   242   243     4 
  244   264   262   263     4 
  262   266   264   265     4 
  266   283   281   282     4 
  281   285   283   284     4 
  285   293   291   292     4 
  291   295   293   294     4 
  295   317   315   316     4 
  303   308   306   307     4 
  306   309   308   312     4 
  308   310   309   311     4 
  308   313   312   314     4 
  315   319   317   318     4 
  319   339   337   338     4 
  337   341   339   340     4 
  341   349   348   350     4 

; Include Position restraint file
#ifdef POSRES
#include "posre_peptide.itp"
#endif

; Include water topology
#include "amber99sb-ildn.ff/tip3p.itp"

#ifdef POSRES_WATER
; Position restraint for each water oxygen
[ position_restraints ]
;  i funct       fcx        fcy        fcz
   1    1       1000       1000       1000
#endif

; Include topology for ions
#include "amber99sb-ildn.ff/ions.itp"

[ system ]
; Name
UNNAMED

[ molecules ]
; Compound        #mols
Protein_chain_A     1
