UNNAMED
  350
    1LEU      N    1  -0.508  -0.197   1.587
    1LEU     H1    2  -0.497  -0.297   1.586
    1LEU     H2    3  -0.429  -0.156   1.632
    1LEU     H3    4  -0.591  -0.174   1.638
    1LEU     CA    5  -0.519  -0.147   1.450
    1LEU     HA    6  -0.601  -0.193   1.415
    1LEU     CB    7  -0.536   0.006   1.449
    1LEU    HB1    8  -0.539   0.035   1.353
    1LEU    HB2    9  -0.455   0.045   1.492
    1LEU     CG   10  -0.660   0.065   1.519
    1LEU     HG   11  -0.661   0.028   1.612
    1LEU    CD1   12  -0.792   0.022   1.454
    1LEU   HD11   13  -0.869   0.063   1.503
    1LEU   HD12   14  -0.794   0.053   1.359
    1LEU   HD13   15  -0.800  -0.077   1.457
    1LEU    CD2   16  -0.651   0.218   1.525
    1LEU   HD21   17  -0.733   0.255   1.571
    1LEU   HD22   18  -0.570   0.245   1.575
    1LEU   HD23   19  -0.647   0.255   1.432
    1LEU      C   20  -0.403  -0.189   1.361
    1LEU      O   21  -0.294  -0.212   1.411
    2ILE      N   22  -0.420  -0.193   1.225
    2ILE      H   23  -0.513  -0.179   1.191
    2ILE     CA   24  -0.315  -0.215   1.124
    2ILE     HA   25  -0.260  -0.288   1.165
    2ILE     CB   26  -0.369  -0.267   0.988
    2ILE     HB   27  -0.290  -0.276   0.928
    2ILE    CG2   28  -0.433  -0.406   1.004
    2ILE   HG21   29  -0.467  -0.438   0.916
    2ILE   HG22   30  -0.364  -0.470   1.038
    2ILE   HG23   31  -0.509  -0.400   1.069
    2ILE    CG1   32  -0.462  -0.168   0.913
    2ILE   HG11   33  -0.419  -0.077   0.915
    2ILE   HG12   34  -0.549  -0.164   0.962
    2ILE     CD   35  -0.491  -0.201   0.767
    2ILE    HD1   36  -0.552  -0.131   0.729
    2ILE    HD2   37  -0.406  -0.203   0.715
    2ILE    HD3   38  -0.536  -0.290   0.761
    2ILE      C   39  -0.228  -0.093   1.108
    2ILE      O   40  -0.112  -0.109   1.071
    3SER      N   41  -0.275   0.034   1.128
    3SER      H   42  -0.372   0.044   1.151
    3SER     CA   43  -0.197   0.158   1.119
    3SER     HA   44  -0.138   0.147   1.038
    3SER     CB   45  -0.286   0.282   1.099
    3SER    HB1   46  -0.230   0.363   1.084
    3SER    HB2   47  -0.345   0.296   1.178
    3SER     OG   48  -0.369   0.268   0.987
    3SER     HG   49  -0.425   0.350   0.977
    3SER      C   50  -0.110   0.174   1.241
    3SER      O   51   0.007   0.203   1.225
    4GLY      N   52  -0.158   0.150   1.367
    4GLY      H   53  -0.256   0.131   1.375
    4GLY     CA   54  -0.080   0.149   1.491
    4GLY    HA1   55  -0.143   0.133   1.567
    4GLY    HA2   56  -0.038   0.240   1.501
    4GLY      C   57   0.028   0.044   1.492
    4GLY      O   58   0.132   0.070   1.551
    5LEU      N   59   0.014  -0.075   1.426
    5LEU      H   60  -0.075  -0.093   1.385
    5LEU     CA   61   0.116  -0.179   1.411
    5LEU     HA   62   0.150  -0.199   1.503
    5LEU     CB   63   0.057  -0.308   1.349
    5LEU    HB1   64   0.014  -0.281   1.263
    5LEU    HB2   65  -0.012  -0.342   1.412
    5LEU     CG   66   0.152  -0.426   1.317
    5LEU     HG   67   0.223  -0.389   1.257
    5LEU    CD1   68   0.078  -0.537   1.242
    5LEU   HD11   69   0.141  -0.612   1.223
    5LEU   HD12   70   0.003  -0.571   1.299
    5LEU   HD13   71   0.041  -0.502   1.156
    5LEU    CD2   72   0.224  -0.481   1.440
    5LEU   HD21   73   0.284  -0.556   1.413
    5LEU   HD22   74   0.280  -0.408   1.481
    5LEU   HD23   75   0.157  -0.513   1.506
    5LEU      C   76   0.230  -0.126   1.327
    5LEU      O   77   0.344  -0.142   1.366
    6ALA      N   78   0.204  -0.073   1.204
    6ALA      H   79   0.108  -0.056   1.180
    6ALA     CA   80   0.304  -0.037   1.103
    6ALA     HA   81   0.388  -0.005   1.146
    6ALA     CB   82   0.335  -0.163   1.023
    6ALA    HB1   83   0.403  -0.141   0.953
    6ALA    HB2   84   0.371  -0.233   1.084
    6ALA    HB3   85   0.252  -0.196   0.979
    6ALA      C   86   0.254   0.081   1.023
    6ALA      O   87   0.196   0.062   0.918
    7ALA      N   88   0.264   0.208   1.074
    7ALA      H   89   0.310   0.219   1.162
    7ALA     CA   90   0.213   0.329   1.008
    7ALA     HA   91   0.120   0.305   0.980
    7ALA     CB   92   0.209   0.448   1.104
    7ALA    HB1   93   0.173   0.529   1.056
    7ALA    HB2   94   0.150   0.427   1.182
    7ALA    HB3   95   0.301   0.467   1.137
    7ALA      C   96   0.293   0.365   0.886
    7ALA      O   97   0.234   0.410   0.789
    8ASN      N   98   0.429   0.350   0.883
    8ASN      H   99   0.472   0.313   0.966
    8ASN     CA  100   0.517   0.382   0.771
    8ASN     HA  101   0.471   0.455   0.722
    8ASN     CB  102   0.656   0.429   0.821
    8ASN    HB1  103   0.712   0.453   0.742
    8ASN    HB2  104   0.699   0.354   0.871
    8ASN     CG  105   0.649   0.549   0.911
    8ASN    OD1  106   0.601   0.653   0.870
    8ASN    ND2  107   0.695   0.543   1.040
    8ASN   HD21  108   0.734   0.458   1.075
    8ASN   HD22  109   0.689   0.624   1.098
    8ASN      C  110   0.531   0.266   0.674
    8ASN      O  111   0.586   0.291   0.568
    9PHE      N  112   0.481   0.140   0.697
    9PHE      H  113   0.436   0.125   0.784
    9PHE     CA  114   0.489   0.026   0.604
    9PHE     HA  115   0.564   0.050   0.543
    9PHE     CB  116   0.521  -0.106   0.675
    9PHE    HB1  117   0.525  -0.179   0.606
    9PHE    HB2  118   0.447  -0.126   0.739
    9PHE     CG  119   0.651  -0.107   0.752
    9PHE    CD1  120   0.761  -0.181   0.704
    9PHE    HD1  121   0.754  -0.229   0.617
    9PHE    CE1  122   0.880  -0.189   0.779
    9PHE    HE1  123   0.956  -0.244   0.744
    9PHE     CZ  124   0.892  -0.121   0.900
    9PHE     HZ  125   0.977  -0.128   0.953
    9PHE    CE2  126   0.785  -0.045   0.948
    9PHE    HE2  127   0.793   0.005   1.034
    9PHE    CD2  128   0.665  -0.038   0.875
    9PHE    HD2  129   0.589   0.016   0.910
    9PHE      C  130   0.361   0.012   0.525
    9PHE      O  131   0.371  -0.043   0.417
   10LEU      N  132   0.238   0.056   0.567
   10LEU      H  133   0.231   0.091   0.660
   10LEU     CA  134   0.117   0.056   0.484
   10LEU     HA  135   0.112  -0.039   0.454
   10LEU     CB  136  -0.012   0.090   0.562
   10LEU    HB1  137  -0.087   0.092   0.495
   10LEU    HB2  138   0.000   0.181   0.601
   10LEU     CG  139  -0.054  -0.005   0.676
   10LEU     HG  140   0.024  -0.013   0.737
   10LEU    CD1  141  -0.085  -0.148   0.631
   10LEU   HD11  142  -0.112  -0.203   0.710
   10LEU   HD12  143  -0.160  -0.147   0.564
   10LEU   HD13  144  -0.004  -0.188   0.588
   10LEU    CD2  145  -0.174   0.054   0.751
   10LEU   HD21  146  -0.201  -0.008   0.824
   10LEU   HD22  147  -0.149   0.142   0.789
   10LEU   HD23  148  -0.251   0.065   0.687
   10LEU      C  149   0.130   0.146   0.362
   10LEU      O  150   0.082   0.100   0.260
   11PRO      N  151   0.189   0.270   0.358
   11PRO     CD  152   0.236   0.350   0.472
   11PRO    HD1  153   0.289   0.292   0.534
   11PRO    HD2  154   0.157   0.388   0.521
   11PRO     CG  155   0.321   0.460   0.412
   11PRO    HG1  156   0.415   0.429   0.395
   11PRO    HG2  157   0.324   0.541   0.471
   11PRO     CB  158   0.247   0.488   0.283
   11PRO    HB1  159   0.305   0.536   0.218
   11PRO    HB2  160   0.164   0.542   0.300
   11PRO     CA  161   0.213   0.347   0.235
   11PRO     HA  162   0.131   0.343   0.178
   11PRO      C  163   0.322   0.289   0.146
   11PRO      O  164   0.322   0.322   0.029
   12GLN      N  165   0.418   0.203   0.192
   12GLN      H  166   0.418   0.184   0.291
   12GLN     CA  167   0.523   0.135   0.114
   12GLN     HA  168   0.551   0.204   0.047
   12GLN     CB  169   0.642   0.092   0.203
   12GLN    HB1  170   0.707   0.042   0.146
   12GLN    HB2  171   0.607   0.032   0.275
   12GLN     CG  172   0.717   0.208   0.270
   12GLN    HG1  173   0.651   0.264   0.319
   12GLN    HG2  174   0.761   0.262   0.199
   12GLN     CD  175   0.824   0.167   0.369
   12GLN    OE1  176   0.869   0.054   0.369
   12GLN    NE2  177   0.872   0.257   0.459
   12GLN   HE21  178   0.836   0.351   0.460
   12GLN   HE22  179   0.942   0.230   0.525
   12GLN      C  180   0.470   0.012   0.042
   12GLN      O  181   0.522  -0.020  -0.063
   13ILE      N  182   0.371  -0.065   0.096
   13ILE      H  183   0.337  -0.036   0.185
   13ILE     CA  184   0.307  -0.185   0.040
   13ILE     HA  185   0.377  -0.239  -0.007
   13ILE     CB  186   0.245  -0.274   0.153
   13ILE     HB  187   0.180  -0.215   0.201
   13ILE    CG2  188   0.164  -0.394   0.098
   13ILE   HG21  189   0.127  -0.446   0.175
   13ILE   HG22  190   0.089  -0.360   0.042
   13ILE   HG23  191   0.224  -0.452   0.044
   13ILE    CG1  192   0.352  -0.323   0.253
   13ILE   HG11  193   0.415  -0.247   0.271
   13ILE   HG12  194   0.402  -0.398   0.211
   13ILE     CD  195   0.298  -0.372   0.388
   13ILE    HD1  196   0.375  -0.401   0.446
   13ILE    HD2  197   0.249  -0.298   0.433
   13ILE    HD3  198   0.237  -0.449   0.373
   13ILE      C  199   0.204  -0.141  -0.061
   13ILE      O  200   0.191  -0.207  -0.163
   14LEU      N  201   0.126  -0.030  -0.041
   14LEU      H  202   0.137   0.015   0.048
   14LEU     CA  203   0.029   0.031  -0.133
   14LEU     HA  204  -0.028  -0.045  -0.165
   14LEU     CB  205  -0.059   0.134  -0.062
   14LEU    HB1  206   0.001   0.206  -0.027
   14LEU    HB2  207  -0.104   0.088   0.015
   14LEU     CG  208  -0.170   0.203  -0.144
   14LEU     HG  209  -0.125   0.247  -0.222
   14LEU    CD1  210  -0.272   0.105  -0.204
   14LEU   HD11  211  -0.340   0.156  -0.256
   14LEU   HD12  212  -0.225   0.041  -0.265
   14LEU   HD13  213  -0.316   0.055  -0.130
   14LEU    CD2  214  -0.241   0.310  -0.061
   14LEU   HD21  215  -0.312   0.354  -0.116
   14LEU   HD22  216  -0.283   0.268   0.020
   14LEU   HD23  217  -0.175   0.379  -0.032
   14LEU      C  218   0.101   0.092  -0.251
   14LEU      O  219   0.045   0.089  -0.359
   15LYS      N  220   0.224   0.151  -0.239
   15LYS      H  221   0.262   0.155  -0.146
   15LYS     CA  222   0.307   0.207  -0.347
   15LYS     HA  223   0.246   0.261  -0.405
   15LYS     CB  224   0.415   0.299  -0.287
   15LYS    HB1  225   0.474   0.244  -0.228
   15LYS    HB2  226   0.369   0.369  -0.232
   15LYS     CG  227   0.506   0.371  -0.387
   15LYS    HG1  228   0.449   0.426  -0.449
   15LYS    HG2  229   0.557   0.303  -0.439
   15LYS     CD  230   0.606   0.465  -0.318
   15LYS    HD1  231   0.661   0.411  -0.254
   15LYS    HD2  232   0.555   0.535  -0.268
   15LYS     CE  233   0.701   0.533  -0.417
   15LYS    HE1  234   0.648   0.587  -0.482
   15LYS    HE2  235   0.753   0.464  -0.466
   15LYS     NZ  236   0.796   0.623  -0.352
   15LYS    HZ1  237   0.855   0.664  -0.422
   15LYS    HZ2  238   0.747   0.694  -0.303
   15LYS    HZ3  239   0.852   0.571  -0.288
   15LYS      C  240   0.366   0.098  -0.433
   15LYS      O  241   0.386   0.123  -0.551
   16LYS      N  242   0.401  -0.024  -0.382
   16LYS      H  243   0.386  -0.038  -0.284
   16LYS     CA  244   0.459  -0.137  -0.456
   16LYS     HA  245   0.532  -0.100  -0.513
   16LYS     CB  246   0.514  -0.241  -0.356
   16LYS    HB1  247   0.437  -0.278  -0.304
   16LYS    HB2  248   0.577  -0.194  -0.294
   16LYS     CG  249   0.590  -0.360  -0.417
   16LYS    HG1  250   0.667  -0.325  -0.470
   16LYS    HG2  251   0.528  -0.409  -0.478
   16LYS     CD  252   0.642  -0.457  -0.311
   16LYS    HD1  253   0.564  -0.490  -0.257
   16LYS    HD2  254   0.705  -0.407  -0.251
   16LYS     CE  255   0.716  -0.580  -0.366
   16LYS    HE1  256   0.657  -0.627  -0.431
   16LYS    HE2  257   0.739  -0.641  -0.290
   16LYS     NZ  258   0.841  -0.549  -0.435
   16LYS    HZ1  259   0.882  -0.635  -0.467
   16LYS    HZ2  260   0.822  -0.490  -0.513
   16LYS    HZ3  261   0.904  -0.503  -0.372
   16LYS      C  262   0.356  -0.199  -0.549
   16LYS      O  263   0.391  -0.229  -0.662
   17ILE      N  264   0.229  -0.222  -0.507
   17ILE      H  265   0.208  -0.196  -0.413
   17ILE     CA  266   0.117  -0.282  -0.583
   17ILE     HA  267   0.161  -0.350  -0.640
   17ILE     CB  268   0.014  -0.353  -0.489
   17ILE     HB  269  -0.055  -0.396  -0.548
   17ILE    CG2  270   0.082  -0.465  -0.408
   17ILE   HG21  271   0.014  -0.509  -0.349
   17ILE   HG22  272   0.121  -0.532  -0.471
   17ILE   HG23  273   0.154  -0.425  -0.352
   17ILE    CG1  274  -0.068  -0.255  -0.401
   17ILE   HG11  275  -0.113  -0.189  -0.461
   17ILE   HG12  276  -0.004  -0.207  -0.341
   17ILE     CD  277  -0.177  -0.314  -0.311
   17ILE    HD1  278  -0.221  -0.240  -0.260
   17ILE    HD2  279  -0.245  -0.361  -0.367
   17ILE    HD3  280  -0.136  -0.379  -0.247
   17ILE      C  281   0.053  -0.182  -0.677
   17ILE      O  282  -0.004  -0.224  -0.776
   18ALA      N  283   0.054  -0.047  -0.650
   18ALA      H  284   0.095  -0.020  -0.563
   18ALA     CA  285   0.002   0.061  -0.735
   18ALA     HA  286  -0.078   0.022  -0.781
   18ALA     CB  287  -0.040   0.182  -0.650
   18ALA    HB1  288  -0.075   0.254  -0.710
   18ALA    HB2  289  -0.112   0.154  -0.586
   18ALA    HB3  290   0.039   0.216  -0.599
   18ALA      C  291   0.102   0.101  -0.840
   18ALA      O  292   0.060   0.157  -0.940
   19ARG      N  293   0.235   0.072  -0.830
   19ARG      H  294   0.267   0.037  -0.741
   19ARG     CA  295   0.336   0.086  -0.935
   19ARG     HA  296   0.322   0.175  -0.979
   19ARG     CB  297   0.478   0.083  -0.876
   19ARG    HB1  298   0.493  -0.008  -0.836
   19ARG    HB2  299   0.484   0.152  -0.804
   19ARG     CG  300   0.591   0.109  -0.977
   19ARG    HG1  301   0.578   0.201  -1.016
   19ARG    HG2  302   0.585   0.041  -1.050
   19ARG     CD  303   0.731   0.103  -0.917
   19ARG    HD1  304   0.799   0.123  -0.987
   19ARG    HD2  305   0.748   0.012  -0.879
   19ARG     NE  306   0.748   0.200  -0.809
   19ARG     HE  307   0.664   0.228  -0.762
   19ARG     CZ  308   0.864   0.257  -0.765
   19ARG    NH1  309   0.979   0.184  -0.758
   19ARG   HH11  310   0.980   0.088  -0.786
   19ARG   HH12  311   1.063   0.227  -0.726
   19ARG    NH2  312   0.862   0.387  -0.726
   19ARG   HH21  313   0.776   0.439  -0.730
   19ARG   HH22  314   0.946   0.431  -0.694
   19ARG      C  315   0.314  -0.023  -1.038
   19ARG      O  316   0.322   0.007  -1.157
   20LYS      N  317   0.282  -0.150  -1.001
   20LYS      H  318   0.280  -0.169  -0.902
   20LYS     CA  319   0.250  -0.262  -1.090
   20LYS     HA  320   0.328  -0.270  -1.152
   20LYS     CB  321   0.232  -0.394  -1.012
   20LYS    HB1  322   0.151  -0.385  -0.954
   20LYS    HB2  323   0.313  -0.407  -0.955
   20LYS     CG  324   0.213  -0.519  -1.099
   20LYS    HG1  325   0.293  -0.527  -1.159
   20LYS    HG2  326   0.131  -0.506  -1.155
   20LYS     CD  327   0.198  -0.648  -1.019
   20LYS    HD1  328   0.116  -0.640  -0.962
   20LYS    HD2  329   0.279  -0.658  -0.960
   20LYS     CE  330   0.186  -0.775  -1.105
   20LYS    HE1  331   0.182  -0.855  -1.045
   20LYS    HE2  332   0.266  -0.782  -1.164
   20LYS     NZ  333   0.068  -0.780  -1.191
   20LYS    HZ1  334   0.068  -0.866  -1.242
   20LYS    HZ2  335  -0.015  -0.776  -1.134
   20LYS    HZ3  336   0.070  -0.703  -1.254
   20LYS      C  337   0.128  -0.231  -1.175
   20LYS      O  338   0.128  -0.269  -1.291
   21SER      N  339   0.019  -0.163  -1.126
   21SER      H  340   0.024  -0.131  -1.031
   21SER     CA  341  -0.104  -0.132  -1.201
   21SER     HA  342  -0.136  -0.222  -1.229
   21SER     CB  343  -0.212  -0.065  -1.114
   21SER    HB1  344  -0.233  -0.122  -1.034
   21SER    HB2  345  -0.295  -0.050  -1.167
   21SER     OG  346  -0.174   0.060  -1.064
   21SER     HG  347  -0.248   0.099  -1.009
   21SER      C  348  -0.077  -0.051  -1.326
   21SER    OC1  349   0.006   0.052  -1.330
   21SER    OC2  350  -0.133  -0.082  -1.430
   1.93222   1.56052   3.06755
