Peptide + Mycolic Acid Membrane + Water
44182
    1LEU      N    1   2.076   3.596   1.416
    1LEU     H1    2   2.096   3.497   1.403
    1LEU     H2    3   2.157   3.639   1.459
    1LEU     H3    4   1.997   3.603   1.479
    1LEU     CA    5   2.042   3.659   1.285
    1LEU     HA    6   1.947   3.620   1.251
    1LEU     CB    7   2.035   3.811   1.302
    1LEU    HB1    8   2.054   3.859   1.206
    1LEU    HB2    9   2.113   3.844   1.369
    1LEU     CG   10   1.905   3.867   1.357
    1LEU     HG   11   1.889   3.831   1.458
    1LEU    CD1   12   1.784   3.835   1.272
    1LEU   HD11   13   1.696   3.875   1.321
    1LEU   HD12   14   1.795   3.879   1.173
    1LEU   HD13   15   1.770   3.728   1.263
    1LEU    CD2   16   1.921   4.018   1.360
    1LEU   HD21   17   1.824   4.063   1.375
    1LEU   HD22   18   1.988   4.046   1.441
    1LEU   HD23   19   1.960   4.056   1.265
    1LEU      C   20   2.148   3.627   1.178
    1LEU      O   21   2.252   3.571   1.213
    2ILE      N   22   2.133   3.673   1.053
    2ILE      H   23   2.043   3.711   1.026
    2ILE     CA   24   2.245   3.677   0.954
    2ILE     HA   25   2.318   3.609   0.994
    2ILE     CB   26   2.218   3.608   0.819
    2ILE     HB   27   2.316   3.583   0.777
    2ILE    CG2   28   2.144   3.476   0.841
    2ILE   HG21   29   2.122   3.427   0.746
    2ILE   HG22   30   2.208   3.409   0.898
    2ILE   HG23   31   2.052   3.491   0.896
    2ILE    CG1   32   2.152   3.704   0.719
    2ILE   HG11   33   2.219   3.787   0.700
    2ILE   HG12   34   2.062   3.745   0.762
    2ILE     CD   35   2.124   3.641   0.582
    2ILE    HD1   36   2.097   3.721   0.514
    2ILE    HD2   37   2.214   3.592   0.545
    2ILE    HD3   38   2.043   3.569   0.587
    2ILE      C   39   2.319   3.812   0.943
    2ILE      O   40   2.407   3.826   0.858
    3SER      N   41   2.290   3.911   1.028
    3SER      H   42   2.206   3.903   1.083
    3SER     CA   43   2.364   4.039   1.031
    3SER     HA   44   2.418   4.050   0.937
    3SER     CB   45   2.267   4.158   1.037
    3SER    HB1   46   2.324   4.251   1.027
    3SER    HB2   47   2.213   4.157   1.130
    3SER     OG   48   2.175   4.149   0.931
    3SER     HG   49   2.178   4.235   0.884
    3SER      C   50   2.472   4.053   1.139
    3SER      O   51   2.537   4.156   1.149
    4GLY      N   52   2.500   3.948   1.216
    4GLY      H   53   2.445   3.864   1.203
    4GLY     CA   54   2.576   3.956   1.342
    4GLY    HA1   55   2.506   3.969   1.423
    4GLY    HA2   56   2.636   4.047   1.343
    4GLY      C   57   2.669   3.837   1.376
    4GLY      O   58   2.739   3.846   1.476
    5LEU      N   59   2.675   3.731   1.295
    5LEU      H   60   2.609   3.727   1.219
    5LEU     CA   61   2.784   3.631   1.293
    5LEU     HA   62   2.826   3.624   1.394
    5LEU     CB   63   2.727   3.490   1.256
    5LEU    HB1   64   2.661   3.501   1.172
    5LEU    HB2   65   2.664   3.457   1.338
    5LEU     CG   66   2.822   3.373   1.217
    5LEU     HG   67   2.911   3.412   1.168
    5LEU    CD1   68   2.758   3.270   1.123
    5LEU   HD11   69   2.836   3.204   1.087
    5LEU   HD12   70   2.684   3.210   1.174
    5LEU   HD13   71   2.712   3.319   1.038
    5LEU    CD2   72   2.861   3.287   1.336
    5LEU   HD21   73   2.910   3.196   1.305
    5LEU   HD22   74   2.930   3.342   1.398
    5LEU   HD23   75   2.772   3.258   1.392
    5LEU      C   76   2.900   3.678   1.203
    5LEU      O   77   3.015   3.642   1.229
    6ALA      N   78   2.875   3.755   1.096
    6ALA      H   79   2.781   3.787   1.078
    6ALA     CA   80   2.979   3.789   0.997
    6ALA     HA   81   3.071   3.809   1.051
    6ALA     CB   82   3.002   3.663   0.914
    6ALA    HB1   83   3.093   3.672   0.856
    6ALA    HB2   84   3.013   3.576   0.978
    6ALA    HB3   85   2.919   3.646   0.848
    6ALA      C   86   2.951   3.916   0.911
    6ALA      O   87   2.952   3.909   0.788
    7ALA      N   88   2.933   4.034   0.972
    7ALA      H   89   2.929   4.030   1.074
    7ALA     CA   90   2.883   4.159   0.912
    7ALA     HA   91   2.787   4.138   0.868
    7ALA     CB   92   2.857   4.262   1.023
    7ALA    HB1   93   2.815   4.353   0.980
    7ALA    HB2   94   2.786   4.223   1.095
    7ALA    HB3   95   2.950   4.288   1.073
    7ALA      C   96   2.969   4.224   0.801
    7ALA      O   97   2.928   4.323   0.742
    8ASN      N   98   3.084   4.165   0.769
    8ASN      H   99   3.109   4.086   0.827
    8ASN     CA  100   3.174   4.203   0.661
    8ASN     HA  101   3.128   4.284   0.603
    8ASN     CB  102   3.304   4.256   0.722
    8ASN    HB1  103   3.379   4.265   0.644
    8ASN    HB2  104   3.340   4.185   0.795
    8ASN     CG  105   3.294   4.389   0.792
    8ASN    OD1  106   3.213   4.474   0.759
    8ASN    ND2  107   3.377   4.411   0.891
    8ASN   HD21  108   3.449   4.344   0.914
    8ASN   HD22  109   3.378   4.506   0.928
    8ASN      C  110   3.200   4.089   0.560
    8ASN      O  111   3.285   4.106   0.472
    9PHE      N  112   3.124   3.979   0.564
    9PHE      H  113   3.052   3.973   0.636
    9PHE     CA  114   3.131   3.868   0.467
    9PHE     HA  115   3.223   3.877   0.409
    9PHE     CB  116   3.140   3.734   0.541
    9PHE    HB1  117   3.114   3.653   0.473
    9PHE    HB2  118   3.068   3.736   0.622
    9PHE     CG  119   3.274   3.702   0.602
    9PHE    CD1  120   3.368   3.622   0.535
    9PHE    HD1  121   3.345   3.579   0.439
    9PHE    CE1  122   3.496   3.604   0.590
    9PHE    HE1  123   3.571   3.550   0.536
    9PHE     CZ  124   3.526   3.660   0.716
    9PHE     HZ  125   3.625   3.649   0.758
    9PHE    CE2  126   3.428   3.729   0.787
    9PHE    HE2  127   3.448   3.768   0.886
    9PHE    CD2  128   3.303   3.753   0.729
    9PHE    HD2  129   3.230   3.812   0.781
    9PHE      C  130   3.017   3.868   0.364
    9PHE      O  131   3.047   3.856   0.246
   10LEU      N  132   2.889   3.886   0.401
   10LEU      H  133   2.869   3.868   0.499
   10LEU     CA  134   2.776   3.880   0.305
   10LEU     HA  135   2.776   3.779   0.264
   10LEU     CB  136   2.636   3.899   0.368
   10LEU    HB1  137   2.561   3.892   0.289
   10LEU    HB2  138   2.629   3.998   0.413
   10LEU     CG  139   2.605   3.793   0.474
   10LEU     HG  140   2.680   3.808   0.550
   10LEU    CD1  141   2.610   3.649   0.427
   10LEU   HD11  142   2.610   3.585   0.514
   10LEU   HD12  143   2.525   3.626   0.362
   10LEU   HD13  144   2.701   3.628   0.374
   10LEU    CD2  145   2.467   3.807   0.536
   10LEU   HD21  146   2.458   3.740   0.621
   10LEU   HD22  147   2.456   3.909   0.570
   10LEU   HD23  148   2.389   3.786   0.463
   10LEU      C  149   2.789   3.964   0.177
   10LEU      O  150   2.772   3.902   0.073
   11PRO      N  151   2.826   4.093   0.175
   11PRO     CD  152   2.808   4.189   0.281
   11PRO    HD1  153   2.872   4.164   0.364
   11PRO    HD2  154   2.703   4.191   0.311
   11PRO     CG  155   2.850   4.325   0.227
   11PRO    HG1  156   2.945   4.351   0.271
   11PRO    HG2  157   2.776   4.402   0.252
   11PRO     CB  158   2.865   4.310   0.077
   11PRO    HB1  159   2.960   4.351   0.042
   11PRO    HB2  160   2.782   4.360   0.028
   11PRO     CA  161   2.856   4.160   0.050
   11PRO     HA  162   2.768   4.147  12.850
   11PRO      C  163   2.974   4.098  12.834
   11PRO      O  164   2.975   4.106  12.713
   12GLN      N  165   3.066   4.024   0.034
   12GLN      H  166   3.064   4.018   0.135
   12GLN     CA  167   3.159   3.935  12.825
   12GLN     HA  168   3.196   3.990  12.738
   12GLN     CB  169   3.285   3.903   0.047
   12GLN    HB1  170   3.352   3.845  12.845
   12GLN    HB2  171   3.260   3.840   0.131
   12GLN     CG  172   3.362   4.026   0.099
   12GLN    HG1  173   3.304   4.073   0.177
   12GLN    HG2  174   3.376   4.099   0.019
   12GLN     CD  175   3.498   3.992   0.159
   12GLN    OE1  176   3.560   3.893   0.126
   12GLN    NE2  177   3.550   4.072   0.250
   12GLN   HE21  178   3.510   4.163   0.265
   12GLN   HE22  179   3.634   4.040   0.297
   12GLN      C  180   3.092   3.807  12.769
   12GLN      O  181   3.121   3.773  12.654
   13ILE      N  182   2.997   3.739  12.838
   13ILE      H  183   2.977   3.768   0.072
   13ILE     CA  184   2.910   3.634  12.776
   13ILE     HA  185   2.975   3.584  12.705
   13ILE     CB  186   2.871   3.513   0.005
   13ILE     HB  187   2.810   3.551   0.086
   13ILE    CG2  188   2.792   3.404  12.792
   13ILE   HG21  189   2.758   3.325  12.859
   13ILE   HG22  190   2.701   3.442  12.750
   13ILE   HG23  191   2.854   3.361  12.714
   13ILE    CG1  192   2.995   3.437   0.057
   13ILE   HG11  193   3.055   3.505   0.113
   13ILE   HG12  194   3.055   3.406  12.835
   13ILE     CD  195   2.970   3.311   0.141
   13ILE    HD1  196   3.065   3.274   0.180
   13ILE    HD2  197   2.902   3.335   0.223
   13ILE    HD3  198   2.927   3.230   0.082
   13ILE      C  199   2.793   3.694  12.692
   13ILE      O  200   2.731   3.624  12.613
   14LEU      N  201   2.782   3.827  12.680
   14LEU      H  202   2.823   3.882  12.754
   14LEU     CA  203   2.697   3.895  12.582
   14LEU     HA  204   2.619   3.826  12.550
   14LEU     CB  205   2.630   4.014  12.656
   14LEU    HB1  206   2.706   4.090  12.669
   14LEU    HB2  207   2.600   3.978  12.755
   14LEU     CG  208   2.508   4.085  12.596
   14LEU     HG  209   2.543   4.150  12.517
   14LEU    CD1  210   2.400   3.994  12.542
   14LEU   HD11  211   2.331   4.052  12.480
   14LEU   HD12  212   2.445   3.916  12.483
   14LEU   HD13  213   2.344   3.946  12.623
   14LEU    CD2  214   2.438   4.173  12.701
   14LEU   HD21  215   2.356   4.227  12.653
   14LEU   HD22  216   2.396   4.111  12.780
   14LEU   HD23  217   2.508   4.246  12.740
   14LEU      C  218   2.778   3.933  12.455
   14LEU      O  219   2.743   3.896  12.342
   15LYS      N  220   2.896   3.995  12.473
   15LYS      H  221   2.918   4.022  12.568
   15LYS     CA  222   2.980   4.053  12.366
   15LYS     HA  223   2.916   4.115  12.305
   15LYS     CB  224   3.082   4.149  12.431
   15LYS    HB1  225   3.154   4.091  12.489
   15LYS    HB2  226   3.028   4.215  12.499
   15LYS     CG  227   3.153   4.238  12.329
   15LYS    HG1  228   3.080   4.294  12.272
   15LYS    HG2  229   3.210   4.175  12.260
   15LYS     CD  230   3.249   4.335  12.398
   15LYS    HD1  231   3.297   4.285  12.482
   15LYS    HD2  232   3.192   4.420  12.436
   15LYS     CE  233   3.356   4.380  12.298
   15LYS    HE1  234   3.312   4.450  12.228
   15LYS    HE2  235   3.390   4.292  12.243
   15LYS     NZ  236   3.473   4.443  12.365
   15LYS    HZ1  237   3.544   4.470  12.299
   15LYS    HZ2  238   3.446   4.529  12.412
   15LYS    HZ3  239   3.515   4.381  12.435
   15LYS      C  240   3.046   3.951  12.271
   15LYS      O  241   3.076   3.985  12.157
   16LYS      N  242   3.059   3.825  12.312
   16LYS      H  243   3.028   3.807  12.406
   16LYS     CA  244   3.099   3.706  12.235
   16LYS     HA  245   3.135   3.737  12.137
   16LYS     CB  246   3.219   3.641  12.311
   16LYS    HB1  247   3.189   3.617  12.413
   16LYS    HB2  248   3.294   3.718  12.319
   16LYS     CG  249   3.293   3.518  12.253
   16LYS    HG1  250   3.390   3.550  12.218
   16LYS    HG2  251   3.238   3.477  12.170
   16LYS     CD  252   3.320   3.409  12.359
   16LYS    HD1  253   3.225   3.373  12.394
   16LYS    HD2  254   3.370   3.456  12.443
   16LYS     CE  255   3.395   3.282  12.319
   16LYS    HE1  256   3.331   3.218  12.258
   16LYS    HE2  257   3.416   3.225  12.411
   16LYS     NZ  258   3.521   3.306  12.247
   16LYS    HZ1  259   3.571   3.218  12.236
   16LYS    HZ2  260   3.504   3.348  12.156
   16LYS    HZ3  261   3.583   3.367  12.300
   16LYS      C  262   2.979   3.612  12.206
   16LYS      O  263   3.001   3.493  12.184
   17ILE      N  264   2.852   3.657  12.207
   17ILE      H  265   2.833   3.749  12.243
   17ILE     CA  266   2.743   3.584  12.136
   17ILE     HA  267   2.793   3.508  12.080
   17ILE     CB  268   2.647   3.498  12.222
   17ILE     HB  269   2.605   3.425  12.153
   17ILE    CG2  270   2.723   3.417  12.328
   17ILE   HG21  271   2.658   3.346  12.378
   17ILE   HG22  272   2.802   3.360  12.281
   17ILE   HG23  273   2.763   3.484  12.403
   17ILE    CG1  274   2.528   3.568  12.290
   17ILE   HG11  275   2.490   3.643  12.223
   17ILE   HG12  276   2.560   3.617  12.381
   17ILE     CD  277   2.414   3.468  12.320
   17ILE    HD1  278   2.337   3.516  12.379
   17ILE    HD2  279   2.370   3.433  12.227
   17ILE    HD3  280   2.448   3.383  12.376
   17ILE      C  281   2.679   3.662  12.021
   17ILE      O  282   2.669   3.605  11.912
   18ALA      N  283   2.658   3.793  12.034
   18ALA      H  284   2.656   3.835  12.126
   18ALA     CA  285   2.630   3.879  11.918
   18ALA     HA  286   2.572   3.818  11.849
   18ALA     CB  287   2.536   3.995  11.953
   18ALA    HB1  288   2.515   4.053  11.864
   18ALA    HB2  289   2.441   3.957  11.991
   18ALA    HB3  290   2.581   4.061  12.028
   18ALA      C  291   2.755   3.924  11.837
   18ALA      O  292   2.747   4.021  11.762
   19ARG      N  293   2.871   3.857  11.851
   19ARG      H  294   2.874   3.779  11.916
   19ARG     CA  295   2.987   3.874  11.760
   19ARG     HA  296   2.985   3.976  11.722
   19ARG     CB  297   3.122   3.857  11.834
   19ARG    HB1  298   3.133   3.758  11.874
   19ARG    HB2  299   3.126   3.927  11.917
   19ARG     CG  300   3.238   3.885  11.737
   19ARG    HG1  301   3.210   3.971  11.676
   19ARG    HG2  302   3.249   3.800  11.670
   19ARG     CD  303   3.377   3.917  11.792
   19ARG    HD1  304   3.440   3.942  11.707
   19ARG    HD2  305   3.422   3.830  11.839
   19ARG     NE  306   3.375   4.032  11.884
   19ARG     HE  307   3.284   4.071  11.905
   19ARG     CZ  308   3.479   4.105  11.918
   19ARG    NH1  309   3.601   4.072  11.884
   19ARG   HH11  310   3.617   3.985  11.835
   19ARG   HH12  311   3.674   4.142  11.881
   19ARG    NH2  312   3.464   4.216  11.984
   19ARG   HH21  313   3.371   4.255  11.992
   19ARG   HH22  314   3.542   4.279  11.986
   19ARG      C  315   2.975   3.785  11.635
   19ARG      O  316   3.035   3.813  11.531
   20LYS      N  317   2.899   3.676  11.645
   20LYS      H  318   2.853   3.664  11.734
   20LYS     CA  319   2.891   3.565  11.549
   20LYS     HA  320   2.978   3.569  11.482
   20LYS     CB  321   2.901   3.434  11.630
   20LYS    HB1  322   2.835   3.441  11.717
   20LYS    HB2  323   3.003   3.424  11.667
   20LYS     CG  324   2.863   3.307  11.553
   20LYS    HG1  325   2.926   3.298  11.464
   20LYS    HG2  326   2.759   3.315  11.523
   20LYS     CD  327   2.872   3.179  11.636
   20LYS    HD1  328   2.802   3.184  11.718
   20LYS    HD2  329   2.973   3.170  11.677
   20LYS     CE  330   2.843   3.054  11.553
   20LYS    HE1  331   2.821   2.972  11.622
   20LYS    HE2  332   2.933   3.027  11.498
   20LYS     NZ  333   2.731   3.068  11.457
   20LYS    HZ1  334   2.714   2.980  11.409
   20LYS    HZ2  335   2.646   3.096  11.505
   20LYS    HZ3  336   2.750   3.138  11.386
   20LYS      C  337   2.768   3.572  11.457
   20LYS      O  338   2.756   3.491  11.365
   21SER      N  339   2.674   3.660  11.486
   21SER      H  340   2.694   3.732  11.555
   21SER     CA  341   2.536   3.664  11.433
   21SER     HA  342   2.498   3.563  11.422
   21SER     CB  343   2.445   3.740  11.528
   21SER    HB1  344   2.384   3.669  11.583
   21SER    HB2  345   2.377   3.804  11.471
   21SER     OG  346   2.519   3.819  11.620
   21SER     HG  347   2.453   3.875  11.665
   21SER      C  348   2.522   3.727  11.296
   21SER    OC1  349   2.566   3.841  11.279
   21SER    OC2  350   2.457   3.659  11.213
   22MYC   HH15  351   0.703   6.200   6.635
   22MYC    C80  352   0.670   6.246   6.729
   22MYC   H100  353   0.736   6.331   6.751
   22MYC   H101  354   0.568   6.285   6.714
   22MYC    C79  355   0.674   6.144   6.844
   22MYC   H102  356   0.776   6.106   6.855
   22MYC   H103  357   0.610   6.059   6.818
   22MYC    C78  358   0.627   6.204   6.978
   22MYC   HH14  359   0.523   6.238   6.968
   22MYC   H104  360   0.687   6.293   7.000
   22MYC    C77  361   0.637   6.106   7.096
   22MYC   H106  362   0.741   6.074   7.107
   22MYC   H107  363   0.577   6.016   7.075
   22MYC    C76  364   0.590   6.170   7.228
   22MYC   H108  365   0.484   6.198   7.219
   22MYC   H109  366   0.646   6.262   7.245
   22MYC    C75  367   0.606   6.077   7.351
   22MYC   H110  368   0.711   6.046   7.358
   22MYC   H111  369   0.546   5.987   7.338
   22MYC    C74  370   0.566   6.148   7.481
   22MYC   H112  371   0.460   6.175   7.477
   22MYC   H113  372   0.622   6.242   7.489
   22MYC    C73  373   0.592   6.064   7.607
   22MYC   HH13  374   0.697   6.031   7.608
   22MYC   H114  375   0.530   5.974   7.605
   22MYC    C72  376   0.563   6.144   7.735
   22MYC   H115  377   0.457   6.173   7.737
   22MYC   H116  378   0.621   6.237   7.733
   22MYC    C71  379   0.597   6.068   7.865
   22MYC   H117  380   0.702   6.037   7.863
   22MYC   H118  381   0.536   5.976   7.871
   22MYC    C70  382   0.570   6.155   7.989
   22MYC   H119  383   0.463   6.180   7.992
   22MYC   H120  384   0.624   6.250   7.979
   22MYC    C69  385   0.610   6.089   8.121
   22MYC   H121  386   0.719   6.072   8.123
   22MYC   H122  387   0.561   5.990   8.129
   22MYC    C68  388   0.569   6.175   8.241
   22MYC   HH12  389   0.460   6.191   8.237
   22MYC   H123  390   0.615   6.274   8.233
   22MYC    C67  391   0.605   6.114   8.378
   22MYC   H124  392   0.714   6.116   8.391
   22MYC   H125  393   0.575   6.009   8.380
   22MYC    C66  394   0.536   6.188   8.493
   22MYC   H126  395   0.427   6.182   8.479
   22MYC   H127  396   0.563   6.295   8.489
   22MYC    C65  397   0.572   6.132   8.632
   22MYC   H128  398   0.676   6.157   8.654
   22MYC   H129  399   0.563   6.023   8.630
   22MYC    C64  400   0.480   6.189   8.742
   22MYC   H130  401   0.377   6.156   8.723
   22MYC   H131  402   0.481   6.298   8.738
   22MYC    C63  403   0.523   6.143   8.882
   22MYC   HH11  404   0.626   6.175   8.900
   22MYC   H132  405   0.523   6.033   8.886
   22MYC    C62  406   0.432   6.198   8.993
   22MYC   H133  407   0.329   6.164   8.978
   22MYC   H134  408   0.431   6.308   8.989
   22MYC    C61  409   0.481   6.153   9.132
   22MYC   H135  410   0.587   6.178   9.143
   22MYC   H136  411   0.474   6.044   9.139
   22MYC    C60  412   0.402   6.215   9.246
   22MYC   H137  413   0.295   6.193   9.241
   22MYC    C58  414   0.464   6.217   9.383
   22MYC   H138  415   0.568   6.183   9.389
   22MYC    C59  416   0.441   6.347   9.308
   22MYC   H139  417   0.361   6.412   9.344
   22MYC   H140  418   0.527   6.399   9.267
   22MYC    C57  419   0.383   6.178   9.505
   22MYC   HH10  420   0.372   6.069   9.507
   22MYC   H141  421   0.282   6.220   9.499
   22MYC    C56  422   0.450   6.225   9.635
   22MYC   H142  423   0.456   6.335   9.634
   22MYC   H143  424   0.554   6.188   9.638
   22MYC    C55  425   0.377   6.179   9.761
   22MYC   H144  426   0.378   6.069   9.765
   22MYC   H145  427   0.272   6.210   9.756
   22MYC    C54  428   0.442   6.235   9.889
   22MYC   H146  429   0.440   6.345   9.884
   22MYC   H147  430   0.547   6.204   9.892
   22MYC    C53  431   0.372   6.189  10.018
   22MYC   H148  432   0.382   6.080  10.026
   22MYC   H149  433   0.265   6.211  10.011
   22MYC    C52  434   0.430   6.257  10.144
   22MYC    H99  435   0.411   6.365  10.140
   22MYC   H150  436   0.538   6.242  10.147
   22MYC    C51  437   0.368   6.198  10.272
   22MYC    H97  438   0.391   6.091  10.275
   22MYC    H98  439   0.259   6.207  10.267
   22MYC    C50  440   0.417   6.264  10.403
   22MYC    H95  441   0.375   6.365  10.412
   22MYC    H96  442   0.526   6.274  10.400
   22MYC    C49  443   0.377   6.177  10.524
   22MYC    H93  444   0.426   6.080  10.512
   22MYC    H94  445   0.270   6.158  10.522
   22MYC    C48  446   0.414   6.235  10.663
   22MYC    H91  447   0.346   6.317  10.688
   22MYC    H92  448   0.516   6.276  10.661
   22MYC    C47  449   0.406   6.124  10.771
   22MYC    H89  450   0.481   6.047  10.749
   22MYC    H90  451   0.308   6.076  10.764
   22MYC    C46  452   0.425   6.172  10.915
   22MYC    H87  453   0.349   6.248  10.938
   22MYC    H88  454   0.523   6.220  10.923
   22MYC    C45  455   0.414   6.056  11.017
   22MYC    H85  456   0.500   5.988  11.004
   22MYC    H86  457   0.325   5.997  10.994
   22MYC    C44  458   0.405   6.099  11.165
   22MYC    H83  459   0.398   6.010  11.227
   22MYC    H84  460   0.311   6.155  11.179
   22MYC    C18  461   0.523   6.184  11.211
   22MYC    H31  462   0.617   6.131  11.204
   22MYC    C17  463   0.523   6.332  11.183
   22MYC    H30  464   0.432   6.372  11.141
   22MYC    C19  465   0.512   6.281  11.326
   22MYC    H32  466   0.416   6.290  11.376
   22MYC    H33  467   0.599   6.294  11.390
   22MYC    C16  468   0.649   6.399  11.129
   22MYC    H28  469   0.690   6.340  11.046
   22MYC    H29  470   0.727   6.400  11.206
   22MYC    C15  471   0.624   0.094  11.080
   22MYC    H26  472   0.720   0.145  11.069
   22MYC    H27  473   0.568   0.148  11.156
   22MYC    C14  474   0.549   0.101  10.945
   22MYC    H24  475   0.449   0.058  10.956
   22MYC    H25  476   0.602   0.040  10.871
   22MYC    C13  477   0.536   0.245  10.891
   22MYC    H22  478   0.637   0.287  10.878
   22MYC    H23  479   0.485   0.307  10.965
   22MYC    C12  480   0.461   0.252  10.757
   22MYC    H20  481   0.360   0.211  10.770
   22MYC    H21  482   0.513   0.188  10.685
   22MYC    C11  483   0.452   0.396  10.702
   22MYC    H18  484   0.553   0.437  10.695
   22MYC    H19  485   0.398   0.459  10.773
   22MYC    C10  486   0.384   0.409  10.563
   22MYC    H16  487   0.384   0.514  10.535
   22MYC    H17  488   0.279   0.378  10.571
   22MYC     C9  489   0.454   0.327  10.452
   22MYC    H14  490   0.438   0.220  10.471
   22MYC    H15  491   0.562   0.344  10.458
   22MYC     C8  492   0.406   0.359  10.309
   22MYC    H12  493   0.423   0.465  10.288
   22MYC    H13  494   0.298   0.341  10.301
   22MYC     C7  495   0.481   0.273  10.205
   22MYC    H10  496   0.456   0.167  10.221
   22MYC    H11  497   0.589   0.284  10.222
   22MYC     C6  498   0.451   0.309  10.057
   22MYC     H8  499   0.476   0.415  10.041
   22MYC     H9  500   0.344   0.298  10.038
   22MYC     C5  501   0.531   0.220   9.961
   22MYC     H6  502   0.491   0.118   9.963
   22MYC     H7  503   0.632   0.211  10.001
   22MYC     C4  504   0.547   0.271   9.814
   22MYC     H4  505   0.635   0.220   9.774
   22MYC     H5  506   0.574   0.377   9.815
   22MYC     C2  507   0.431   0.247   9.712
   22MYC     H2  508   0.484   0.229   9.618
   22MYC     O3  509   0.357   0.129   9.744
   22MYC     H3  510   0.382   0.102   9.834
   22MYC     C1  511   0.336   0.368   9.685
   22MYC     H1  512   0.402   0.454   9.664
   22MYC    C81  513   0.250   0.408   9.807
   22MYC    O82  514   0.157   0.342   9.850
   22MYC    O83  515   0.278   0.529   9.858
   22MYC   H105  516   0.214   0.543   9.929
   22MYC    C20  517   0.245   0.350   9.560
   22MYC    H34  518   0.181   0.262   9.574
   22MYC    H35  519   0.178   0.436   9.552
   22MYC    C21  520   0.323   0.335   9.427
   22MYC    H36  521   0.388   0.423   9.414
   22MYC    H37  522   0.388   0.247   9.430
   22MYC    C22  523   0.233   0.322   9.303
   22MYC    H38  524   0.161   0.240   9.318
   22MYC    H39  525   0.174   0.414   9.292
   22MYC    C23  526   0.314   0.296   9.175
   22MYC    H40  527   0.396   0.367   9.168
   22MYC    H41  528   0.359   0.196   9.180
   22MYC    C24  529   0.228   0.307   9.047
   22MYC    H42  530   0.143   0.237   9.054
   22MYC    H43  531   0.187   0.408   9.043
   22MYC    C25  532   0.306   0.278   8.917
   22MYC    H44  533   0.400   0.334   8.918
   22MYC    H45  534   0.332   0.172   8.913
   22MYC    C26  535   0.224   0.318   8.793
   22MYC    H46  536   0.130   0.262   8.794
   22MYC    H47  537   0.200   0.424   8.799
   22MYC    C27  538   0.296   0.290   8.659
   22MYC    H48  539   0.395   0.339   8.659
   22MYC    H49  540   0.313   0.182   8.648
   22MYC    C28  541   0.214   0.342   8.539
   22MYC    H50  542   0.112   0.303   8.547
   22MYC    H51  543   0.207   0.452   8.546
   22MYC    C29  544   0.272   0.303   8.402
   22MYC    H52  545   0.373   0.344   8.392
   22MYC    H53  546   0.280   0.194   8.397
   22MYC    C30  547   0.183   0.353   8.286
   22MYC    H54  548   0.081   0.314   8.300
   22MYC    H55  549   0.177   0.462   8.290
   22MYC    C31  550   0.235   0.310   8.147
   22MYC    H56  551   0.335   0.351   8.132
   22MYC    H57  552   0.243   0.201   8.144
   22MYC    C32  553   0.142   0.357   8.033
   22MYC    H58  554   0.042   0.316   8.048
   22MYC    H59  555   0.133   0.466   8.036
   22MYC    C33  556   0.194   0.314   7.894
   22MYC    H60  557   0.294   0.355   7.879
   22MYC    H61  558   0.203   0.205   7.892
   22MYC    C34  559   0.102   0.359   7.777
   22MYC    H62  560   0.001   0.320   7.793
   22MYC    H63  561   0.095   0.468   7.777
   22MYC    C35  562   0.156   0.310   7.641
   22MYC    H64  563   0.259   0.344   7.629
   22MYC    H65  564   0.158   0.200   7.642
   22MYC    C36  565   0.073   0.356   7.519
   22MYC    H66  566   6.419   0.322   7.530
   22MYC    H67  567   0.072   0.466   7.516
   22MYC    C37  568   0.133   0.301   7.388
   22MYC    H68  569   0.238   0.330   7.382
   22MYC    H69  570   0.130   0.191   7.392
   22MYC    C38  571   0.062   0.347   7.259
   22MYC    H70  572   6.408   0.311   7.260
   22MYC    H71  573   0.058   0.457   7.256
   22MYC    C39  574   0.134   0.294   7.133
   22MYC    H72  575   0.236   0.335   7.132
   22MYC    H73  576   0.144   0.185   7.142
   22MYC    C40  577   0.065   0.327   7.000
   22MYC    H74  578   6.415   0.280   6.999
   22MYC    H75  579   0.050   0.435   6.991
   22MYC    C41  580   0.146   0.275   6.879
   22MYC    H76  581   0.239   0.333   6.871
   22MYC    H77  582   0.175   0.171   6.896
   22MYC    C42  583   0.070   0.284   6.745
   22MYC    H78  584   6.429   0.223   6.751
   22MYC    H79  585   0.039   0.387   6.726
   22MYC    C43  586   0.153   0.234   6.625
   22MYC    H80  587   0.094   0.236   6.533
   22MYC    H81  588   0.186   0.130   6.641
   22MYC    H82  589   0.242   0.296   6.611
   23MYC   HH15  590   1.136   6.379   6.568
   23MYC    C80  591   1.159   6.435   6.659
   23MYC   H100  592   1.261   6.410   6.689
   23MYC   H101  593   1.154   0.092   6.636
   23MYC    C79  594   1.060   6.399   6.771
   23MYC   H102  595   1.067   6.291   6.791
   23MYC   H103  596   0.958   6.418   6.736
   23MYC    C78  597   1.084   0.028   6.901
   23MYC   HH14  598   1.070   0.135   6.882
   23MYC   H104  599   1.188   0.015   6.932
   23MYC    C77  600   0.991   6.433   7.016
   23MYC   H106  601   1.006   6.326   7.034
   23MYC   H107  602   0.886   6.447   6.985
   23MYC    C76  603   1.016   0.061   7.147
   23MYC   H108  604   0.989   0.166   7.133
   23MYC   H109  605   1.123   0.058   7.170
   23MYC    C75  606   0.938   0.002   7.266
   23MYC   H110  607   0.963   6.346   7.276
   23MYC   H111  608   0.830   0.008   7.245
   23MYC    C74  609   0.968   0.074   7.398
   23MYC   H112  610   0.929   0.177   7.394
   23MYC   H113  611   1.077   0.081   7.411
   23MYC    C73  612   0.908   0.001   7.520
   23MYC   HH13  613   0.945   6.347   7.520
   23MYC   H114  614   0.799   6.446   7.510
   23MYC    C72  615   0.944   0.067   7.654
   23MYC   H115  616   0.891   0.162   7.664
   23MYC   H116  617   1.051   0.090   7.656
   23MYC    C71  618   0.911   6.426   7.774
   23MYC   H117  619   0.970   6.334   7.765
   23MYC   H118  620   0.806   6.397   7.770
   23MYC    C70  621   0.940   0.042   7.909
   23MYC   H119  622   0.869   0.124   7.926
   23MYC   H120  623   1.041   0.087   7.908
   23MYC    C69  624   0.932   6.391   8.025
   23MYC   H121  625   1.013   6.318   8.015
   23MYC   H122  626   0.838   6.336   8.019
   23MYC    C68  627   0.941   0.009   8.163
   23MYC   HH12  628   0.855   0.075   8.176
   23MYC   H123  629   1.031   0.071   8.168
   23MYC    C67  630   0.944   6.356   8.277
   23MYC   H124  631   1.033   6.293   8.266
   23MYC   H125  632   0.857   6.290   8.270
   23MYC    C66  633   0.946   6.423   8.415
   23MYC   H126  634   0.856   0.035   8.427
   23MYC   H127  635   1.032   0.041   8.421
   23MYC    C65  636   0.952   6.321   8.529
   23MYC   H128  637   1.036   6.253   8.512
   23MYC   H129  638   0.861   6.260   8.529
   23MYC    C64  639   0.968   6.388   8.666
   23MYC   H130  640   0.886   0.009   8.682
   23MYC   H131  641   1.061   6.447   8.666
   23MYC    C63  642   0.972   6.287   8.781
   23MYC   HH11  643   1.051   6.213   8.761
   23MYC   H132  644   0.878   6.232   8.784
   23MYC    C62  645   1.000   6.353   8.917
   23MYC   H133  646   1.012   0.012   8.905
   23MYC   H134  647   1.096   6.316   8.955
   23MYC    C61  648   0.891   6.327   9.022
   23MYC   H135  649   0.885   6.219   9.040
   23MYC   H136  650   0.794   6.357   8.982
   23MYC    C60  651   0.918   6.402   9.151
   23MYC   H137  652   0.890   0.057   9.145
   23MYC    C58  653   0.901   6.333   9.283
   23MYC   H138  654   0.876   6.227   9.281
   23MYC    C59  655   1.039   6.370   9.235
   23MYC   H139  656   1.090   0.003   9.284
   23MYC   H140  657   1.104   6.289   9.204
   23MYC    C57  658   0.838   6.404   9.401
   23MYC   HH10  659   0.729   6.393   9.396
   23MYC   H141  660   0.859   0.062   9.397
   23MYC    C56  661   0.889   6.347   9.534
   23MYC   H142  662   0.996   6.368   9.544
   23MYC   H143  663   0.877   6.238   9.533
   23MYC    C55  664   0.814   6.405   9.655
   23MYC   H144  665   0.706   6.393   9.641
   23MYC   H145  666   0.835   0.062   9.662
   23MYC    C54  667   0.856   6.335   9.785
   23MYC   H146  668   0.965   6.341   9.796
   23MYC   H147  669   0.829   6.228   9.780
   23MYC    C53  670   0.791   6.398   9.909
   23MYC   H148  671   0.682   6.394   9.901
   23MYC   H149  672   0.816   0.054   9.912
   23MYC    C52  673   0.835   6.331  10.040
   23MYC    H99  674   0.941   6.302  10.033
   23MYC   H150  675   0.778   6.239  10.056
   23MYC    C51  676   0.818   6.425  10.160
   23MYC    H97  677   0.713   0.005  10.170
   23MYC    H98  678   0.876   0.067  10.142
   23MYC    C50  679   0.867   6.363  10.292
   23MYC    H95  680   0.970   6.327  10.279
   23MYC    H96  681   0.805   6.275  10.316
   23MYC    C49  682   0.863   0.013  10.408
   23MYC    H93  683   0.760   0.048  10.423
   23MYC    H94  684   0.924   0.101  10.383
   23MYC    C48  685   0.915   6.402  10.539
   23MYC    H91  686   1.018   6.366  10.524
   23MYC    H92  687   0.855   6.315  10.565
   23MYC    C47  688   0.913   0.051  10.657
   23MYC    H89  689   0.814   0.097  10.666
   23MYC    H90  690   0.985   0.131  10.638
   23MYC    C46  691   0.947   6.430  10.790
   23MYC    H87  692   1.033   6.364  10.774
   23MYC    H88  693   0.863   6.366  10.818
   23MYC    C45  694   0.977   0.078  10.906
   23MYC    H85  695   0.914   0.052  10.992
   23MYC    H86  696   0.949   0.180  10.877
   23MYC    C44  697   1.124   0.077  10.952
   23MYC    H83  698   1.142   0.164  11.016
   23MYC    H84  699   1.189   0.089  10.864
   23MYC    C18  700   1.163   6.400  11.027
   23MYC    H31  701   1.152   6.310  10.967
   23MYC    C17  702   1.276   6.402  11.127
   23MYC    H30  703   1.320   0.050  11.148
   23MYC    C19  704   1.134   6.382  11.175
   23MYC    H32  705   1.088   0.013  11.229
   23MYC    H33  706   1.105   6.283  11.208
   23MYC    C16  707   1.379   6.291  11.137
   23MYC    H28  708   1.332   6.192  11.128
   23MYC    H29  709   1.425   6.294  11.236
   23MYC    C15  710   1.491   6.305  11.031
   23MYC    H26  711   1.581   6.255  11.069
   23MYC    H27  712   1.517   6.411  11.020
   23MYC    C14  713   1.455   6.243  10.894
   23MYC    H24  714   1.347   6.239  10.881
   23MYC    H25  715   1.490   6.139  10.892
   23MYC    C13  716   1.515   6.320  10.775
   23MYC    H22  717   1.622   6.338  10.792
   23MYC    H23  718   1.467   6.419  10.769
   23MYC    C12  719   1.498   6.246  10.641
   23MYC    H20  720   1.393   6.213  10.632
   23MYC    H21  721   1.560   6.156  10.644
   23MYC    C11  722   1.536   6.329  10.517
   23MYC    H18  723   1.571   6.262  10.439
   23MYC    H19  724   1.621   6.393  10.542
   23MYC    C10  725   1.420   6.418  10.463
   23MYC    H16  726   1.463   0.055  10.412
   23MYC    H17  727   1.362   0.007  10.547
   23MYC     C9  728   1.325   6.345  10.364
   23MYC    H14  729   1.233   6.404  10.353
   23MYC    H15  730   1.295   6.248  10.406
   23MYC     C8  731   1.388   6.325  10.224
   23MYC    H12  732   1.483   6.272  10.234
   23MYC    H13  733   1.411   6.424  10.181
   23MYC     C7  734   1.299   6.247  10.126
   23MYC    H10  735   1.201   6.295  10.117
   23MYC    H11  736   1.282   6.147  10.168
   23MYC     C6  737   1.363   6.235   9.986
   23MYC     H8  738   1.467   6.203   9.997
   23MYC     H9  739   1.365   6.334   9.939
   23MYC     C5  740   1.290   6.134   9.895
   23MYC     H6  741   1.184   6.158   9.887
   23MYC     H7  742   1.296   6.036   9.945
   23MYC     C4  743   1.354   6.118   9.755
   23MYC     H4  744   1.320   6.022   9.714
   23MYC     H5  745   1.463   6.106   9.769
   23MYC     C2  746   1.325   6.228   9.648
   23MYC     H2  747   1.270   6.176   9.569
   23MYC     O3  748   1.241   6.333   9.698
   23MYC     H3  749   1.293   6.386   9.760
   23MYC     C1  750   1.454   6.287   9.583
   23MYC     H1  751   1.523   6.202   9.572
   23MYC    C81  752   1.525   6.392   9.672
   23MYC    O82  753   1.498   0.060   9.672
   23MYC    O83  754   1.626   6.344   9.748
   23MYC   H105  755   1.663   6.421   9.793
   23MYC    C20  756   1.429   6.348   9.444
   23MYC    H34  757   1.348   6.422   9.449
   23MYC    H35  758   1.519   6.403   9.415
   23MYC    C21  759   1.397   6.246   9.332
   23MYC    H36  760   1.466   6.161   9.339
   23MYC    H37  761   1.295   6.208   9.343
   23MYC    C22  762   1.414   6.314   9.195
   23MYC    H38  763   1.348   6.401   9.190
   23MYC    H39  764   1.517   6.352   9.188
   23MYC    C23  765   1.388   6.224   9.074
   23MYC    H40  766   1.441   6.128   9.084
   23MYC    H41  767   1.281   6.201   9.067
   23MYC    C24  768   1.435   6.296   8.947
   23MYC    H42  769   1.398   6.399   8.950
   23MYC    H43  770   1.545   6.302   8.948
   23MYC    C25  771   1.389   6.232   8.816
   23MYC    H44  772   1.421   6.127   8.812
   23MYC    H45  773   1.280   6.235   8.812
   23MYC    C26  774   1.447   6.309   8.696
   23MYC    H46  775   1.451   6.416   8.720
   23MYC    H47  776   1.551   6.277   8.679
   23MYC    C27  777   1.366   6.292   8.567
   23MYC    H48  778   1.362   6.187   8.539
   23MYC    H49  779   1.263   6.325   8.585
   23MYC    C28  780   1.426   6.374   8.452
   23MYC    H50  781   1.448   0.026   8.487
   23MYC    H51  782   1.522   6.329   8.425
   23MYC    C29  783   1.335   6.381   8.330
   23MYC    H52  784   1.297   6.281   8.305
   23MYC    H53  785   1.248   6.445   8.352
   23MYC    C30  786   1.410   6.438   8.209
   23MYC    H54  787   1.451   0.087   8.234
   23MYC    H55  788   1.495   6.372   8.188
   23MYC    C31  789   1.323   0.001   8.083
   23MYC    H56  790   1.263   6.360   8.070
   23MYC    H57  791   1.255   0.086   8.093
   23MYC    C32  792   1.412   0.020   7.959
   23MYC    H58  793   1.477   0.107   7.975
   23MYC    H59  794   1.477   6.382   7.949
   23MYC    C33  795   1.335   0.039   7.828
   23MYC    H60  796   1.257   6.412   7.818
   23MYC    H61  797   1.285   0.137   7.829
   23MYC    C34  798   1.430   0.030   7.708
   23MYC    H62  799   1.517   0.095   7.727
   23MYC    H63  800   1.468   6.377   7.701
   23MYC    C35  801   1.368   0.070   7.575
   23MYC    H64  802   1.273   0.016   7.559
   23MYC    H65  803   1.343   0.177   7.578
   23MYC    C36  804   1.463   0.041   7.457
   23MYC    H66  805   1.566   0.067   7.485
   23MYC    H67  806   1.462   6.383   7.437
   23MYC    C37  807   1.426   0.118   7.330
   23MYC    H68  808   1.319   0.104   7.309
   23MYC    H69  809   1.442   0.225   7.347
   23MYC    C38  810   1.508   0.072   7.208
   23MYC    H70  811   1.615   0.079   7.230
   23MYC    H71  812   1.486   6.417   7.188
   23MYC    C39  813   1.475   0.156   7.083
   23MYC    H72  814   1.366   0.160   7.070
   23MYC    H73  815   1.510   0.259   7.098
   23MYC    C40  816   1.538   0.099   6.954
   23MYC    H74  817   1.647   0.101   6.962
   23MYC    H75  818   1.508   6.444   6.943
   23MYC    C41  819   1.494   0.178   6.829
   23MYC    H76  820   1.386   0.193   6.833
   23MYC    H77  821   1.540   0.278   6.832
   23MYC    C42  822   1.530   0.109   6.697
   23MYC    H78  823   1.638   0.096   6.691
   23MYC    H79  824   1.487   0.008   6.697
   23MYC    C43  825   1.480   0.185   6.573
   23MYC    H80  826   1.488   0.123   6.484
   23MYC    H81  827   1.538   0.277   6.558
   23MYC    H82  828   1.374   0.213   6.585
   24MYC   HH15  829   1.715   5.996   6.667
   24MYC    C80  830   1.721   6.043   6.766
   24MYC   H100  831   1.685   6.146   6.758
   24MYC   H101  832   1.656   5.988   6.834
   24MYC    C79  833   1.867   6.040   6.816
   24MYC   H102  834   1.932   6.079   6.737
   24MYC   H103  835   1.897   5.936   6.833
   24MYC    C78  836   1.891   6.122   6.945
   24MYC   HH14  837   1.871   6.228   6.924
   24MYC   H104  838   1.998   6.115   6.970
   24MYC    C77  839   1.807   6.077   7.066
   24MYC   H106  840   1.816   5.968   7.078
   24MYC   H107  841   1.702   6.100   7.049
   24MYC    C76  842   1.853   6.145   7.197
   24MYC   H108  843   1.843   6.254   7.186
   24MYC   H109  844   1.959   6.124   7.212
   24MYC    C75  845   1.774   6.100   7.321
   24MYC   H110  846   1.772   5.991   7.327
   24MYC   H111  847   1.670   6.135   7.313
   24MYC    C74  848   1.837   6.156   7.450
   24MYC   H112  849   1.844   6.266   7.442
   24MYC   H113  850   1.940   6.119   7.457
   24MYC    C73  851   1.762   6.119   7.578
   24MYC   HH13  852   1.758   6.010   7.588
   24MYC   H114  853   1.659   6.156   7.573
   24MYC    C72  854   1.832   6.180   7.701
   24MYC   H115  855   1.833   6.289   7.692
   24MYC   H116  856   1.937   6.147   7.702
   24MYC    C71  857   1.769   6.140   7.835
   24MYC   H117  858   1.770   6.031   7.844
   24MYC   H118  859   1.663   6.171   7.838
   24MYC    C70  860   1.844   6.203   7.954
   24MYC   H119  861   1.803   6.303   7.973
   24MYC   H120  862   1.950   6.217   7.928
   24MYC    C69  863   1.836   6.118   8.081
   24MYC   H121  864   1.878   6.018   8.060
   24MYC   H122  865   1.731   6.104   8.109
   24MYC    C68  866   1.913   6.181   8.198
   24MYC   HH12  867   1.872   6.280   8.220
   24MYC   H123  868   2.018   6.195   8.170
   24MYC    C67  869   1.906   6.093   8.324
   24MYC   H124  870   1.965   6.001   8.309
   24MYC   H125  871   1.802   6.061   8.338
   24MYC    C66  872   1.953   6.164   8.451
   24MYC   H126  873   1.896   6.257   8.462
   24MYC   H127  874   2.058   6.192   8.442
   24MYC    C65  875   1.933   6.076   8.576
   24MYC   H128  876   2.020   6.011   8.588
   24MYC   H129  877   1.847   6.010   8.561
   24MYC    C64  878   1.910   6.156   8.705
   24MYC   H130  879   1.828   6.228   8.689
   24MYC   H131  880   2.000   6.214   8.729
   24MYC    C63  881   1.873   6.064   8.822
   24MYC   HH11  882   1.954   5.992   8.838
   24MYC   H132  883   1.784   6.006   8.795
   24MYC    C62  884   1.846   6.140   8.953
   24MYC   H133  885   1.759   6.205   8.940
   24MYC   H134  886   1.931   6.204   8.975
   24MYC    C61  887   1.822   6.043   9.070
   24MYC   H135  888   1.909   5.978   9.079
   24MYC   H136  889   1.737   5.978   9.048
   24MYC    C60  890   1.797   6.115   9.202
   24MYC   H137  891   1.694   6.150   9.212
   24MYC    C58  892   1.868   6.070   9.326
   24MYC   H138  893   1.943   5.991   9.315
   24MYC    C59  894   1.903   6.203   9.264
   24MYC   H139  895   1.870   6.293   9.315
   24MYC   H140  896   1.999   6.212   9.214
   24MYC    C57  897   1.798   6.062   9.460
   24MYC   HH10  898   1.750   5.964   9.471
   24MYC   H141  899   1.717   6.137   9.464
   24MYC    C56  900   1.896   6.087   9.576
   24MYC   H142  901   1.934   6.189   9.567
   24MYC   H143  902   1.982   6.020   9.567
   24MYC    C55  903   1.832   6.070   9.715
   24MYC   H144  904   1.815   5.964   9.734
   24MYC   H145  905   1.734   6.117   9.717
   24MYC    C54  906   1.921   6.127   9.828
   24MYC   H146  907   1.932   6.235   9.812
   24MYC   H147  908   2.021   6.082   9.822
   24MYC    C53  909   1.862   6.103   9.968
   24MYC   H148  910   1.856   5.995   9.987
   24MYC   H149  911   1.759   6.141   9.971
   24MYC    C52  912   1.944   6.171  10.079
   24MYC    H99  913   1.940   6.280  10.065
   24MYC   H150  914   2.049   6.142  10.070
   24MYC    C51  915   1.893   6.135  10.219
   24MYC    H97  916   1.910   6.028  10.237
   24MYC    H98  917   1.784   6.152  10.224
   24MYC    C50  918   1.960   6.217  10.331
   24MYC    H95  919   1.932   6.323  10.320
   24MYC    H96  920   2.069   6.211  10.322
   24MYC    C49  921   1.918   6.168  10.471
   24MYC    H93  922   1.966   6.071  10.491
   24MYC    H94  923   1.810   6.152  10.473
   24MYC    C48  924   1.955   6.267  10.584
   24MYC    H91  925   1.902   6.361  10.567
   24MYC    H92  926   2.062   6.288  10.581
   24MYC    C47  927   1.917   6.212  10.723
   24MYC    H89  928   1.980   6.126  10.746
   24MYC    H90  929   1.813   6.176  10.721
   24MYC    C46  930   1.931   6.317  10.835
   24MYC    H87  931   1.868   6.402  10.810
   24MYC    H88  932   2.033   6.354  10.839
   24MYC    C45  933   1.888   6.264  10.974
   24MYC    H85  934   1.963   6.193  11.011
   24MYC    H86  935   1.794   6.207  10.963
   24MYC    C44  936   1.865   6.376  11.077
   24MYC    H83  937   1.819   6.332  11.167
   24MYC    H84  938   1.791   6.447  11.037
   24MYC    C18  939   1.992  -0.001  11.117
   24MYC    H31  940   2.068   6.382  11.157
   24MYC    C17  941   2.042   0.119  11.039
   24MYC    H30  942   1.978   0.153  10.957
   24MYC    C19  943   1.986   0.136  11.178
   24MYC    H32  944   1.889   0.183  11.188
   24MYC    H33  945   2.055   0.156  11.260
   24MYC    C16  946   2.191   0.135  11.010
   24MYC    H28  947   2.233   0.040  10.975
   24MYC    H29  948   2.244   0.159  11.103
   24MYC    C15  949   2.224   0.245  10.908
   24MYC    H26  950   2.332   0.267  10.912
   24MYC    H27  951   2.173   0.337  10.939
   24MYC    C14  952   2.186   0.212  10.762
   24MYC    H24  953   2.180   0.307  10.708
   24MYC    H25  954   2.085   0.170  10.759
   24MYC    C13  955   2.283   0.118  10.687
   24MYC    H22  956   2.275   0.016  10.727
   24MYC    H23  957   2.386   0.152  10.705
   24MYC    C12  958   2.256   0.116  10.535
   24MYC    H20  959   2.231   0.218  10.504
   24MYC    H21  960   2.168   0.055  10.514
   24MYC    C11  961   2.373   0.066  10.446
   24MYC    H18  962   2.345   6.421  10.398
   24MYC    H19  963   2.461   0.044  10.508
   24MYC    C10  964   2.415   0.169  10.337
   24MYC    H16  965   2.506   0.135  10.287
   24MYC    H17  966   2.441   0.263  10.387
   24MYC     C9  967   2.307   0.198  10.229
   24MYC    H14  968   2.324   0.299  10.190
   24MYC    H15  969   2.207   0.199  10.274
   24MYC     C8  970   2.309   0.100  10.110
   24MYC    H12  971   2.308   6.446  10.147
   24MYC    H13  972   2.403   0.114  10.055
   24MYC     C7  973   2.190   0.120  10.014
   24MYC    H10  974   2.176   0.227   9.996
   24MYC    H11  975   2.099   0.084  10.062
   24MYC     C6  976   2.210   0.049   9.878
   24MYC     H8  977   2.236   6.394   9.895
   24MYC     H9  978   2.294   0.097   9.828
   24MYC     C5  979   2.085   0.056   9.788
   24MYC     H6  980   2.056   0.161   9.773
   24MYC     H7  981   2.002   0.011   9.843
   24MYC     C4  982   2.096   6.432   9.651
   24MYC     H4  983   1.993   6.416   9.618
   24MYC     H5  984   2.137   6.332   9.667
   24MYC     C2  985   2.170   0.051   9.532
   24MYC     H2  986   2.109   0.027   9.445
   24MYC     O3  987   2.169   0.193   9.546
   24MYC     H3  988   2.241   0.216   9.609
   24MYC     C1  989   2.314   6.449   9.499
   24MYC     H1  990   2.307   6.340   9.491
   24MYC    C81  991   2.418   0.031   9.608
   24MYC    O82  992   2.454   0.143   9.637
   24MYC    O83  993   2.486   6.372   9.652
   24MYC   H105  994   2.558   6.407   9.707
   24MYC    C20  995   2.369   0.053   9.364
   24MYC    H34  996   2.369   0.162   9.365
   24MYC    H35  997   2.474   0.022   9.355
   24MYC    C21  998   2.294   0.003   9.239
   24MYC    H36  999   2.296   6.343   9.237
   24MYC    H37 1000   2.189   0.033   9.243
   24MYC    C22 1001   2.355   0.058   9.109
   24MYC    H38 1002   2.341   0.167   9.106
   24MYC    H39 1003   2.463   0.039   9.108
   24MYC    C23 1004   2.292   6.445   8.983
   24MYC    H40 1005   2.316   6.339   8.981
   24MYC    H41 1006   2.183   0.003   8.989
   24MYC    C24 1007   2.340   0.062   8.853
   24MYC    H42 1008   2.289   0.159   8.841
   24MYC    H43 1009   2.447   0.083   8.859
   24MYC    C25 1010   2.314   6.424   8.730
   24MYC    H44 1011   2.382   6.338   8.734
   24MYC    H45 1012   2.212   6.384   8.734
   24MYC    C26 1013   2.334   0.049   8.597
   24MYC    H46 1014   2.259   0.129   8.591
   24MYC    H47 1015   2.432   0.097   8.595
   24MYC    C27 1016   2.319   6.406   8.475
   24MYC    H48 1017   2.406   6.340   8.469
   24MYC    H49 1018   2.230   6.344   8.486
   24MYC    C28 1019   2.308   0.036   8.344
   24MYC    H50 1020   2.223   0.106   8.352
   24MYC    H51 1021   2.398   0.097   8.330
   24MYC    C29 1022   2.286   6.398   8.219
   24MYC    H52 1023   2.375   6.337   8.201
   24MYC    H53 1024   2.202   6.329   8.237
   24MYC    C30 1025   2.256   0.034   8.095
   24MYC    H54 1026   2.166   0.093   8.114
   24MYC    H55 1027   2.339   0.105   8.081
   24MYC    C31 1028   2.237   6.404   7.965
   24MYC    H56 1029   2.326   6.344   7.945
   24MYC    H57 1030   2.153   6.334   7.977
   24MYC    C32 1031   2.210   0.048   7.846
   24MYC    H58 1032   2.119   0.106   7.866
   24MYC    H59 1033   2.292   0.120   7.838
   24MYC    C33 1034   2.194   6.425   7.712
   24MYC    H60 1035   2.281   6.361   7.694
   24MYC    H61 1036   2.106   6.360   7.716
   24MYC    C34 1037   2.180   0.074   7.594
   24MYC    H62 1038   2.095   0.141   7.613
   24MYC    H63 1039   2.270   0.136   7.588
   24MYC    C35 1040   2.158   0.002   7.459
   24MYC    H64 1041   2.242   6.383   7.441
   24MYC    H65 1042   2.067   6.391   7.466
   24MYC    C36 1043   2.146   0.100   7.340
   24MYC    H66 1044   2.072   0.177   7.364
   24MYC    H67 1045   2.242   0.150   7.324
   24MYC    C37 1046   2.103   0.027   7.211
   24MYC    H68 1047   2.176   6.398   7.188
   24MYC    H69 1048   2.007   6.427   7.230
   24MYC    C38 1049   2.088   0.120   7.089
   24MYC    H70 1050   2.023   0.204   7.115
   24MYC    H71 1051   2.186   0.161   7.062
   24MYC    C39 1052   2.028   0.045   6.968
   24MYC    H72 1053   2.093   6.411   6.942
   24MYC    H73 1054   1.931   0.003   6.997
   24MYC    C40 1055   2.008   0.135   6.844
   24MYC    H74 1056   1.941   0.218   6.870
   24MYC    H75 1057   2.105   0.179   6.814
   24MYC    C41 1058   1.950   0.057   6.724
   24MYC    H76 1059   2.021   6.428   6.694
   24MYC    H77 1060   1.858   0.005   6.756
   24MYC    C42 1061   1.918   0.146   6.603
   24MYC    H78 1062   1.844   0.222   6.632
   24MYC    H79 1063   2.008   0.200   6.573
   24MYC    C43 1064   1.864   0.067   6.482
   24MYC    H80 1065   1.836   0.136   6.401
   24MYC    H81 1066   1.775   0.009   6.509
   24MYC    H82 1067   1.940   6.448   6.444
   25MYC   HH15 1068   2.953   6.158   6.747
   25MYC    C80 1069   2.877   6.199   6.815
   25MYC   H100 1070   2.903   6.302   6.838
   25MYC   H101 1071   2.780   6.198   6.763
   25MYC    C79 1072   2.870   6.115   6.944
   25MYC   H102 1073   2.965   6.127   6.999
   25MYC   H103 1074   2.861   6.009   6.918
   25MYC    C78 1075   2.752   6.154   7.036
   25MYC   HH14 1076   2.658   6.126   6.986
   25MYC   H104 1077   2.750   6.263   7.048
   25MYC    C77 1078   2.758   6.089   7.176
   25MYC   H106 1079   2.844   6.130   7.231
   25MYC   H107 1080   2.776   5.981   7.165
   25MYC    C76 1081   2.629   6.111   7.258
   25MYC   H108 1082   2.546   6.063   7.204
   25MYC   H109 1083   2.607   6.218   7.263
   25MYC    C75 1084   2.636   6.054   7.401
   25MYC   H110 1085   2.713   6.107   7.458
   25MYC   H111 1086   2.667   5.949   7.396
   25MYC    C74 1087   2.501   6.063   7.475
   25MYC   H112 1088   2.424   6.015   7.413
   25MYC   H113 1089   2.472   6.169   7.485
   25MYC    C73 1090   2.499   5.996   7.614
   25MYC   HH13 1091   2.565   6.051   7.682
   25MYC   H114 1092   2.540   5.895   7.605
   25MYC    C72 1093   2.357   5.988   7.674
   25MYC   H115 1094   2.291   5.940   7.601
   25MYC   H116 1095   2.317   6.090   7.688
   25MYC    C71 1096   2.347   5.909   7.806
   25MYC   H117 1097   2.428   5.834   7.811
   25MYC   H118 1098   2.253   5.853   7.807
   25MYC    C70 1099   2.351   5.997   7.933
   25MYC   H119 1100   2.263   6.063   7.933
   25MYC   H120 1101   2.439   6.062   7.929
   25MYC    C69 1102   2.354   5.915   8.063
   25MYC   H121 1103   2.448   5.858   8.067
   25MYC   H122 1104   2.273   5.842   8.063
   25MYC    C68 1105   2.343   6.004   8.188
   25MYC   HH12 1106   2.240   6.042   8.196
   25MYC   H123 1107   2.408   6.091   8.176
   25MYC    C67 1108   2.381   5.931   8.318
   25MYC   H124 1109   2.481   5.888   8.307
   25MYC   H125 1110   2.312   5.848   8.336
   25MYC    C66 1111   2.380   6.026   8.440
   25MYC   H126 1112   2.278   6.062   8.457
   25MYC   H127 1113   2.442   6.113   8.417
   25MYC    C65 1114   2.434   5.960   8.567
   25MYC   H128 1115   2.537   5.926   8.549
   25MYC   H129 1116   2.375   5.871   8.590
   25MYC    C64 1117   2.433   6.055   8.688
   25MYC   H130 1118   2.331   6.092   8.704
   25MYC   H131 1119   2.497   6.141   8.667
   25MYC    C63 1120   2.483   5.986   8.816
   25MYC   HH11 1121   2.587   5.954   8.802
   25MYC   H132 1122   2.423   5.895   8.833
   25MYC    C62 1123   2.473   6.075   8.941
   25MYC   H133 1124   2.369   6.108   8.953
   25MYC   H134 1125   2.535   6.164   8.928
   25MYC    C61 1126   2.517   5.999   9.067
   25MYC   H135 1127   2.621   5.967   9.056
   25MYC   H136 1128   2.457   5.907   9.076
   25MYC    C60 1129   2.500   6.079   9.195
   25MYC   H137 1130   2.398   6.116   9.207
   25MYC    C58 1131   2.572   6.034   9.319
   25MYC   H138 1132   2.643   5.952   9.308
   25MYC    C59 1133   2.610   6.165   9.253
   25MYC   H139 1134   2.582   6.257   9.304
   25MYC   H140 1135   2.704   6.168   9.200
   25MYC    C57 1136   2.494   6.026   9.448
   25MYC   HH10 1137   2.440   5.931   9.452
   25MYC   H141 1138   2.417   6.105   9.451
   25MYC    C56 1139   2.582   6.039   9.574
   25MYC   H142 1140   2.637   6.134   9.571
   25MYC   H143 1141   2.656   5.958   9.576
   25MYC    C55 1142   2.495   6.033   9.700
   25MYC   H144 1143   2.443   5.937   9.704
   25MYC   H145 1144   2.417   6.110   9.693
   25MYC    C54 1145   2.573   6.053   9.831
   25MYC   H146 1146   2.629   6.147   9.827
   25MYC   H147 1147   2.645   5.972   9.844
   25MYC    C53 1148   2.476   6.057   9.951
   25MYC   H148 1149   2.414   5.966   9.950
   25MYC   H149 1150   2.408   6.142   9.938
   25MYC    C52 1151   2.546   6.068  10.087
   25MYC    H99 1152   2.605   6.161  10.089
   25MYC   H150 1153   2.615   5.984  10.101
   25MYC    C51 1154   2.443   6.070  10.201
   25MYC    H97 1155   2.386   5.976  10.201
   25MYC    H98 1156   2.371   6.151  10.183
   25MYC    C50 1157   2.506   6.091  10.340
   25MYC    H95 1158   2.566   6.183  10.339
   25MYC    H96 1159   2.575   6.008  10.362
   25MYC    C49 1160   2.400   6.101  10.450
   25MYC    H93 1161   2.348   6.005  10.459
   25MYC    H94 1162   2.324   6.175  10.421
   25MYC    C48 1163   2.459   6.141  10.586
   25MYC    H91 1164   2.508   6.239  10.577
   25MYC    H92 1165   2.536   6.069  10.615
   25MYC    C47 1166   2.351   6.148  10.696
   25MYC    H89 1167   2.303   6.050  10.705
   25MYC    H90 1168   2.274   6.220  10.666
   25MYC    C46 1169   2.408   6.191  10.832
   25MYC    H87 1170   2.453   6.290  10.824
   25MYC    H88 1171   2.488   6.121  10.861
   25MYC    C45 1172   2.300   6.194  10.942
   25MYC    H85 1173   2.254   6.095  10.950
   25MYC    H86 1174   2.221   6.262  10.910
   25MYC    C44 1175   2.350   6.237  11.081
   25MYC    H83 1176   2.262   6.257  11.144
   25MYC    H84 1177   2.403   6.333  11.071
   25MYC    C18 1178   2.439   6.135  11.150
   25MYC    H31 1179   2.475   6.056  11.085
   25MYC    C17 1180   2.535   6.184  11.257
   25MYC    H30 1181   2.527   6.288  11.287
   25MYC    C19 1182   2.418   6.097  11.295
   25MYC    H32 1183   2.334   6.143  11.346
   25MYC    H33 1184   2.441   5.996  11.327
   25MYC    C16 1185   2.679   6.134  11.259
   25MYC    H28 1186   2.684   6.031  11.221
   25MYC    H29 1187   2.713   6.130  11.363
   25MYC    C15 1188   2.775   6.224  11.179
   25MYC    H26 1189   2.878   6.190  11.195
   25MYC    H27 1190   2.769   6.326  11.220
   25MYC    C14 1191   2.746   6.229  11.027
   25MYC    H24 1192   2.639   6.250  11.012
   25MYC    H25 1193   2.766   6.131  10.983
   25MYC    C13 1194   2.825   6.338  10.954
   25MYC    H22 1195   2.932   6.317  10.959
   25MYC    H23 1196   2.809   6.434  11.005
   25MYC    C12 1197   2.782   6.354  10.806
   25MYC    H20 1198   2.674   6.367  10.801
   25MYC    H21 1199   2.806   6.263  10.751
   25MYC    C11 1200   2.850   0.026  10.738
   25MYC    H18 1201   2.958   0.010  10.734
   25MYC    H19 1202   2.833   0.115  10.800
   25MYC    C10 1203   2.797   0.056  10.596
   25MYC    H16 1204   2.843   0.150  10.563
   25MYC    H17 1205   2.689   0.074  10.600
   25MYC     C9 1206   2.827   6.395  10.493
   25MYC    H14 1207   2.769   6.305  10.517
   25MYC    H15 1208   2.933   6.368  10.501
   25MYC     C8 1209   2.797   6.438  10.349
   25MYC    H12 1210   2.847   0.084  10.329
   25MYC    H13 1211   2.689   0.006  10.337
   25MYC     C7 1212   2.843   6.335  10.245
   25MYC    H10 1213   2.782   6.244  10.252
   25MYC    H11 1214   2.947   6.306  10.268
   25MYC     C6 1215   2.838   6.388  10.100
   25MYC     H8 1216   2.888   0.036  10.098
   25MYC     H9 1217   2.734   6.406  10.071
   25MYC     C5 1218   2.907   6.294   9.999
   25MYC     H6 1219   2.841   6.211   9.973
   25MYC     H7 1220   2.995   6.249  10.047
   25MYC     C4 1221   2.957   6.365   9.871
   25MYC     H4 1222   3.042   6.307   9.832
   25MYC     H5 1223   2.998   0.013   9.899
   25MYC     C2 1224   2.854   6.379   9.756
   25MYC     H2 1225   2.836   6.279   9.717
   25MYC     O3 1226   2.731   6.432   9.804
   25MYC     H3 1227   2.747   0.021   9.892
   25MYC     C1 1228   2.910   0.017   9.639
   25MYC     H1 1229   3.014   6.434   9.627
   25MYC    C81 1230   2.914   0.168   9.675
   25MYC    O82 1231   2.817   0.242   9.668
   25MYC    O83 1232   3.029   0.210   9.732
   25MYC   H105 1233   3.015   0.304   9.751
   25MYC    C20 1234   2.837   6.440   9.506
   25MYC    H34 1235   2.827   6.332   9.491
   25MYC    H35 1236   2.735   0.031   9.510
   25MYC    C21 1237   2.911   0.049   9.384
   25MYC    H36 1238   2.919   0.158   9.395
   25MYC    H37 1239   3.014   0.010   9.382
   25MYC    C22 1240   2.843   0.018   9.250
   25MYC    H38 1241   2.831   6.359   9.241
   25MYC    H39 1242   2.743   0.062   9.249
   25MYC    C23 1243   2.925   0.068   9.130
   25MYC    H40 1244   2.953   0.173   9.147
   25MYC    H41 1245   3.018   0.010   9.124
   25MYC    C24 1246   2.849   0.057   8.997
   25MYC    H42 1247   2.808   6.406   8.985
   25MYC    H43 1248   2.763   0.127   9.000
   25MYC    C25 1249   2.939   0.090   8.877
   25MYC    H44 1250   3.002   0.177   8.900
   25MYC    H45 1251   3.006   0.005   8.859
   25MYC    C26 1252   2.859   0.121   8.749
   25MYC    H46 1253   2.785   0.042   8.732
   25MYC    H47 1254   2.804   0.215   8.763
   25MYC    C27 1255   2.950   0.132   8.626
   25MYC    H48 1256   3.033   0.201   8.647
   25MYC    H49 1257   2.994   0.034   8.605
   25MYC    C28 1258   2.875   0.182   8.501
   25MYC    H50 1259   2.782   0.125   8.490
   25MYC    H51 1260   2.847   0.287   8.516
   25MYC    C29 1261   2.959   0.168   8.373
   25MYC    H52 1262   3.053   0.222   8.385
   25MYC    H53 1263   2.984   0.062   8.359
   25MYC    C30 1264   2.885   0.219   8.249
   25MYC    H54 1265   2.784   0.175   8.246
   25MYC    H55 1266   2.873   0.328   8.256
   25MYC    C31 1267   2.959   0.184   8.119
   25MYC    H56 1268   3.060   0.225   8.122
   25MYC    H57 1269   2.969   0.075   8.112
   25MYC    C32 1270   2.886   0.235   7.994
   25MYC    H58 1271   2.784   0.195   7.992
   25MYC    H59 1272   2.879   0.344   7.999
   25MYC    C33 1273   2.959   0.194   7.865
   25MYC    H60 1274   3.060   0.237   7.866
   25MYC    H61 1275   2.970   0.085   7.864
   25MYC    C34 1276   2.885   0.238   7.738
   25MYC    H62 1277   2.787   0.188   7.734
   25MYC    H63 1278   2.866   0.346   7.741
   25MYC    C35 1279   2.965   0.204   7.612
   25MYC    H64 1280   3.057   0.265   7.610
   25MYC    H65 1281   2.997   0.099   7.615
   25MYC    C36 1282   2.887   0.229   7.482
   25MYC    H66 1283   2.796   0.166   7.482
   25MYC    H67 1284   2.854   0.333   7.478
   25MYC    C37 1285   2.970   0.196   7.357
   25MYC    H68 1286   3.065   0.251   7.362
   25MYC    H69 1287   2.995   0.089   7.357
   25MYC    C38 1288   2.898   0.233   7.226
   25MYC    H70 1289   2.798   0.188   7.226
   25MYC    H71 1290   2.884   0.342   7.223
   25MYC    C39 1291   2.974   0.187   7.101
   25MYC    H72 1292   3.082   0.207   7.112
   25MYC    H73 1293   2.963   0.078   7.090
   25MYC    C40 1294   2.924   0.258   6.973
   25MYC    H74 1295   2.814   0.256   6.973
   25MYC    H75 1296   2.954   0.363   6.977
   25MYC    C41 1297   2.976   0.194   6.843
   25MYC    H76 1298   3.085   0.200   6.841
   25MYC    H77 1299   2.949   0.088   6.843
   25MYC    C42 1300   2.917   0.261   6.717
   25MYC    H78 1301   2.808   0.263   6.725
   25MYC    H79 1302   2.951   0.365   6.713
   25MYC    C43 1303   2.956   0.189   6.587
   25MYC    H80 1304   2.907   0.237   6.501
   25MYC    H81 1305   2.924   0.084   6.590
   25MYC    H82 1306   3.064   0.193   6.571
   26MYC   HH15 1307   3.625   6.092   6.580
   26MYC    C80 1308   3.576   6.122   6.673
   26MYC   H100 1309   3.550   6.228   6.667
   26MYC   H101 1310   3.483   6.065   6.683
   26MYC    C79 1311   3.669   6.096   6.793
   26MYC   H102 1312   3.761   6.154   6.781
   26MYC   H103 1313   3.697   5.990   6.794
   26MYC    C78 1314   3.604   6.132   6.928
   26MYC   HH14 1315   3.511   6.074   6.941
   26MYC   H104 1316   3.575   6.238   6.927
   26MYC    C77 1317   3.696   6.107   7.049
   26MYC   H106 1318   3.786   6.169   7.040
   26MYC   H107 1319   3.729   6.003   7.049
   26MYC    C76 1320   3.626   6.137   7.184
   26MYC   H108 1321   3.545   6.064   7.199
   26MYC   H109 1322   3.580   6.236   7.180
   26MYC    C75 1323   3.723   6.132   7.304
   26MYC   H110 1324   3.796   6.213   7.294
   26MYC   H111 1325   3.778   6.037   7.303
   26MYC    C74 1326   3.650   6.145   7.439
   26MYC   H112 1327   3.593   6.053   7.458
   26MYC   H113 1328   3.577   6.227   7.435
   26MYC    C73 1329   3.747   6.171   7.556
   26MYC   HH13 1330   3.787   6.273   7.548
   26MYC   H114 1331   3.832   6.102   7.549
   26MYC    C72 1332   3.680   6.154   7.694
   26MYC   H115 1333   3.647   6.049   7.704
   26MYC   H116 1334   3.590   6.216   7.699
   26MYC    C71 1335   3.773   6.189   7.811
   26MYC   H117 1336   3.787   6.298   7.815
   26MYC   H118 1337   3.872   6.145   7.795
   26MYC    C70 1338   3.718   6.140   7.946
   26MYC   H119 1339   3.711   6.030   7.943
   26MYC   H120 1340   3.616   6.178   7.960
   26MYC    C69 1341   3.804   6.182   8.066
   26MYC   H121 1342   3.806   6.291   8.072
   26MYC   H122 1343   3.908   6.148   8.051
   26MYC    C68 1344   3.751   6.124   8.198
   26MYC   HH12 1345   3.759   6.015   8.196
   26MYC   H123 1346   3.644   6.147   8.207
   26MYC    C67 1347   3.824   6.179   8.322
   26MYC   H124 1348   3.815   6.288   8.324
   26MYC   H125 1349   3.931   6.156   8.315
   26MYC    C66 1350   3.768   6.121   8.453
   26MYC   H126 1351   3.786   6.013   8.456
   26MYC   H127 1352   3.659   6.136   8.456
   26MYC    C65 1353   3.830   6.187   8.578
   26MYC   H128 1354   3.808   6.294   8.577
   26MYC   H129 1355   3.940   6.176   8.573
   26MYC    C64 1356   3.779   6.124   8.709
   26MYC   H130 1357   3.810   6.019   8.713
   26MYC   H131 1358   3.669   6.126   8.710
   26MYC    C63 1359   3.831   6.199   8.833
   26MYC   HH11 1360   3.787   6.299   8.836
   26MYC   H132 1361   3.940   6.212   8.825
   26MYC    C62 1362   3.799   6.124   8.964
   26MYC   H133 1363   3.854   6.028   8.964
   26MYC   H134 1364   3.692   6.100   8.967
   26MYC    C61 1365   3.837   6.205   9.089
   26MYC   H135 1366   3.769   6.290   9.097
   26MYC   H136 1367   3.938   6.246   9.077
   26MYC    C60 1368   3.833   6.121   9.215
   26MYC   H137 1369   3.920   6.056   9.225
   26MYC    C58 1370   3.773   6.176   9.342
   26MYC   H138 1371   3.727   6.274   9.336
   26MYC    C59 1372   3.704   6.064   9.268
   26MYC   H139 1373   3.707   5.965   9.311
   26MYC   H140 1374   3.612   6.088   9.216
   26MYC    C57 1375   3.840   6.151   9.477
   26MYC   HH10 1376   3.920   6.223   9.491
   26MYC   H141 1377   3.886   6.051   9.478
   26MYC    C56 1378   3.739   6.162   9.593
   26MYC   H142 1379   3.659   6.088   9.579
   26MYC   H143 1380   3.692   6.261   9.589
   26MYC    C55 1381   3.804   6.141   9.731
   26MYC   H144 1382   3.891   6.209   9.741
   26MYC   H145 1383   3.842   6.039   9.739
   26MYC    C54 1384   3.705   6.169   9.845
   26MYC   H146 1385   3.619   6.102   9.836
   26MYC   H147 1386   3.667   6.271   9.834
   26MYC    C53 1387   3.767   6.154   9.986
   26MYC   H148 1388   3.862   6.207   9.991
   26MYC   H149 1389   3.787   6.048  10.004
   26MYC    C52 1390   3.673   6.209  10.095
   26MYC    H99 1391   3.571   6.172  10.078
   26MYC   H150 1392   3.670   6.318  10.087
   26MYC    C51 1393   3.715   6.170  10.238
   26MYC    H97 1394   3.820   6.199  10.254
   26MYC    H98 1395   3.710   6.061  10.248
   26MYC    C50 1396   3.627   6.236  10.345
   26MYC    H95 1397   3.521   6.216  10.323
   26MYC    H96 1398   3.640   6.345  10.341
   26MYC    C49 1399   3.658   6.186  10.488
   26MYC    H93 1400   3.766   6.193  10.506
   26MYC    H94 1401   3.632   6.080  10.494
   26MYC    C48 1402   3.584   6.265  10.597
   26MYC    H91 1403   3.476   6.263  10.577
   26MYC    H92 1404   3.615   6.370  10.595
   26MYC    C47 1405   3.609   6.206  10.738
   26MYC    H89 1406   3.717   6.201  10.756
   26MYC    H90 1407   3.571   6.103  10.740
   26MYC    C46 1408   3.545   6.288  10.851
   26MYC    H87 1409   3.441   6.313  10.824
   26MYC    H88 1410   3.598   6.383  10.861
   26MYC    C45 1411   3.546   6.211  10.985
   26MYC    H85 1412   3.649   6.185  11.012
   26MYC    H86 1413   3.492   6.117  10.971
   26MYC    C44 1414   3.481   6.288  11.102
   26MYC    H83 1415   3.462   6.218  11.184
   26MYC    H84 1416   3.383   6.325  11.070
   26MYC    C18 1417   3.567   6.404  11.152
   26MYC    H31 1418   3.642   6.435  11.081
   26MYC    C17 1419   3.505   0.063  11.237
   26MYC    H30 1420   3.401   0.051  11.264
   26MYC    C19 1421   3.603   6.416  11.299
   26MYC    H32 1422   3.566   6.341  11.367
   26MYC    H33 1423   3.703   0.004  11.322
   26MYC    C16 1424   3.545   0.208  11.217
   26MYC    H28 1425   3.651   0.214  11.190
   26MYC    H29 1426   3.534   0.258  11.313
   26MYC    C15 1427   3.463   0.287  11.113
   26MYC    H26 1428   3.511   0.385  11.098
   26MYC    H27 1429   3.363   0.307  11.153
   26MYC    C14 1430   3.451   0.217  10.977
   26MYC    H24 1431   3.392   0.125  10.990
   26MYC    H25 1432   3.551   0.186  10.943
   26MYC    C13 1433   3.386   0.303  10.868
   26MYC    H22 1434   3.454   0.384  10.840
   26MYC    H23 1435   3.294   0.350  10.906
   26MYC    C12 1436   3.351   0.218  10.744
   26MYC    H20 1437   3.270   0.149  10.771
   26MYC    H21 1438   3.438   0.156  10.719
   26MYC    C11 1439   3.312   0.299  10.620
   26MYC    H18 1440   3.399   0.356  10.586
   26MYC    H19 1441   3.235   0.372  10.646
   26MYC    C10 1442   3.260   0.206  10.508
   26MYC    H16 1443   3.152   0.192  10.519
   26MYC    H17 1444   3.306   0.108  10.521
   26MYC     C9 1445   3.292   0.256  10.366
   26MYC    H14 1446   3.398   0.282  10.362
   26MYC    H15 1447   3.235   0.347  10.343
   26MYC     C8 1448   3.263   0.147  10.260
   26MYC    H12 1449   3.155   0.138  10.243
   26MYC    H13 1450   3.296   0.050  10.301
   26MYC     C7 1451   3.336   0.171  10.127
   26MYC    H10 1452   3.435   0.215  10.148
   26MYC    H11 1453   3.282   0.245  10.067
   26MYC     C6 1454   3.357   0.041  10.046
   26MYC     H8 1455   3.263   0.012   9.997
   26MYC     H9 1456   3.383   6.409  10.115
   26MYC     C5 1457   3.471   0.052   9.944
   26MYC     H6 1458   3.502   6.401   9.917
   26MYC     H7 1459   3.559   0.097   9.993
   26MYC     C4 1460   3.438   0.132   9.816
   26MYC     H4 1461   3.526   0.192   9.790
   26MYC     H5 1462   3.357   0.203   9.835
   26MYC     C2 1463   3.403   0.040   9.698
   26MYC     H2 1464   3.478   6.409   9.697
   26MYC     O3 1465   3.274   6.432   9.717
   26MYC     H3 1466   3.212   0.056   9.737
   26MYC     C1 1467   3.414   0.109   9.559
   26MYC     H1 1468   3.512   0.158   9.560
   26MYC    C81 1469   3.307   0.219   9.538
   26MYC    O82 1470   3.197   0.198   9.491
   26MYC    O83 1471   3.341   0.341   9.585
   26MYC   H105 1472   3.264   0.397   9.569
   26MYC    C20 1473   3.411   0.004   9.446
   26MYC    H34 1474   3.474   6.368   9.473
   26MYC    H35 1475   3.309   6.415   9.435
   26MYC    C21 1476   3.461   0.059   9.311
   26MYC    H36 1477   3.431   0.164   9.299
   26MYC    H37 1478   3.571   0.057   9.310
   26MYC    C22 1479   3.405   6.428   9.194
   26MYC    H38 1480   3.417   6.321   9.212
   26MYC    H39 1481   3.297   6.447   9.187
   26MYC    C23 1482   3.472   0.014   9.061
   26MYC    H40 1483   3.486   0.122   9.053
   26MYC    H41 1484   3.571   6.418   9.057
   26MYC    C24 1485   3.389   6.416   8.941
   26MYC    H42 1486   3.358   6.312   8.955
   26MYC    H43 1487   3.297   0.027   8.935
   26MYC    C25 1488   3.466   6.427   8.809
   26MYC    H44 1489   3.513   0.077   8.802
   26MYC    H45 1490   3.547   6.353   8.809
   26MYC    C26 1491   3.376   6.406   8.687
   26MYC    H46 1492   3.322   6.311   8.696
   26MYC    H47 1493   3.301   0.036   8.683
   26MYC    C27 1494   3.457   6.406   8.557
   26MYC    H48 1495   3.518   0.047   8.553
   26MYC    H49 1496   3.526   6.321   8.558
   26MYC    C28 1497   3.368   6.399   8.432
   26MYC    H50 1498   3.302   6.313   8.438
   26MYC    H51 1499   3.305   0.039   8.429
   26MYC    C29 1500   3.452   6.389   8.304
   26MYC    H52 1501   3.557   6.413   8.325
   26MYC    H53 1502   3.450   6.286   8.268
   26MYC    C30 1503   3.404   0.034   8.192
   26MYC    H54 1504   3.298   0.013   8.170
   26MYC    H55 1505   3.410   0.138   8.227
   26MYC    C31 1506   3.488   0.016   8.065
   26MYC    H56 1507   3.594   0.026   8.090
   26MYC    H57 1508   3.473   6.364   8.028
   26MYC    C32 1509   3.452   0.116   7.954
   26MYC    H58 1510   3.344   0.113   7.936
   26MYC    H59 1511   3.478   0.218   7.986
   26MYC    C33 1512   3.527   0.081   7.824
   26MYC    H60 1513   3.635   0.091   7.840
   26MYC    H61 1514   3.507   6.426   7.800
   26MYC    C34 1515   3.484   0.168   7.705
   26MYC    H62 1516   3.375   0.175   7.702
   26MYC    H63 1517   3.523   0.269   7.718
   26MYC    C35 1518   3.534   0.108   7.572
   26MYC    H64 1519   3.644   0.108   7.571
   26MYC    H65 1520   3.501   0.004   7.566
   26MYC    C36 1521   3.481   0.184   7.449
   26MYC    H66 1522   3.374   0.203   7.461
   26MYC    H67 1523   3.531   0.281   7.442
   26MYC    C37 1524   3.503   0.104   7.319
   26MYC    H68 1525   3.610   0.086   7.305
   26MYC    H69 1526   3.454   0.006   7.330
   26MYC    C38 1527   3.446   0.175   7.196
   26MYC    H70 1528   3.344   0.209   7.216
   26MYC    H71 1529   3.506   0.265   7.175
   26MYC    C39 1530   3.444   0.084   7.071
   26MYC    H72 1531   3.544   0.043   7.055
   26MYC    H73 1532   3.377   6.449   7.090
   26MYC    C40 1533   3.399   0.159   6.944
   26MYC    H74 1534   3.302   0.207   6.962
   26MYC    H75 1535   3.471   0.238   6.924
   26MYC    C41 1536   3.389   0.066   6.821
   26MYC    H76 1537   3.479   0.003   6.815
   26MYC    H77 1538   3.304   6.447   6.835
   26MYC    C42 1539   3.371   0.143   6.689
   26MYC    H78 1540   3.279   0.203   6.693
   26MYC    H79 1541   3.454   0.214   6.677
   26MYC    C43 1542   3.367   0.051   6.566
   26MYC    H80 1543   3.358   0.110   6.474
   26MYC    H81 1544   3.281   6.432   6.571
   26MYC    H82 1545   3.459   6.441   6.559
   27MYC   HH15 1546   4.501   6.157   6.628
   27MYC    C80 1547   4.451   6.187   6.721
   27MYC   H100 1548   4.360   6.242   6.695
   27MYC   H101 1549   4.423   6.097   6.776
   27MYC    C79 1550   4.545   6.274   6.807
   27MYC   H102 1551   4.581   6.359   6.747
   27MYC   H103 1552   4.633   6.214   6.833
   27MYC    C78 1553   4.477   6.328   6.935
   27MYC   HH14 1554   4.417   6.247   6.979
   27MYC   H104 1555   4.408   6.408   6.908
   27MYC    C77 1556   4.578   6.378   7.040
   27MYC   H106 1557   4.640   0.009   6.998
   27MYC   H107 1558   4.645   6.296   7.067
   27MYC    C76 1559   4.508   6.430   7.168
   27MYC   H108 1560   4.429   6.358   7.197
   27MYC   H109 1561   4.458   0.075   7.147
   27MYC    C75 1562   4.604   6.446   7.287
   27MYC   H110 1563   4.682   0.070   7.262
   27MYC   H111 1564   4.654   6.351   7.305
   27MYC    C74 1565   4.532   0.041   7.416
   27MYC   H112 1566   4.442   6.428   7.430
   27MYC   H113 1567   4.497   0.144   7.405
   27MYC    C73 1568   4.621   0.028   7.541
   27MYC   HH13 1569   4.709   0.092   7.530
   27MYC   H114 1570   4.656   6.374   7.549
   27MYC    C72 1571   4.547   0.066   7.671
   27MYC   H115 1572   4.453   0.010   7.677
   27MYC   H116 1573   4.521   0.172   7.669
   27MYC    C71 1574   4.631   0.035   7.796
   27MYC   H117 1575   4.727   0.088   7.789
   27MYC   H118 1576   4.653   6.378   7.799
   27MYC    C70 1577   4.561   0.075   7.927
   27MYC   H119 1578   4.465   0.022   7.935
   27MYC   H120 1579   4.539   0.183   7.926
   27MYC    C69 1580   4.647   0.043   8.051
   27MYC   H121 1581   4.743   0.096   8.043
   27MYC   H122 1582   4.670   6.385   8.051
   27MYC    C68 1583   4.578   0.079   8.183
   27MYC   HH12 1584   4.484   0.024   8.190
   27MYC   H123 1585   4.554   0.186   8.184
   27MYC    C67 1586   4.666   0.045   8.305
   27MYC   H124 1587   4.755   0.110   8.306
   27MYC   H125 1588   4.702   6.392   8.296
   27MYC    C66 1589   4.590   0.059   8.438
   27MYC   H126 1590   4.499   6.448   8.432
   27MYC   H127 1591   4.558   0.163   8.452
   27MYC    C65 1592   4.672   0.013   8.560
   27MYC   H128 1593   4.756   0.082   8.576
   27MYC   H129 1594   4.715   6.364   8.539
   27MYC    C64 1595   4.586   0.005   8.686
   27MYC   H130 1596   4.497   6.394   8.664
   27MYC   H131 1597   4.549   0.105   8.711
   27MYC    C63 1598   4.658   6.394   8.808
   27MYC   HH11 1599   4.743   0.007   8.836
   27MYC   H132 1600   4.697   6.295   8.782
   27MYC    C62 1601   4.561   6.381   8.927
   27MYC   H133 1602   4.475   6.320   8.896
   27MYC   H134 1603   4.522   0.031   8.952
   27MYC    C61 1604   4.622   6.318   9.053
   27MYC   H135 1605   4.712   6.373   9.082
   27MYC   H136 1606   4.653   6.215   9.031
   27MYC    C60 1607   4.520   6.318   9.165
   27MYC   H137 1608   4.429   6.266   9.137
   27MYC    C58 1609   4.556   6.316   9.312
   27MYC   H138 1610   4.661   6.316   9.338
   27MYC    C59 1611   4.503   6.443   9.248
   27MYC   H139 1612   4.401   0.024   9.271
   27MYC   H140 1613   4.573   0.075   9.233
   27MYC    C57 1614   4.468   6.236   9.408
   27MYC   HH10 1615   4.516   6.141   9.433
   27MYC   H141 1616   4.374   6.211   9.359
   27MYC    C56 1617   4.434   6.314   9.537
   27MYC   H142 1618   4.331   6.288   9.566
   27MYC   H143 1619   4.434   6.422   9.517
   27MYC    C55 1620   4.527   6.284   9.656
   27MYC   H144 1621   4.631   6.301   9.628
   27MYC   H145 1622   4.517   6.178   9.684
   27MYC    C54 1623   4.491   6.372   9.777
   27MYC   H146 1624   4.384   6.363   9.797
   27MYC   H147 1625   4.510   0.027   9.752
   27MYC    C53 1626   4.568   6.336   9.906
   27MYC   H148 1627   4.676   6.336   9.886
   27MYC   H149 1628   4.540   6.234   9.936
   27MYC    C52 1629   4.536   6.435  10.020
   27MYC    H99 1630   4.427   6.444  10.031
   27MYC   H150 1631   4.575   0.084   9.994
   27MYC    C51 1632   4.595   6.391  10.156
   27MYC    H97 1633   4.704   6.380  10.146
   27MYC    H98 1634   4.555   6.293  10.182
   27MYC    C50 1635   4.562   0.041  10.269
   27MYC    H95 1636   4.454   0.054  10.275
   27MYC    H96 1637   4.605   0.139  10.245
   27MYC    C49 1638   4.615   6.443  10.405
   27MYC    H93 1639   4.724   6.430  10.400
   27MYC    H94 1640   4.574   6.343  10.425
   27MYC    C48 1641   4.581   0.089  10.522
   27MYC    H91 1642   4.472   0.106  10.525
   27MYC    H92 1643   4.627   0.186  10.502
   27MYC    C47 1644   4.628   0.037  10.659
   27MYC    H89 1645   4.617   0.118  10.733
   27MYC    H90 1646   4.735   0.015  10.653
   27MYC    C46 1647   4.550   6.363  10.710
   27MYC    H87 1648   4.484   6.324  10.631
   27MYC    H88 1649   4.484   6.393  10.791
   27MYC    C45 1650   4.641   6.247  10.758
   27MYC    H85 1651   4.699   6.280  10.845
   27MYC    H86 1652   4.713   6.223  10.679
   27MYC    C44 1653   4.564   6.119  10.794
   27MYC    H83 1654   4.636   6.037  10.806
   27MYC    H84 1655   4.501   6.090  10.708
   27MYC    C18 1656   4.478   6.131  10.919
   27MYC    H31 1657   4.457   6.233  10.948
   27MYC    C17 1658   4.368   6.030  10.944
   27MYC    H30 1659   4.359   5.948  10.874
   27MYC    C19 1660   4.491   6.031  11.032
   27MYC    H32 1661   4.562   5.951  11.020
   27MYC    H33 1662   4.480   6.069  11.133
   27MYC    C16 1663   4.234   6.074  11.001
   27MYC    H28 1664   4.250   6.161  11.065
   27MYC    H29 1665   4.194   5.994  11.066
   27MYC    C15 1666   4.128   6.109  10.895
   27MYC    H26 1667   4.031   6.117  10.945
   27MYC    H27 1668   4.119   6.027  10.822
   27MYC    C14 1669   4.156   6.242  10.821
   27MYC    H24 1670   4.250   6.234  10.765
   27MYC    H25 1671   4.170   6.321  10.895
   27MYC    C13 1672   4.043   6.282  10.724
   27MYC    H22 1673   3.947   6.270  10.775
   27MYC    H23 1674   4.042   6.213  10.638
   27MYC    C12 1675   4.055   6.428  10.675
   27MYC    H20 1676   4.149   6.440  10.619
   27MYC    H21 1677   4.062   0.042  10.763
   27MYC    C11 1678   3.935   0.027  10.591
   27MYC    H18 1679   3.931   0.136  10.596
   27MYC    H19 1680   3.842   6.441  10.638
   27MYC    C10 1681   3.935   6.436  10.442
   27MYC    H16 1682   3.838   0.016  10.400
   27MYC    H17 1683   3.941   6.326  10.433
   27MYC     C9 1684   4.048   0.049  10.357
   27MYC    H14 1685   4.136   6.433  10.361
   27MYC    H15 1686   4.079   0.145  10.400
   27MYC     C8 1687   4.006   0.072  10.210
   27MYC    H12 1688   3.930   0.151  10.208
   27MYC    H13 1689   3.960   6.431  10.170
   27MYC     C7 1690   4.123   0.112  10.118
   27MYC    H10 1691   4.193   0.028  10.110
   27MYC    H11 1692   4.178   0.196  10.163
   27MYC     C6 1693   4.076   0.153   9.977
   27MYC     H8 1694   4.015   0.244   9.985
   27MYC     H9 1695   4.012   0.074   9.936
   27MYC     C5 1696   4.193   0.180   9.880
   27MYC     H6 1697   4.252   0.089   9.867
   27MYC     H7 1698   4.260   0.254   9.926
   27MYC     C4 1699   4.151   0.235   9.741
   27MYC     H4 1700   4.243   0.272   9.693
   27MYC     H5 1701   4.090   0.324   9.757
   27MYC     C2 1702   4.081   0.140   9.638
   27MYC     H2 1703   4.138   0.153   9.545
   27MYC     O3 1704   4.092   0.003   9.676
   27MYC     H3 1705   4.024   6.434   9.743
   27MYC     C1 1706   3.932   0.178   9.606
   27MYC     H1 1707   3.930   0.287   9.597
   27MYC    C81 1708   3.837   0.140   9.721
   27MYC    O82 1709   3.799   0.027   9.745
   27MYC    O83 1710   3.806   0.243   9.803
   27MYC   H105 1711   3.751   0.204   9.873
   27MYC    C20 1712   3.880   0.121   9.471
   27MYC    H34 1713   3.895   0.013   9.468
   27MYC    H35 1714   3.772   0.138   9.465
   27MYC    C21 1715   3.946   0.186   9.347
   27MYC    H36 1716   3.931   0.295   9.351
   27MYC    H37 1717   4.054   0.169   9.350
   27MYC    C22 1718   3.893   0.133   9.213
   27MYC    H38 1719   3.910   0.024   9.209
   27MYC    H39 1720   3.785   0.149   9.205
   27MYC    C23 1721   3.965   0.199   9.093
   27MYC    H40 1722   3.940   0.306   9.091
   27MYC    H41 1723   4.073   0.191   9.108
   27MYC    C24 1724   3.929   0.136   8.957
   27MYC    H42 1725   3.946   0.028   8.962
   27MYC    H43 1726   3.822   0.151   8.937
   27MYC    C25 1727   4.012   0.195   8.841
   27MYC    H44 1728   3.987   0.301   8.828
   27MYC    H45 1729   4.118   0.191   8.867
   27MYC    C26 1730   3.990   0.120   8.709
   27MYC    H46 1731   4.017   0.015   8.723
   27MYC    H47 1732   3.884   0.123   8.683
   27MYC    C27 1733   4.072   0.178   8.592
   27MYC    H48 1734   4.043   0.282   8.575
   27MYC    H49 1735   4.179   0.180   8.619
   27MYC    C28 1736   4.054   0.097   8.463
   27MYC    H50 1737   4.094   6.446   8.479
   27MYC    H51 1738   3.946   0.086   8.443
   27MYC    C29 1739   4.121   0.160   8.340
   27MYC    H52 1740   4.082   0.261   8.325
   27MYC    H53 1741   4.229   0.169   8.357
   27MYC    C30 1742   4.096   0.075   8.214
   27MYC    H54 1743   4.143   6.427   8.226
   27MYC    H55 1744   3.988   0.058   8.204
   27MYC    C31 1745   4.148   0.140   8.084
   27MYC    H56 1746   4.107   0.241   8.075
   27MYC    H57 1747   4.257   0.149   8.088
   27MYC    C32 1748   4.106   0.057   7.961
   27MYC    H58 1749   4.148   6.406   7.969
   27MYC    H59 1750   3.997   0.046   7.961
   27MYC    C33 1751   4.149   0.119   7.826
   27MYC    H60 1752   4.114   0.222   7.821
   27MYC    H61 1753   4.258   0.121   7.820
   27MYC    C34 1754   4.090   0.039   7.708
   27MYC    H62 1755   4.126   6.385   7.713
   27MYC    H63 1756   3.981   0.035   7.719
   27MYC    C35 1757   4.124   0.098   7.570
   27MYC    H64 1758   4.102   0.205   7.570
   27MYC    H65 1759   4.231   0.086   7.550
   27MYC    C36 1760   4.042   0.029   7.459
   27MYC    H66 1761   4.063   6.371   7.459
   27MYC    H67 1762   3.936   0.041   7.482
   27MYC    C37 1763   4.069   0.085   7.318
   27MYC    H68 1764   4.067   0.194   7.321
   27MYC    H69 1765   4.169   0.055   7.285
   27MYC    C38 1766   3.963   0.036   7.217
   27MYC    H70 1767   3.964   6.376   7.214
   27MYC    H71 1768   3.864   0.066   7.253
   27MYC    C39 1769   3.984   0.090   7.074
   27MYC    H72 1770   4.003   0.198   7.079
   27MYC    H73 1771   4.073   0.043   7.030
   27MYC    C40 1772   3.861   0.065   6.984
   27MYC    H74 1773   3.838   6.407   6.983
   27MYC    H75 1774   3.775   0.116   7.028
   27MYC    C41 1775   3.881   0.114   6.839
   27MYC    H76 1776   3.910   0.220   6.841
   27MYC    H77 1777   3.963   0.058   6.793
   27MYC    C42 1778   3.753   0.098   6.754
   27MYC    H78 1779   3.724   6.442   6.752
   27MYC    H79 1780   3.671   0.152   6.802
   27MYC    C43 1781   3.769   0.149   6.610
   27MYC    H80 1782   3.677   0.132   6.553
   27MYC    H81 1783   3.852   0.098   6.559
   27MYC    H82 1784   3.789   0.257   6.610
   28MYC   HH15 1785   5.548   0.114   6.614
   28MYC    C80 1786   5.488   0.087   6.702
   28MYC   H100 1787   5.388   0.132   6.690
   28MYC   H101 1788   5.477   6.428   6.704
   28MYC    C79 1789   5.555   0.138   6.830
   28MYC   H102 1790   5.568   0.247   6.823
   28MYC   H103 1791   5.655   0.094   6.838
   28MYC    C78 1792   5.475   0.105   6.958
   28MYC   HH14 1793   5.458   6.446   6.963
   28MYC   H104 1794   5.376   0.152   6.952
   28MYC    C77 1795   5.546   0.150   7.087
   28MYC   H106 1796   5.565   0.258   7.082
   28MYC   H107 1797   5.644   0.101   7.092
   28MYC    C76 1798   5.466   0.119   7.215
   28MYC   H108 1799   5.440   0.012   7.216
   28MYC   H109 1800   5.372   0.175   7.214
   28MYC    C75 1801   5.546   0.152   7.343
   28MYC   H110 1802   5.568   0.259   7.345
   28MYC   H111 1803   5.642   0.099   7.340
   28MYC    C74 1804   5.472   0.113   7.472
   28MYC   H112 1805   5.445   0.007   7.469
   28MYC   H113 1806   5.378   0.170   7.479
   28MYC    C73 1807   5.557   0.140   7.598
   28MYC   HH13 1808   5.580   0.247   7.603
   28MYC   H114 1809   5.653   0.087   7.588
   28MYC    C72 1810   5.489   0.097   7.729
   28MYC   H115 1811   5.467   6.439   7.725
   28MYC   H116 1812   5.394   0.150   7.739
   28MYC    C71 1813   5.578   0.126   7.852
   28MYC   H117 1814   5.606   0.232   7.850
   28MYC   H118 1815   5.670   0.068   7.844
   28MYC    C70 1816   5.509   0.096   7.986
   28MYC   H119 1817   5.482   6.440   7.991
   28MYC   H120 1818   5.415   0.153   7.991
   28MYC    C69 1819   5.597   0.134   8.106
   28MYC   H121 1820   5.628   0.239   8.096
   28MYC   H122 1821   5.689   0.074   8.103
   28MYC    C68 1822   5.528   0.115   8.242
   28MYC   HH12 1823   5.502   0.009   8.255
   28MYC   H123 1824   5.434   0.171   8.242
   28MYC    C67 1825   5.615   0.163   8.359
   28MYC   H124 1826   5.636   0.270   8.346
   28MYC   H125 1827   5.711   0.110   8.357
   28MYC    C66 1828   5.548   0.141   8.496
   28MYC   H126 1829   5.535   0.033   8.513
   28MYC   H127 1830   5.448   0.185   8.495
   28MYC    C65 1831   5.629   0.202   8.612
   28MYC   H128 1832   5.633   0.311   8.599
   28MYC   H129 1833   5.732   0.165   8.608
   28MYC    C64 1834   5.568   0.169   8.749
   28MYC   H130 1835   5.573   0.060   8.766
   28MYC   H131 1836   5.461   0.195   8.748
   28MYC    C63 1837   5.634   0.241   8.868
   28MYC   HH11 1838   5.577   0.213   8.957
   28MYC   H132 1839   5.621   0.349   8.856
   28MYC    C62 1840   5.784   0.209   8.891
   28MYC   H133 1841   5.841   0.246   8.804
   28MYC   H134 1842   5.799   0.101   8.894
   28MYC    C61 1843   5.843   0.274   9.018
   28MYC   H135 1844   5.816   0.380   9.021
   28MYC   H136 1845   5.952   0.271   9.011
   28MYC    C60 1846   5.802   0.204   9.148
   28MYC   H137 1847   5.844   0.103   9.155
   28MYC    C58 1848   5.788   0.281   9.277
   28MYC   H138 1849   5.797   0.389   9.272
   28MYC    C59 1850   5.666   0.223   9.211
   28MYC   H139 1851   5.619   0.136   9.256
   28MYC   H140 1852   5.597   0.294   9.167
   28MYC    C57 1853   5.840   0.226   9.409
   28MYC   HH10 1854   5.936   0.273   9.434
   28MYC   H141 1855   5.859   0.118   9.400
   28MYC    C56 1856   5.740   0.250   9.525
   28MYC   H142 1857   5.646   0.198   9.503
   28MYC   H143 1858   5.718   0.357   9.531
   28MYC    C55 1859   5.794   0.201   9.660
   28MYC   H144 1860   5.887   0.255   9.684
   28MYC   H145 1861   5.819   0.094   9.652
   28MYC    C54 1862   5.694   0.218   9.776
   28MYC   H146 1863   5.609   0.150   9.760
   28MYC   H147 1864   5.654   0.320   9.773
   28MYC    C53 1865   5.756   0.192   9.914
   28MYC   H148 1866   5.836   0.265   9.932
   28MYC   H149 1867   5.801   0.092   9.916
   28MYC    C52 1868   5.652   0.202  10.028
   28MYC    H99 1869   5.579   0.120  10.016
   28MYC   H150 1870   5.597   0.295  10.017
   28MYC    C51 1871   5.713   0.197  10.170
   28MYC    H97 1872   5.770   0.289  10.187
   28MYC    H98 1873   5.783   0.113  10.177
   28MYC    C50 1874   5.604   0.182  10.279
   28MYC    H95 1875   5.557   0.083  10.267
   28MYC    H96 1876   5.526   0.256  10.262
   28MYC    C49 1877   5.657   0.196  10.423
   28MYC    H93 1878   5.692   0.299  10.438
   28MYC    H94 1879   5.745   0.131  10.436
   28MYC    C48 1880   5.551   0.160  10.529
   28MYC    H91 1881   5.522   0.056  10.513
   28MYC    H92 1882   5.461   0.222  10.513
   28MYC    C47 1883   5.600   0.177  10.674
   28MYC    H89 1884   5.619   0.283  10.695
   28MYC    H90 1885   5.695   0.124  10.686
   28MYC    C46 1886   5.499   0.121  10.777
   28MYC    H87 1887   5.474   0.018  10.750
   28MYC    H88 1888   5.405   0.178  10.771
   28MYC    C45 1889   5.552   0.123  10.923
   28MYC    H85 1890   5.555   0.227  10.960
   28MYC    H86 1891   5.656   0.088  10.922
   28MYC    C44 1892   5.471   0.034  11.020
   28MYC    H83 1893   5.533   0.016  11.109
   28MYC    H84 1894   5.456   6.386  10.973
   28MYC    C18 1895   5.336   0.090  11.062
   28MYC    H31 1896   5.292   0.158  10.989
   28MYC    C17 1897   5.239   0.003  11.139
   28MYC    H30 1898   5.273   6.354  11.167
   28MYC    C19 1899   5.306   0.119  11.208
   28MYC    H32 1900   5.382   0.095  11.282
   28MYC    H33 1901   5.245   0.204  11.232
   28MYC    C16 1902   5.089   0.007  11.110
   28MYC    H28 1903   5.061   0.101  11.062
   28MYC    H29 1904   5.035   0.004  11.206
   28MYC    C15 1905   5.038   6.340  11.023
   28MYC    H26 1906   4.929   6.347  11.018
   28MYC    H27 1907   5.061   6.245  11.073
   28MYC    C14 1908   5.093   6.337  10.879
   28MYC    H24 1909   5.202   6.328  10.880
   28MYC    H25 1910   5.068   6.431  10.829
   28MYC    C13 1911   5.033   6.219  10.800
   28MYC    H22 1912   4.923   6.225  10.804
   28MYC    H23 1913   5.060   6.126  10.851
   28MYC    C12 1914   5.077   6.209  10.653
   28MYC    H20 1915   5.186   6.204  10.649
   28MYC    H21 1916   5.046   6.299  10.599
   28MYC    C11 1917   5.017   6.084  10.584
   28MYC    H18 1918   4.908   6.095  10.575
   28MYC    H19 1919   5.034   5.997  10.649
   28MYC    C10 1920   5.077   6.052  10.446
   28MYC    H16 1921   5.052   5.948  10.421
   28MYC    H17 1922   5.187   6.057  10.452
   28MYC     C9 1923   5.028   6.142  10.330
   28MYC    H14 1924   5.047   6.248  10.354
   28MYC    H15 1925   4.919   6.130  10.320
   28MYC     C8 1926   5.097   6.107  10.197
   28MYC    H12 1927   5.110   5.998  10.190
   28MYC    H13 1928   5.198   6.150  10.197
   28MYC     C7 1929   5.021   6.154  10.071
   28MYC    H10 1930   5.001   6.262  10.079
   28MYC    H11 1931   4.924   6.103  10.066
   28MYC     C6 1932   5.101   6.127   9.942
   28MYC     H8 1933   5.131   6.021   9.938
   28MYC     H9 1934   5.194   6.185   9.946
   28MYC     C5 1935   5.027   6.163   9.811
   28MYC     H6 1936   5.103   6.173   9.732
   28MYC     H7 1937   4.981   6.262   9.821
   28MYC     C4 1938   4.919   6.060   9.767
   28MYC     H4 1939   4.820   6.105   9.782
   28MYC     H5 1940   4.922   5.970   9.831
   28MYC     C2 1941   4.935   6.019   9.619
   28MYC     H2 1942   4.948   6.112   9.563
   28MYC     O3 1943   5.053   5.939   9.604
   28MYC     H3 1944   5.113   5.960   9.678
   28MYC     C1 1945   4.812   5.944   9.557
   28MYC     H1 1946   4.728   6.013   9.569
   28MYC    C81 1947   4.778   5.815   9.635
   28MYC    O82 1948   4.841   5.711   9.629
   28MYC    O83 1949   4.670   5.826   9.716
   28MYC   H105 1950   4.660   5.739   9.759
   28MYC    C20 1951   4.827   5.914   9.405
   28MYC    H34 1952   4.897   5.830   9.392
   28MYC    H35 1953   4.731   5.880   9.367
   28MYC    C21 1954   4.877   6.033   9.319
   28MYC    H36 1955   4.817   6.122   9.342
   28MYC    H37 1956   4.981   6.056   9.346
   28MYC    C22 1957   4.871   6.004   9.168
   28MYC    H38 1958   4.917   5.907   9.148
   28MYC    H39 1959   4.766   5.997   9.138
   28MYC    C23 1960   4.941   6.112   9.082
   28MYC    H40 1961   4.900   6.211   9.106
   28MYC    H41 1962   5.048   6.115   9.108
   28MYC    C24 1963   4.925   6.084   8.932
   28MYC    H42 1964   4.969   5.986   8.909
   28MYC    H43 1965   4.818   6.078   8.908
   28MYC    C25 1966   4.990   6.190   8.840
   28MYC    H44 1967   4.949   6.289   8.863
   28MYC    H45 1968   5.098   6.195   8.859
   28MYC    C26 1969   4.965   6.157   8.691
   28MYC    H46 1970   5.009   6.059   8.669
   28MYC    H47 1971   4.857   6.148   8.675
   28MYC    C27 1972   5.021   6.261   8.592
   28MYC    H48 1973   4.980   6.360   8.615
   28MYC    H49 1974   5.130   6.267   8.603
   28MYC    C28 1975   4.986   6.222   8.447
   28MYC    H50 1976   5.023   6.121   8.427
   28MYC    H51 1977   4.877   6.218   8.437
   28MYC    C29 1978   5.041   6.318   8.340
   28MYC    H52 1979   5.007   6.420   8.360
   28MYC    H53 1980   5.151   6.318   8.344
   28MYC    C30 1981   4.995   6.275   8.199
   28MYC    H54 1982   5.022   6.169   8.183
   28MYC    H55 1983   4.886   6.281   8.194
   28MYC    C31 1984   5.055   6.358   8.084
   28MYC    H56 1985   5.035   0.015   8.100
   28MYC    H57 1986   5.164   6.345   8.083
   28MYC    C32 1987   4.996   6.314   7.948
   28MYC    H58 1988   5.005   6.205   7.939
   28MYC    H59 1989   4.889   6.338   7.946
   28MYC    C33 1990   5.065   6.379   7.826
   28MYC    H60 1991   5.054   0.038   7.831
   28MYC    H61 1992   5.173   6.357   7.830
   28MYC    C34 1993   5.007   6.325   7.694
   28MYC    H62 1994   5.009   6.215   7.696
   28MYC    H63 1995   4.902   6.355   7.685
   28MYC    C35 1996   5.084   6.373   7.570
   28MYC    H64 1997   5.074   0.032   7.560
   28MYC    H65 1998   5.191   6.351   7.583
   28MYC    C36 1999   5.035   6.305   7.441
   28MYC    H66 2000   5.047   6.196   7.450
   28MYC    H67 2001   4.928   6.324   7.428
   28MYC    C37 2002   5.110   6.354   7.316
   28MYC    H68 2003   5.095   0.012   7.305
   28MYC    H69 2004   5.218   6.338   7.330
   28MYC    C38 2005   5.066   6.283   7.187
   28MYC    H70 2006   5.085   6.175   7.195
   28MYC    H71 2007   4.957   6.296   7.174
   28MYC    C39 2008   5.139   6.338   7.063
   28MYC    H72 2009   5.123   6.446   7.058
   28MYC    H73 2010   5.247   6.322   7.075
   28MYC    C40 2011   5.092   6.275   6.931
   28MYC    H74 2012   5.105   6.166   6.934
   28MYC    H75 2013   4.985   6.294   6.918
   28MYC    C41 2014   5.170   6.332   6.810
   28MYC    H76 2015   5.174   6.441   6.820
   28MYC    H77 2016   5.273   6.296   6.813
   28MYC    C42 2017   5.106   6.297   6.674
   28MYC    H78 2018   5.107   6.189   6.660
   28MYC    H79 2019   5.001   6.329   6.674
   28MYC    C43 2020   5.178   6.364   6.557
   28MYC    H80 2021   5.129   6.338   6.463
   28MYC    H81 2022   5.283   6.333   6.552
   28MYC    H82 2023   5.175   0.024   6.567
   29MYC   HH15 2024   5.653   6.196   6.566
   29MYC    C80 2025   5.720   6.215   6.651
   29MYC   H100 2026   5.816   6.165   6.631
   29MYC   H101 2027   5.738   6.323   6.658
   29MYC    C79 2028   5.658   6.161   6.781
   29MYC   H102 2029   5.638   6.054   6.771
   29MYC   H103 2030   5.561   6.211   6.798
   29MYC    C78 2031   5.748   6.185   6.904
   29MYC   HH14 2032   5.771   6.292   6.912
   29MYC   H104 2033   5.844   6.133   6.889
   29MYC    C77 2034   5.685   6.137   7.036
   29MYC   H106 2035   5.672   6.028   7.033
   29MYC   H107 2036   5.586   6.181   7.047
   29MYC    C76 2037   5.771   6.175   7.158
   29MYC   H108 2038   5.777   6.285   7.164
   29MYC   H109 2039   5.873   6.138   7.145
   29MYC    C75 2040   5.715   6.120   7.291
   29MYC   H110 2041   5.733   6.012   7.294
   29MYC   H111 2042   5.606   6.135   7.294
   29MYC    C74 2043   5.777   6.187   7.414
   29MYC   H112 2044   5.743   6.292   7.418
   29MYC   H113 2045   5.887   6.190   7.404
   29MYC    C73 2046   5.742   6.116   7.545
   29MYC   HH13 2047   5.808   6.029   7.558
   29MYC   H114 2048   5.639   6.076   7.539
   29MYC    C72 2049   5.751   6.207   7.668
   29MYC   H115 2050   5.668   6.278   7.666
   29MYC   H116 2051   5.844   6.266   7.664
   29MYC    C71 2052   5.749   6.129   7.800
   29MYC   H117 2053   5.839   6.067   7.806
   29MYC   H118 2054   5.663   6.060   7.800
   29MYC    C70 2055   5.741   6.220   7.924
   29MYC   H119 2056   5.641   6.265   7.928
   29MYC   H120 2057   5.813   6.302   7.914
   29MYC    C69 2058   5.768   6.143   8.054
   29MYC   H121 2059   5.868   6.099   8.049
   29MYC   H122 2060   5.696   6.061   8.064
   29MYC    C68 2061   5.759   6.234   8.178
   29MYC   HH12 2062   5.657   6.274   8.185
   29MYC   H123 2063   5.827   6.320   8.166
   29MYC    C67 2064   5.795   6.160   8.308
   29MYC   H124 2065   5.899   6.127   8.304
   29MYC   H125 2066   5.732   6.070   8.316
   29MYC    C66 2067   5.773   6.248   8.432
   29MYC   H126 2068   5.671   6.287   8.430
   29MYC   H127 2069   5.841   6.335   8.428
   29MYC    C65 2070   5.794   6.171   8.563
   29MYC   H128 2071   5.900   6.143   8.573
   29MYC   H129 2072   5.736   6.078   8.560
   29MYC    C64 2073   5.751   6.254   8.686
   29MYC   H130 2074   5.652   6.296   8.667
   29MYC   H131 2075   5.820   6.338   8.699
   29MYC    C63 2076   5.744   6.170   8.814
   29MYC   HH11 2077   5.842   6.125   8.834
   29MYC   H132 2078   5.673   6.088   8.799
   29MYC    C62 2079   5.702   6.254   8.936
   29MYC   H133 2080   5.620   6.321   8.908
   29MYC   H134 2081   5.786   6.317   8.966
   29MYC    C61 2082   5.656   6.168   9.055
   29MYC   H135 2083   5.726   6.084   9.069
   29MYC   H136 2084   5.558   6.124   9.032
   29MYC    C60 2085   5.647   6.249   9.182
   29MYC   H137 2086   5.582   6.336   9.172
   29MYC    C58 2087   5.650   6.182   9.317
   29MYC   H138 2088   5.662   6.074   9.318
   29MYC    C59 2089   5.768   6.264   9.271
   29MYC   H139 2090   5.785   6.361   9.317
   29MYC   H140 2091   5.859   6.210   9.244
   29MYC    C57 2092   5.565   6.232   9.433
   29MYC   HH10 2093   5.467   6.181   9.433
   29MYC   H141 2094   5.546   6.339   9.424
   29MYC    C56 2095   5.637   6.205   9.566
   29MYC   H142 2096   5.734   6.256   9.565
   29MYC   H143 2097   5.657   6.097   9.574
   29MYC    C55 2098   5.559   6.248   9.692
   29MYC   H144 2099   5.469   6.187   9.702
   29MYC   H145 2100   5.528   6.353   9.682
   29MYC    C54 2101   5.648   6.233   9.817
   29MYC   H146 2102   5.732   6.304   9.810
   29MYC   H147 2103   5.691   6.132   9.817
   29MYC    C53 2104   5.576   6.252   9.950
   29MYC   H148 2105   5.502   6.172   9.962
   29MYC   H149 2106   5.522   6.347   9.951
   29MYC    C52 2107   5.676   6.249  10.068
   29MYC    H99 2108   5.734   6.342  10.068
   29MYC   H150 2109   5.747   6.167  10.053
   29MYC    C51 2110   5.607   6.229  10.204
   29MYC    H97 2111   5.560   6.130  10.205
   29MYC    H98 2112   5.527   6.303  10.215
   29MYC    C50 2113   5.704   6.242  10.323
   29MYC    H95 2114   5.742   6.344  10.328
   29MYC    H96 2115   5.790   6.175  10.308
   29MYC    C49 2116   5.634   6.205  10.454
   29MYC    H93 2117   5.605   6.099  10.450
   29MYC    H94 2118   5.541   6.262  10.462
   29MYC    C48 2119   5.718   6.229  10.581
   29MYC    H91 2120   5.740   6.336  10.590
   29MYC    H92 2121   5.813   6.176  10.573
   29MYC    C47 2122   5.642   6.181  10.706
   29MYC    H89 2123   5.620   6.074  10.694
   29MYC    H90 2124   5.545   6.232  10.712
   29MYC    C46 2125   5.718   6.201  10.838
   29MYC    H87 2126   5.728   6.309  10.857
   29MYC    H88 2127   5.818   6.159  10.828
   29MYC    C45 2128   5.645   6.134  10.956
   29MYC    H85 2129   5.644   6.025  10.941
   29MYC    H86 2130   5.540   6.166  10.956
   29MYC    C44 2131   5.705   6.166  11.094
   29MYC    H83 2132   5.637   6.126  11.170
   29MYC    H84 2133   5.705   6.275  11.108
   29MYC    C18 2134   5.846   6.111  11.118
   29MYC    H31 2135   5.887   6.058  11.033
   29MYC    C17 2136   5.941   6.191  11.204
   29MYC    H30 2137   5.901   6.280  11.251
   29MYC    C19 2138   5.888   6.060  11.255
   29MYC    H32 2139   5.818   6.066  11.337
   29MYC    H33 2140   5.956   5.976  11.259
   29MYC    C16 2141   6.089   6.205  11.171
   29MYC    H28 2142   6.131   6.110  11.136
   29MYC    H29 2143   6.143   6.231  11.263
   29MYC    C15 2144   6.118   6.315  11.066
   29MYC    H26 2145   6.224   6.338  11.071
   29MYC    H27 2146   6.064   6.406  11.093
   29MYC    C14 2147   6.080   6.278  10.922
   29MYC    H24 2148   5.982   6.321  10.898
   29MYC    H25 2149   6.071   6.169  10.911
   29MYC    C13 2150   6.185   6.328  10.821
   29MYC    H22 2151   6.280   6.277  10.842
   29MYC    H23 2152   6.203   6.435  10.834
   29MYC    C12 2153   6.144   6.302  10.675
   29MYC    H20 2154   6.085   6.387  10.639
   29MYC    H21 2155   6.078   6.214  10.670
   29MYC    C11 2156   6.265   6.277  10.583
   29MYC    H18 2157   6.318   6.188  10.618
   29MYC    H19 2158   6.335   6.361  10.588
   29MYC    C10 2159   6.223   6.254  10.437
   29MYC    H16 2160   6.135   6.188  10.434
   29MYC    H17 2161   6.303   6.202  10.384
   29MYC     C9 2162   6.191   6.384  10.360
   29MYC    H14 2163   6.285   6.438  10.343
   29MYC    H15 2164   6.128   0.001  10.420
   29MYC     C8 2165   6.120   6.357  10.227
   29MYC    H12 2166   6.012   6.372  10.239
   29MYC    H13 2167   6.133   6.251  10.200
   29MYC     C7 2168   6.172   6.442  10.110
   29MYC    H10 2169   6.280   6.428  10.101
   29MYC    H11 2170   6.154   0.099  10.130
   29MYC     C6 2171   6.104   6.402   9.978
   29MYC     H8 2172   6.000   6.434   9.980
   29MYC     H9 2173   6.104   6.292   9.970
   29MYC     C5 2174   6.175   0.009   9.854
   29MYC     H6 2175   6.279   6.426   9.855
   29MYC     H7 2176   6.174   0.118   9.859
   29MYC     C4 2177   6.105   6.411   9.725
   29MYC     H4 2178   6.005   0.005   9.724
   29MYC     H5 2179   6.091   6.302   9.728
   29MYC     C2 2180   6.174   6.448   9.591
   29MYC     H2 2181   6.093   6.448   9.517
   29MYC     O3 2182   6.230   0.129   9.597
   29MYC     H3 2183   6.309   0.125   9.654
   29MYC     C1 2184   6.280   6.345   9.541
   29MYC     H1 2185   6.228   6.249   9.532
   29MYC    C81 2186   6.396   6.324   9.641
   29MYC    O82 2187   0.028   6.410   9.670
   29MYC    O83 2188   6.401   6.200   9.696
   29MYC   H105 2189   0.027   6.203   9.757
   29MYC    C20 2190   6.337   6.379   9.401
   29MYC    H34 2191   6.397   0.021   9.407
   29MYC    H35 2192   6.406   6.299   9.371
   29MYC    C21 2193   6.230   6.396   9.292
   29MYC    H36 2194   6.166   6.307   9.289
   29MYC    H37 2195   6.166   0.032   9.315
   29MYC    C22 2196   6.291   6.419   9.153
   29MYC    H38 2197   6.356   0.058   9.156
   29MYC    H39 2198   6.355   6.334   9.128
   29MYC    C23 2199   6.185   6.437   9.043
   29MYC    H40 2200   6.120   6.349   9.040
   29MYC    H41 2201   6.122   0.074   9.067
   29MYC    C24 2202   6.251   0.008   8.906
   29MYC    H42 2203   6.311   0.099   8.908
   29MYC    H43 2204   6.319   6.374   8.887
   29MYC    C25 2205   6.150   0.015   8.790
   29MYC    H44 2206   6.091   6.372   8.787
   29MYC    H45 2207   6.079   0.098   8.807
   29MYC    C26 2208   6.222   0.035   8.656
   29MYC    H46 2209   6.267   0.136   8.654
   29MYC    H47 2210   6.305   6.414   8.649
   29MYC    C27 2211   6.131   0.017   8.534
   29MYC    H48 2212   6.089   6.365   8.535
   29MYC    H49 2213   6.047   0.088   8.538
   29MYC    C28 2214   6.210   0.037   8.403
   29MYC    H50 2215   6.245   0.141   8.398
   29MYC    H51 2216   6.299   6.423   8.405
   29MYC    C29 2217   6.128   0.004   8.277
   29MYC    H52 2218   6.095   6.349   8.281
   29MYC    H53 2219   6.038   0.067   8.274
   29MYC    C30 2220   6.210   0.027   8.149
   29MYC    H54 2221   6.244   0.131   8.146
   29MYC    H55 2222   6.301   6.414   8.153
   29MYC    C31 2223   6.132   6.444   8.021
   29MYC    H56 2224   6.100   6.339   8.024
   29MYC    H57 2225   6.041   0.056   8.017
   29MYC    C32 2226   6.216   0.018   7.894
   29MYC    H58 2227   6.248   0.123   7.892
   29MYC    H59 2228   6.307   6.406   7.899
   29MYC    C33 2229   6.139   6.435   7.766
   29MYC    H60 2230   6.104   6.331   7.771
   29MYC    H61 2231   6.049   0.049   7.760
   29MYC    C34 2232   6.224   0.004   7.639
   29MYC    H62 2233   6.260   0.107   7.633
   29MYC    H63 2234   6.312   6.389   7.645
   29MYC    C35 2235   6.145   6.420   7.511
   29MYC    H64 2236   6.100   6.320   7.523
   29MYC    H65 2237   6.063   0.041   7.499
   29MYC    C36 2238   6.232   6.420   7.384
   29MYC    H66 2239   6.279   0.069   7.372
   29MYC    H67 2240   6.313   6.347   7.396
   29MYC    C37 2241   6.150   6.386   7.259
   29MYC    H68 2242   6.091   6.295   7.278
   29MYC    H69 2243   6.078   0.017   7.240
   29MYC    C38 2244   6.236   6.362   7.133
   29MYC    H70 2245   6.297   0.001   7.113
   29MYC    H71 2246   6.304   6.279   7.152
   29MYC    C39 2247   6.149   6.331   7.010
   29MYC    H72 2248   6.079   6.250   7.036
   29MYC    H73 2249   6.088   6.419   6.986
   29MYC    C40 2250   6.230   6.289   6.886
   29MYC    H74 2251   6.299   6.369   6.858
   29MYC    H75 2252   6.290   6.201   6.910
   29MYC    C41 2253   6.137   6.256   6.767
   29MYC    H76 2254   6.067   6.178   6.797
   29MYC    H77 2255   6.078   6.345   6.743
   29MYC    C42 2256   6.213   6.210   6.641
   29MYC    H78 2257   6.282   6.288   6.609
   29MYC    H79 2258   6.272   6.121   6.664
   29MYC    C43 2259   6.116   6.178   6.526
   29MYC    H80 2260   6.171   6.147   6.436
   29MYC    H81 2261   6.056   6.266   6.502
   29MYC    H82 2262   6.049   6.096   6.554
   30MYC   HH15 2263   6.285   0.788   6.637
   30MYC    C80 2264   6.348   0.789   6.727
   30MYC   H100 2265   6.402   0.694   6.731
   30MYC   H101 2266   6.421   0.870   6.717
   30MYC    C79 2267   6.261   0.807   6.853
   30MYC   H102 2268   6.189   0.726   6.858
   30MYC   H103 2269   6.205   0.901   6.844
   30MYC    C78 2270   6.344   0.808   6.982
   30MYC   HH14 2271   6.416   0.891   6.978
   30MYC   H104 2272   6.402   0.716   6.987
   30MYC    C77 2273   6.259   0.821   7.110
   30MYC   H106 2274   6.185   0.740   7.113
   30MYC   H107 2275   6.203   0.916   7.108
   30MYC    C76 2276   6.346   0.815   7.236
   30MYC   H108 2277   6.417   0.899   7.234
   30MYC   H109 2278   6.405   0.723   7.234
   30MYC    C75 2279   6.267   0.821   7.368
   30MYC   H110 2280   6.194   0.739   7.371
   30MYC   H111 2281   6.211   0.915   7.374
   30MYC    C74 2282   6.362   0.809   7.489
   30MYC   H112 2283   6.440   0.886   7.482
   30MYC   H113 2284   6.413   0.712   7.486
   30MYC    C73 2285   6.291   0.824   7.625
   30MYC   HH13 2286   6.214   0.746   7.635
   30MYC   H114 2287   6.239   0.921   7.628
   30MYC    C72 2288   6.389   0.815   7.743
   30MYC   H115 2289   0.019   0.890   7.729
   30MYC   H116 2290   6.437   0.717   7.742
   30MYC    C71 2291   6.321   0.838   7.878
   30MYC   H117 2292   6.240   0.766   7.891
   30MYC   H118 2293   6.275   0.938   7.879
   30MYC    C70 2294   6.418   0.826   7.997
   30MYC   H119 2295   0.050   0.898   7.985
   30MYC   H120 2296   0.013   0.726   7.996
   30MYC    C69 2297   6.348   0.850   8.131
   30MYC   H121 2298   6.263   0.781   8.140
   30MYC   H122 2299   6.307   0.952   8.133
   30MYC    C68 2300   6.441   0.831   8.251
   30MYC   HH12 2301   0.076   0.901   8.244
   30MYC   H123 2302   0.033   0.730   8.249
   30MYC    C67 2303   6.369   0.853   8.385
   30MYC   H124 2304   6.279   0.790   8.389
   30MYC   H125 2305   6.335   0.958   8.391
   30MYC    C66 2306   0.008   0.822   8.506
   30MYC   H126 2307   0.099   0.884   8.501
   30MYC   H127 2308   0.040   0.717   8.501
   30MYC    C65 2309   6.387   0.847   8.640
   30MYC   H128 2310   6.297   0.783   8.646
   30MYC   H129 2311   6.353   0.951   8.644
   30MYC    C64 2312   0.029   0.818   8.759
   30MYC   H130 2313   0.120   0.878   8.749
   30MYC   H131 2314   0.059   0.712   8.758
   30MYC    C63 2315   6.413   0.850   8.894
   30MYC   HH11 2316   6.327   0.784   8.910
   30MYC   H132 2317   6.375   0.953   8.892
   30MYC    C62 2318   0.062   0.836   9.011
   30MYC   H133 2319   0.148   0.901   8.995
   30MYC   H134 2320   0.100   0.733   9.015
   30MYC    C61 2321   6.447   0.870   9.147
   30MYC   H135 2322   6.367   0.798   9.166
   30MYC   H136 2323   6.399   0.969   9.140
   30MYC    C60 2324   0.098   0.872   9.261
   30MYC   H137 2325   0.158   0.962   9.262
   30MYC    C58 2326   0.059   0.812   9.394
   30MYC   H138 2327   6.413   0.761   9.398
   30MYC    C59 2328   0.167   0.746   9.310
   30MYC   H139 2329   0.270   0.756   9.343
   30MYC   H140 2330   0.142   0.653   9.261
   30MYC    C57 2331   0.090   0.888   9.522
   30MYC   HH10 2332   0.023   0.974   9.528
   30MYC   H141 2333   0.192   0.926   9.520
   30MYC    C56 2334   0.069   0.801   9.647
   30MYC   H142 2335   0.143   0.719   9.648
   30MYC   H143 2336   6.420   0.754   9.642
   30MYC    C55 2337   0.080   0.882   9.778
   30MYC   H144 2338   0.020   0.973   9.767
   30MYC   H145 2339   0.184   0.913   9.793
   30MYC    C54 2340   0.029   0.804   9.900
   30MYC   H146 2341   0.088   0.713   9.913
   30MYC   H147 2342   6.375   0.773   9.881
   30MYC    C53 2343   0.033   0.886  10.031
   30MYC   H148 2344   6.430   0.981  10.015
   30MYC   H149 2345   0.137   0.909  10.057
   30MYC    C52 2346   6.415   0.810  10.147
   30MYC    H99 2347   0.019   0.716  10.165
   30MYC   H150 2348   6.313   0.783  10.117
   30MYC    C51 2349   6.408   0.891  10.279
   30MYC    H97 2350   6.363   0.989  10.259
   30MYC    H98 2351   0.059   0.908  10.317
   30MYC    C50 2352   6.323   0.816  10.385
   30MYC    H95 2353   6.370   0.720  10.407
   30MYC    H96 2354   6.225   0.794  10.341
   30MYC    C49 2355   6.300   0.894  10.516
   30MYC    H93 2356   6.214   0.848  10.567
   30MYC    H94 2357   6.271   0.997  10.493
   30MYC    C48 2358   6.420   0.893  10.613
   30MYC    H91 2359   0.053   0.952  10.570
   30MYC    H92 2360   0.006   0.790  10.624
   30MYC    C47 2361   6.384   0.949  10.753
   30MYC    H89 2362   6.296   0.894  10.791
   30MYC    H90 2363   6.354   1.054  10.743
   30MYC    C46 2364   0.049   0.935  10.855
   30MYC    H87 2365   0.134   0.996  10.821
   30MYC    H88 2366   0.083   0.831  10.856
   30MYC    C45 2367   0.008   0.977  10.998
   30MYC    H85 2368   6.378   0.912  11.035
   30MYC    H86 2369   6.416   1.078  10.995
   30MYC    C44 2370   0.125   0.976  11.100
   30MYC    H83 2371   0.088   1.020  11.193
   30MYC    H84 2372   0.204   1.042  11.064
   30MYC    C18 2373   0.182   0.837  11.131
   30MYC    H31 2374   0.144   0.760  11.064
   30MYC    C17 2375   0.325   0.822  11.178
   30MYC    H30 2376   0.381   0.913  11.197
   30MYC    C19 2377   0.211   0.794  11.272
   30MYC    H32 2378   0.195   0.865  11.353
   30MYC    H33 2379   0.191   0.690  11.298
   30MYC    C16 2380   0.412   0.711  11.121
   30MYC    H28 2381   0.349   0.624  11.094
   30MYC    H29 2382   0.480   0.675  11.198
   30MYC    C15 2383   0.494   0.753  10.997
   30MYC    H26 2384   0.554   0.667  10.965
   30MYC    H27 2385   0.565   0.832  11.025
   30MYC    C14 2386   0.406   0.801  10.881
   30MYC    H24 2387   0.365   0.900  10.905
   30MYC    H25 2388   0.320   0.733  10.871
   30MYC    C13 2389   0.478   0.809  10.745
   30MYC    H22 2390   0.530   0.715  10.726
   30MYC    H23 2391   0.554   0.888  10.749
   30MYC    C12 2392   0.379   0.836  10.630
   30MYC    H20 2393   0.327   0.931  10.647
   30MYC    H21 2394   0.302   0.758  10.630
   30MYC    C11 2395   0.443   0.838  10.489
   30MYC    H18 2396   0.362   0.845  10.415
   30MYC    H19 2397   0.494   0.743  10.471
   30MYC    C10 2398   0.541   0.956  10.468
   30MYC    H16 2399   0.631   0.940  10.529
   30MYC    H17 2400   0.493   1.047  10.505
   30MYC     C9 2401   0.582   0.978  10.321
   30MYC    H14 2402   0.633   1.075  10.313
   30MYC    H15 2403   0.490   0.989  10.263
   30MYC     C8 2404   0.673   0.868  10.261
   30MYC    H12 2405   0.703   0.797  10.340
   30MYC    H13 2406   0.766   0.914  10.226
   30MYC     C7 2407   0.609   0.789  10.145
   30MYC    H10 2408   0.515   0.745  10.180
   30MYC    H11 2409   0.675   0.706  10.117
   30MYC     C6 2410   0.582   0.877  10.019
   30MYC     H8 2411   0.677   0.910   9.977
   30MYC     H9 2412   0.529   0.968  10.048
   30MYC     C5 2413   0.496   0.806   9.911
   30MYC     H6 2414   0.428   0.881   9.867
   30MYC     H7 2415   0.431   0.733   9.960
   30MYC     C4 2416   0.573   0.737   9.797
   30MYC     H4 2417   0.499   0.677   9.741
   30MYC     H5 2418   0.646   0.666   9.837
   30MYC     C2 2419   0.642   0.835   9.698
   30MYC     H2 2420   0.585   0.929   9.699
   30MYC     O3 2421   0.776   0.862   9.740
   30MYC     H3 2422   0.830   0.783   9.720
   30MYC     C1 2423   0.642   0.785   9.551
   30MYC     H1 2424   0.536   0.774   9.524
   30MYC    C81 2425   0.709   0.646   9.538
   30MYC    O82 2426   0.828   0.626   9.553
   30MYC    O83 2427   0.623   0.544   9.517
   30MYC   H105 2428   0.679   0.465   9.510
   30MYC    C20 2429   0.704   0.889   9.452
   30MYC    H34 2430   0.697   0.989   9.495
   30MYC    H35 2431   0.811   0.869   9.440
   30MYC    C21 2432   0.636   0.895   9.313
   30MYC    H36 2433   0.535   0.935   9.325
   30MYC    H37 2434   0.692   0.967   9.251
   30MYC    C22 2435   0.627   0.763   9.234
   30MYC    H38 2436   0.728   0.725   9.214
   30MYC    H39 2437   0.575   0.688   9.294
   30MYC    C23 2438   0.551   0.780   9.102
   30MYC    H40 2439   0.452   0.823   9.123
   30MYC    H41 2440   0.605   0.853   9.039
   30MYC    C24 2441   0.533   0.648   9.024
   30MYC    H42 2442   0.631   0.610   8.993
   30MYC    H43 2443   0.490   0.573   9.091
   30MYC    C25 2444   0.440   0.660   8.900
   30MYC    H44 2445   0.426   0.560   8.857
   30MYC    H45 2446   0.342   0.695   8.933
   30MYC    C26 2447   0.494   0.754   8.791
   30MYC    H46 2448   0.507   0.855   8.833
   30MYC    H47 2449   0.594   0.721   8.760
   30MYC    C27 2450   0.402   0.765   8.668
   30MYC    H48 2451   0.302   0.727   8.692
   30MYC    H49 2452   0.389   0.871   8.643
   30MYC    C28 2453   0.454   0.691   8.543
   30MYC    H50 2454   0.557   0.723   8.524
   30MYC    H51 2455   0.457   0.583   8.563
   30MYC    C29 2456   0.369   0.719   8.418
   30MYC    H52 2457   0.269   0.675   8.431
   30MYC    H53 2458   0.355   0.827   8.407
   30MYC    C30 2459   0.433   0.664   8.289
   30MYC    H54 2460   0.535   0.704   8.280
   30MYC    H55 2461   0.441   0.555   8.296
   30MYC    C31 2462   0.353   0.701   8.162
   30MYC    H56 2463   0.253   0.657   8.167
   30MYC    H57 2464   0.341   0.810   8.157
   30MYC    C32 2465   0.424   0.653   8.034
   30MYC    H58 2466   0.523   0.699   8.029
   30MYC    H59 2467   0.440   0.545   8.040
   30MYC    C33 2468   0.346   0.685   7.905
   30MYC    H60 2469   0.248   0.636   7.908
   30MYC    H61 2470   0.327   0.793   7.901
   30MYC    C34 2471   0.422   0.640   7.780
   30MYC    H62 2472   0.520   0.689   7.778
   30MYC    H63 2473   0.442   0.532   7.787
   30MYC    C35 2474   0.349   0.669   7.647
   30MYC    H64 2475   0.249   0.625   7.650
   30MYC    H65 2476   0.336   0.777   7.636
   30MYC    C36 2477   0.427   0.613   7.527
   30MYC    H66 2478   0.529   0.653   7.528
   30MYC    H67 2479   0.435   0.504   7.538
   30MYC    C37 2480   0.362   0.645   7.391
   30MYC    H68 2481   0.258   0.611   7.391
   30MYC    H69 2482   0.361   0.754   7.377
   30MYC    C38 2483   0.437   0.579   7.274
   30MYC    H70 2484   0.544   0.602   7.282
   30MYC    H71 2485   0.428   0.470   7.283
   30MYC    C39 2486   0.387   0.623   7.136
   30MYC    H72 2487   0.279   0.605   7.128
   30MYC    H73 2488   0.402   0.732   7.126
   30MYC    C40 2489   0.460   0.551   7.020
   30MYC    H74 2490   0.568   0.557   7.036
   30MYC    H75 2491   0.433   0.445   7.022
   30MYC    C41 2492   0.426   0.610   6.882
   30MYC    H76 2493   0.318   0.608   6.867
   30MYC    H77 2494   0.457   0.715   6.880
   30MYC    C42 2495   0.495   0.535   6.766
   30MYC    H78 2496   0.604   0.534   6.783
   30MYC    H79 2497   0.462   0.430   6.766
   30MYC    C43 2498   0.466   0.597   6.628
   30MYC    H80 2499   0.517   0.540   6.549
   30MYC    H81 2500   0.502   0.700   6.624
   30MYC    H82 2501   0.359   0.596   6.607
   31MYC   HH15 2502   0.928   0.855   6.660
   31MYC    C80 2503   0.951   0.803   6.754
   31MYC   H100 2504   0.939   0.695   6.738
   31MYC   H101 2505   1.056   0.823   6.780
   31MYC    C79 2506   0.858   0.851   6.867
   31MYC   H102 2507   0.754   0.830   6.839
   31MYC   H103 2508   0.867   0.960   6.876
   31MYC    C78 2509   0.890   0.786   7.003
   31MYC   HH14 2510   0.994   0.806   7.028
   31MYC   H104 2511   0.879   0.677   6.995
   31MYC    C77 2512   0.800   0.837   7.117
   31MYC   H106 2513   0.695   0.808   7.098
   31MYC   H107 2514   0.803   0.947   7.118
   31MYC    C76 2515   0.843   0.784   7.255
   31MYC   H108 2516   0.950   0.805   7.269
   31MYC   H109 2517   0.832   0.675   7.257
   31MYC    C75 2518   0.765   0.846   7.372
   31MYC   H110 2519   0.659   0.822   7.363
   31MYC   H111 2520   0.774   0.956   7.368
   31MYC    C74 2521   0.818   0.797   7.508
   31MYC   H112 2522   0.926   0.814   7.512
   31MYC   H113 2523   0.802   0.689   7.515
   31MYC    C73 2524   0.753   0.867   7.629
   31MYC   HH13 2525   0.645   0.852   7.628
   31MYC   H114 2526   0.772   0.975   7.624
   31MYC    C72 2527   0.812   0.812   7.761
   31MYC   H115 2528   0.921   0.823   7.759
   31MYC   H116 2529   0.791   0.704   7.767
   31MYC    C71 2530   0.758   0.881   7.887
   31MYC   H117 2531   0.649   0.865   7.894
   31MYC   H118 2532   0.775   0.989   7.881
   31MYC    C70 2533   0.827   0.825   8.013
   31MYC   H119 2534   0.935   0.839   8.002
   31MYC   H120 2535   0.809   0.717   8.019
   31MYC    C69 2536   0.781   0.890   8.145
   31MYC   H121 2537   0.678   0.860   8.166
   31MYC   H122 2538   0.784   0.999   8.137
   31MYC    C68 2539   0.873   0.845   8.260
   31MYC   HH12 2540   0.973   0.888   8.244
   31MYC   H123 2541   0.885   0.736   8.257
   31MYC    C67 2542   0.824   0.884   8.401
   31MYC   H124 2543   0.730   0.833   8.422
   31MYC   H125 2544   0.805   0.992   8.406
   31MYC    C66 2545   0.929   0.846   8.506
   31MYC   H126 2546   1.019   0.907   8.489
   31MYC   H127 2547   0.960   0.741   8.491
   31MYC    C65 2548   0.884   0.862   8.653
   31MYC   H128 2549   0.812   0.783   8.677
   31MYC   H129 2550   0.833   0.958   8.666
   31MYC    C64 2551   1.005   0.854   8.748
   31MYC   H130 2552   1.069   0.941   8.728
   31MYC   H131 2553   1.064   0.765   8.724
   31MYC    C63 2554   0.969   0.851   8.897
   31MYC   HH11 2555   0.924   0.754   8.922
   31MYC   H132 2556   0.894   0.928   8.920
   31MYC    C62 2557   1.094   0.874   8.983
   31MYC   H133 2558   1.127   0.978   8.970
   31MYC   H134 2559   1.176   0.811   8.947
   31MYC    C61 2560   1.075   0.847   9.133
   31MYC   H135 2561   1.062   0.739   9.149
   31MYC   H136 2562   0.983   0.896   9.168
   31MYC    C60 2563   1.192   0.899   9.215
   31MYC   H137 2564   1.189   1.007   9.226
   31MYC    C58 2565   1.250   0.819   9.328
   31MYC   H138 2566   1.213   0.718   9.343
   31MYC    C59 2567   1.331   0.839   9.203
   31MYC   H139 2568   1.416   0.907   9.207
   31MYC   H140 2569   1.344   0.753   9.137
   31MYC    C57 2570   1.286   0.888   9.459
   31MYC   HH10 2571   1.273   0.997   9.449
   31MYC   H141 2572   1.393   0.872   9.481
   31MYC    C56 2573   1.201   0.836   9.576
   31MYC   H142 2574   1.221   0.729   9.588
   31MYC   H143 2575   1.095   0.847   9.551
   31MYC    C55 2576   1.229   0.908   9.709
   31MYC   H144 2577   1.195   1.012   9.702
   31MYC   H145 2578   1.337   0.911   9.728
   31MYC    C54 2579   1.158   0.837   9.825
   31MYC   H146 2580   1.200   0.736   9.834
   31MYC   H147 2581   1.052   0.825   9.801
   31MYC    C53 2582   1.171   0.909   9.960
   31MYC   H148 2583   1.117   1.004   9.956
   31MYC   H149 2584   1.276   0.933   9.979
   31MYC    C52 2585   1.116   0.822  10.075
   31MYC    H99 2586   1.178   0.732  10.084
   31MYC   H150 2587   1.014   0.789  10.050
   31MYC    C51 2588   1.113   0.896  10.209
   31MYC    H97 2589   1.039   0.977  10.203
   31MYC    H98 2590   1.210   0.942  10.229
   31MYC    C50 2591   1.078   0.802  10.326
   31MYC    H95 2592   1.164   0.738  10.347
   31MYC    H96 2593   0.995   0.736  10.298
   31MYC    C49 2594   1.038   0.880  10.453
   31MYC    H93 2595   0.941   0.927  10.435
   31MYC    H94 2596   1.111   0.960  10.470
   31MYC    C48 2597   1.031   0.792  10.579
   31MYC    H91 2598   1.133   0.767  10.611
   31MYC    H92 2599   0.980   0.698  10.557
   31MYC    C47 2600   0.957   0.866  10.693
   31MYC    H89 2601   0.849   0.866  10.671
   31MYC    H90 2602   0.989   0.971  10.694
   31MYC    C46 2603   0.981   0.807  10.832
   31MYC    H87 2604   1.089   0.811  10.854
   31MYC    H88 2605   0.952   0.701  10.834
   31MYC    C45 2606   0.903   0.884  10.941
   31MYC    H85 2607   0.800   0.847  10.944
   31MYC    H86 2608   0.897   0.989  10.913
   31MYC    C44 2609   0.966   0.877  11.081
   31MYC    H83 2610   0.913   0.948  11.146
   31MYC    H84 2611   1.069   0.914  11.076
   31MYC    C18 2612   0.962   0.740  11.147
   31MYC    H31 2613   0.881   0.677  11.112
   31MYC    C17 2614   1.088   0.673  11.199
   31MYC    H30 2615   1.182   0.726  11.187
   31MYC    C19 2616   0.990   0.734  11.296
   31MYC    H32 2617   1.019   0.826  11.346
   31MYC    H33 2618   0.928   0.667  11.355
   31MYC    C16 2619   1.104   0.521  11.197
   31MYC    H28 2620   1.008   0.474  11.175
   31MYC    H29 2621   1.131   0.488  11.298
   31MYC    C15 2622   1.210   0.469  11.098
   31MYC    H26 2623   1.234   0.365  11.124
   31MYC    H27 2624   1.303   0.526  11.109
   31MYC    C14 2625   1.163   0.474  10.951
   31MYC    H24 2626   1.146   0.578  10.922
   31MYC    H25 2627   1.068   0.421  10.941
   31MYC    C13 2628   1.265   0.411  10.854
   31MYC    H22 2629   1.289   0.309  10.886
   31MYC    H23 2630   1.359   0.468  10.858
   31MYC    C12 2631   1.215   0.407  10.708
   31MYC    H20 2632   1.198   0.510  10.675
   31MYC    H21 2633   1.118   0.355  10.704
   31MYC    C11 2634   1.314   0.338  10.614
   31MYC    H18 2635   1.308   0.229  10.627
   31MYC    H19 2636   1.415   0.368  10.643
   31MYC    C10 2637   1.295   0.375  10.465
   31MYC    H16 2638   1.378   0.334  10.406
   31MYC    H17 2639   1.302   0.484  10.456
   31MYC     C9 2640   1.164   0.326  10.401
   31MYC    H14 2641   1.079   0.344  10.467
   31MYC    H15 2642   1.170   0.217  10.385
   31MYC     C8 2643   1.138   0.397  10.267
   31MYC    H12 2644   1.228   0.389  10.203
   31MYC    H13 2645   1.124   0.504  10.287
   31MYC     C7 2646   1.017   0.344  10.189
   31MYC    H10 2647   0.931   0.334  10.255
   31MYC    H11 2648   1.042   0.244  10.153
   31MYC     C6 2649   0.978   0.437  10.071
   31MYC     H8 2650   1.068   0.490  10.035
   31MYC     H9 2651   0.911   0.515  10.109
   31MYC     C5 2652   0.911   0.364   9.953
   31MYC     H6 2653   0.859   0.436   9.889
   31MYC     H7 2654   0.834   0.298   9.994
   31MYC     C4 2655   1.009   0.280   9.868
   31MYC     H4 2656   0.954   0.196   9.824
   31MYC     H5 2657   1.083   0.236   9.934
   31MYC     C2 2658   1.078   0.352   9.749
   31MYC     H2 2659   1.002   0.359   9.670
   31MYC     O3 2660   1.117   0.485   9.784
   31MYC     H3 2661   1.205   0.480   9.826
   31MYC     C1 2662   1.200   0.272   9.694
   31MYC     H1 2663   1.166   0.169   9.681
   31MYC    C81 2664   1.315   0.270   9.798
   31MYC    O82 2665   1.385   0.366   9.824
   31MYC    O83 2666   1.319   0.158   9.875
   31MYC   H105 2667   1.393   0.173   9.936
   31MYC    C20 2668   1.251   0.322   9.557
   31MYC    H34 2669   1.285   0.426   9.566
   31MYC    H35 2670   1.338   0.263   9.528
   31MYC    C21 2671   1.145   0.314   9.444
   31MYC    H36 2672   1.099   0.214   9.445
   31MYC    H37 2673   1.066   0.387   9.462
   31MYC    C22 2674   1.205   0.339   9.304
   31MYC    H38 2675   1.253   0.438   9.302
   31MYC    H39 2676   1.282   0.264   9.284
   31MYC    C23 2677   1.099   0.334   9.192
   31MYC    H40 2678   1.038   0.244   9.203
   31MYC    H41 2679   1.032   0.420   9.201
   31MYC    C24 2680   1.164   0.334   9.052
   31MYC    H42 2681   1.231   0.421   9.043
   31MYC    H43 2682   1.226   0.245   9.041
   31MYC    C25 2683   1.061   0.339   8.937
   31MYC    H44 2684   0.987   0.259   8.950
   31MYC    H45 2685   1.007   0.434   8.941
   31MYC    C26 2686   1.129   0.324   8.800
   31MYC    H46 2687   1.211   0.397   8.792
   31MYC    H47 2688   1.174   0.224   8.792
   31MYC    C27 2689   1.033   0.345   8.681
   31MYC    H48 2690   0.952   0.271   8.686
   31MYC    H49 2691   0.987   0.445   8.689
   31MYC    C28 2692   1.106   0.334   8.546
   31MYC    H50 2693   1.191   0.403   8.546
   31MYC    H51 2694   1.146   0.232   8.535
   31MYC    C29 2695   1.016   0.366   8.425
   31MYC    H52 2696   0.932   0.296   8.422
   31MYC    H53 2697   0.973   0.467   8.437
   31MYC    C30 2698   1.094   0.360   8.293
   31MYC    H54 2699   1.180   0.427   8.299
   31MYC    H55 2700   1.134   0.259   8.279
   31MYC    C31 2701   1.009   0.398   8.170
   31MYC    H56 2702   0.920   0.334   8.165
   31MYC    H57 2703   0.973   0.501   8.181
   31MYC    C32 2704   1.089   0.385   8.039
   31MYC    H58 2705   1.181   0.445   8.048
   31MYC    H59 2706   1.121   0.281   8.027
   31MYC    C33 2707   1.012   0.430   7.914
   31MYC    H60 2708   0.917   0.376   7.907
   31MYC    H61 2709   0.989   0.537   7.921
   31MYC    C34 2710   1.095   0.404   7.786
   31MYC    H62 2711   1.193   0.453   7.796
   31MYC    H63 2712   1.113   0.297   7.778
   31MYC    C35 2713   1.028   0.454   7.656
   31MYC    H64 2714   0.928   0.410   7.647
   31MYC    H65 2715   1.015   0.562   7.661
   31MYC    C36 2716   1.112   0.416   7.533
   31MYC    H66 2717   1.213   0.458   7.544
   31MYC    H67 2718   1.123   0.307   7.530
   31MYC    C37 2719   1.053   0.464   7.399
   31MYC    H68 2720   0.951   0.425   7.388
   31MYC    H69 2721   1.046   0.574   7.401
   31MYC    C38 2722   1.139   0.419   7.279
   31MYC    H70 2723   1.242   0.454   7.294
   31MYC    H71 2724   1.142   0.310   7.277
   31MYC    C39 2725   1.087   0.472   7.144
   31MYC    H72 2726   0.984   0.438   7.129
   31MYC    H73 2727   1.085   0.582   7.147
   31MYC    C40 2728   1.174   0.426   7.026
   31MYC    H74 2729   1.279   0.450   7.046
   31MYC    H75 2730   1.168   0.316   7.017
   31MYC    C41 2731   1.132   0.490   6.892
   31MYC    H76 2732   1.026   0.471   6.874
   31MYC    H77 2733   1.145   0.599   6.899
   31MYC    C42 2734   1.214   0.437   6.772
   31MYC    H78 2735   1.321   0.449   6.792
   31MYC    H79 2736   1.194   0.330   6.759
   31MYC    C43 2737   1.180   0.510   6.640
   31MYC    H80 2738   1.237   0.466   6.557
   31MYC    H81 2739   1.206   0.616   6.647
   31MYC    H82 2740   1.073   0.501   6.617
   32MYC   HH15 2741   1.550   0.694   6.654
   32MYC    C80 2742   1.628   0.702   6.730
   32MYC   H100 2743   1.725   0.686   6.682
   32MYC   H101 2744   1.627   0.804   6.770
   32MYC    C79 2745   1.605   0.599   6.842
   32MYC   H102 2746   1.608   0.498   6.799
   32MYC   H103 2747   1.504   0.614   6.883
   32MYC    C78 2748   1.708   0.610   6.956
   32MYC   HH14 2749   1.705   0.712   6.996
   32MYC   H104 2750   1.809   0.594   6.917
   32MYC    C77 2751   1.682   0.511   7.071
   32MYC   H106 2752   1.710   0.409   7.040
   32MYC   H107 2753   1.574   0.509   7.092
   32MYC    C76 2754   1.756   0.548   7.201
   32MYC   H108 2755   1.735   0.654   7.223
   32MYC   H109 2756   1.865   0.540   7.187
   32MYC    C75 2757   1.713   0.463   7.323
   32MYC   H110 2758   1.757   0.363   7.315
   32MYC   H111 2759   1.604   0.451   7.320
   32MYC    C74 2760   1.751   0.528   7.457
   32MYC   H112 2761   1.726   0.635   7.454
   32MYC   H113 2762   1.860   0.522   7.472
   32MYC    C73 2763   1.678   0.465   7.578
   32MYC   HH13 2764   1.718   0.364   7.596
   32MYC   H114 2765   1.572   0.453   7.553
   32MYC    C72 2766   1.689   0.550   7.706
   32MYC   H115 2767   1.649   0.650   7.686
   32MYC   H116 2768   1.795   0.563   7.732
   32MYC    C71 2769   1.613   0.487   7.824
   32MYC   H117 2770   1.661   0.392   7.850
   32MYC   H118 2771   1.510   0.465   7.794
   32MYC    C70 2772   1.610   0.578   7.949
   32MYC   H119 2773   1.546   0.666   7.928
   32MYC   H120 2774   1.711   0.615   7.970
   32MYC    C69 2775   1.557   0.503   8.073
   32MYC   H121 2776   1.625   0.420   8.094
   32MYC   H122 2777   1.458   0.460   8.050
   32MYC    C68 2778   1.545   0.592   8.198
   32MYC   HH12 2779   1.461   0.662   8.186
   32MYC   H123 2780   1.636   0.652   8.209
   32MYC    C67 2781   1.525   0.508   8.326
   32MYC   H124 2782   1.610   0.439   8.334
   32MYC   H125 2783   1.435   0.446   8.315
   32MYC    C66 2784   1.515   0.592   8.455
   32MYC   H126 2785   1.420   0.647   8.457
   32MYC   H127 2786   1.596   0.666   8.456
   32MYC    C65 2787   1.526   0.502   8.580
   32MYC   H128 2788   1.619   0.444   8.572
   32MYC   H129 2789   1.444   0.430   8.581
   32MYC    C64 2790   1.529   0.579   8.713
   32MYC   H130 2791   1.433   0.629   8.729
   32MYC   H131 2792   1.606   0.657   8.708
   32MYC    C63 2793   1.560   0.485   8.831
   32MYC   HH11 2794   1.652   0.429   8.807
   32MYC   H132 2795   1.480   0.411   8.840
   32MYC    C62 2796   1.579   0.556   8.966
   32MYC   H133 2797   1.483   0.596   9.001
   32MYC   H134 2798   1.648   0.640   8.954
   32MYC    C61 2799   1.637   0.459   9.072
   32MYC   H135 2800   1.733   0.422   9.036
   32MYC   H136 2801   1.571   0.372   9.080
   32MYC    C60 2802   1.657   0.522   9.208
   32MYC   H137 2803   1.691   0.626   9.203
   32MYC    C58 2804   1.573   0.483   9.327
   32MYC   H138 2805   1.500   0.403   9.313
   32MYC    C59 2806   1.718   0.441   9.319
   32MYC   H139 2807   1.791   0.490   9.383
   32MYC   H140 2808   1.738   0.336   9.300
   32MYC    C57 2809   1.525   0.587   9.427
   32MYC   HH10 2810   1.416   0.580   9.436
   32MYC   H141 2811   1.546   0.688   9.390
   32MYC    C56 2812   1.588   0.572   9.567
   32MYC   H142 2813   1.693   0.603   9.563
   32MYC   H143 2814   1.587   0.466   9.596
   32MYC    C55 2815   1.516   0.653   9.676
   32MYC   H144 2816   1.414   0.616   9.686
   32MYC   H145 2817   1.511   0.758   9.645
   32MYC    C54 2818   1.587   0.645   9.813
   32MYC   H146 2819   1.687   0.690   9.804
   32MYC   H147 2820   1.602   0.540   9.840
   32MYC    C53 2821   1.507   0.716   9.924
   32MYC   H148 2822   1.410   0.666   9.935
   32MYC   H149 2823   1.488   0.819   9.893
   32MYC    C52 2824   1.579   0.717  10.059
   32MYC    H99 2825   1.678   0.763  10.048
   32MYC   H150 2826   1.596   0.613  10.092
   32MYC    C51 2827   1.499   0.792  10.167
   32MYC    H97 2828   1.404   0.741  10.183
   32MYC    H98 2829   1.477   0.893  10.131
   32MYC    C50 2830   1.574   0.803  10.301
   32MYC    H95 2831   1.668   0.857  10.286
   32MYC    H96 2832   1.600   0.702  10.336
   32MYC    C49 2833   1.491   0.874  10.410
   32MYC    H93 2834   1.400   0.816  10.429
   32MYC    H94 2835   1.459   0.972  10.374
   32MYC    C48 2836   1.569   0.892  10.543
   32MYC    H91 2837   1.648   0.966  10.528
   32MYC    H92 2838   1.618   0.798  10.569
   32MYC    C47 2839   1.478   0.936  10.660
   32MYC    H89 2840   1.399   0.861  10.674
   32MYC    H90 2841   1.428   1.030  10.633
   32MYC    C46 2842   1.554   0.954  10.793
   32MYC    H87 2843   1.633   1.030  10.779
   32MYC    H88 2844   1.605   0.860  10.818
   32MYC    C45 2845   1.462   0.995  10.909
   32MYC    H85 2846   1.389   0.915  10.929
   32MYC    H86 2847   1.404   1.083  10.878
   32MYC    C44 2848   1.536   1.031  11.041
   32MYC    H83 2849   1.464   1.078  11.109
   32MYC    H84 2850   1.611   1.108  11.019
   32MYC    C18 2851   1.600   0.912  11.112
   32MYC    H31 2852   1.527   0.837  11.142
   32MYC    C17 2853   1.737   0.862  11.072
   32MYC    H30 2854   1.786   0.917  10.992
   32MYC    C19 2855   1.718   0.933  11.204
   32MYC    H32 2856   1.759   1.033  11.213
   32MYC    H33 2857   1.724   0.874  11.294
   32MYC    C16 2858   1.766   0.712  11.068
   32MYC    H28 2859   1.700   0.663  10.995
   32MYC    H29 2860   1.743   0.668  11.165
   32MYC    C15 2861   1.913   0.679  11.033
   32MYC    H26 2862   1.932   0.574  11.058
   32MYC    H27 2863   1.979   0.740  11.096
   32MYC    C14 2864   1.948   0.704  10.885
   32MYC    H24 2865   1.945   0.811  10.864
   32MYC    H25 2866   1.872   0.657  10.822
   32MYC    C13 2867   2.087   0.649  10.845
   32MYC    H22 2868   2.088   0.540  10.859
   32MYC    H23 2869   2.164   0.690  10.911
   32MYC    C12 2870   2.122   0.682  10.700
   32MYC    H20 2871   2.122   0.791  10.686
   32MYC    H21 2872   2.044   0.641  10.635
   32MYC    C11 2873   2.259   0.627  10.656
   32MYC    H18 2874   2.259   0.517  10.664
   32MYC    H19 2875   2.337   0.663  10.724
   32MYC    C10 2876   2.298   0.665  10.512
   32MYC    H16 2877   2.393   0.617  10.488
   32MYC    H17 2878   2.315   0.773  10.506
   32MYC     C9 2879   2.194   0.624  10.406
   32MYC    H14 2880   2.103   0.685  10.417
   32MYC    H15 2881   2.165   0.519  10.422
   32MYC     C8 2882   2.246   0.640  10.262
   32MYC    H12 2883   2.338   0.581  10.252
   32MYC    H13 2884   2.273   0.745  10.244
   32MYC     C7 2885   2.144   0.594  10.156
   32MYC    H10 2886   2.060   0.663  10.153
   32MYC    H11 2887   2.105   0.495  10.185
   32MYC     C6 2888   2.209   0.583  10.017
   32MYC     H8 2889   2.299   0.521  10.026
   32MYC     H9 2890   2.242   0.683   9.987
   32MYC     C5 2891   2.116   0.522   9.910
   32MYC     H6 2892   2.044   0.597   9.876
   32MYC     H7 2893   2.057   0.442   9.956
   32MYC     C4 2894   2.192   0.460   9.790
   32MYC     H4 2895   2.122   0.396   9.736
   32MYC     H5 2896   2.267   0.391   9.830
   32MYC     C2 2897   2.254   0.557   9.685
   32MYC     H2 2898   2.171   0.579   9.618
   32MYC     O3 2899   2.297   0.681   9.742
   32MYC     H3 2900   2.371   0.662   9.802
   32MYC     C1 2901   2.370   0.494   9.600
   32MYC     H1 2902   2.340   0.391   9.583
   32MYC    C81 2903   2.506   0.490   9.676
   32MYC    O82 2904   2.596   0.569   9.654
   32MYC    O83 2905   2.507   0.419   9.791
   32MYC   H105 2906   2.591   0.443   9.834
   32MYC    C20 2907   2.390   0.568   9.465
   32MYC    H34 2908   2.416   0.672   9.484
   32MYC    H35 2909   2.476   0.523   9.414
   32MYC    C21 2910   2.271   0.566   9.366
   32MYC    H36 2911   2.249   0.462   9.339
   32MYC    H37 2912   2.180   0.607   9.411
   32MYC    C22 2913   2.302   0.650   9.240
   32MYC    H38 2914   2.273   0.754   9.259
   32MYC    H39 2915   2.410   0.650   9.222
   32MYC    C23 2916   2.232   0.598   9.114
   32MYC    H40 2917   2.268   0.496   9.093
   32MYC    H41 2918   2.124   0.592   9.130
   32MYC    C24 2919   2.261   0.688   8.992
   32MYC    H42 2920   2.206   0.782   9.003
   32MYC    H43 2921   2.368   0.714   8.990
   32MYC    C25 2922   2.225   0.621   8.859
   32MYC    H44 2923   2.287   0.531   8.846
   32MYC    H45 2924   2.120   0.588   8.862
   32MYC    C26 2925   2.247   0.715   8.740
   32MYC    H46 2926   2.183   0.804   8.752
   32MYC    H47 2927   2.351   0.751   8.740
   32MYC    C27 2928   2.215   0.649   8.605
   32MYC    H48 2929   2.280   0.561   8.592
   32MYC    H49 2930   2.112   0.612   8.606
   32MYC    C28 2931   2.235   0.745   8.487
   32MYC    H50 2932   2.175   0.835   8.504
   32MYC    H51 2933   2.340   0.776   8.482
   32MYC    C29 2934   2.194   0.682   8.353
   32MYC    H52 2935   2.254   0.592   8.335
   32MYC    H53 2936   2.089   0.650   8.358
   32MYC    C30 2937   2.211   0.779   8.234
   32MYC    H54 2938   2.152   0.869   8.252
   32MYC    H55 2939   2.316   0.810   8.228
   32MYC    C31 2940   2.169   0.714   8.101
   32MYC    H56 2941   2.230   0.625   8.084
   32MYC    H57 2942   2.065   0.681   8.109
   32MYC    C32 2943   2.182   0.809   7.981
   32MYC    H58 2944   2.116   0.895   7.995
   32MYC    H59 2945   2.285   0.847   7.974
   32MYC    C33 2946   2.146   0.737   7.849
   32MYC    H60 2947   2.216   0.654   7.834
   32MYC    H61 2948   2.046   0.693   7.858
   32MYC    C34 2949   2.148   0.829   7.725
   32MYC    H62 2950   2.069   0.904   7.733
   32MYC    H63 2951   2.244   0.882   7.721
   32MYC    C35 2952   2.130   0.747   7.596
   32MYC    H64 2953   2.215   0.677   7.588
   32MYC    H65 2954   2.040   0.685   7.604
   32MYC    C36 2955   2.121   0.831   7.468
   32MYC    H66 2956   2.020   0.874   7.460
   32MYC    H67 2957   2.191   0.915   7.473
   32MYC    C37 2958   2.153   0.746   7.343
   32MYC    H68 2959   2.260   0.724   7.344
   32MYC    H69 2960   2.100   0.650   7.350
   32MYC    C38 2961   2.116   0.813   7.209
   32MYC    H70 2962   2.007   0.813   7.199
   32MYC    H71 2963   2.149   0.917   7.209
   32MYC    C39 2964   2.179   0.738   7.090
   32MYC    H72 2965   2.287   0.758   7.089
   32MYC    H73 2966   2.167   0.630   7.104
   32MYC    C40 2967   2.118   0.776   6.953
   32MYC    H74 2968   2.012   0.750   6.953
   32MYC    H75 2969   2.125   0.884   6.939
   32MYC    C41 2970   2.188   0.703   6.836
   32MYC    H76 2971   2.293   0.735   6.831
   32MYC    H77 2972   2.189   0.595   6.856
   32MYC    C42 2973   2.121   0.728   6.700
   32MYC    H78 2974   2.014   0.702   6.706
   32MYC    H79 2975   2.127   0.835   6.675
   32MYC    C43 2976   2.184   0.646   6.586
   32MYC    H80 2977   2.132   0.664   6.491
   32MYC    H81 2978   2.178   0.538   6.607
   32MYC    H82 2979   2.290   0.672   6.572
   33MYC   HH15 2980   3.319   0.532   6.610
   33MYC    C80 2981   3.260   0.552   6.700
   33MYC   H100 2982   3.216   0.652   6.691
   33MYC   H101 2983   3.179   0.479   6.705
   33MYC    C79 2984   3.349   0.543   6.825
   33MYC   H102 2985   3.431   0.615   6.816
   33MYC   H103 2986   3.394   0.443   6.829
   33MYC    C78 2987   3.273   0.571   6.956
   33MYC   HH14 2988   3.189   0.501   6.965
   33MYC   H104 2989   3.230   0.672   6.953
   33MYC    C77 2990   3.363   0.559   7.081
   33MYC   H106 2991   3.444   0.632   7.075
   33MYC   H107 2992   3.409   0.460   7.082
   33MYC    C76 2993   3.286   0.581   7.213
   33MYC   H108 2994   3.201   0.512   7.216
   33MYC   H109 2995   3.245   0.683   7.214
   33MYC    C75 2996   3.373   0.560   7.339
   33MYC   H110 2997   3.452   0.636   7.343
   33MYC   H111 2998   3.423   0.463   7.332
   33MYC    C74 2999   3.290   0.565   7.468
   33MYC   H112 3000   3.212   0.488   7.463
   33MYC   H113 3001   3.238   0.662   7.474
   33MYC    C73 3002   3.372   0.545   7.598
   33MYC   HH13 3003   3.442   0.628   7.610
   33MYC   H114 3004   3.431   0.453   7.589
   33MYC    C72 3005   3.280   0.535   7.722
   33MYC   H115 3006   3.213   0.449   7.710
   33MYC   H116 3007   3.217   0.625   7.725
   33MYC    C71 3008   3.355   0.522   7.856
   33MYC   H117 3009   3.420   0.609   7.869
   33MYC   H118 3010   3.419   0.434   7.854
   33MYC    C70 3011   3.257   0.512   7.974
   33MYC   H119 3012   3.195   0.423   7.963
   33MYC   H120 3013   3.189   0.599   7.971
   33MYC    C69 3014   3.326   0.508   8.112
   33MYC   H121 3015   3.394   0.594   8.121
   33MYC   H122 3016   3.387   0.417   8.120
   33MYC    C68 3017   3.224   0.512   8.228
   33MYC   HH12 3018   3.160   0.423   8.225
   33MYC   H123 3019   3.158   0.599   8.214
   33MYC    C67 3020   3.291   0.523   8.367
   33MYC   H124 3021   3.357   0.610   8.367
   33MYC   H125 3022   3.353   0.435   8.384
   33MYC    C66 3023   3.189   0.536   8.482
   33MYC   H126 3024   3.135   0.441   8.496
   33MYC   H127 3025   3.114   0.612   8.456
   33MYC    C65 3026   3.257   0.578   8.614
   33MYC   H128 3027   3.310   0.672   8.598
   33MYC   H129 3028   3.332   0.503   8.641
   33MYC    C64 3029   3.160   0.594   8.733
   33MYC   H130 3030   3.132   0.495   8.772
   33MYC   H131 3031   3.067   0.642   8.698
   33MYC    C63 3032   3.220   0.680   8.846
   33MYC   HH11 3033   3.237   0.781   8.806
   33MYC   H132 3034   3.319   0.641   8.874
   33MYC    C62 3035   3.132   0.689   8.972
   33MYC   H133 3036   3.149   0.600   9.034
   33MYC   H134 3037   3.026   0.689   8.943
   33MYC    C61 3038   3.160   0.817   9.054
   33MYC   H135 3039   3.125   0.904   8.997
   33MYC   H136 3040   3.268   0.829   9.065
   33MYC    C60 3041   3.093   0.816   9.191
   33MYC   H137 3042   2.991   0.777   9.188
   33MYC    C58 3043   3.174   0.790   9.315
   33MYC   H138 3044   3.282   0.781   9.303
   33MYC    C59 3045   3.117   0.928   9.290
   33MYC   H139 3046   3.033   0.960   9.352
   33MYC   H140 3047   3.185   1.007   9.261
   33MYC    C57 3048   3.122   0.701   9.426
   33MYC   HH10 3049   3.143   0.596   9.401
   33MYC   H141 3050   3.013   0.711   9.435
   33MYC    C56 3051   3.187   0.734   9.562
   33MYC   H142 3052   3.169   0.839   9.586
   33MYC   H143 3053   3.296   0.721   9.555
   33MYC    C55 3054   3.133   0.646   9.676
   33MYC   H144 3055   3.153   0.540   9.653
   33MYC   H145 3056   3.024   0.657   9.679
   33MYC    C54 3057   3.191   0.681   9.814
   33MYC   H146 3058   3.175   0.788   9.833
   33MYC   H147 3059   3.299   0.665   9.813
   33MYC    C53 3060   3.127   0.598   9.927
   33MYC   H148 3061   3.157   0.493   9.916
   33MYC   H149 3062   3.018   0.602   9.915
   33MYC    C52 3063   3.164   0.648  10.068
   33MYC    H99 3064   3.143   0.756  10.075
   33MYC   H150 3065   3.271   0.635  10.085
   33MYC    C51 3066   3.084   0.574  10.177
   33MYC    H97 3067   3.108   0.468  10.173
   33MYC    H98 3068   2.976   0.584  10.155
   33MYC    C50 3069   3.110   0.628  10.319
   33MYC    H95 3070   3.087   0.735  10.323
   33MYC    H96 3071   3.216   0.616  10.343
   33MYC    C49 3072   3.024   0.555  10.426
   33MYC    H93 3073   3.040   0.447  10.417
   33MYC    H94 3074   2.918   0.573  10.405
   33MYC    C48 3075   3.056   0.599  10.570
   33MYC    H91 3076   3.028   0.705  10.581
   33MYC    H92 3077   3.164   0.593  10.587
   33MYC    C47 3078   2.982   0.514  10.676
   33MYC    H89 3079   3.007   0.408  10.662
   33MYC    H90 3080   2.874   0.521  10.658
   33MYC    C46 3081   3.014   0.555  10.821
   33MYC    H87 3082   2.992   0.661  10.834
   33MYC    H88 3083   3.121   0.541  10.839
   33MYC    C45 3084   2.935   0.475  10.927
   33MYC    H85 3085   2.987   0.483  11.024
   33MYC    H86 3086   2.937   0.368  10.900
   33MYC    C44 3087   2.788   0.520  10.947
   33MYC    H83 3088   2.734   0.439  10.998
   33MYC    H84 3089   2.739   0.533  10.849
   33MYC    C18 3090   2.776   0.649  11.028
   33MYC    H31 3091   2.827   0.733  10.982
   33MYC    C17 3092   2.650   0.683  11.105
   33MYC    H30 3093   2.570   0.610  11.103
   33MYC    C19 3094   2.776   0.642  11.179
   33MYC    H32 3095   2.777   0.544  11.226
   33MYC    H33 3096   2.831   0.719  11.232
   33MYC    C16 3097   2.601   0.826  11.120
   33MYC    H28 3098   2.685   0.896  11.124
   33MYC    H29 3099   2.551   0.834  11.218
   33MYC    C15 3100   2.501   0.873  11.013
   33MYC    H26 3101   2.460   0.970  11.045
   33MYC    H27 3102   2.418   0.802  11.009
   33MYC    C14 3103   2.559   0.888  10.871
   33MYC    H24 3104   2.578   0.788  10.830
   33MYC    H25 3105   2.655   0.941  10.877
   33MYC    C13 3106   2.466   0.967  10.774
   33MYC    H22 3107   2.451   1.068  10.813
   33MYC    H23 3108   2.367   0.919  10.771
   33MYC    C12 3109   2.522   0.975  10.631
   33MYC    H20 3110   2.528   0.874  10.589
   33MYC    H21 3111   2.624   1.015  10.636
   33MYC    C11 3112   2.439   1.064  10.535
   33MYC    H18 3113   2.437   1.166  10.574
   33MYC    H19 3114   2.335   1.028  10.536
   33MYC    C10 3115   2.488   1.067  10.388
   33MYC    H16 3116   2.420   1.131  10.330
   33MYC    H17 3117   2.481   0.966  10.345
   33MYC     C9 3118   2.632   1.120  10.373
   33MYC    H14 3119   2.698   1.047  10.420
   33MYC    H15 3120   2.642   1.213  10.430
   33MYC     C8 3121   2.682   1.143  10.229
   33MYC    H12 3122   2.751   1.228  10.230
   33MYC    H13 3123   2.597   1.173  10.166
   33MYC     C7 3124   2.753   1.022  10.165
   33MYC    H10 3125   2.683   0.938  10.158
   33MYC    H11 3126   2.836   0.990  10.230
   33MYC     C6 3127   2.810   1.057  10.026
   33MYC     H8 3128   2.888   1.132  10.037
   33MYC     H9 3129   2.732   1.105   9.966
   33MYC     C5 3130   2.868   0.935   9.950
   33MYC     H6 3131   2.803   0.848   9.962
   33MYC     H7 3132   2.963   0.908   9.997
   33MYC     C4 3133   2.893   0.964   9.800
   33MYC     H4 3134   2.987   0.915   9.772
   33MYC     H5 3135   2.911   1.071   9.785
   33MYC     C2 3136   2.784   0.916   9.700
   33MYC     H2 3137   2.825   0.940   9.601
   33MYC     O3 3138   2.776   0.774   9.710
   33MYC     H3 3139   2.704   0.753   9.772
   33MYC     C1 3140   2.642   0.983   9.709
   33MYC     H1 3141   2.657   1.091   9.706
   33MYC    C81 3142   2.562   0.951   9.837
   33MYC    O82 3143   2.543   0.839   9.881
   33MYC    O83 3144   2.489   1.057   9.882
   33MYC   H105 3145   2.431   1.021   9.951
   33MYC    C20 3146   2.551   0.949   9.587
   33MYC    H34 3147   2.541   0.840   9.579
   33MYC    H35 3148   2.451   0.988   9.607
   33MYC    C21 3149   2.599   1.007   9.452
   33MYC    H36 3150   2.618   1.114   9.464
   33MYC    H37 3151   2.693   0.960   9.423
   33MYC    C22 3152   2.495   0.986   9.340
   33MYC    H38 3153   2.477   0.879   9.326
   33MYC    H39 3154   2.400   1.032   9.368
   33MYC    C23 3155   2.543   1.046   9.206
   33MYC    H40 3156   2.575   1.149   9.223
   33MYC    H41 3157   2.631   0.990   9.171
   33MYC    C24 3158   2.435   1.046   9.095
   33MYC    H42 3159   2.401   0.944   9.078
   33MYC    H43 3160   2.349   1.105   9.128
   33MYC    C25 3161   2.492   1.105   8.965
   33MYC    H44 3162   2.526   1.207   8.985
   33MYC    H45 3163   2.580   1.047   8.936
   33MYC    C26 3164   2.393   1.109   8.847
   33MYC    H46 3165   2.352   1.008   8.830
   33MYC    H47 3166   2.309   1.175   8.870
   33MYC    C27 3167   2.465   1.158   8.719
   33MYC    H48 3168   2.506   1.257   8.738
   33MYC    H49 3169   2.549   1.091   8.699
   33MYC    C28 3170   2.376   1.164   8.593
   33MYC    H50 3171   2.329   1.066   8.578
   33MYC    H51 3172   2.297   1.238   8.608
   33MYC    C29 3173   2.460   1.200   8.469
   33MYC    H52 3174   2.512   1.295   8.486
   33MYC    H53 3175   2.538   1.124   8.455
   33MYC    C30 3176   2.377   1.210   8.340
   33MYC    H54 3177   2.320   1.117   8.327
   33MYC    H55 3178   2.304   1.291   8.350
   33MYC    C31 3179   2.464   1.233   8.215
   33MYC    H56 3180   2.521   1.326   8.226
   33MYC    H57 3181   2.536   1.151   8.207
   33MYC    C32 3182   2.380   1.239   8.086
   33MYC    H58 3183   2.315   1.151   8.082
   33MYC    H59 3184   2.315   1.327   8.089
   33MYC    C33 3185   2.466   1.243   7.957
   33MYC    H60 3186   2.523   1.337   7.954
   33MYC    H61 3187   2.538   1.161   7.959
   33MYC    C34 3188   2.379   1.231   7.830
   33MYC    H62 3189   2.320   1.138   7.837
   33MYC    H63 3190   2.308   1.314   7.827
   33MYC    C35 3191   2.461   1.228   7.699
   33MYC    H64 3192   2.516   1.322   7.689
   33MYC    H65 3193   2.535   1.147   7.704
   33MYC    C36 3194   2.371   1.207   7.576
   33MYC    H66 3195   2.315   1.113   7.588
   33MYC    H67 3196   2.296   1.287   7.571
   33MYC    C37 3197   2.448   1.202   7.442
   33MYC    H68 3198   2.506   1.294   7.431
   33MYC    H69 3199   2.519   1.119   7.445
   33MYC    C38 3200   2.354   1.185   7.321
   33MYC    H70 3201   2.291   1.097   7.336
   33MYC    H71 3202   2.287   1.272   7.316
   33MYC    C39 3203   2.428   1.171   7.186
   33MYC    H72 3204   2.497   1.255   7.173
   33MYC    H73 3205   2.490   1.080   7.190
   33MYC    C40 3206   2.333   1.163   7.066
   33MYC    H74 3207   2.257   1.086   7.084
   33MYC    H75 3208   2.280   1.259   7.057
   33MYC    C41 3209   2.404   1.132   6.933
   33MYC    H76 3210   2.483   1.206   6.915
   33MYC    H77 3211   2.454   1.034   6.941
   33MYC    C42 3212   2.309   1.129   6.812
   33MYC    H78 3213   2.228   1.057   6.830
   33MYC    H79 3214   2.261   1.227   6.800
   33MYC    C43 3215   2.379   1.091   6.680
   33MYC    H80 3216   2.306   1.088   6.597
   33MYC    H81 3217   2.426   0.993   6.688
   33MYC    H82 3218   2.456   1.165   6.655
   34MYC   HH15 3219   3.623   0.678   6.705
   34MYC    C80 3220   3.719   0.629   6.685
   34MYC   H100 3221   3.713   0.582   6.586
   34MYC   H101 3222   3.797   0.706   6.682
   34MYC    C79 3223   3.751   0.523   6.792
   34MYC   H102 3224   3.850   0.481   6.773
   34MYC   H103 3225   3.679   0.440   6.784
   34MYC    C78 3226   3.745   0.579   6.936
   34MYC   HH14 3227   3.645   0.618   6.955
   34MYC   H104 3228   3.814   0.664   6.944
   34MYC    C77 3229   3.781   0.475   7.045
   34MYC   H106 3230   3.885   0.445   7.033
   34MYC   H107 3231   3.719   0.385   7.031
   34MYC    C76 3232   3.759   0.531   7.187
   34MYC   H108 3233   3.652   0.553   7.200
   34MYC   H109 3234   3.812   0.626   7.196
   34MYC    C75 3235   3.805   0.436   7.300
   34MYC   H110 3236   3.914   0.421   7.293
   34MYC   H111 3237   3.758   0.338   7.288
   34MYC    C74 3238   3.770   0.495   7.438
   34MYC   H112 3239   3.661   0.499   7.448
   34MYC   H113 3240   3.806   0.598   7.443
   34MYC    C73 3241   3.828   0.416   7.557
   34MYC   HH13 3242   3.938   0.422   7.555
   34MYC   H114 3243   3.801   0.310   7.550
   34MYC    C72 3244   3.777   0.474   7.690
   34MYC   H115 3245   3.668   0.462   7.693
   34MYC   H116 3246   3.797   0.581   7.693
   34MYC    C71 3247   3.837   0.409   7.816
   34MYC   H117 3248   3.943   0.437   7.825
   34MYC   H118 3249   3.833   0.300   7.808
   34MYC    C70 3250   3.760   0.453   7.942
   34MYC   H119 3251   3.657   0.416   7.934
   34MYC   H120 3252   3.755   0.562   7.944
   34MYC    C69 3253   3.821   0.404   8.074
   34MYC   H121 3254   3.914   0.460   8.094
   34MYC   H122 3255   3.848   0.298   8.067
   34MYC    C68 3256   3.722   0.423   8.191
   34MYC   HH12 3257   3.639   0.353   8.178
   34MYC   H123 3258   3.679   0.524   8.186
   34MYC    C67 3259   3.785   0.403   8.329
   34MYC   H124 3260   3.859   0.483   8.346
   34MYC   H125 3261   3.840   0.308   8.332
   34MYC    C66 3262   3.680   0.405   8.441
   34MYC   H126 3263   3.626   0.309   8.442
   34MYC   H127 3264   3.606   0.484   8.421
   34MYC    C65 3265   3.743   0.430   8.579
   34MYC   H128 3266   3.785   0.532   8.580
   34MYC   H129 3267   3.825   0.361   8.596
   34MYC    C64 3268   3.642   0.416   8.694
   34MYC   H130 3269   3.615   0.310   8.705
   34MYC   H131 3270   3.550   0.470   8.669
   34MYC    C63 3271   3.697   0.471   8.825
   34MYC   HH11 3272   3.714   0.578   8.814
   34MYC   H132 3273   3.795   0.425   8.845
   34MYC    C62 3274   3.605   0.446   8.946
   34MYC   H133 3275   3.594   0.338   8.961
   34MYC   H134 3276   3.506   0.488   8.926
   34MYC    C61 3277   3.663   0.511   9.072
   34MYC   H135 3278   3.670   0.619   9.057
   34MYC   H136 3279   3.766   0.475   9.087
   34MYC    C60 3280   3.583   0.480   9.196
   34MYC   H137 3281   3.572   0.373   9.213
   34MYC    C58 3282   3.605   0.566   9.318
   34MYC   H138 3283   3.667   0.655   9.305
   34MYC    C59 3284   3.471   0.568   9.247
   34MYC   H139 3285   3.387   0.519   9.296
   34MYC   H140 3286   3.446   0.655   9.187
   34MYC    C57 3287   3.630   0.496   9.449
   34MYC   HH10 3288   3.733   0.458   9.449
   34MYC   H141 3289   3.565   0.408   9.457
   34MYC    C56 3290   3.610   0.585   9.572
   34MYC   H142 3291   3.505   0.617   9.579
   34MYC   H143 3292   3.671   0.676   9.564
   34MYC    C55 3293   3.649   0.508   9.699
   34MYC   H144 3294   3.755   0.483   9.693
   34MYC   H145 3295   3.594   0.414   9.701
   34MYC    C54 3296   3.623   0.583   9.831
   34MYC   H146 3297   3.517   0.611   9.837
   34MYC   H147 3298   3.682   0.675   9.835
   34MYC    C53 3299   3.659   0.492   9.950
   34MYC   H148 3300   3.766   0.468   9.945
   34MYC   H149 3301   3.604   0.398   9.942
   34MYC    C52 3302   3.629   0.554  10.087
   34MYC    H99 3303   3.522   0.572  10.097
   34MYC   H150 3304   3.680   0.651  10.095
   34MYC    C51 3305   3.677   0.462  10.201
   34MYC    H97 3306   3.783   0.438  10.185
   34MYC    H98 3307   3.622   0.367  10.197
   34MYC    C50 3308   3.660   0.525  10.339
   34MYC    H95 3309   3.553   0.535  10.361
   34MYC    H96 3310   3.703   0.626  10.338
   34MYC    C49 3311   3.728   0.444  10.451
   34MYC    H93 3312   3.833   0.427  10.424
   34MYC    H94 3313   3.681   0.345  10.459
   34MYC    C48 3314   3.723   0.516  10.587
   34MYC    H91 3315   3.619   0.521  10.621
   34MYC    H92 3316   3.757   0.619  10.573
   34MYC    C47 3317   3.811   0.450  10.694
   34MYC    H89 3318   3.914   0.447  10.658
   34MYC    H90 3319   3.778   0.346  10.709
   34MYC    C46 3320   3.806   0.524  10.829
   34MYC    H87 3321   3.705   0.516  10.871
   34MYC    H88 3322   3.826   0.630  10.811
   34MYC    C45 3323   3.911   0.472  10.930
   34MYC    H85 3324   4.010   0.512  10.904
   34MYC    H86 3325   3.918   0.364  10.919
   34MYC    C44 3326   3.879   0.504  11.078
   34MYC    H83 3327   3.948   0.444  11.139
   34MYC    H84 3328   3.778   0.468  11.102
   34MYC    C18 3329   3.894   0.651  11.118
   34MYC    H31 3330   3.963   0.706  11.055
   34MYC    C17 3331   3.783   0.729  11.185
   34MYC    H30 3332   3.690   0.676  11.204
   34MYC    C19 3333   3.901   0.683  11.266
   34MYC    H32 3334   3.885   0.602  11.337
   34MYC    H33 3335   3.971   0.759  11.299
   34MYC    C16 3336   3.763   0.879  11.167
   34MYC    H28 3337   3.857   0.926  11.133
   34MYC    H29 3338   3.741   0.923  11.265
   34MYC    C15 3339   3.649   0.918  11.070
   34MYC    H26 3340   3.627   1.024  11.083
   34MYC    H27 3341   3.559   0.863  11.099
   34MYC    C14 3342   3.682   0.890  10.922
   34MYC    H24 3343   3.716   0.787  10.913
   34MYC    H25 3344   3.764   0.955  10.890
   34MYC    C13 3345   3.560   0.911  10.830
   34MYC    H22 3346   3.532   1.017  10.832
   34MYC    H23 3347   3.476   0.854  10.871
   34MYC    C12 3348   3.583   0.867  10.683
   34MYC    H20 3349   3.617   0.763  10.682
   34MYC    H21 3350   3.661   0.929  10.638
   34MYC    C11 3351   3.452   0.879  10.603
   34MYC    H18 3352   3.420   0.983  10.604
   34MYC    H19 3353   3.376   0.820  10.654
   34MYC    C10 3354   3.453   0.831  10.457
   34MYC    H16 3355   3.351   0.846  10.418
   34MYC    H17 3356   3.470   0.723  10.454
   34MYC     C9 3357   3.553   0.903  10.365
   34MYC    H14 3358   3.652   0.859  10.376
   34MYC    H15 3359   3.561   1.008  10.395
   34MYC     C8 3360   3.510   0.898  10.217
   34MYC    H12 3361   3.415   0.953  10.207
   34MYC    H13 3362   3.489   0.795  10.187
   34MYC     C7 3363   3.614   0.960  10.121
   34MYC    H10 3364   3.701   0.894  10.114
   34MYC    H11 3365   3.649   1.055  10.164
   34MYC     C6 3366   3.557   0.987   9.981
   34MYC     H8 3367   3.467   1.049   9.991
   34MYC     H9 3368   3.526   0.893   9.935
   34MYC     C5 3369   3.657   1.061   9.888
   34MYC     H6 3370   3.731   0.990   9.849
   34MYC     H7 3371   3.713   1.134   9.948
   34MYC     C4 3372   3.590   1.138   9.772
   34MYC     H4 3373   3.659   1.217   9.740
   34MYC     H5 3374   3.503   1.191   9.812
   34MYC     C2 3375   3.550   1.057   9.646
   34MYC     H2 3376   3.643   1.020   9.600
   34MYC     O3 3377   3.469   0.945   9.682
   34MYC     H3 3378   3.528   0.874   9.715
   34MYC     C1 3379   3.476   1.146   9.542
   34MYC     H1 3380   3.545   1.228   9.517
   34MYC    C81 3381   3.348   1.211   9.600
   34MYC    O82 3382   3.248   1.149   9.632
   34MYC    O83 3383   3.354   1.345   9.610
   34MYC   H105 3384   3.268   1.371   9.647
   34MYC    C20 3385   3.442   1.074   9.410
   34MYC    H34 3386   3.379   0.987   9.430
   34MYC    H35 3387   3.380   1.143   9.350
   34MYC    C21 3388   3.562   1.031   9.324
   34MYC    H36 3389   3.632   1.115   9.313
   34MYC    H37 3390   3.616   0.949   9.373
   34MYC    C22 3391   3.515   0.986   9.185
   34MYC    H38 3392   3.447   0.901   9.196
   34MYC    H39 3393   3.456   1.067   9.140
   34MYC    C23 3394   3.627   0.947   9.087
   34MYC    H40 3395   3.697   1.031   9.076
   34MYC    H41 3396   3.683   0.862   9.126
   34MYC    C24 3397   3.568   0.913   8.949
   34MYC    H42 3398   3.505   0.823   8.958
   34MYC    H43 3399   3.501   0.994   8.917
   34MYC    C25 3400   3.673   0.891   8.839
   34MYC    H44 3401   3.734   0.982   8.830
   34MYC    H45 3402   3.740   0.809   8.866
   34MYC    C26 3403   3.606   0.862   8.703
   34MYC    H46 3404   3.554   0.765   8.707
   34MYC    H47 3405   3.529   0.938   8.685
   34MYC    C27 3406   3.704   0.863   8.585
   34MYC    H48 3407   3.761   0.957   8.587
   34MYC    H49 3408   3.776   0.781   8.595
   34MYC    C28 3409   3.631   0.853   8.450
   34MYC    H50 3410   3.573   0.760   8.447
   34MYC    H51 3411   3.559   0.935   8.443
   34MYC    C29 3412   3.725   0.857   8.329
   34MYC    H52 3413   3.799   0.937   8.343
   34MYC    H53 3414   3.780   0.763   8.323
   34MYC    C30 3415   3.649   0.883   8.198
   34MYC    H54 3416   3.565   0.813   8.191
   34MYC    H55 3417   3.606   0.984   8.201
   34MYC    C31 3418   3.737   0.867   8.073
   34MYC    H56 3419   3.831   0.923   8.087
   34MYC    H57 3420   3.764   0.762   8.062
   34MYC    C32 3421   3.667   0.918   7.946
   34MYC    H58 3422   3.559   0.897   7.950
   34MYC    H59 3423   3.677   1.027   7.942
   34MYC    C33 3424   3.724   0.855   7.817
   34MYC    H60 3425   3.832   0.841   7.828
   34MYC    H61 3426   3.679   0.756   7.804
   34MYC    C34 3427   3.697   0.942   7.693
   34MYC    H62 3428   3.590   0.967   7.687
   34MYC    H63 3429   3.751   1.036   7.705
   34MYC    C35 3430   3.741   0.874   7.561
   34MYC    H64 3431   3.838   0.827   7.575
   34MYC    H65 3432   3.669   0.795   7.536
   34MYC    C36 3433   3.749   0.976   7.447
   34MYC    H66 3434   3.654   1.030   7.440
   34MYC    H67 3435   3.826   1.051   7.471
   34MYC    C37 3436   3.781   0.915   7.309
   34MYC    H68 3437   3.874   0.857   7.315
   34MYC    H69 3438   3.700   0.846   7.282
   34MYC    C38 3439   3.794   1.025   7.202
   34MYC    H70 3440   3.710   1.094   7.214
   34MYC    H71 3441   3.885   1.082   7.220
   34MYC    C39 3442   3.795   0.973   7.057
   34MYC    H72 3443   3.895   0.937   7.031
   34MYC    H73 3444   3.726   0.887   7.048
   34MYC    C40 3445   3.751   1.083   6.958
   34MYC    H74 3446   3.652   1.120   6.989
   34MYC    H75 3447   3.820   1.167   6.965
   34MYC    C41 3448   3.741   1.036   6.812
   34MYC    H76 3449   3.841   1.011   6.775
   34MYC    H77 3450   3.681   0.944   6.807
   34MYC    C42 3451   3.677   1.143   6.721
   34MYC    H78 3452   3.576   1.166   6.758
   34MYC    H79 3453   3.735   1.236   6.728
   34MYC    C43 3454   3.667   1.100   6.574
   34MYC    H80 3455   3.620   1.179   6.514
   34MYC    H81 3456   3.607   1.009   6.564
   34MYC    H82 3457   3.767   1.081   6.533
   35MYC   HH15 3458   4.040   0.858   6.558
   35MYC    C80 3459   4.106   0.883   6.642
   35MYC   H100 3460   4.210   0.884   6.607
   35MYC   H101 3461   4.080   0.984   6.677
   35MYC    C79 3462   4.088   0.781   6.757
   35MYC   H102 3463   4.109   0.680   6.720
   35MYC   H103 3464   3.983   0.783   6.788
   35MYC    C78 3465   4.175   0.813   6.879
   35MYC   HH14 3466   4.161   0.918   6.905
   35MYC   H104 3467   4.281   0.800   6.853
   35MYC    C77 3468   4.143   0.726   7.003
   35MYC   H106 3469   4.182   0.625   6.989
   35MYC   H107 3470   4.034   0.716   7.013
   35MYC    C76 3471   4.198   0.787   7.133
   35MYC   H108 3472   4.159   0.889   7.142
   35MYC   H109 3473   4.307   0.794   7.127
   35MYC    C75 3474   4.158   0.709   7.259
   35MYC   H110 3475   4.202   0.608   7.255
   35MYC   H111 3476   4.049   0.697   7.262
   35MYC    C74 3477   4.205   0.780   7.388
   35MYC   H112 3478   4.166   0.882   7.389
   35MYC   H113 3479   4.314   0.786   7.389
   35MYC    C73 3480   4.157   0.709   7.516
   35MYC   HH13 3481   4.188   0.604   7.514
   35MYC   H114 3482   4.047   0.710   7.518
   35MYC    C72 3483   4.211   0.775   7.645
   35MYC   H115 3484   4.191   0.883   7.641
   35MYC   H116 3485   4.320   0.762   7.649
   35MYC    C71 3486   4.148   0.717   7.772
   35MYC   H117 3487   4.163   0.608   7.774
   35MYC   H118 3488   4.039   0.733   7.769
   35MYC    C70 3489   4.204   0.778   7.902
   35MYC   H119 3490   4.193   0.888   7.898
   35MYC   H120 3491   4.311   0.757   7.908
   35MYC    C69 3492   4.133   0.724   8.027
   35MYC   H121 3493   4.144   0.615   8.030
   35MYC   H122 3494   4.026   0.745   8.020
   35MYC    C68 3495   4.187   0.783   8.159
   35MYC   HH12 3496   4.167   0.891   8.161
   35MYC   H123 3497   4.296   0.771   8.163
   35MYC    C67 3498   4.124   0.716   8.282
   35MYC   H124 3499   4.151   0.609   8.282
   35MYC   H125 3500   4.015   0.722   8.276
   35MYC    C66 3501   4.169   0.779   8.416
   35MYC   H126 3502   4.125   0.879   8.425
   35MYC   H127 3503   4.278   0.791   8.415
   35MYC    C65 3504   4.130   0.693   8.538
   35MYC   H128 3505   4.186   0.598   8.534
   35MYC   H129 3506   4.023   0.667   8.532
   35MYC    C64 3507   4.157   0.763   8.672
   35MYC   H130 3508   4.084   0.844   8.685
   35MYC   H131 3509   4.257   0.809   8.669
   35MYC    C63 3510   4.151   0.667   8.793
   35MYC   HH11 3511   4.232   0.594   8.785
   35MYC   H132 3512   4.057   0.611   8.791
   35MYC    C62 3513   4.163   0.741   8.928
   35MYC   H133 3514   4.072   0.802   8.943
   35MYC   H134 3515   4.247   0.811   8.923
   35MYC    C61 3516   4.182   0.648   9.049
   35MYC   H135 3517   4.276   0.592   9.036
   35MYC   H136 3518   4.101   0.574   9.052
   35MYC    C60 3519   4.185   0.725   9.180
   35MYC   H137 3520   4.091   0.775   9.201
   35MYC    C58 3521   4.265   0.678   9.299
   35MYC   H138 3522   4.325   0.588   9.287
   35MYC    C59 3523   4.310   0.799   9.222
   35MYC   H139 3524   4.297   0.896   9.269
   35MYC   H140 3525   4.399   0.790   9.160
   35MYC    C57 3526   4.209   0.692   9.440
   35MYC   HH10 3527   4.146   0.781   9.446
   35MYC   H141 3528   4.292   0.707   9.510
   35MYC    C56 3529   4.126   0.569   9.484
   35MYC   H142 3530   4.193   0.482   9.493
   35MYC   H143 3531   4.053   0.545   9.406
   35MYC    C55 3532   4.050   0.589   9.617
   35MYC   H144 3533   3.987   0.502   9.634
   35MYC   H145 3534   3.982   0.674   9.606
   35MYC    C54 3535   4.141   0.611   9.740
   35MYC   H146 3536   4.197   0.704   9.728
   35MYC   H147 3537   4.214   0.530   9.746
   35MYC    C53 3538   4.061   0.619   9.872
   35MYC   H148 3539   4.002   0.527   9.885
   35MYC   H149 3540   3.991   0.702   9.867
   35MYC    C52 3541   4.153   0.637   9.995
   35MYC    H99 3542   4.220   0.722   9.978
   35MYC   H150 3543   4.216   0.548  10.006
   35MYC    C51 3544   4.075   0.661  10.127
   35MYC    H97 3545   4.010   0.574  10.147
   35MYC    H98 3546   4.010   0.748  10.114
   35MYC    C50 3547   4.169   0.684  10.247
   35MYC    H95 3548   4.242   0.761  10.221
   35MYC    H96 3549   4.225   0.592  10.267
   35MYC    C49 3550   4.095   0.727  10.376
   35MYC    H93 3551   4.017   0.654  10.400
   35MYC    H94 3552   4.045   0.823  10.357
   35MYC    C48 3553   4.191   0.742  10.496
   35MYC    H91 3554   4.276   0.805  10.467
   35MYC    H92 3555   4.232   0.643  10.521
   35MYC    C47 3556   4.125   0.802  10.622
   35MYC    H89 3557   4.032   0.749  10.644
   35MYC    H90 3558   4.098   0.907  10.601
   35MYC    C46 3559   4.218   0.797  10.745
   35MYC    H87 3560   4.317   0.833  10.717
   35MYC    H88 3561   4.230   0.692  10.774
   35MYC    C45 3562   4.167   0.879  10.866
   35MYC    H85 3563   4.068   0.845  10.896
   35MYC    H86 3564   4.156   0.984  10.834
   35MYC    C44 3565   4.263   0.876  10.987
   35MYC    H83 3566   4.239   0.959  11.054
   35MYC    H84 3567   4.365   0.896  10.951
   35MYC    C18 3568   4.262   0.744  11.065
   35MYC    H31 3569   4.221   0.661  11.009
   35MYC    C17 3570   4.378   0.714  11.157
   35MYC    H30 3571   4.451   0.794  11.172
   35MYC    C19 3572   4.242   0.740  11.215
   35MYC    H32 3573   4.226   0.834  11.267
   35MYC    H33 3574   4.188   0.656  11.256
   35MYC    C16 3575   4.443   0.576  11.161
   35MYC    H28 3576   4.367   0.498  11.148
   35MYC    H29 3577   4.487   0.560  11.260
   35MYC    C15 3578   4.552   0.559  11.053
   35MYC    H26 3579   4.618   0.477  11.084
   35MYC    H27 3580   4.613   0.649  11.050
   35MYC    C14 3581   4.497   0.526  10.912
   35MYC    H24 3582   4.404   0.581  10.893
   35MYC    H25 3583   4.471   0.420  10.908
   35MYC    C13 3584   4.596   0.561  10.800
   35MYC    H22 3585   4.698   0.542  10.835
   35MYC    H23 3586   4.590   0.669  10.781
   35MYC    C12 3587   4.573   0.483  10.669
   35MYC    H20 3588   4.472   0.500  10.632
   35MYC    H21 3589   4.581   0.375  10.691
   35MYC    C11 3590   4.677   0.519  10.562
   35MYC    H18 3591   4.686   0.436  10.491
   35MYC    H19 3592   4.776   0.527  10.609
   35MYC    C10 3593   4.647   0.652  10.487
   35MYC    H16 3594   4.742   0.696  10.453
   35MYC    H17 3595   4.603   0.724  10.556
   35MYC     C9 3596   4.554   0.636  10.364
   35MYC    H14 3597   4.524   0.736  10.330
   35MYC    H15 3598   4.462   0.583  10.392
   35MYC     C8 3599   4.623   0.563  10.247
   35MYC    H12 3600   4.643   0.459  10.275
   35MYC    H13 3601   4.720   0.610  10.229
   35MYC     C7 3602   4.544   0.561  10.115
   35MYC    H10 3603   4.508   0.662  10.091
   35MYC    H11 3604   4.456   0.497  10.125
   35MYC     C6 3605   4.634   0.511  10.000
   35MYC     H8 3606   4.681   0.416  10.029
   35MYC     H9 3607   4.716   0.583   9.987
   35MYC     C5 3608   4.563   0.491   9.865
   35MYC     H6 3609   4.494   0.574   9.844
   35MYC     H7 3610   4.501   0.400   9.871
   35MYC     C4 3611   4.665   0.475   9.749
   35MYC     H4 3612   4.628   0.397   9.680
   35MYC     H5 3613   4.760   0.437   9.789
   35MYC     C2 3614   4.691   0.603   9.666
   35MYC     H2 3615   4.606   0.614   9.598
   35MYC     O3 3616   4.697   0.719   9.750
   35MYC     H3 3617   4.782   0.718   9.797
   35MYC     C1 3618   4.821   0.592   9.580
   35MYC     H1 3619   4.822   0.491   9.538
   35MYC    C81 3620   4.951   0.606   9.662
   35MYC    O82 3621   4.981   0.704   9.727
   35MYC    O83 3622   5.038   0.505   9.644
   35MYC   H105 3623   5.115   0.528   9.698
   35MYC    C20 3624   4.823   0.689   9.458
   35MYC    H34 3625   4.789   0.789   9.488
   35MYC    H35 3626   4.926   0.700   9.424
   35MYC    C21 3627   4.738   0.637   9.341
   35MYC    H36 3628   4.768   0.533   9.319
   35MYC    H37 3629   4.632   0.634   9.369
   35MYC    C22 3630   4.754   0.720   9.213
   35MYC    H38 3631   4.707   0.818   9.226
   35MYC    H39 3632   4.861   0.738   9.195
   35MYC    C23 3633   4.695   0.649   9.089
   35MYC    H40 3634   4.734   0.547   9.084
   35MYC    H41 3635   4.586   0.642   9.099
   35MYC    C24 3636   4.731   0.721   8.959
   35MYC    H42 3637   4.689   0.823   8.960
   35MYC    H43 3638   4.840   0.732   8.953
   35MYC    C25 3639   4.683   0.647   8.833
   35MYC    H44 3640   4.717   0.543   8.836
   35MYC    H45 3641   4.573   0.646   8.832
   35MYC    C26 3642   4.736   0.714   8.705
   35MYC    H46 3643   4.708   0.820   8.705
   35MYC    H47 3644   4.845   0.709   8.705
   35MYC    C27 3645   4.682   0.648   8.577
   35MYC    H48 3646   4.705   0.541   8.578
   35MYC    H49 3647   4.573   0.659   8.573
   35MYC    C28 3648   4.745   0.711   8.451
   35MYC    H50 3649   4.737   0.820   8.457
   35MYC    H51 3650   4.852   0.686   8.447
   35MYC    C29 3651   4.677   0.663   8.322
   35MYC    H52 3652   4.678   0.554   8.318
   35MYC    H53 3653   4.571   0.695   8.323
   35MYC    C30 3654   4.744   0.720   8.196
   35MYC    H54 3655   4.753   0.829   8.204
   35MYC    H55 3656   4.846   0.680   8.188
   35MYC    C31 3657   4.666   0.685   8.068
   35MYC    H56 3658   4.650   0.576   8.064
   35MYC    H57 3659   4.567   0.731   8.073
   35MYC    C32 3660   4.737   0.731   7.940
   35MYC    H58 3661   4.756   0.839   7.945
   35MYC    H59 3662   4.834   0.681   7.933
   35MYC    C33 3663   4.654   0.699   7.815
   35MYC    H60 3664   4.629   0.592   7.814
   35MYC    H61 3665   4.559   0.754   7.820
   35MYC    C34 3666   4.726   0.734   7.684
   35MYC    H62 3667   4.753   0.841   7.684
   35MYC    H63 3668   4.820   0.677   7.678
   35MYC    C35 3669   4.639   0.703   7.561
   35MYC    H64 3670   4.605   0.598   7.567
   35MYC    H65 3671   4.550   0.766   7.563
   35MYC    C36 3672   4.713   0.723   7.428
   35MYC    H66 3673   4.743   0.828   7.418
   35MYC    H67 3674   4.805   0.663   7.429
   35MYC    C37 3675   4.626   0.682   7.308
   35MYC    H68 3676   4.588   0.581   7.324
   35MYC    H69 3677   4.539   0.749   7.301
   35MYC    C38 3678   4.703   0.686   7.174
   35MYC    H70 3679   4.736   0.789   7.154
   35MYC    H71 3680   4.794   0.625   7.183
   35MYC    C39 3681   4.618   0.636   7.056
   35MYC    H72 3682   4.580   0.535   7.080
   35MYC    H73 3683   4.531   0.701   7.044
   35MYC    C40 3684   4.697   0.630   6.924
   35MYC    H74 3685   4.743   0.727   6.906
   35MYC    H75 3686   4.779   0.557   6.934
   35MYC    C41 3687   4.609   0.592   6.804
   35MYC    H76 3688   4.560   0.495   6.824
   35MYC    H77 3689   4.529   0.666   6.794
   35MYC    C42 3690   4.687   0.583   6.672
   35MYC    H78 3691   4.751   0.672   6.661
   35MYC    H79 3692   4.754   0.496   6.675
   35MYC    C43 3693   4.596   0.573   6.549
   35MYC    H80 3694   4.655   0.563   6.457
   35MYC    H81 3695   4.534   0.663   6.539
   35MYC    H82 3696   4.529   0.486   6.556
   36MYC   HH15 3697   5.120   0.296   6.556
   36MYC    C80 3698   5.160   0.364   6.632
   36MYC   H100 3699   5.269   0.363   6.627
   36MYC   H101 3700   5.125   0.465   6.610
   36MYC    C79 3701   5.112   0.319   6.771
   36MYC   H102 3702   5.144   0.216   6.788
   36MYC   H103 3703   5.002   0.319   6.774
   36MYC    C78 3704   5.166   0.407   6.886
   36MYC   HH14 3705   5.138   0.512   6.868
   36MYC   H104 3706   5.276   0.402   6.886
   36MYC    C77 3707   5.113   0.363   7.023
   36MYC   H106 3708   5.135   0.256   7.037
   36MYC   H107 3709   5.004   0.374   7.026
   36MYC    C76 3710   5.175   0.442   7.141
   36MYC   H108 3711   5.151   0.548   7.131
   36MYC   H109 3712   5.284   0.432   7.138
   36MYC    C75 3713   5.123   0.390   7.276
   36MYC   H110 3714   5.135   0.281   7.279
   36MYC   H111 3715   5.016   0.410   7.283
   36MYC    C74 3716   5.195   0.450   7.398
   36MYC   H112 3717   5.177   0.558   7.402
   36MYC   H113 3718   5.303   0.434   7.389
   36MYC    C73 3719   5.144   0.384   7.528
   36MYC   HH13 3720   5.155   0.275   7.519
   36MYC   H114 3721   5.036   0.404   7.538
   36MYC    C72 3722   5.216   0.430   7.656
   36MYC   H115 3723   5.202   0.538   7.669
   36MYC   H116 3724   5.324   0.412   7.646
   36MYC    C71 3725   5.161   0.354   7.778
   36MYC   H117 3726   5.177   0.247   7.764
   36MYC   H118 3727   5.052   0.369   7.783
   36MYC    C70 3728   5.222   0.398   7.912
   36MYC   H119 3729   5.204   0.505   7.926
   36MYC   H120 3730   5.331   0.384   7.909
   36MYC    C69 3731   5.162   0.319   8.029
   36MYC   H121 3732   5.192   0.214   8.021
   36MYC   H122 3733   5.052   0.321   8.022
   36MYC    C68 3734   5.203   0.375   8.166
   36MYC   HH12 3735   5.164   0.476   8.176
   36MYC   H123 3736   5.313   0.381   8.172
   36MYC    C67 3737   5.151   0.289   8.283
   36MYC   H124 3738   5.194   0.188   8.276
   36MYC   H125 3739   5.042   0.278   8.273
   36MYC    C66 3740   5.183   0.350   8.420
   36MYC   H126 3741   5.132   0.446   8.430
   36MYC   H127 3742   5.291   0.369   8.428
   36MYC    C65 3743   5.140   0.258   8.536
   36MYC   H128 3744   5.195   0.163   8.530
   36MYC   H129 3745   5.033   0.233   8.525
   36MYC    C64 3746   5.162   0.321   8.675
   36MYC   H130 3747   5.101   0.412   8.683
   36MYC   H131 3748   5.267   0.352   8.685
   36MYC    C63 3749   5.126   0.225   8.790
   36MYC   HH11 3750   5.194   0.139   8.787
   36MYC   H132 3751   5.025   0.186   8.773
   36MYC    C62 3752   5.132   0.291   8.929
   36MYC   H133 3753   5.064   0.377   8.930
   36MYC   H134 3754   5.233   0.330   8.946
   36MYC    C61 3755   5.094   0.194   9.042
   36MYC   H135 3756   5.166   0.111   9.043
   36MYC   H136 3757   4.996   0.150   9.021
   36MYC    C60 3758   5.090   0.262   9.179
   36MYC   H137 3759   5.013   0.339   9.184
   36MYC    C58 3760   5.118   0.184   9.305
   36MYC   H138 3761   5.151   0.080   9.295
   36MYC    C59 3762   5.216   0.288   9.256
   36MYC   H139 3763   5.223   0.380   9.313
   36MYC   H140 3764   5.310   0.253   9.214
   36MYC    C57 3765   5.038   0.208   9.433
   36MYC   HH10 3766   4.967   0.290   9.418
   36MYC   H141 3767   5.108   0.241   9.511
   36MYC    C56 3768   4.962   0.082   9.482
   36MYC   H142 3769   5.035   0.002   9.500
   36MYC   H143 3770   4.896   0.047   9.402
   36MYC    C55 3771   4.878   0.102   9.611
   36MYC   H144 3772   4.834   0.006   9.638
   36MYC   H145 3773   4.795   0.170   9.590
   36MYC    C54 3774   4.959   0.157   9.731
   36MYC   H146 3775   4.980   0.263   9.715
   36MYC   H147 3776   5.056   0.105   9.736
   36MYC    C53 3777   4.889   0.141   9.868
   36MYC   H148 3778   4.886   0.034   9.893
   36MYC   H149 3779   4.785   0.175   9.860
   36MYC    C52 3780   4.960   0.220   9.981
   36MYC    H99 3781   4.921   0.323   9.982
   36MYC   H150 3782   5.067   0.227   9.959
   36MYC    C51 3783   4.943   0.157  10.121
   36MYC    H97 3784   4.998   0.062  10.123
   36MYC    H98 3785   4.837   0.133  10.138
   36MYC    C50 3786   4.993   0.248  10.236
   36MYC    H95 3787   4.923   0.332  10.247
   36MYC    H96 3788   5.090   0.290  10.209
   36MYC    C49 3789   5.007   0.174  10.371
   36MYC    H93 3790   5.091   0.103  10.363
   36MYC    H94 3791   4.917   0.114  10.389
   36MYC    C48 3792   5.029   0.269  10.491
   36MYC    H91 3793   4.936   0.324  10.509
   36MYC    H92 3794   5.106   0.343  10.464
   36MYC    C47 3795   5.073   0.196  10.620
   36MYC    H89 3796   5.174   0.157  10.605
   36MYC    H90 3797   5.008   0.109  10.637
   36MYC    C46 3798   5.071   0.286  10.746
   36MYC    H87 3799   5.102   0.388  10.718
   36MYC    H88 3800   5.147   0.249  10.816
   36MYC    C45 3801   4.934   0.290  10.818
   36MYC    H85 3802   4.915   0.192  10.863
   36MYC    H86 3803   4.855   0.306  10.743
   36MYC    C44 3804   4.920   0.399  10.926
   36MYC    H83 3805   4.815   0.400  10.958
   36MYC    H84 3806   4.939   0.497  10.881
   36MYC    C18 3807   5.007   0.382  11.051
   36MYC    H31 3808   5.098   0.325  11.032
   36MYC    C17 3809   5.020   0.492  11.154
   36MYC    H30 3810   4.963   0.583  11.138
   36MYC    C19 3811   4.941   0.369  11.186
   36MYC    H32 3812   4.834   0.384  11.194
   36MYC    H33 3813   4.983   0.297  11.256
   36MYC    C16 3814   5.150   0.517  11.229
   36MYC    H28 3815   5.206   0.423  11.238
   36MYC    H29 3816   5.126   0.547  11.332
   36MYC    C15 3817   5.243   0.622  11.166
   36MYC    H26 3818   5.338   0.620  11.220
   36MYC    H27 3819   5.201   0.722  11.181
   36MYC    C14 3820   5.268   0.601  11.016
   36MYC    H24 3821   5.180   0.635  10.960
   36MYC    H25 3822   5.280   0.494  10.995
   36MYC    C13 3823   5.393   0.675  10.966
   36MYC    H22 3824   5.481   0.629  11.014
   36MYC    H23 3825   5.390   0.779  10.998
   36MYC    C12 3826   5.409   0.670  10.813
   36MYC    H20 3827   5.348   0.749  10.769
   36MYC    H21 3828   5.372   0.574  10.776
   36MYC    C11 3829   5.556   0.686  10.770
   36MYC    H18 3830   5.609   0.594  10.798
   36MYC    H19 3831   5.603   0.768  10.826
   36MYC    C10 3832   5.576   0.712  10.619
   36MYC    H16 3833   5.682   0.701  10.596
   36MYC    H17 3834   5.549   0.816  10.597
   36MYC     C9 3835   5.494   0.620  10.526
   36MYC    H14 3836   5.387   0.636  10.543
   36MYC    H15 3837   5.515   0.515  10.549
   36MYC     C8 3838   5.524   0.647  10.378
   36MYC    H12 3839   5.629   0.620  10.358
   36MYC    H13 3840   5.515   0.755  10.359
   36MYC     C7 3841   5.432   0.571  10.281
   36MYC    H10 3842   5.328   0.602  10.297
   36MYC    H11 3843   5.438   0.464  10.300
   36MYC     C6 3844   5.472   0.601  10.135
   36MYC     H8 3845   5.579   0.579  10.123
   36MYC     H9 3846   5.460   0.709  10.117
   36MYC     C5 3847   5.394   0.523  10.029
   36MYC     H6 3848   5.286   0.542  10.041
   36MYC     H7 3849   5.407   0.415  10.045
   36MYC     C4 3850   5.443   0.561   9.887
   36MYC     H4 3851   5.484   0.471   9.839
   36MYC     H5 3852   5.528   0.630   9.895
   36MYC     C2 3853   5.338   0.622   9.791
   36MYC     H2 3854   5.275   0.539   9.758
   36MYC     O3 3855   5.256   0.717   9.861
   36MYC     H3 3856   5.186   0.748   9.801
   36MYC     C1 3857   5.403   0.688   9.666
   36MYC     H1 3858   5.490   0.624   9.642
   36MYC    C81 3859   5.458   0.829   9.696
   36MYC    O82 3860   5.390   0.931   9.698
   36MYC    O83 3861   5.590   0.832   9.727
   36MYC   H105 3862   5.612   0.926   9.739
   36MYC    C20 3863   5.310   0.686   9.543
   36MYC    H34 3864   5.276   0.583   9.527
   36MYC    H35 3865   5.220   0.746   9.563
   36MYC    C21 3866   5.377   0.735   9.414
   36MYC    H36 3867   5.397   0.843   9.421
   36MYC    H37 3868   5.475   0.686   9.403
   36MYC    C22 3869   5.293   0.706   9.289
   36MYC    H38 3870   5.274   0.599   9.283
   36MYC    H39 3871   5.196   0.756   9.296
   36MYC    C23 3872   5.364   0.751   9.160
   36MYC    H40 3873   5.379   0.859   9.163
   36MYC    H41 3874   5.463   0.704   9.155
   36MYC    C24 3875   5.286   0.713   9.032
   36MYC    H42 3876   5.271   0.604   9.029
   36MYC    H43 3877   5.186   0.759   9.035
   36MYC    C25 3878   5.359   0.759   8.905
   36MYC    H44 3879   5.371   0.868   8.908
   36MYC    H45 3880   5.460   0.716   8.905
   36MYC    C26 3881   5.288   0.720   8.775
   36MYC    H46 3882   5.280   0.610   8.769
   36MYC    H47 3883   5.185   0.760   8.776
   36MYC    C27 3884   5.363   0.773   8.652
   36MYC    H48 3885   5.369   0.883   8.659
   36MYC    H49 3886   5.466   0.735   8.654
   36MYC    C28 3887   5.297   0.735   8.519
   36MYC    H50 3888   5.289   0.626   8.512
   36MYC    H51 3889   5.196   0.776   8.515
   36MYC    C29 3890   5.379   0.786   8.398
   36MYC    H52 3891   5.400   0.893   8.411
   36MYC    H53 3892   5.476   0.735   8.397
   36MYC    C30 3893   5.307   0.766   8.264
   36MYC    H54 3894   5.264   0.666   8.261
   36MYC    H55 3895   5.224   0.837   8.257
   36MYC    C31 3896   5.401   0.783   8.143
   36MYC    H56 3897   5.468   0.869   8.160
   36MYC    H57 3898   5.464   0.694   8.136
   36MYC    C32 3899   5.325   0.805   8.011
   36MYC    H58 3900   5.241   0.735   8.005
   36MYC    H59 3901   5.284   0.906   8.010
   36MYC    C33 3902   5.416   0.784   7.888
   36MYC    H60 3903   5.507   0.843   7.900
   36MYC    H61 3904   5.446   0.679   7.884
   36MYC    C34 3905   5.347   0.823   7.756
   36MYC    H62 3906   5.250   0.773   7.749
   36MYC    H63 3907   5.329   0.931   7.755
   36MYC    C35 3908   5.433   0.784   7.634
   36MYC    H64 3909   5.531   0.832   7.642
   36MYC    H65 3910   5.450   0.676   7.636
   36MYC    C36 3911   5.369   0.821   7.499
   36MYC    H66 3912   5.271   0.773   7.491
   36MYC    H67 3913   5.353   0.930   7.494
   36MYC    C37 3914   5.458   0.778   7.380
   36MYC    H68 3915   5.551   0.836   7.383
   36MYC    H69 3916   5.485   0.673   7.393
   36MYC    C38 3917   5.391   0.794   7.242
   36MYC    H70 3918   5.301   0.731   7.239
   36MYC    H71 3919   5.359   0.898   7.228
   36MYC    C39 3920   5.486   0.754   7.128
   36MYC    H72 3921   5.565   0.829   7.120
   36MYC    H73 3922   5.535   0.659   7.154
   36MYC    C40 3923   5.417   0.738   6.991
   36MYC    H74 3924   5.345   0.656   6.997
   36MYC    H75 3925   5.362   0.829   6.966
   36MYC    C41 3926   5.519   0.707   6.879
   36MYC    H76 3927   5.577   0.798   6.859
   36MYC    H77 3928   5.589   0.631   6.913
   36MYC    C42 3929   5.454   0.658   6.747
   36MYC    H78 3930   5.399   0.566   6.767
   36MYC    H79 3931   5.381   0.732   6.712
   36MYC    C43 3932   5.558   0.632   6.636
   36MYC    H80 3933   5.509   0.587   6.549
   36MYC    H81 3934   5.635   0.562   6.671
   36MYC    H82 3935   5.606   0.725   6.605
   37MYC   HH15 3936   6.021   0.363   6.620
   37MYC    C80 3937   6.107   0.430   6.634
   37MYC   H100 3938   6.180   0.408   6.555
   37MYC   H101 3939   6.074   0.533   6.623
   37MYC    C79 3940   6.170   0.407   6.773
   37MYC   H102 3941   6.258   0.473   6.783
   37MYC   H103 3942   6.207   0.304   6.779
   37MYC    C78 3943   6.073   0.433   6.890
   37MYC   HH14 3944   5.987   0.366   6.881
   37MYC   H104 3945   6.036   0.536   6.885
   37MYC    C77 3946   6.141   0.410   7.026
   37MYC   H106 3947   6.229   0.476   7.033
   37MYC   H107 3948   6.178   0.307   7.030
   37MYC    C76 3949   6.050   0.435   7.147
   37MYC   H108 3950   5.962   0.369   7.141
   37MYC   H109 3951   6.013   0.538   7.145
   37MYC    C75 3952   6.126   0.409   7.278
   37MYC   H110 3953   6.214   0.474   7.280
   37MYC   H111 3954   6.161   0.305   7.279
   37MYC    C74 3955   6.043   0.435   7.405
   37MYC   H112 3956   5.959   0.364   7.410
   37MYC   H113 3957   6.001   0.536   7.402
   37MYC    C73 3958   6.132   0.420   7.529
   37MYC   HH13 3959   6.215   0.491   7.522
   37MYC   H114 3960   6.175   0.319   7.531
   37MYC    C72 3961   6.058   0.445   7.661
   37MYC   H115 3962   5.980   0.369   7.674
   37MYC   H116 3963   6.008   0.542   7.659
   37MYC    C71 3964   6.155   0.440   7.779
   37MYC   H117 3965   6.234   0.516   7.765
   37MYC   H118 3966   6.205   0.342   7.781
   37MYC    C70 3967   6.087   0.463   7.914
   37MYC   H119 3968   6.009   0.387   7.929
   37MYC   H120 3969   6.039   0.561   7.915
   37MYC    C69 3970   6.187   0.455   8.030
   37MYC   H121 3971   6.264   0.532   8.017
   37MYC   H122 3972   6.238   0.358   8.027
   37MYC    C68 3973   6.120   0.472   8.166
   37MYC   HH12 3974   6.042   0.396   8.177
   37MYC   H123 3975   6.071   0.571   8.171
   37MYC    C67 3976   6.221   0.460   8.281
   37MYC   H124 3977   6.295   0.540   8.274
   37MYC   H125 3978   6.275   0.365   8.271
   37MYC    C66 3979   6.152   0.464   8.417
   37MYC   H126 3980   6.079   0.382   8.424
   37MYC   H127 3981   6.096   0.558   8.428
   37MYC    C65 3982   6.253   0.451   8.531
   37MYC   H128 3983   6.319   0.539   8.531
   37MYC   H129 3984   6.316   0.363   8.515
   37MYC    C64 3985   6.183   0.439   8.667
   37MYC   H130 3986   6.123   0.347   8.669
   37MYC   H131 3987   6.114   0.523   8.681
   37MYC    C63 3988   6.284   0.437   8.783
   37MYC   HH11 3989   6.336   0.533   8.786
   37MYC   H132 3990   6.359   0.359   8.765
   37MYC    C62 3991   6.214   0.411   8.916
   37MYC   H133 3992   6.183   0.306   8.921
   37MYC   H134 3993   6.123   0.472   8.922
   37MYC    C61 3994   6.304   0.443   9.036
   37MYC   H135 3995   6.330   0.550   9.033
   37MYC   H136 3996   6.399   0.388   9.027
   37MYC    C60 3997   6.237   0.408   9.167
   37MYC   H137 3998   6.245   0.302   9.190
   37MYC    C58 3999   6.238   0.505   9.281
   37MYC   H138 4000   6.280   0.604   9.264
   37MYC    C59 4001   6.109   0.475   9.210
   37MYC   H139 4002   6.036   0.414   9.261
   37MYC   H140 4003   6.067   0.553   9.146
   37MYC    C57 4004   6.263   0.456   9.422
   37MYC   HH10 4005   6.371   0.458   9.443
   37MYC   H141 4006   6.232   0.350   9.429
   37MYC    C56 4007   6.188   0.537   9.528
   37MYC   H142 4008   6.082   0.545   9.500
   37MYC   H143 4009   6.228   0.639   9.532
   37MYC    C55 4010   6.198   0.470   9.665
   37MYC   H144 4011   6.303   0.452   9.689
   37MYC   H145 4012   6.149   0.372   9.659
   37MYC    C54 4013   6.132   0.549   9.778
   37MYC   H146 4014   6.028   0.570   9.753
   37MYC   H147 4015   6.184   0.645   9.790
   37MYC    C53 4016   6.139   0.471   9.910
   37MYC   H148 4017   6.244   0.451   9.935
   37MYC   H149 4018   6.090   0.374   9.897
   37MYC    C52 4019   6.072   0.546  10.026
   37MYC    H99 4020   5.968   0.567  10.001
   37MYC   H150 4021   6.123   0.642  10.042
   37MYC    C51 4022   6.078   0.464  10.156
   37MYC    H97 4023   6.183   0.446  10.183
   37MYC    H98 4024   6.033   0.365  10.139
   37MYC    C50 4025   6.007   0.533  10.273
   37MYC    H95 4026   5.900   0.545  10.249
   37MYC    H96 4027   6.048   0.633  10.287
   37MYC    C49 4028   6.021   0.453  10.403
   37MYC    H93 4029   6.128   0.445  10.429
   37MYC    H94 4030   5.985   0.350  10.387
   37MYC    C48 4031   5.945   0.515  10.521
   37MYC    H91 4032   5.837   0.513  10.500
   37MYC    H92 4033   5.974   0.620  10.532
   37MYC    C47 4034   5.974   0.441  10.652
   37MYC    H89 4035   6.079   0.455  10.679
   37MYC    H90 4036   5.959   0.333  10.637
   37MYC    C46 4037   5.885   0.487  10.769
   37MYC    H87 4038   5.781   0.465  10.743
   37MYC    H88 4039   5.895   0.595  10.784
   37MYC    C45 4040   5.921   0.413  10.900
   37MYC    H85 4041   6.025   0.435  10.926
   37MYC    H86 4042   5.916   0.305  10.880
   37MYC    C44 4043   5.829   0.444  11.019
   37MYC    H83 4044   5.824   0.353  11.081
   37MYC    H84 4045   5.726   0.461  10.984
   37MYC    C18 4046   5.876   0.558  11.109
   37MYC    H31 4047   5.983   0.560  11.123
   37MYC    C17 4048   5.805   0.692  11.118
   37MYC    H30 4049   5.719   0.705  11.054
   37MYC    C19 4050   5.791   0.590  11.229
   37MYC    H32 4051   5.694   0.541  11.239
   37MYC    H33 4052   5.842   0.608  11.323
   37MYC    C16 4053   5.878   0.822  11.152
   37MYC    H28 4054   5.986   0.806  11.157
   37MYC    H29 4055   5.848   0.855  11.252
   37MYC    C15 4056   5.846   0.936  11.054
   37MYC    H26 4057   5.886   1.030  11.094
   37MYC    H27 4058   5.738   0.949  11.047
   37MYC    C14 4059   5.905   0.913  10.913
   37MYC    H24 4060   5.884   0.811  10.880
   37MYC    H25 4061   6.014   0.925  10.918
   37MYC    C13 4062   5.848   1.011  10.810
   37MYC    H22 4063   5.864   1.114  10.846
   37MYC    H23 4064   5.740   0.996  10.803
   37MYC    C12 4065   5.910   0.995  10.671
   37MYC    H20 4066   5.887   0.896  10.631
   37MYC    H21 4067   6.020   1.002  10.680
   37MYC    C11 4068   5.862   1.104  10.573
   37MYC    H18 4069   5.876   1.202  10.620
   37MYC    H19 4070   5.754   1.093  10.556
   37MYC    C10 4071   5.937   1.103  10.439
   37MYC    H16 4072   6.044   1.089  10.458
   37MYC    H17 4073   5.926   1.201  10.392
   37MYC     C9 4074   5.889   0.995  10.339
   37MYC    H14 4075   5.786   1.017  10.310
   37MYC    H15 4076   5.889   0.896  10.386
   37MYC     C8 4077   5.980   0.993  10.214
   37MYC    H12 4078   6.076   0.946  10.239
   37MYC    H13 4079   6.001   1.096  10.184
   37MYC     C7 4080   5.918   0.920  10.092
   37MYC    H10 4081   5.821   0.965  10.070
   37MYC    H11 4082   5.901   0.814  10.116
   37MYC     C6 4083   6.009   0.932   9.968
   37MYC     H8 4084   6.100   0.873   9.982
   37MYC     H9 4085   6.040   1.037   9.959
   37MYC     C5 4086   5.940   0.892   9.836
   37MYC     H6 4087   5.845   0.946   9.830
   37MYC     H7 4088   5.914   0.785   9.839
   37MYC     C4 4089   6.028   0.921   9.711
   37MYC     H4 4090   6.099   0.839   9.700
   37MYC     H5 4091   6.089   1.010   9.729
   37MYC     C2 4092   5.953   0.940   9.577
   37MYC     H2 4093   6.028   0.920   9.499
   37MYC     O3 4094   5.849   0.844   9.564
   37MYC     H3 4095   5.877   0.764   9.611
   37MYC     C1 4096   5.901   1.086   9.551
   37MYC     H1 4097   5.991   1.148   9.548
   37MYC    C81 4098   5.814   1.144   9.665
   37MYC    O82 4099   5.698   1.113   9.687
   37MYC    O83 4100   5.878   1.235   9.742
   37MYC   H105 4101   5.813   1.264   9.808
   37MYC    C20 4102   5.829   1.104   9.415
   37MYC    H34 4103   5.744   1.035   9.408
   37MYC    H35 4104   5.786   1.205   9.411
   37MYC    C21 4105   5.921   1.086   9.293
   37MYC    H36 4106   6.005   1.157   9.300
   37MYC    H37 4107   5.964   0.985   9.295
   37MYC    C22 4108   5.849   1.106   9.159
   37MYC    H38 4109   5.762   1.039   9.155
   37MYC    H39 4110   5.811   1.209   9.153
   37MYC    C23 4111   5.941   1.077   9.039
   37MYC    H40 4112   6.025   1.148   9.040
   37MYC    H41 4113   5.982   0.977   9.051
   37MYC    C24 4114   5.868   1.087   8.904
   37MYC    H42 4115   5.769   1.039   8.913
   37MYC    H43 4116   5.851   1.192   8.879
   37MYC    C25 4117   5.946   1.018   8.792
   37MYC    H44 4118   6.042   1.068   8.777
   37MYC    H45 4119   5.968   0.914   8.821
   37MYC    C26 4120   5.868   1.016   8.660
   37MYC    H46 4121   5.768   0.975   8.677
   37MYC    H47 4122   5.856   1.119   8.623
   37MYC    C27 4123   5.937   0.931   8.551
   37MYC    H48 4124   6.038   0.970   8.532
   37MYC    H49 4125   5.948   0.827   8.586
   37MYC    C28 4126   5.856   0.932   8.421
   37MYC    H50 4127   5.755   0.894   8.440
   37MYC    H51 4128   5.845   1.037   8.388
   37MYC    C29 4129   5.920   0.851   8.307
   37MYC    H52 4130   6.027   0.873   8.301
   37MYC    H53 4131   5.910   0.743   8.328
   37MYC    C30 4132   5.853   0.885   8.173
   37MYC    H54 4133   5.745   0.866   8.180
   37MYC    H55 4134   5.865   0.993   8.156
   37MYC    C31 4135   5.909   0.808   8.053
   37MYC    H56 4136   6.019   0.807   8.057
   37MYC    H57 4137   5.875   0.704   8.057
   37MYC    C32 4138   5.864   0.875   7.922
   37MYC    H58 4139   5.755   0.889   7.924
   37MYC    H59 4140   5.909   0.975   7.916
   37MYC    C33 4141   5.901   0.796   7.796
   37MYC    H60 4142   6.008   0.770   7.798
   37MYC    H61 4143   5.845   0.702   7.794
   37MYC    C34 4144   5.871   0.877   7.669
   37MYC    H62 4145   5.770   0.918   7.675
   37MYC    H63 4146   5.940   0.962   7.665
   37MYC    C35 4147   5.884   0.794   7.540
   37MYC    H64 4148   5.982   0.744   7.539
   37MYC    H65 4149   5.807   0.716   7.540
   37MYC    C36 4150   5.871   0.882   7.415
   37MYC    H66 4151   5.778   0.940   7.421
   37MYC    H67 4152   5.954   0.953   7.412
   37MYC    C37 4153   5.871   0.799   7.286
   37MYC    H68 4154   5.960   0.735   7.283
   37MYC    H69 4155   5.783   0.732   7.285
   37MYC    C38 4156   5.869   0.887   7.160
   37MYC    H70 4157   5.779   0.950   7.161
   37MYC    H71 4158   5.956   0.954   7.162
   37MYC    C39 4159   5.872   0.804   7.030
   37MYC    H72 4160   5.962   0.742   7.030
   37MYC    H73 4161   5.786   0.736   7.028
   37MYC    C40 4162   5.871   0.893   6.905
   37MYC    H74 4163   5.778   0.950   6.901
   37MYC    H75 4164   5.953   0.965   6.912
   37MYC    C41 4165   5.887   0.812   6.775
   37MYC    H76 4166   5.980   0.753   6.780
   37MYC    H77 4167   5.805   0.739   6.766
   37MYC    C42 4168   5.891   0.901   6.650
   37MYC    H78 4169   5.792   0.944   6.632
   37MYC    H79 4170   5.960   0.984   6.667
   37MYC    C43 4171   5.937   0.824   6.525
   37MYC    H80 4172   5.934   0.891   6.437
   37MYC    H81 4173   5.871   0.739   6.505
   37MYC    H82 4174   6.039   0.788   6.538
   38MYC   HH15 4175   0.044   1.265   6.613
   38MYC    C80 4176   0.070   1.314   6.708
   38MYC   H100 4177   0.177   1.339   6.706
   38MYC   H101 4178   0.013   1.407   6.715
   38MYC    C79 4179   0.039   1.221   6.827
   38MYC   H102 4180   0.101   1.131   6.818
   38MYC   H103 4181   6.384   1.189   6.822
   38MYC    C78 4182   0.066   1.288   6.963
   38MYC   HH14 4183   6.448   1.373   6.976
   38MYC   H104 4184   0.168   1.329   6.962
   38MYC    C77 4185   0.051   1.192   7.083
   38MYC   H106 4186   0.110   1.102   7.062
   38MYC   H107 4187   6.396   1.162   7.095
   38MYC    C76 4188   0.103   1.256   7.214
   38MYC   H108 4189   0.038   1.339   7.243
   38MYC   H109 4190   0.202   1.299   7.194
   38MYC    C75 4191   0.114   1.156   7.332
   38MYC   H110 4192   0.132   1.055   7.294
   38MYC   H111 4193   0.019   1.154   7.387
   38MYC    C74 4194   0.230   1.194   7.426
   38MYC   H112 4195   0.221   1.300   7.454
   38MYC   H113 4196   0.325   1.183   7.371
   38MYC    C73 4197   0.237   1.109   7.553
   38MYC   HH13 4198   0.241   1.002   7.527
   38MYC   H114 4199   0.144   1.124   7.610
   38MYC    C72 4200   0.358   1.146   7.641
   38MYC   H115 4201   0.363   1.255   7.651
   38MYC   H116 4202   0.451   1.115   7.590
   38MYC    C71 4203   0.352   1.082   7.780
   38MYC   H117 4204   0.365   0.974   7.771
   38MYC   H118 4205   0.252   1.099   7.822
   38MYC    C70 4206   0.457   1.139   7.878
   38MYC   H119 4207   0.444   1.248   7.883
   38MYC   H120 4208   0.558   1.121   7.840
   38MYC    C69 4209   0.442   1.079   8.020
   38MYC   H121 4210   0.501   0.987   8.026
   38MYC   H122 4211   0.338   1.051   8.037
   38MYC    C68 4212   0.484   1.176   8.131
   38MYC   HH12 4213   0.418   1.264   8.128
   38MYC   H123 4214   0.586   1.212   8.112
   38MYC    C67 4215   0.478   1.111   8.271
   38MYC   H124 4216   0.563   1.043   8.282
   38MYC   H125 4217   0.387   1.050   8.278
   38MYC    C66 4218   0.479   1.213   8.387
   38MYC   H126 4219   0.389   1.276   8.380
   38MYC   H127 4220   0.565   1.279   8.377
   38MYC    C65 4221   0.482   1.143   8.524
   38MYC   H128 4222   0.571   1.079   8.529
   38MYC   H129 4223   0.394   1.078   8.532
   38MYC    C64 4224   0.484   1.241   8.643
   38MYC   H130 4225   0.395   1.305   8.638
   38MYC   H131 4226   0.571   1.307   8.635
   38MYC    C63 4227   0.487   1.168   8.779
   38MYC   HH11 4228   0.573   1.101   8.782
   38MYC   H132 4229   0.397   1.105   8.788
   38MYC    C62 4230   0.493   1.265   8.898
   38MYC   H133 4231   0.410   1.337   8.891
   38MYC   H134 4232   0.586   1.324   8.892
   38MYC    C61 4233   0.487   1.195   9.036
   38MYC   H135 4234   0.572   1.126   9.045
   38MYC   H136 4235   0.397   1.134   9.041
   38MYC    C60 4236   0.488   1.295   9.151
   38MYC   H137 4237   0.398   1.357   9.152
   38MYC    C58 4238   0.550   1.263   9.285
   38MYC   H138 4239   0.603   1.169   9.295
   38MYC    C59 4240   0.616   1.363   9.193
   38MYC   H139 4241   0.611   1.468   9.220
   38MYC   H140 4242   0.708   1.331   9.144
   38MYC    C57 4243   0.481   1.304   9.415
   38MYC   HH10 4244   0.422   1.395   9.399
   38MYC   H141 4245   0.557   1.328   9.490
   38MYC    C56 4246   0.390   1.191   9.467
   38MYC   H142 4247   0.450   1.101   9.486
   38MYC   H143 4248   0.318   1.165   9.389
   38MYC    C55 4249   0.311   1.226   9.595
   38MYC   H144 4250   0.237   1.146   9.611
   38MYC   H145 4251   0.254   1.318   9.578
   38MYC    C54 4252   0.395   1.241   9.724
   38MYC   H146 4253   0.449   1.337   9.720
   38MYC   H147 4254   0.470   1.161   9.729
   38MYC    C53 4255   0.306   1.236   9.850
   38MYC   H148 4256   0.264   1.135   9.859
   38MYC   H149 4257   0.221   1.304   9.838
   38MYC    C52 4258   0.378   1.272   9.982
   38MYC    H99 4259   0.395   1.380   9.984
   38MYC   H150 4260   0.477   1.224   9.985
   38MYC    C51 4261   0.297   1.227  10.106
   38MYC    H97 4262   0.323   1.123  10.129
   38MYC    H98 4263   0.190   1.228  10.083
   38MYC    C50 4264   0.320   1.315  10.232
   38MYC    H95 4265   0.272   1.412  10.215
   38MYC    H96 4266   0.427   1.334  10.246
   38MYC    C49 4267   0.262   1.251  10.360
   38MYC    H93 4268   0.327   1.167  10.388
   38MYC    H94 4269   0.164   1.208  10.338
   38MYC    C48 4270   0.249   1.348  10.479
   38MYC    H91 4271   0.177   1.426  10.453
   38MYC    H92 4272   0.345   1.399  10.497
   38MYC    C47 4273   0.204   1.278  10.609
   38MYC    H89 4274   0.281   1.207  10.640
   38MYC    H90 4275   0.114   1.218  10.587
   38MYC    C46 4276   0.173   1.374  10.726
   38MYC    H87 4277   0.099   1.447  10.693
   38MYC    H88 4278   0.264   1.429  10.752
   38MYC    C45 4279   0.119   1.299  10.850
   38MYC    H85 4280   0.195   1.228  10.886
   38MYC    H86 4281   0.033   1.239  10.818
   38MYC    C44 4282   0.072   1.389  10.966
   38MYC    H83 4283   0.012   1.327  11.035
   38MYC    H84 4284   0.003   1.465  10.927
   38MYC    C18 4285   0.183   1.455  11.047
   38MYC    H31 4286   0.255   1.383  11.086
   38MYC    C17 4287   0.232   1.595  11.018
   38MYC    H30 4288   0.181   1.652  10.941
   38MYC    C19 4289   0.149   1.567  11.142
   38MYC    H32 4290   0.047   1.603  11.142
   38MYC    H33 4291   0.199   1.568  11.238
   38MYC    C16 4292   0.380   1.631  11.034
   38MYC    H28 4293   0.441   1.540  11.034
   38MYC    H29 4294   0.396   1.677  11.133
   38MYC    C15 4295   0.437   1.728  10.929
   38MYC    H26 4296   0.544   1.742  10.950
   38MYC    H27 4297   0.389   1.826  10.943
   38MYC    C14 4298   0.422   1.685  10.780
   38MYC    H24 4299   0.317   1.665  10.758
   38MYC    H25 4300   0.477   1.592  10.763
   38MYC    C13 4301   0.474   1.795  10.684
   38MYC    H22 4302   0.583   1.791  10.679
   38MYC    H23 4303   0.447   1.892  10.726
   38MYC    C12 4304   0.414   1.789  10.542
   38MYC    H20 4305   0.305   1.787  10.549
   38MYC    H21 4306   0.445   1.697  10.491
   38MYC    C11 4307   0.456   1.912  10.457
   38MYC    H18 4308   0.557   1.896  10.417
   38MYC    H19 4309   0.463   2.000  10.522
   38MYC    C10 4310   0.359   1.947  10.342
   38MYC    H16 4311   0.395   2.039  10.295
   38MYC    H17 4312   0.260   1.971  10.383
   38MYC     C9 4313   0.344   1.838  10.235
   38MYC    H14 4314   0.291   1.752  10.277
   38MYC    H15 4315   0.444   1.804  10.205
   38MYC     C8 4316   0.268   1.889  10.110
   38MYC    H12 4317   0.318   1.980  10.073
   38MYC    H13 4318   0.166   1.918  10.138
   38MYC     C7 4319   0.264   1.785   9.997
   38MYC    H10 4320   0.199   1.701  10.027
   38MYC    H11 4321   0.365   1.745   9.984
   38MYC     C6 4322   0.214   1.844   9.863
   38MYC     H8 4323   0.275   1.931   9.836
   38MYC     H9 4324   0.113   1.882   9.877
   38MYC     C5 4325   0.212   1.742   9.746
   38MYC     H6 4326   0.175   1.793   9.657
   38MYC     H7 4327   0.139   1.664   9.770
   38MYC     C4 4328   0.347   1.673   9.712
   38MYC     H4 4329   0.324   1.592   9.642
   38MYC     H5 4330   0.389   1.624   9.800
   38MYC     C2 4331   0.455   1.763   9.645
   38MYC     H2 4332   0.406   1.810   9.559
   38MYC     O3 4333   0.499   1.865   9.734
   38MYC     H3 4334   0.426   1.929   9.745
   38MYC     C1 4335   0.578   1.682   9.593
   38MYC     H1 4336   0.537   1.588   9.553
   38MYC    C81 4337   0.674   1.640   9.707
   38MYC    O82 4338   0.762   1.711   9.754
   38MYC    O83 4339   0.653   1.515   9.754
   38MYC   H105 4340   0.717   1.503   9.826
   38MYC    C20 4341   0.653   1.753   9.478
   38MYC    H34 4342   0.678   1.856   9.506
   38MYC    H35 4343   0.748   1.701   9.461
   38MYC    C21 4344   0.572   1.751   9.346
   38MYC    H36 4345   0.537   1.649   9.328
   38MYC    H37 4346   0.482   1.813   9.357
   38MYC    C22 4347   0.649   1.801   9.222
   38MYC    H38 4348   0.668   1.908   9.232
   38MYC    H39 4349   0.746   1.750   9.215
   38MYC    C23 4350   0.567   1.773   9.095
   38MYC    H40 4351   0.556   1.665   9.083
   38MYC    H41 4352   0.466   1.814   9.108
   38MYC    C24 4353   0.627   1.831   8.966
   38MYC    H42 4354   0.634   1.940   8.975
   38MYC    H43 4355   0.728   1.792   8.951
   38MYC    C25 4356   0.539   1.795   8.845
   38MYC    H44 4357   0.529   1.685   8.841
   38MYC    H45 4358   0.438   1.835   8.861
   38MYC    C26 4359   0.593   1.845   8.710
   38MYC    H46 4360   0.596   1.955   8.711
   38MYC    H47 4361   0.695   1.809   8.695
   38MYC    C27 4362   0.503   1.796   8.596
   38MYC    H48 4363   0.492   1.687   8.604
   38MYC    H49 4364   0.403   1.839   8.608
   38MYC    C28 4365   0.556   1.830   8.455
   38MYC    H50 4366   0.561   1.939   8.442
   38MYC    H51 4367   0.657   1.790   8.444
   38MYC    C29 4368   0.463   1.769   8.349
   38MYC    H52 4369   0.452   1.661   8.368
   38MYC    H53 4370   0.363   1.813   8.358
   38MYC    C30 4371   0.513   1.787   8.205
   38MYC    H54 4372   0.527   1.894   8.184
   38MYC    H55 4373   0.611   1.738   8.193
   38MYC    C31 4374   0.413   1.727   8.104
   38MYC    H56 4375   0.398   1.621   8.127
   38MYC    H57 4376   0.316   1.777   8.116
   38MYC    C32 4377   0.460   1.741   7.959
   38MYC    H58 4378   0.476   1.847   7.936
   38MYC    H59 4379   0.556   1.690   7.946
   38MYC    C33 4380   0.358   1.681   7.859
   38MYC    H60 4381   0.353   1.573   7.873
   38MYC    H61 4382   0.258   1.722   7.880
   38MYC    C34 4383   0.396   1.715   7.714
   38MYC    H62 4384   0.393   1.823   7.701
   38MYC    H63 4385   0.500   1.683   7.696
   38MYC    C35 4386   0.305   1.648   7.609
   38MYC    H64 4387   0.326   1.540   7.607
   38MYC    H65 4388   0.200   1.661   7.636
   38MYC    C36 4389   0.331   1.709   7.470
   38MYC    H66 4390   0.284   1.809   7.466
   38MYC    H67 4391   0.439   1.724   7.457
   38MYC    C37 4392   0.280   1.625   7.352
   38MYC    H68 4393   0.330   1.527   7.353
   38MYC    H69 4394   0.172   1.606   7.361
   38MYC    C38 4395   0.309   1.696   7.218
   38MYC    H70 4396   0.242   1.782   7.208
   38MYC    H71 4397   0.411   1.736   7.221
   38MYC    C39 4398   0.296   1.606   7.094
   38MYC    H72 4399   0.366   1.522   7.103
   38MYC    H73 4400   0.195   1.564   7.089
   38MYC    C40 4401   0.327   1.685   6.964
   38MYC    H74 4402   0.247   1.758   6.948
   38MYC    H75 4403   0.420   1.741   6.977
   38MYC    C41 4404   0.340   1.595   6.840
   38MYC    H76 4405   0.424   1.525   6.855
   38MYC    H77 4406   0.249   1.535   6.829
   38MYC    C42 4407   0.364   1.676   6.711
   38MYC    H78 4408   0.274   1.735   6.689
   38MYC    H79 4409   0.446   1.747   6.727
   38MYC    C43 4410   0.398   1.588   6.589
   38MYC    H80 4411   0.408   1.650   6.499
   38MYC    H81 4412   0.319   1.514   6.571
   38MYC    H82 4413   0.493   1.535   6.606
   39MYC   HH15 4414   1.234   1.764   6.660
   39MYC    C80 4415   1.280   1.746   6.758
   39MYC   H100 4416   1.321   1.644   6.758
   39MYC   H101 4417   1.363   1.817   6.771
   39MYC    C79 4418   1.176   1.763   6.870
   39MYC   H102 4419   1.091   1.697   6.851
   39MYC   H103 4420   1.139   1.866   6.869
   39MYC    C78 4421   1.233   1.731   7.010
   39MYC   HH14 4422   1.324   1.791   7.027
   39MYC   H104 4423   1.263   1.626   7.014
   39MYC    C77 4424   1.133   1.760   7.124
   39MYC   H106 4425   1.039   1.708   7.105
   39MYC   H107 4426   1.112   1.868   7.126
   39MYC    C76 4427   1.187   1.717   7.262
   39MYC   H108 4428   1.288   1.758   7.276
   39MYC   H109 4429   1.197   1.608   7.265
   39MYC    C75 4430   1.099   1.763   7.380
   39MYC   H110 4431   0.997   1.725   7.368
   39MYC   H111 4432   1.093   1.873   7.379
   39MYC    C74 4433   1.155   1.717   7.516
   39MYC   H112 4434   1.262   1.740   7.521
   39MYC   H113 4435   1.145   1.608   7.524
   39MYC    C73 4436   1.086   1.784   7.636
   39MYC   HH13 4437   0.978   1.763   7.634
   39MYC   H114 4438   1.097   1.893   7.627
   39MYC    C72 4439   1.144   1.739   7.771
   39MYC   H115 4440   1.253   1.751   7.770
   39MYC   H116 4441   1.124   1.632   7.785
   39MYC    C71 4442   1.087   1.818   7.891
   39MYC   H117 4443   0.978   1.808   7.892
   39MYC   H118 4444   1.109   1.924   7.877
   39MYC    C70 4445   1.144   1.772   8.026
   39MYC   H119 4446   1.253   1.784   8.027
   39MYC   H120 4447   1.123   1.665   8.040
   39MYC    C69 4448   1.083   1.851   8.144
   39MYC   H121 4449   0.974   1.841   8.141
   39MYC   H122 4450   1.106   1.958   8.131
   39MYC    C68 4451   1.134   1.805   8.281
   39MYC   HH12 4452   1.243   1.818   8.286
   39MYC   H123 4453   1.115   1.697   8.294
   39MYC    C67 4454   1.068   1.882   8.397
   39MYC   H124 4455   0.959   1.868   8.393
   39MYC   H125 4456   1.087   1.989   8.383
   39MYC    C66 4457   1.119   1.839   8.535
   39MYC   H126 4458   1.228   1.849   8.537
   39MYC   H127 4459   1.096   1.733   8.552
   39MYC    C65 4460   1.059   1.923   8.650
   39MYC   H128 4461   0.951   1.905   8.657
   39MYC   H129 4462   1.073   2.030   8.628
   39MYC    C64 4463   1.126   1.891   8.785
   39MYC   H130 4464   1.235   1.899   8.772
   39MYC   H131 4465   1.105   1.787   8.812
   39MYC    C63 4466   1.083   1.983   8.900
   39MYC   HH11 4467   0.978   1.963   8.926
   39MYC   H132 4468   1.090   2.088   8.869
   39MYC    C62 4469   1.172   1.960   9.023
   39MYC   H133 4470   1.275   1.987   8.997
   39MYC   H134 4471   1.172   1.853   9.048
   39MYC    C61 4472   1.131   2.040   9.148
   39MYC   H135 4473   1.029   2.013   9.177
   39MYC   H136 4474   1.131   2.147   9.125
   39MYC    C60 4475   1.228   2.011   9.262
   39MYC   H137 4476   1.328   2.049   9.243
   39MYC    C58 4477   1.184   2.005   9.407
   39MYC   H138 4478   1.078   2.019   9.427
   39MYC    C59 4479   1.221   1.878   9.333
   39MYC   H139 4480   1.315   1.829   9.356
   39MYC   H140 4481   1.140   1.810   9.307
   39MYC    C57 4482   1.272   2.055   9.520
   39MYC   HH10 4483   1.226   2.144   9.564
   39MYC   H141 4484   1.371   2.086   9.483
   39MYC    C56 4485   1.291   1.947   9.629
   39MYC   H142 4486   1.367   1.875   9.596
   39MYC   H143 4487   1.198   1.891   9.641
   39MYC    C55 4488   1.332   2.003   9.766
   39MYC   H144 4489   1.259   2.080   9.796
   39MYC   H145 4490   1.430   2.052   9.759
   39MYC    C54 4491   1.336   1.894   9.875
   39MYC   H146 4492   1.412   1.819   9.849
   39MYC   H147 4493   1.239   1.842   9.877
   39MYC    C53 4494   1.366   1.951  10.015
   39MYC   H148 4495   1.297   2.034  10.034
   39MYC   H149 4496   1.467   1.992  10.016
   39MYC    C52 4497   1.351   1.847  10.128
   39MYC    H99 4498   1.416   1.761  10.109
   39MYC   H150 4499   1.248   1.810  10.129
   39MYC    C51 4500   1.385   1.908  10.265
   39MYC    H97 4501   1.329   2.001  10.278
   39MYC    H98 4502   1.492   1.935  10.267
   39MYC    C50 4503   1.354   1.815  10.384
   39MYC    H95 4504   1.411   1.722  10.374
   39MYC    H96 4505   1.248   1.787  10.381
   39MYC    C49 4506   1.386   1.880  10.520
   39MYC    H93 4507   1.334   1.977  10.526
   39MYC    H94 4508   1.494   1.901  10.525
   39MYC    C48 4509   1.345   1.793  10.639
   39MYC    H91 4510   1.398   1.697  10.633
   39MYC    H92 4511   1.238   1.771  10.632
   39MYC    C47 4512   1.373   1.858  10.776
   39MYC    H89 4513   1.322   1.954  10.780
   39MYC    H90 4514   1.481   1.879  10.785
   39MYC    C46 4515   1.327   1.772  10.895
   39MYC    H87 4516   1.383   1.678  10.894
   39MYC    H88 4517   1.221   1.748  10.881
   39MYC    C45 4518   1.346   1.841  11.032
   39MYC    H85 4519   1.281   1.929  11.037
   39MYC    H86 4520   1.449   1.879  11.039
   39MYC    C44 4521   1.320   1.751  11.155
   39MYC    H83 4522   1.350   1.806  11.245
   39MYC    H84 4523   1.388   1.664  11.148
   39MYC    C18 4524   1.176   1.703  11.173
   39MYC    H31 4525   1.108   1.782  11.202
   39MYC    C17 4526   1.118   1.592  11.088
   39MYC    H30 4527   1.187   1.549  11.016
   39MYC    C19 4528   1.149   1.567  11.234
   39MYC    H32 4529   1.234   1.504  11.257
   39MYC    H33 4530   1.066   1.559  11.304
   39MYC    C16 4531   0.974   1.594  11.038
   39MYC    H28 4532   0.956   1.685  10.981
   39MYC    H29 4533   0.903   1.594  11.122
   39MYC    C15 4534   0.946   1.472  10.948
   39MYC    H26 4535   0.954   1.380  11.007
   39MYC    H27 4536   1.027   1.468  10.874
   39MYC    C14 4537   0.813   1.473  10.871
   39MYC    H24 4538   0.797   1.571  10.824
   39MYC    H25 4539   0.729   1.455  10.940
   39MYC    C13 4540   0.815   1.363  10.762
   39MYC    H22 4541   0.820   1.265  10.810
   39MYC    H23 4542   0.907   1.376  10.704
   39MYC    C12 4543   0.696   1.365  10.663
   39MYC    H20 4544   0.697   1.460  10.608
   39MYC    H21 4545   0.602   1.363  10.718
   39MYC    C11 4546   0.698   1.247  10.563
   39MYC    H18 4547   0.619   1.263  10.488
   39MYC    H19 4548   0.671   1.157  10.619
   39MYC    C10 4549   0.833   1.219  10.491
   39MYC    H16 4550   0.823   1.126  10.434
   39MYC    H17 4551   0.911   1.200  10.565
   39MYC     C9 4552   0.879   1.329  10.394
   39MYC    H14 4553   0.863   1.428  10.438
   39MYC    H15 4554   0.817   1.324  10.304
   39MYC     C8 4555   1.029   1.315  10.356
   39MYC    H12 4556   1.049   1.211  10.326
   39MYC    H13 4557   1.090   1.333  10.446
   39MYC     C7 4558   1.078   1.409  10.243
   39MYC    H10 4559   1.186   1.391  10.229
   39MYC    H11 4560   1.067   1.514  10.273
   39MYC     C6 4561   1.004   1.385  10.110
   39MYC     H8 4562   0.906   1.434  10.114
   39MYC     H9 4563   0.985   1.277  10.099
   39MYC     C5 4564   1.080   1.432   9.984
   39MYC     H6 4565   1.180   1.387   9.983
   39MYC     H7 4566   1.093   1.541   9.988
   39MYC     C4 4567   1.003   1.393   9.856
   39MYC     H4 4568   0.906   1.444   9.857
   39MYC     H5 4569   0.982   1.285   9.860
   39MYC     C2 4570   1.076   1.426   9.724
   39MYC     H2 4571   1.105   1.532   9.727
   39MYC     O3 4572   1.194   1.346   9.713
   39MYC     H3 4573   1.167   1.255   9.694
   39MYC     C1 4574   0.984   1.406   9.600
   39MYC     H1 4575   0.903   1.479   9.611
   39MYC    C81 4576   0.917   1.267   9.596
   39MYC    O82 4577   0.796   1.250   9.605
   39MYC    O83 4578   1.001   1.162   9.580
   39MYC   H105 4579   0.945   1.082   9.583
   39MYC    C20 4580   1.057   1.439   9.467
   39MYC    H34 4581   1.121   1.527   9.481
   39MYC    H35 4582   1.124   1.356   9.440
   39MYC    C21 4583   0.960   1.469   9.351
   39MYC    H36 4584   0.882   1.391   9.347
   39MYC    H37 4585   0.910   1.564   9.371
   39MYC    C22 4586   1.031   1.476   9.215
   39MYC    H38 4587   1.122   1.537   9.223
   39MYC    H39 4588   1.063   1.374   9.188
   39MYC    C23 4589   0.941   1.533   9.103
   39MYC    H40 4590   0.836   1.525   9.131
   39MYC    H41 4591   0.962   1.641   9.092
   39MYC    C24 4592   0.963   1.462   8.969
   39MYC    H42 4593   1.069   1.469   8.941
   39MYC    H43 4594   0.939   1.356   8.980
   39MYC    C25 4595   0.878   1.520   8.854
   39MYC    H44 4596   0.773   1.525   8.884
   39MYC    H45 4597   0.911   1.623   8.833
   39MYC    C26 4598   0.890   1.434   8.727
   39MYC    H46 4599   0.996   1.407   8.712
   39MYC    H47 4600   0.835   1.340   8.742
   39MYC    C27 4601   0.839   1.504   8.600
   39MYC    H48 4602   0.735   1.537   8.614
   39MYC    H49 4603   0.899   1.594   8.583
   39MYC    C28 4604   0.847   1.412   8.477
   39MYC    H50 4605   0.943   1.358   8.478
   39MYC    H51 4606   0.768   1.337   8.483
   39MYC    C29 4607   0.837   1.488   8.344
   39MYC    H52 4608   0.751   1.556   8.346
   39MYC    H53 4609   0.927   1.550   8.332
   39MYC    C30 4610   0.824   1.393   8.223
   39MYC    H54 4611   0.893   1.309   8.235
   39MYC    H55 4612   0.723   1.352   8.222
   39MYC    C31 4613   0.852   1.462   8.088
   39MYC    H56 4614   0.792   1.553   8.079
   39MYC    H57 4615   0.958   1.493   8.087
   39MYC    C32 4616   0.825   1.370   7.968
   39MYC    H58 4617   0.866   1.270   7.988
   39MYC    H59 4618   0.717   1.359   7.955
   39MYC    C33 4619   0.888   1.423   7.838
   39MYC    H60 4620   0.848   1.524   7.817
   39MYC    H61 4621   0.996   1.434   7.853
   39MYC    C34 4622   0.864   1.332   7.716
   39MYC    H62 4623   0.900   1.231   7.739
   39MYC    H63 4624   0.756   1.324   7.697
   39MYC    C35 4625   0.935   1.385   7.590
   39MYC    H64 4626   0.894   1.484   7.565
   39MYC    H65 4627   1.041   1.399   7.612
   39MYC    C36 4628   0.921   1.291   7.468
   39MYC    H66 4629   0.971   1.196   7.491
   39MYC    H67 4630   0.816   1.270   7.450
   39MYC    C37 4631   0.983   1.353   7.341
   39MYC    H68 4632   0.926   1.442   7.313
   39MYC    H69 4633   1.085   1.387   7.364
   39MYC    C38 4634   0.989   1.256   7.222
   39MYC    H70 4635   1.051   1.170   7.250
   39MYC    H71 4636   0.888   1.217   7.201
   39MYC    C39 4637   1.047   1.321   7.095
   39MYC    H72 4638   0.981   1.403   7.063
   39MYC    H73 4639   1.144   1.367   7.120
   39MYC    C40 4640   1.066   1.223   6.978
   39MYC    H74 4641   1.120   1.134   7.015
   39MYC    H75 4642   0.969   1.189   6.942
   39MYC    C41 4643   1.147   1.284   6.862
   39MYC    H76 4644   1.094   1.372   6.823
   39MYC    H77 4645   1.243   1.319   6.900
   39MYC    C42 4646   1.172   1.184   6.746
   39MYC    H78 4647   1.209   1.089   6.787
   39MYC    H79 4648   1.077   1.163   6.696
   39MYC    C43 4649   1.274   1.237   6.644
   39MYC    H80 4650   1.288   1.165   6.562
   39MYC    H81 4651   1.372   1.253   6.691
   39MYC    H82 4652   1.241   1.332   6.600
   40MYC   HH15 4653   2.082   1.921   6.608
   40MYC    C80 4654   2.131   1.893   6.701
   40MYC   H100 4655   2.199   1.809   6.682
   40MYC   H101 4656   2.190   1.978   6.736
   40MYC    C79 4657   2.025   1.853   6.806
   40MYC   H102 4658   1.968   1.768   6.768
   40MYC   H103 4659   1.954   1.936   6.818
   40MYC    C78 4660   2.086   1.818   6.943
   40MYC   HH14 4661   2.141   1.905   6.982
   40MYC   H104 4662   2.159   1.737   6.930
   40MYC    C77 4663   1.980   1.774   7.046
   40MYC   H106 4664   1.926   1.686   7.008
   40MYC   H107 4665   1.906   1.855   7.057
   40MYC    C76 4666   2.040   1.742   7.184
   40MYC   H108 4667   2.101   1.827   7.218
   40MYC   H109 4668   2.107   1.655   7.174
   40MYC    C75 4669   1.933   1.711   7.290
   40MYC   H110 4670   1.873   1.625   7.259
   40MYC   H111 4671   1.864   1.797   7.298
   40MYC    C74 4672   1.994   1.684   7.429
   40MYC   H112 4673   2.054   1.771   7.460
   40MYC   H113 4674   2.063   1.598   7.422
   40MYC    C73 4675   1.889   1.654   7.537
   40MYC   HH13 4676   1.833   1.564   7.510
   40MYC   H114 4677   1.817   1.737   7.541
   40MYC    C72 4678   1.952   1.636   7.677
   40MYC   H115 4679   2.006   1.727   7.703
   40MYC   H116 4680   2.026   1.555   7.672
   40MYC    C71 4681   1.848   1.604   7.786
   40MYC   H117 4682   1.800   1.508   7.765
   40MYC   H118 4683   1.770   1.681   7.785
   40MYC    C70 4684   1.912   1.600   7.927
   40MYC   H119 4685   1.964   1.695   7.945
   40MYC   H120 4686   1.987   1.521   7.930
   40MYC    C69 4687   1.809   1.577   8.039
   40MYC   H121 4688   1.762   1.479   8.027
   40MYC   H122 4689   1.729   1.652   8.030
   40MYC    C68 4690   1.872   1.587   8.179
   40MYC   HH12 4691   1.930   1.680   8.185
   40MYC   H123 4692   1.943   1.505   8.193
   40MYC    C67 4693   1.769   1.587   8.293
   40MYC   H124 4694   1.715   1.492   8.294
   40MYC   H125 4695   1.695   1.666   8.275
   40MYC    C66 4696   1.835   1.611   8.430
   40MYC   H126 4697   1.896   1.702   8.425
   40MYC   H127 4698   1.904   1.528   8.452
   40MYC    C65 4699   1.735   1.625   8.546
   40MYC   H128 4700   1.678   1.532   8.557
   40MYC   H129 4701   1.663   1.704   8.523
   40MYC    C64 4702   1.806   1.659   8.679
   40MYC   H130 4703   1.860   1.754   8.668
   40MYC   H131 4704   1.880   1.581   8.700
   40MYC    C63 4705   1.710   1.669   8.798
   40MYC   HH11 4706   1.655   1.575   8.809
   40MYC   H132 4707   1.635   1.748   8.779
   40MYC    C62 4708   1.784   1.701   8.930
   40MYC   H133 4709   1.838   1.796   8.919
   40MYC   H134 4710   1.859   1.623   8.948
   40MYC    C61 4711   1.689   1.710   9.051
   40MYC   H135 4712   1.628   1.619   9.054
   40MYC   H136 4713   1.620   1.794   9.038
   40MYC    C60 4714   1.764   1.725   9.182
   40MYC   H137 4715   1.825   1.815   9.186
   40MYC    C58 4716   1.700   1.681   9.311
   40MYC   H138 4717   1.602   1.634   9.302
   40MYC    C59 4718   1.818   1.604   9.256
   40MYC   H139 4719   1.913   1.614   9.307
   40MYC   H140 4720   1.799   1.506   9.213
   40MYC    C57 4721   1.714   1.761   9.440
   40MYC   HH10 4722   1.648   1.848   9.437
   40MYC   H141 4723   1.817   1.798   9.450
   40MYC    C56 4724   1.679   1.673   9.561
   40MYC   H142 4725   1.735   1.579   9.555
   40MYC   H143 4726   1.572   1.647   9.557
   40MYC    C55 4727   1.709   1.739   9.697
   40MYC   H144 4728   1.650   1.830   9.708
   40MYC   H145 4729   1.815   1.768   9.700
   40MYC    C54 4730   1.680   1.643   9.814
   40MYC   H146 4731   1.733   1.549   9.797
   40MYC   H147 4732   1.573   1.619   9.815
   40MYC    C53 4733   1.721   1.700   9.951
   40MYC   H148 4734   1.668   1.794   9.969
   40MYC   H149 4735   1.828   1.723   9.949
   40MYC    C52 4736   1.692   1.601  10.065
   40MYC    H99 4737   1.746   1.508  10.048
   40MYC   H150 4738   1.585   1.577  10.065
   40MYC    C51 4739   1.731   1.658  10.203
   40MYC    H97 4740   1.683   1.755  10.217
   40MYC    H98 4741   1.839   1.674  10.206
   40MYC    C50 4742   1.691   1.565  10.319
   40MYC    H95 4743   1.744   1.469  10.310
   40MYC    H96 4744   1.583   1.543  10.313
   40MYC    C49 4745   1.722   1.628  10.456
   40MYC    H93 4746   1.676   1.727  10.461
   40MYC    H94 4747   1.830   1.642  10.464
   40MYC    C48 4748   1.671   1.543  10.575
   40MYC    H91 4749   1.725   1.447  10.578
   40MYC    H92 4750   1.565   1.520  10.560
   40MYC    C47 4751   1.686   1.615  10.711
   40MYC    H89 4752   1.632   1.557  10.787
   40MYC    H90 4753   1.637   1.712  10.706
   40MYC    C46 4754   1.832   1.634  10.757
   40MYC    H87 4755   1.888   1.690  10.681
   40MYC    H88 4756   1.880   1.536  10.765
   40MYC    C45 4757   1.844   1.711  10.892
   40MYC    H85 4758   1.745   1.731  10.934
   40MYC    H86 4759   1.889   1.809  10.872
   40MYC    C44 4760   1.930   1.638  10.997
   40MYC    H83 4761   1.950   1.708  11.079
   40MYC    H84 4762   2.027   1.612  10.953
   40MYC    C18 4763   1.863   1.512  11.052
   40MYC    H31 4764   1.780   1.476  10.991
   40MYC    C17 4765   1.943   1.405  11.123
   40MYC    H30 4766   2.050   1.423  11.135
   40MYC    C19 4767   1.851   1.493  11.202
   40MYC    H32 4768   1.896   1.567  11.267
   40MYC    H33 4769   1.758   1.450  11.239
   40MYC    C16 4770   1.909   1.257  11.110
   40MYC    H28 4771   1.802   1.244  11.094
   40MYC    H29 4772   1.932   1.208  11.206
   40MYC    C15 4773   1.986   1.182  10.999
   40MYC    H26 4774   1.964   1.075  11.011
   40MYC    H27 4775   2.094   1.194  11.015
   40MYC    C14 4776   1.953   1.224  10.855
   40MYC    H24 4777   1.996   1.323  10.835
   40MYC    H25 4778   1.844   1.233  10.842
   40MYC    C13 4779   2.007   1.121  10.754
   40MYC    H22 4780   1.945   1.030  10.760
   40MYC    H23 4781   2.109   1.091  10.782
   40MYC    C12 4782   2.010   1.171  10.608
   40MYC    H20 4783   2.088   1.246  10.599
   40MYC    H21 4784   1.915   1.219  10.584
   40MYC    C11 4785   2.037   1.057  10.508
   40MYC    H18 4786   1.949   0.990  10.504
   40MYC    H19 4787   2.119   0.995  10.545
   40MYC    C10 4788   2.072   1.104  10.365
   40MYC    H16 4789   2.090   1.016  10.302
   40MYC    H17 4790   2.168   1.158  10.368
   40MYC     C9 4791   1.967   1.194  10.296
   40MYC    H14 4792   1.999   1.209  10.192
   40MYC    H15 4793   1.968   1.294  10.341
   40MYC     C8 4794   1.823   1.138  10.300
   40MYC    H12 4795   1.774   1.174  10.392
   40MYC    H13 4796   1.826   1.028  10.308
   40MYC     C7 4797   1.735   1.174  10.179
   40MYC    H10 4798   1.743   1.281  10.157
   40MYC    H11 4799   1.630   1.154  10.204
   40MYC     C6 4800   1.772   1.092  10.053
   40MYC     H8 4801   1.767   0.986  10.079
   40MYC     H9 4802   1.875   1.113  10.026
   40MYC     C5 4803   1.679   1.117   9.932
   40MYC     H6 4804   1.682   1.223   9.903
   40MYC     H7 4805   1.576   1.095   9.962
   40MYC     C4 4806   1.716   1.027   9.811
   40MYC     H4 4807   1.624   1.006   9.755
   40MYC     H5 4808   1.749   0.930   9.849
   40MYC     C2 4809   1.820   1.084   9.710
   40MYC     H2 4810   1.765   1.147   9.641
   40MYC     O3 4811   1.918   1.165   9.776
   40MYC     H3 4812   1.986   1.106   9.813
   40MYC     C1 4813   1.890   0.971   9.628
   40MYC     H1 4814   1.811   0.908   9.584
   40MYC    C81 4815   1.977   0.877   9.715
   40MYC    O82 4816   2.061   0.915   9.794
   40MYC    O83 4817   1.972   0.748   9.674
   40MYC   H105 4818   2.045   0.704   9.723
   40MYC    C20 4819   1.974   1.022   9.509
   40MYC    H34 4820   2.045   1.099   9.543
   40MYC    H35 4821   2.035   0.939   9.471
   40MYC    C21 4822   1.889   1.077   9.392
   40MYC    H36 4823   1.813   1.003   9.366
   40MYC    H37 4824   1.837   1.168   9.423
   40MYC    C22 4825   1.974   1.107   9.268
   40MYC    H38 4826   2.045   1.188   9.291
   40MYC    H39 4827   2.034   1.019   9.242
   40MYC    C23 4828   1.889   1.146   9.145
   40MYC    H40 4829   1.819   1.064   9.124
   40MYC    H41 4830   1.829   1.234   9.168
   40MYC    C24 4831   1.975   1.172   9.021
   40MYC    H42 4832   2.033   1.264   9.036
   40MYC    H43 4833   2.047   1.090   9.008
   40MYC    C25 4834   1.892   1.185   8.891
   40MYC    H44 4835   1.832   1.095   8.880
   40MYC    H45 4836   1.823   1.270   8.900
   40MYC    C26 4837   1.981   1.203   8.767
   40MYC    H46 4838   2.028   1.302   8.770
   40MYC    H47 4839   2.062   1.129   8.770
   40MYC    C27 4840   1.903   1.186   8.635
   40MYC    H48 4841   1.851   1.090   8.637
   40MYC    H49 4842   1.827   1.265   8.628
   40MYC    C28 4843   1.994   1.191   8.512
   40MYC    H50 4844   2.043   1.290   8.507
   40MYC    H51 4845   2.074   1.116   8.521
   40MYC    C29 4846   1.917   1.166   8.381
   40MYC    H52 4847   1.876   1.064   8.383
   40MYC    H53 4848   1.832   1.235   8.376
   40MYC    C30 4849   2.004   1.183   8.256
   40MYC    H54 4850   2.047   1.284   8.255
   40MYC    H55 4851   2.088   1.113   8.259
   40MYC    C31 4852   1.925   1.161   8.126
   40MYC    H56 4853   1.893   1.056   8.120
   40MYC    H57 4854   1.834   1.222   8.129
   40MYC    C32 4855   2.005   1.197   8.000
   40MYC    H58 4856   2.038   1.301   8.007
   40MYC    H59 4857   2.095   1.135   7.994
   40MYC    C33 4858   1.922   1.179   7.871
   40MYC    H60 4859   1.895   1.073   7.861
   40MYC    H61 4860   1.829   1.235   7.880
   40MYC    C34 4861   1.997   1.225   7.745
   40MYC    H62 4862   2.024   1.330   7.756
   40MYC    H63 4863   2.090   1.168   7.734
   40MYC    C35 4864   1.911   1.207   7.618
   40MYC    H64 4865   1.887   1.100   7.607
   40MYC    H65 4866   1.816   1.260   7.631
   40MYC    C36 4867   1.980   1.257   7.490
   40MYC    H66 4868   1.999   1.365   7.499
   40MYC    H67 4869   2.077   1.207   7.479
   40MYC    C37 4870   1.894   1.230   7.365
   40MYC    H68 4871   1.877   1.122   7.358
   40MYC    H69 4872   1.796   1.277   7.378
   40MYC    C38 4873   1.957   1.280   7.234
   40MYC    H70 4874   1.960   1.390   7.234
   40MYC    H71 4875   2.061   1.245   7.227
   40MYC    C39 4876   1.879   1.229   7.111
   40MYC    H72 4877   1.880   1.120   7.112
   40MYC    H73 4878   1.774   1.261   7.120
   40MYC    C40 4879   1.935   1.278   6.976
   40MYC    H74 4880   1.928   1.388   6.972
   40MYC    H75 4881   2.041   1.252   6.969
   40MYC    C41 4882   1.859   1.217   6.857
   40MYC    H76 4883   1.865   1.108   6.863
   40MYC    H77 4884   1.753   1.243   6.865
   40MYC    C42 4885   1.912   1.263   6.720
   40MYC    H78 4886   1.912   1.372   6.715
   40MYC    H79 4887   2.016   1.230   6.708
   40MYC    C43 4888   1.829   1.207   6.603
   40MYC    H80 4889   1.727   1.248   6.604
   40MYC    H81 4890   1.821   1.097   6.609
   40MYC    H82 4891   1.875   1.232   6.507
   41MYC   HH15 4892   3.062   1.532   6.673
   41MYC    C80 4893   2.986   1.534   6.752
   41MYC   H100 4894   2.913   1.612   6.728
   41MYC   H101 4895   2.934   1.437   6.752
   41MYC    C79 4896   3.051   1.561   6.889
   41MYC   H102 4897   3.097   1.660   6.888
   41MYC   H103 4898   3.131   1.488   6.906
   41MYC    C78 4899   2.950   1.551   7.006
   41MYC   HH14 4900   2.911   1.449   7.011
   41MYC   H104 4901   2.865   1.617   6.984
   41MYC    C77 4902   3.009   1.591   7.142
   41MYC   H106 4903   3.038   1.697   7.140
   41MYC   H107 4904   3.101   1.533   7.161
   41MYC    C76 4905   2.910   1.566   7.258
   41MYC   H108 4906   2.887   1.459   7.263
   41MYC   H109 4907   2.815   1.617   7.237
   41MYC    C75 4908   2.963   1.612   7.395
   41MYC   H110 4909   2.991   1.718   7.391
   41MYC   H111 4910   3.054   1.556   7.418
   41MYC    C74 4911   2.860   1.591   7.508
   41MYC   H112 4912   2.824   1.487   7.503
   41MYC   H113 4913   2.773   1.655   7.492
   41MYC    C73 4914   2.918   1.616   7.648
   41MYC   HH13 4915   2.941   1.722   7.661
   41MYC   H114 4916   3.014   1.562   7.656
   41MYC    C72 4917   2.825   1.569   7.762
   41MYC   H115 4918   2.781   1.473   7.734
   41MYC   H116 4919   2.742   1.640   7.775
   41MYC    C71 4920   2.901   1.550   7.895
   41MYC   H117 4921   2.929   1.648   7.936
   41MYC   H118 4922   2.994   1.497   7.875
   41MYC    C70 4923   2.822   1.470   8.001
   41MYC   H119 4924   2.768   1.388   7.951
   41MYC   H120 4925   2.746   1.534   8.048
   41MYC    C69 4926   2.915   1.409   8.107
   41MYC   H121 4927   2.970   1.489   8.158
   41MYC   H122 4928   2.990   1.347   8.056
   41MYC    C68 4929   2.843   1.323   8.212
   41MYC   HH12 4930   2.770   1.257   8.163
   41MYC   H123 4931   2.786   1.389   8.279
   41MYC    C67 4932   2.942   1.236   8.293
   41MYC   H124 4933   3.036   1.290   8.307
   41MYC   H125 4934   2.966   1.147   8.234
   41MYC    C66 4935   2.890   1.191   8.431
   41MYC   H126 4936   2.953   1.109   8.467
   41MYC   H127 4937   2.788   1.151   8.421
   41MYC    C65 4938   2.892   1.306   8.535
   41MYC   H128 4939   2.824   1.386   8.504
   41MYC   H129 4940   2.993   1.349   8.538
   41MYC    C64 4941   2.854   1.259   8.676
   41MYC   H130 4942   2.916   1.172   8.703
   41MYC   H131 4943   2.750   1.225   8.676
   41MYC    C63 4944   2.874   1.368   8.782
   41MYC   HH11 4945   2.814   1.457   8.756
   41MYC   H132 4946   2.979   1.400   8.782
   41MYC    C62 4947   2.835   1.320   8.922
   41MYC   H133 4948   2.882   1.222   8.941
   41MYC   H134 4949   2.727   1.304   8.926
   41MYC    C61 4950   2.876   1.416   9.035
   41MYC   H135 4951   2.828   1.514   9.019
   41MYC   H136 4952   2.984   1.433   9.030
   41MYC    C60 4953   2.840   1.361   9.172
   41MYC   H137 4954   2.852   1.253   9.177
   41MYC    C58 4955   2.878   1.437   9.295
   41MYC   H138 4956   2.920   1.537   9.282
   41MYC    C59 4957   2.732   1.422   9.258
   41MYC   H139 4958   2.672   1.355   9.319
   41MYC   H140 4959   2.680   1.510   9.221
   41MYC    C57 4960   2.941   1.363   9.411
   41MYC   HH10 4961   3.050   1.371   9.403
   41MYC   H141 4962   2.918   1.256   9.406
   41MYC    C56 4963   2.895   1.416   9.548
   41MYC   H142 4964   2.790   1.389   9.564
   41MYC   H143 4965   2.901   1.526   9.548
   41MYC    C55 4966   2.982   1.361   9.663
   41MYC   H144 4967   3.087   1.385   9.644
   41MYC   H145 4968   2.974   1.252   9.664
   41MYC    C54 4969   2.941   1.418   9.799
   41MYC   H146 4970   2.839   1.385   9.822
   41MYC   H147 4971   2.940   1.528   9.794
   41MYC    C53 4972   3.035   1.374   9.912
   41MYC   H148 4973   3.138   1.406   9.891
   41MYC   H149 4974   3.037   1.264   9.916
   41MYC    C52 4975   2.992   1.430  10.048
   41MYC    H99 4976   2.883   1.420  10.058
   41MYC   H150 4977   3.014   1.538  10.051
   41MYC    C51 4978   3.058   1.361  10.168
   41MYC    H97 4979   3.167   1.375  10.165
   41MYC    H98 4980   3.040   1.253  10.162
   41MYC    C50 4981   3.003   1.413  10.302
   41MYC    H95 4982   2.894   1.415  10.298
   41MYC    H96 4983   3.037   1.516  10.317
   41MYC    C49 4984   3.048   1.328  10.423
   41MYC    H93 4985   3.154   1.344  10.439
   41MYC    H94 4986   3.034   1.222  10.399
   41MYC    C48 4987   2.969   1.360  10.551
   41MYC    H91 4988   2.865   1.328  10.535
   41MYC    H92 4989   2.968   1.469  10.567
   41MYC    C47 4990   3.025   1.291  10.676
   41MYC    H89 4991   3.119   1.340  10.704
   41MYC    H90 4992   3.051   1.188  10.651
   41MYC    C46 4993   2.928   1.290  10.796
   41MYC    H87 4994   2.841   1.229  10.770
   41MYC    H88 4995   2.892   1.392  10.815
   41MYC    C45 4996   2.993   1.236  10.925
   41MYC    H85 4997   3.058   1.313  10.967
   41MYC    H86 4998   3.058   1.151  10.900
   41MYC    C44 4999   2.894   1.186  11.032
   41MYC    H83 5000   2.951   1.147  11.117
   41MYC    H84 5001   2.839   1.100  10.992
   41MYC    C18 5002   2.794   1.289  11.084
   41MYC    H31 5003   2.841   1.375  11.131
   41MYC    C17 5004   2.659   1.312  11.019
   41MYC    H30 5005   2.639   1.254  10.929
   41MYC    C19 5006   2.668   1.236  11.149
   41MYC    H32 5007   2.648   1.130  11.144
   41MYC    H33 5008   2.636   1.285  11.240
   41MYC    C16 5009   2.589   1.447  11.020
   41MYC    H28 5010   2.645   1.519  10.957
   41MYC    H29 5011   2.591   1.489  11.121
   41MYC    C15 5012   2.442   1.439  10.973
   41MYC    H26 5013   2.386   1.521  11.019
   41MYC    H27 5014   2.396   1.346  11.009
   41MYC    C14 5015   2.429   1.449  10.820
   41MYC    H24 5016   2.481   1.364  10.774
   41MYC    H25 5017   2.480   1.541  10.789
   41MYC    C13 5018   2.284   1.454  10.766
   41MYC    H22 5019   2.230   1.537  10.812
   41MYC    H23 5020   2.232   1.362  10.796
   41MYC    C12 5021   2.277   1.467  10.611
   41MYC    H20 5022   2.173   1.454  10.580
   41MYC    H21 5023   2.334   1.386  10.565
   41MYC    C11 5024   2.326   1.603  10.557
   41MYC    H18 5025   2.428   1.624  10.592
   41MYC    H19 5026   2.262   1.682  10.597
   41MYC    C10 5027   2.326   1.615  10.402
   41MYC    H16 5028   2.332   1.722  10.377
   41MYC    H17 5029   2.231   1.578  10.362
   41MYC     C9 5030   2.444   1.543  10.333
   41MYC    H14 5031   2.437   1.435  10.350
   41MYC    H15 5032   2.538   1.576  10.378
   41MYC     C8 5033   2.449   1.571  10.181
   41MYC    H12 5034   2.445   1.679  10.164
   41MYC    H13 5035   2.360   1.527  10.134
   41MYC     C7 5036   2.576   1.515  10.112
   41MYC    H10 5037   2.579   1.406  10.123
   41MYC    H11 5038   2.664   1.554  10.165
   41MYC     C6 5039   2.588   1.552   9.963
   41MYC     H8 5040   2.690   1.528   9.930
   41MYC     H9 5041   2.578   1.661   9.952
   41MYC     C5 5042   2.488   1.481   9.870
   41MYC     H6 5043   2.386   1.510   9.898
   41MYC     H7 5044   2.496   1.373   9.883
   41MYC     C4 5045   2.512   1.517   9.721
   41MYC     H4 5046   2.619   1.501   9.699
   41MYC     H5 5047   2.494   1.624   9.707
   41MYC     C2 5048   2.431   1.439   9.614
   41MYC     H2 5049   2.473   1.473   9.519
   41MYC     O3 5050   2.456   1.299   9.625
   41MYC     H3 5051   2.402   1.264   9.698
   41MYC     C1 5052   2.277   1.470   9.610
   41MYC     H1 5053   2.266   1.578   9.612
   41MYC    C81 5054   2.197   1.414   9.730
   41MYC    O82 5055   2.207   1.299   9.770
   41MYC    O83 5056   2.095   1.493   9.769
   41MYC   H105 5057   2.042   1.439   9.830
   41MYC    C20 5058   2.207   1.426   9.477
   41MYC    H34 5059   2.197   1.317   9.475
   41MYC    H35 5060   2.106   1.467   9.477
   41MYC    C21 5061   2.281   1.473   9.349
   41MYC    H36 5062   2.321   1.574   9.365
   41MYC    H37 5063   2.366   1.406   9.332
   41MYC    C22 5064   2.193   1.476   9.223
   41MYC    H38 5065   2.132   1.386   9.217
   41MYC    H39 5066   2.125   1.561   9.229
   41MYC    C23 5067   2.278   1.488   9.095
   41MYC    H40 5068   2.357   1.562   9.110
   41MYC    H41 5069   2.328   1.392   9.076
   41MYC    C24 5070   2.197   1.528   8.970
   41MYC    H42 5071   2.114   1.458   8.955
   41MYC    H43 5072   2.152   1.627   8.987
   41MYC    C25 5073   2.284   1.532   8.844
   41MYC    H44 5074   2.371   1.597   8.863
   41MYC    H45 5075   2.323   1.432   8.823
   41MYC    C26 5076   2.209   1.584   8.720
   41MYC    H46 5077   2.125   1.517   8.697
   41MYC    H47 5078   2.167   1.683   8.742
   41MYC    C27 5079   2.301   1.595   8.598
   41MYC    H48 5080   2.384   1.664   8.621
   41MYC    H49 5081   2.346   1.496   8.579
   41MYC    C28 5082   2.229   1.642   8.471
   41MYC    H50 5083   2.149   1.571   8.447
   41MYC    H51 5084   2.181   1.739   8.490
   41MYC    C29 5085   2.325   1.654   8.352
   41MYC    H52 5086   2.398   1.734   8.372
   41MYC    H53 5087   2.383   1.561   8.344
   41MYC    C30 5088   2.254   1.681   8.219
   41MYC    H54 5089   2.183   1.600   8.199
   41MYC    H55 5090   2.197   1.774   8.225
   41MYC    C31 5091   2.355   1.690   8.103
   41MYC    H56 5092   2.417   1.779   8.115
   41MYC    H57 5093   2.422   1.603   8.107
   41MYC    C32 5094   2.288   1.692   7.965
   41MYC    H58 5095   2.220   1.606   7.956
   41MYC    H59 5096   2.226   1.783   7.955
   41MYC    C33 5097   2.391   1.687   7.851
   41MYC    H60 5098   2.455   1.776   7.856
   41MYC    H61 5099   2.456   1.600   7.866
   41MYC    C34 5100   2.326   1.678   7.712
   41MYC    H62 5101   2.261   1.590   7.709
   41MYC    H63 5102   2.264   1.766   7.695
   41MYC    C35 5103   2.431   1.665   7.601
   41MYC    H64 5104   2.496   1.754   7.602
   41MYC    H65 5105   2.495   1.578   7.621
   41MYC    C36 5106   2.368   1.650   7.462
   41MYC    H66 5107   2.299   1.565   7.463
   41MYC    H67 5108   2.309   1.740   7.438
   41MYC    C37 5109   2.473   1.628   7.352
   41MYC    H68 5110   2.544   1.712   7.351
   41MYC    H69 5111   2.531   1.538   7.377
   41MYC    C38 5112   2.411   1.611   7.213
   41MYC    H70 5113   2.335   1.533   7.216
   41MYC    H71 5114   2.362   1.705   7.184
   41MYC    C39 5115   2.517   1.574   7.107
   41MYC    H72 5116   2.593   1.653   7.103
   41MYC    H73 5117   2.568   1.482   7.138
   41MYC    C40 5118   2.457   1.554   6.967
   41MYC    H74 5119   2.374   1.482   6.972
   41MYC    H75 5120   2.415   1.649   6.931
   41MYC    C41 5121   2.562   1.503   6.866
   41MYC    H76 5122   2.646   1.573   6.863
   41MYC    H77 5123   2.602   1.407   6.901
   41MYC    C42 5124   2.504   1.485   6.724
   41MYC    H78 5125   2.422   1.413   6.727
   41MYC    H79 5126   2.462   1.580   6.690
   41MYC    C43 5127   2.609   1.438   6.622
   41MYC    H80 5128   2.564   1.425   6.523
   41MYC    H81 5129   2.652   1.342   6.653
   41MYC    H82 5130   2.691   1.511   6.613
   42MYC   HH15 5131   3.458   1.522   6.497
   42MYC    C80 5132   3.509   1.493   6.590
   42MYC   H100 5133   3.492   1.386   6.607
   42MYC   H101 5134   3.616   1.510   6.578
   42MYC    C79 5135   3.453   1.575   6.708
   42MYC   H102 5136   3.347   1.552   6.721
   42MYC   H103 5137   3.459   1.682   6.683
   42MYC    C78 5138   3.528   1.550   6.841
   42MYC   HH14 5139   3.632   1.585   6.831
   42MYC   H104 5140   3.532   1.442   6.861
   42MYC    C77 5141   3.462   1.622   6.960
   42MYC   H106 5142   3.362   1.579   6.976
   42MYC   H107 5143   3.447   1.728   6.935
   42MYC    C76 5144   3.543   1.613   7.091
   42MYC   H108 5145   3.641   1.661   7.077
   42MYC   H109 5146   3.561   1.508   7.115
   42MYC    C75 5147   3.470   1.681   7.208
   42MYC   H110 5148   3.371   1.635   7.219
   42MYC   H111 5149   3.452   1.787   7.183
   42MYC    C74 5150   3.544   1.672   7.343
   42MYC   H112 5151   3.641   1.724   7.335
   42MYC   H113 5152   3.565   1.567   7.365
   42MYC    C73 5153   3.461   1.734   7.457
   42MYC   HH13 5154   3.359   1.693   7.452
   42MYC   H114 5155   3.453   1.842   7.442
   42MYC    C72 5156   3.517   1.705   7.597
   42MYC   H115 5157   3.615   1.754   7.610
   42MYC   H116 5158   3.534   1.597   7.607
   42MYC    C71 5159   3.421   1.751   7.709
   42MYC   H117 5160   3.319   1.718   7.684
   42MYC   H118 5161   3.419   1.861   7.712
   42MYC    C70 5162   3.457   1.695   7.847
   42MYC   H119 5163   3.555   1.734   7.877
   42MYC   H120 5164   3.466   1.586   7.841
   42MYC    C69 5165   3.353   1.731   7.955
   42MYC   H121 5166   3.253   1.702   7.920
   42MYC   H122 5167   3.352   1.840   7.970
   42MYC    C68 5168   3.381   1.660   8.088
   42MYC   HH12 5169   3.483   1.683   8.119
   42MYC   H123 5170   3.375   1.552   8.074
   42MYC    C67 5171   3.284   1.702   8.201
   42MYC   H124 5172   3.181   1.680   8.173
   42MYC   H125 5173   3.292   1.810   8.216
   42MYC    C66 5174   3.318   1.630   8.334
   42MYC   H126 5175   3.427   1.619   8.341
   42MYC   H127 5176   3.277   1.528   8.331
   42MYC    C65 5177   3.267   1.703   8.459
   42MYC   H128 5178   3.158   1.702   8.462
   42MYC   H129 5179   3.299   1.808   8.454
   42MYC    C64 5180   3.325   1.640   8.588
   42MYC   H130 5181   3.433   1.628   8.575
   42MYC   H131 5182   3.284   1.539   8.601
   42MYC    C63 5183   3.300   1.723   8.715
   42MYC   HH11 5184   3.193   1.720   8.740
   42MYC   H132 5185   3.326   1.828   8.696
   42MYC    C62 5186   3.384   1.671   8.833
   42MYC   H133 5187   3.490   1.681   8.807
   42MYC   H134 5188   3.365   1.564   8.847
   42MYC    C61 5189   3.358   1.745   8.965
   42MYC   H135 5190   3.256   1.724   8.998
   42MYC   H136 5191   3.366   1.853   8.949
   42MYC    C60 5192   3.459   1.704   9.072
   42MYC   H137 5193   3.558   1.743   9.052
   42MYC    C58 5194   3.418   1.690   9.217
   42MYC   H138 5195   3.313   1.702   9.241
   42MYC    C59 5196   3.453   1.567   9.135
   42MYC   H139 5197   3.547   1.517   9.156
   42MYC   H140 5198   3.372   1.501   9.107
   42MYC    C57 5199   3.509   1.739   9.328
   42MYC   HH10 5200   3.471   1.835   9.365
   42MYC   H141 5201   3.611   1.758   9.289
   42MYC    C56 5202   3.518   1.639   9.444
   42MYC   H142 5203   3.570   1.548   9.411
   42MYC   H143 5204   3.417   1.609   9.472
   42MYC    C55 5205   3.590   1.695   9.568
   42MYC   H144 5206   3.542   1.790   9.596
   42MYC   H145 5207   3.694   1.718   9.543
   42MYC    C54 5208   3.584   1.599   9.688
   42MYC   H146 5209   3.644   1.510   9.667
   42MYC   H147 5210   3.480   1.567   9.701
   42MYC    C53 5211   3.629   1.665   9.819
   42MYC   H148 5212   3.573   1.758   9.832
   42MYC   H149 5213   3.735   1.693   9.813
   42MYC    C52 5214   3.607   1.574   9.942
   42MYC    H99 5215   3.694   1.510   9.958
   42MYC   H150 5216   3.522   1.507   9.924
   42MYC    C51 5217   3.577   1.655  10.069
   42MYC    H97 5218   3.484   1.711  10.053
   42MYC    H98 5219   3.656   1.730  10.086
   42MYC    C50 5220   3.562   1.567  10.195
   42MYC    H95 5221   3.662   1.541  10.232
   42MYC    H96 5222   3.512   1.473  10.168
   42MYC    C49 5223   3.480   1.637  10.304
   42MYC    H93 5224   3.377   1.650  10.268
   42MYC    H94 5225   3.520   1.738  10.322
   42MYC    C48 5226   3.478   1.560  10.437
   42MYC    H91 5227   3.576   1.569  10.486
   42MYC    H92 5228   3.461   1.453  10.417
   42MYC    C47 5229   3.367   1.611  10.531
   42MYC    H89 5230   3.270   1.579  10.490
   42MYC    H90 5231   3.368   1.720  10.533
   42MYC    C46 5232   3.381   1.558  10.675
   42MYC    H87 5233   3.474   1.597  10.716
   42MYC    H88 5234   3.388   1.449  10.673
   42MYC    C45 5235   3.263   1.601  10.765
   42MYC    H85 5236   3.172   1.551  10.731
   42MYC    H86 5237   3.246   1.708  10.750
   42MYC    C44 5238   3.283   1.576  10.916
   42MYC    H83 5239   3.185   1.581  10.966
   42MYC    H84 5240   3.343   1.658  10.957
   42MYC    C18 5241   3.350   1.443  10.951
   42MYC    H31 5242   3.294   1.357  10.914
   42MYC    C17 5243   3.501   1.432  10.951
   42MYC    H30 5244   3.555   1.525  10.933
   42MYC    C19 5245   3.423   1.424  11.081
   42MYC    H32 5246   3.429   1.509  11.148
   42MYC    H33 5247   3.416   1.328  11.130
   42MYC    C16 5248   3.570   1.309  10.893
   42MYC    H28 5249   3.517   1.274  10.804
   42MYC    H29 5250   3.565   1.228  10.966
   42MYC    C15 5251   3.718   1.333  10.857
   42MYC    H26 5252   3.767   1.235  10.848
   42MYC    H27 5253   3.766   1.386  10.940
   42MYC    C14 5254   3.739   1.412  10.726
   42MYC    H24 5255   3.701   1.514  10.737
   42MYC    H25 5256   3.683   1.365  10.645
   42MYC    C13 5257   3.888   1.417  10.687
   42MYC    H22 5258   3.922   1.314  10.671
   42MYC    H23 5259   3.945   1.458  10.771
   42MYC    C12 5260   3.921   1.501  10.561
   42MYC    H20 5261   3.906   1.607  10.584
   42MYC    H21 5262   3.853   1.474  10.479
   42MYC    C11 5263   4.067   1.478  10.514
   42MYC    H18 5264   4.075   1.381  10.464
   42MYC    H19 5265   4.132   1.474  10.602
   42MYC    C10 5266   4.125   1.587  10.423
   42MYC    H16 5267   4.232   1.568  10.409
   42MYC    H17 5268   4.119   1.683  10.476
   42MYC     C9 5269   4.058   1.603  10.284
   42MYC    H14 5270   4.091   1.698  10.242
   42MYC    H15 5271   3.949   1.610  10.296
   42MYC     C8 5272   4.092   1.491  10.182
   42MYC    H12 5273   4.061   1.394  10.222
   42MYC    H13 5274   4.201   1.488  10.167
   42MYC     C7 5275   4.023   1.515  10.046
   42MYC    H10 5276   4.054   1.612  10.006
   42MYC    H11 5277   3.915   1.522  10.064
   42MYC     C6 5278   4.050   1.405   9.941
   42MYC     H8 5279   4.018   1.309   9.983
   42MYC     H9 5280   4.157   1.398   9.922
   42MYC     C5 5281   3.974   1.432   9.808
   42MYC     H6 5282   4.028   1.508   9.750
   42MYC     H7 5283   3.877   1.475   9.832
   42MYC     C4 5284   3.948   1.306   9.721
   42MYC     H4 5285   3.855   1.324   9.666
   42MYC     H5 5286   3.929   1.220   9.786
   42MYC     C2 5287   4.057   1.271   9.617
   42MYC     H2 5288   4.061   1.355   9.545
   42MYC     O3 5289   4.185   1.258   9.679
   42MYC     H3 5290   4.189   1.170   9.720
   42MYC     C1 5291   4.020   1.142   9.537
   42MYC     H1 5292   3.915   1.154   9.507
   42MYC    C81 5293   4.025   1.014   9.623
   42MYC    O82 5294   4.125   0.971   9.677
   42MYC    O83 5295   3.910   0.942   9.621
   42MYC   H105 5296   3.930   0.860   9.670
   42MYC    C20 5297   4.101   1.125   9.406
   42MYC    H34 5298   4.196   1.180   9.412
   42MYC    H35 5299   4.127   1.019   9.392
   42MYC    C21 5300   4.023   1.172   9.281
   42MYC    H36 5301   3.929   1.116   9.275
   42MYC    H37 5302   3.997   1.278   9.292
   42MYC    C22 5303   4.100   1.153   9.150
   42MYC    H38 5304   4.189   1.217   9.150
   42MYC    H39 5305   4.135   1.049   9.143
   42MYC    C23 5306   4.014   1.185   9.027
   42MYC    H40 5307   3.926   1.120   9.026
   42MYC    H41 5308   3.978   1.289   9.034
   42MYC    C24 5309   4.090   1.168   8.894
   42MYC    H42 5310   4.175   1.237   8.892
   42MYC    H43 5311   4.131   1.066   8.889
   42MYC    C25 5312   4.001   1.193   8.772
   42MYC    H44 5313   3.922   1.117   8.769
   42MYC    H45 5314   3.951   1.290   8.783
   42MYC    C26 5315   4.079   1.191   8.640
   42MYC    H46 5316   4.149   1.275   8.638
   42MYC    H47 5317   4.138   1.099   8.633
   42MYC    C27 5318   3.985   1.199   8.518
   42MYC    H48 5319   3.936   1.102   8.504
   42MYC    H49 5320   3.907   1.273   8.536
   42MYC    C28 5321   4.059   1.236   8.388
   42MYC    H50 5322   4.103   1.337   8.400
   42MYC    H51 5323   4.142   1.167   8.372
   42MYC    C29 5324   3.966   1.235   8.266
   42MYC    H52 5325   3.938   1.131   8.244
   42MYC    H53 5326   3.874   1.289   8.290
   42MYC    C30 5327   4.030   1.298   8.142
   42MYC    H54 5328   4.064   1.400   8.165
   42MYC    H55 5329   4.119   1.240   8.114
   42MYC    C31 5330   3.933   1.303   8.023
   42MYC    H56 5331   3.888   1.204   8.008
   42MYC    H57 5332   3.851   1.373   8.046
   42MYC    C32 5333   4.002   1.346   7.892
   42MYC    H58 5334   4.054   1.441   7.908
   42MYC    H59 5335   4.077   1.271   7.867
   42MYC    C33 5336   3.903   1.362   7.775
   42MYC    H60 5337   3.832   1.278   7.774
   42MYC    H61 5338   3.845   1.454   7.788
   42MYC    C34 5339   3.977   1.365   7.639
   42MYC    H62 5340   4.057   1.439   7.644
   42MYC    H63 5341   4.024   1.267   7.623
   42MYC    C35 5342   3.885   1.398   7.520
   42MYC    H64 5343   3.795   1.335   7.523
   42MYC    H65 5344   3.852   1.503   7.528
   42MYC    C36 5345   3.958   1.376   7.386
   42MYC    H66 5346   4.057   1.424   7.391
   42MYC    H67 5347   3.976   1.268   7.373
   42MYC    C37 5348   3.883   1.430   7.264
   42MYC    H68 5349   3.783   1.384   7.257
   42MYC    H69 5350   3.868   1.538   7.275
   42MYC    C38 5351   3.961   1.403   7.134
   42MYC    H70 5352   4.063   1.442   7.145
   42MYC    H71 5353   3.971   1.294   7.120
   42MYC    C39 5354   3.899   1.464   7.008
   42MYC    H72 5355   3.796   1.426   6.995
   42MYC    H73 5356   3.891   1.573   7.021
   42MYC    C40 5357   3.982   1.433   6.882
   42MYC    H74 5358   4.085   1.469   6.897
   42MYC    H75 5359   3.987   1.324   6.868
   42MYC    C41 5360   3.926   1.498   6.754
   42MYC    H76 5361   3.823   1.464   6.738
   42MYC    H77 5362   3.923   1.606   6.767
   42MYC    C42 5363   4.010   1.463   6.629
   42MYC    H78 5364   4.114   1.494   6.646
   42MYC    H79 5365   4.011   1.355   6.615
   42MYC    C43 5366   3.959   1.531   6.501
   42MYC    H80 5367   4.023   1.504   6.416
   42MYC    H81 5368   3.960   1.640   6.512
   42MYC    H82 5369   3.856   1.499   6.479
   43MYC   HH15 5370   4.367   1.198   6.620
   43MYC    C80 5371   4.306   1.222   6.708
   43MYC   H100 5372   4.295   1.331   6.712
   43MYC   H101 5373   4.207   1.178   6.695
   43MYC    C79 5374   4.374   1.170   6.836
   43MYC   H102 5375   4.472   1.219   6.846
   43MYC   H103 5376   4.392   1.063   6.826
   43MYC    C78 5377   4.291   1.196   6.964
   43MYC   HH14 5378   4.199   1.137   6.961
   43MYC   H104 5379   4.261   1.302   6.967
   43MYC    C77 5380   4.370   1.163   7.092
   43MYC   H106 5381   4.458   1.229   7.095
   43MYC   H107 5382   4.408   1.060   7.086
   43MYC    C76 5383   4.290   1.181   7.222
   43MYC   H108 5384   4.216   1.100   7.231
   43MYC   H109 5385   4.234   1.276   7.219
   43MYC    C75 5386   4.382   1.180   7.345
   43MYC   H110 5387   4.451   1.264   7.338
   43MYC   H111 5388   4.443   1.088   7.344
   43MYC    C74 5389   4.308   1.189   7.480
   43MYC   H112 5390   4.238   1.105   7.488
   43MYC   H113 5391   4.250   1.282   7.484
   43MYC    C73 5392   4.407   1.185   7.598
   43MYC   HH13 5393   4.479   1.267   7.587
   43MYC   H114 5394   4.464   1.091   7.593
   43MYC    C72 5395   4.339   1.195   7.735
   43MYC   H115 5396   4.260   1.120   7.742
   43MYC   H116 5397   4.292   1.294   7.745
   43MYC    C71 5398   4.440   1.174   7.850
   43MYC   H117 5399   4.519   1.250   7.844
   43MYC   H118 5400   4.487   1.076   7.838
   43MYC    C70 5401   4.373   1.181   7.988
   43MYC   H119 5402   4.288   1.112   7.990
   43MYC   H120 5403   4.334   1.282   8.004
   43MYC    C69 5404   4.470   1.144   8.102
   43MYC   H121 5405   4.555   1.213   8.102
   43MYC   H122 5406   4.509   1.043   8.086
   43MYC    C68 5407   4.401   1.150   8.239
   43MYC   HH12 5408   4.315   1.082   8.239
   43MYC   H123 5409   4.363   1.251   8.256
   43MYC    C67 5410   4.494   1.110   8.356
   43MYC   H124 5411   4.586   1.170   8.351
   43MYC   H125 5412   4.523   1.005   8.345
   43MYC    C66 5413   4.427   1.132   8.492
   43MYC   H126 5414   4.334   1.074   8.497
   43MYC   H127 5415   4.399   1.238   8.502
   43MYC    C65 5416   4.516   1.093   8.610
   43MYC   H128 5417   4.616   1.138   8.598
   43MYC   H129 5418   4.530   0.984   8.610
   43MYC    C64 5419   4.457   1.138   8.745
   43MYC   H130 5420   4.354   1.101   8.754
   43MYC   H131 5421   4.453   1.247   8.748
   43MYC    C63 5422   4.539   1.088   8.865
   43MYC   HH11 5423   4.643   1.121   8.855
   43MYC   H132 5424   4.540   0.978   8.863
   43MYC    C62 5425   4.483   1.136   9.000
   43MYC   H133 5426   4.377   1.110   9.006
   43MYC   H134 5427   4.490   1.245   9.006
   43MYC    C61 5428   4.558   1.073   9.118
   43MYC   H135 5429   4.664   1.100   9.113
   43MYC   H136 5430   4.553   0.964   9.108
   43MYC    C60 5431   4.500   1.112   9.253
   43MYC   H137 5432   4.392   1.108   9.255
   43MYC    C58 5433   4.572   1.068   9.377
   43MYC   H138 5434   4.669   1.021   9.365
   43MYC    C59 5435   4.565   1.215   9.342
   43MYC   H139 5436   4.499   1.279   9.401
   43MYC   H140 5437   4.656   1.263   9.307
   43MYC    C57 5438   4.494   1.010   9.494
   43MYC   HH10 5439   4.482   0.902   9.481
   43MYC   H141 5440   4.394   1.053   9.498
   43MYC    C56 5441   4.565   1.038   9.628
   43MYC   H142 5442   4.589   1.145   9.633
   43MYC   H143 5443   4.661   0.984   9.630
   43MYC    C55 5444   4.481   1.000   9.751
   43MYC   H144 5445   4.466   0.891   9.755
   43MYC   H145 5446   4.382   1.046   9.742
   43MYC    C54 5447   4.547   1.050   9.880
   43MYC   H146 5448   4.569   1.157   9.869
   43MYC   H147 5449   4.643   0.999   9.894
   43MYC    C53 5450   4.461   1.029  10.006
   43MYC   H148 5451   4.464   0.923  10.036
   43MYC   H149 5452   4.356   1.054   9.984
   43MYC    C52 5453   4.510   1.118  10.122
   43MYC    H99 5454   4.491   1.223  10.095
   43MYC   H150 5455   4.619   1.107  10.132
   43MYC    C51 5456   4.444   1.087  10.257
   43MYC    H97 5457   4.477   0.987  10.289
   43MYC    H98 5458   4.335   1.083  10.246
   43MYC    C50 5459   4.481   1.192  10.364
   43MYC    H95 5460   4.416   1.279  10.353
   43MYC    H96 5461   4.584   1.227  10.348
   43MYC    C49 5462   4.470   1.136  10.507
   43MYC    H93 5463   4.542   1.055  10.519
   43MYC    H94 5464   4.370   1.092  10.522
   43MYC    C48 5465   4.496   1.243  10.615
   43MYC    H91 5466   4.419   1.321  10.608
   43MYC    H92 5467   4.592   1.291  10.596
   43MYC    C47 5468   4.496   1.184  10.757
   43MYC    H89 5469   4.572   1.105  10.764
   43MYC    H90 5470   4.399   1.137  10.776
   43MYC    C46 5471   4.523   1.289  10.866
   43MYC    H87 5472   4.457   1.375  10.850
   43MYC    H88 5473   4.626   1.327  10.854
   43MYC    C45 5474   4.503   1.234  11.008
   43MYC    H85 5475   4.583   1.162  11.032
   43MYC    H86 5476   4.409   1.178  11.012
   43MYC    C44 5477   4.497   1.343  11.117
   43MYC    H83 5478   4.465   1.295  11.210
   43MYC    H84 5479   4.418   1.415  11.091
   43MYC    C18 5480   4.629   1.417  11.139
   43MYC    H31 5481   4.702   1.403  11.060
   43MYC    C17 5482   4.630   1.552  11.208
   43MYC    H30 5483   4.535   1.590  11.244
   43MYC    C19 5484   4.684   1.431  11.280
   43MYC    H32 5485   4.625   1.390  11.362
   43MYC    H33 5486   4.791   1.425  11.293
   43MYC    C16 5487   4.726   1.663  11.167
   43MYC    H28 5488   4.816   1.621  11.121
   43MYC    H29 5489   4.760   1.713  11.258
   43MYC    C15 5490   4.664   1.769  11.073
   43MYC    H26 5491   4.706   1.866  11.101
   43MYC    H27 5492   4.556   1.775  11.090
   43MYC    C14 5493   4.693   1.748  10.923
   43MYC    H24 5494   4.660   1.648  10.891
   43MYC    H25 5495   4.801   1.753  10.907
   43MYC    C13 5496   4.622   1.855  10.836
   43MYC    H22 5497   4.616   1.949  10.891
   43MYC    H23 5498   4.519   1.823  10.819
   43MYC    C12 5499   4.692   1.882  10.701
   43MYC    H20 5500   4.700   1.789  10.644
   43MYC    H21 5501   4.794   1.916  10.721
   43MYC    C11 5502   4.622   1.989  10.614
   43MYC    H18 5503   4.682   2.005  10.523
   43MYC    H19 5504   4.624   2.085  10.667
   43MYC    C10 5505   4.476   1.959  10.574
   43MYC    H16 5506   4.442   2.042  10.510
   43MYC    H17 5507   4.412   1.962  10.663
   43MYC     C9 5508   4.451   1.826  10.499
   43MYC    H14 5509   4.343   1.815  10.483
   43MYC    H15 5510   4.482   1.741  10.561
   43MYC     C8 5511   4.521   1.820  10.361
   43MYC    H12 5512   4.630   1.824  10.376
   43MYC    H13 5513   4.493   1.908  10.304
   43MYC     C7 5514   4.488   1.693  10.279
   43MYC    H10 5515   4.379   1.680  10.275
   43MYC    H11 5516   4.530   1.605  10.328
   43MYC     C6 5517   4.541   1.704  10.135
   43MYC     H8 5518   4.646   1.735  10.137
   43MYC     H9 5519   4.486   1.784  10.084
   43MYC     C5 5520   4.531   1.574  10.053
   43MYC     H6 5521   4.435   1.523  10.071
   43MYC     H7 5522   4.608   1.505  10.088
   43MYC     C4 5523   4.551   1.599   9.901
   43MYC     H4 5524   4.594   1.508   9.857
   43MYC     H5 5525   4.629   1.675   9.889
   43MYC     C2 5526   4.425   1.637   9.817
   43MYC     H2 5527   4.397   1.547   9.761
   43MYC     O3 5528   4.314   1.673   9.900
   43MYC     H3 5529   4.260   1.739   9.853
   43MYC     C1 5530   4.453   1.750   9.714
   43MYC     H1 5531   4.554   1.732   9.674
   43MYC    C81 5532   4.455   1.890   9.780
   43MYC    O82 5533   4.356   1.950   9.816
   43MYC    O83 5534   4.578   1.947   9.788
   43MYC   H105 5535   4.564   2.033   9.831
   43MYC    C20 5536   4.356   1.750   9.593
   43MYC    H34 5537   4.252   1.741   9.628
   43MYC    H35 5538   4.363   1.847   9.542
   43MYC    C21 5539   4.385   1.639   9.489
   43MYC    H36 5540   4.493   1.638   9.468
   43MYC    H37 5541   4.360   1.540   9.531
   43MYC    C22 5542   4.309   1.660   9.357
   43MYC    H38 5543   4.201   1.649   9.373
   43MYC    H39 5544   4.325   1.764   9.324
   43MYC    C23 5545   4.355   1.565   9.243
   43MYC    H40 5546   4.464   1.565   9.239
   43MYC    H41 5547   4.323   1.463   9.265
   43MYC    C24 5548   4.299   1.610   9.107
   43MYC    H42 5549   4.190   1.604   9.107
   43MYC    H43 5550   4.325   1.715   9.092
   43MYC    C25 5551   4.354   1.528   8.987
   43MYC    H44 5552   4.462   1.514   8.998
   43MYC    H45 5553   4.308   1.429   8.986
   43MYC    C26 5554   4.327   1.601   8.854
   43MYC    H46 5555   4.219   1.618   8.843
   43MYC    H47 5556   4.374   1.700   8.858
   43MYC    C27 5557   4.378   1.527   8.729
   43MYC    H48 5558   4.481   1.493   8.745
   43MYC    H49 5559   4.316   1.438   8.712
   43MYC    C28 5560   4.374   1.618   8.605
   43MYC    H50 5561   4.277   1.669   8.601
   43MYC    H51 5562   4.451   1.696   8.616
   43MYC    C29 5563   4.397   1.545   8.471
   43MYC    H52 5564   4.492   1.491   8.472
   43MYC    H53 5565   4.317   1.471   8.457
   43MYC    C30 5566   4.395   1.645   8.353
   43MYC    H54 5567   4.311   1.714   8.366
   43MYC    H55 5568   4.487   1.706   8.356
   43MYC    C31 5569   4.383   1.578   8.215
   43MYC    H56 5570   4.469   1.513   8.197
   43MYC    H57 5571   4.293   1.515   8.214
   43MYC    C32 5572   4.373   1.683   8.102
   43MYC    H58 5573   4.295   1.756   8.128
   43MYC    H59 5574   4.467   1.739   8.096
   43MYC    C33 5575   4.339   1.622   7.965
   43MYC    H60 5576   4.414   1.545   7.940
   43MYC    H61 5577   4.243   1.571   7.972
   43MYC    C34 5578   4.334   1.727   7.853
   43MYC    H62 5579   4.272   1.811   7.883
   43MYC    H63 5580   4.435   1.766   7.836
   43MYC    C35 5581   4.279   1.669   7.721
   43MYC    H64 5582   4.330   1.575   7.698
   43MYC    H65 5583   4.172   1.645   7.735
   43MYC    C36 5584   4.294   1.765   7.602
   43MYC    H66 5585   4.244   1.860   7.624
   43MYC    H67 5586   4.401   1.787   7.588
   43MYC    C37 5587   4.237   1.707   7.471
   43MYC    H68 5588   4.279   1.606   7.455
   43MYC    H69 5589   4.128   1.695   7.480
   43MYC    C38 5590   4.269   1.795   7.349
   43MYC    H70 5591   4.224   1.893   7.362
   43MYC    H71 5592   4.378   1.810   7.344
   43MYC    C39 5593   4.222   1.734   7.215
   43MYC    H72 5594   4.267   1.635   7.202
   43MYC    H73 5595   4.113   1.719   7.219
   43MYC    C40 5596   4.258   1.823   7.095
   43MYC    H74 5597   4.208   1.920   7.106
   43MYC    H75 5598   4.366   1.842   7.096
   43MYC    C41 5599   4.220   1.761   6.959
   43MYC    H76 5600   4.273   1.666   6.947
   43MYC    H77 5601   4.113   1.739   6.957
   43MYC    C42 5602   4.255   1.855   6.841
   43MYC    H78 5603   4.195   1.946   6.848
   43MYC    H79 5604   4.360   1.885   6.848
   43MYC    C43 5605   4.231   1.790   6.703
   43MYC    H80 5606   4.255   1.861   6.623
   43MYC    H81 5607   4.126   1.760   6.692
   43MYC    H82 5608   4.294   1.701   6.691
   44MYC   HH15 5609   5.611   1.400   6.693
   44MYC    C80 5610   5.608   1.294   6.666
   44MYC   H100 5611   5.508   1.270   6.629
   44MYC   H101 5612   5.680   1.278   6.585
   44MYC    C79 5613   5.644   1.206   6.787
   44MYC   H102 5614   5.750   1.219   6.808
   44MYC   H103 5615   5.628   1.101   6.762
   44MYC    C78 5616   5.564   1.242   6.914
   44MYC   HH14 5617   5.458   1.219   6.898
   44MYC   H104 5618   5.571   1.350   6.931
   44MYC    C77 5619   5.614   1.168   7.040
   44MYC   H106 5620   5.721   1.187   7.052
   44MYC   H107 5621   5.601   1.060   7.027
   44MYC    C76 5622   5.540   1.213   7.168
   44MYC   H108 5623   5.436   1.179   7.163
   44MYC   H109 5624   5.538   1.323   7.171
   44MYC    C75 5625   5.604   1.162   7.298
   44MYC   H110 5626   5.706   1.201   7.306
   44MYC   H111 5627   5.610   1.053   7.295
   44MYC    C74 5628   5.523   1.204   7.422
   44MYC   H112 5629   5.424   1.156   7.417
   44MYC   H113 5630   5.505   1.313   7.417
   44MYC    C73 5631   5.589   1.171   7.557
   44MYC   HH13 5632   5.683   1.226   7.567
   44MYC   H114 5633   5.612   1.064   7.562
   44MYC    C72 5634   5.494   1.208   7.673
   44MYC   H115 5635   5.403   1.147   7.664
   44MYC   H116 5636   5.463   1.312   7.662
   44MYC    C71 5637   5.553   1.189   7.814
   44MYC   H117 5638   5.637   1.257   7.829
   44MYC   H118 5639   5.591   1.086   7.825
   44MYC    C70 5640   5.445   1.214   7.921
   44MYC   H119 5641   5.366   1.139   7.910
   44MYC   H120 5642   5.398   1.312   7.902
   44MYC    C69 5643   5.497   1.213   8.066
   44MYC   H121 5644   5.565   1.297   8.081
   44MYC   H122 5645   5.554   1.121   8.084
   44MYC    C68 5646   5.381   1.221   8.167
   44MYC   HH12 5647   5.318   1.132   8.156
   44MYC   H123 5648   5.317   1.308   8.143
   44MYC    C67 5649   5.428   1.232   8.313
   44MYC   H124 5650   5.478   1.329   8.328
   44MYC   H125 5651   5.502   1.154   8.333
   44MYC    C66 5652   5.311   1.218   8.413
   44MYC   H126 5653   5.261   1.122   8.395
   44MYC   H127 5654   5.237   1.297   8.394
   44MYC    C65 5655   5.357   1.225   8.559
   44MYC   H128 5656   5.394   1.326   8.582
   44MYC   H129 5657   5.441   1.156   8.574
   44MYC    C64 5658   5.245   1.188   8.658
   44MYC   H130 5659   5.206   1.089   8.631
   44MYC   H131 5660   5.162   1.259   8.648
   44MYC    C63 5661   5.293   1.185   8.804
   44MYC   HH11 5662   5.324   1.286   8.834
   44MYC   H132 5663   5.381   1.120   8.812
   44MYC    C62 5664   5.185   1.133   8.900
   44MYC   H133 5665   5.152   1.033   8.869
   44MYC   H134 5666   5.097   1.199   8.895
   44MYC    C61 5667   5.234   1.126   9.046
   44MYC   H135 5668   5.275   1.224   9.074
   44MYC   H136 5669   5.316   1.055   9.053
   44MYC    C60 5670   5.123   1.087   9.142
   44MYC   H137 5671   5.079   0.990   9.120
   44MYC    C58 5672   5.132   1.125   9.287
   44MYC   H138 5673   5.220   1.184   9.315
   44MYC    C59 5674   5.031   1.193   9.198
   44MYC   H139 5675   4.926   1.167   9.212
   44MYC   H140 5676   5.049   1.297   9.172
   44MYC    C57 5677   5.087   1.033   9.399
   44MYC   HH10 5678   5.168   0.963   9.422
   44MYC   H141 5679   5.000   0.973   9.369
   44MYC    C56 5680   5.053   1.114   9.525
   44MYC   H142 5681   4.964   1.175   9.507
   44MYC   H143 5682   5.136   1.184   9.544
   44MYC    C55 5683   5.031   1.029   9.651
   44MYC   H144 5684   5.109   0.951   9.655
   44MYC   H145 5685   4.934   0.978   9.645
   44MYC    C54 5686   5.040   1.114   9.779
   44MYC   H146 5687   4.961   1.189   9.779
   44MYC   H147 5688   5.136   1.168   9.778
   44MYC    C53 5689   5.033   1.031   9.908
   44MYC   H148 5690   5.097   0.942   9.898
   44MYC   H149 5691   4.930   0.995   9.922
   44MYC    C52 5692   5.078   1.111  10.031
   44MYC    H99 5693   5.012   1.197  10.046
   44MYC   H150 5694   5.179   1.150  10.013
   44MYC    C51 5695   5.081   1.025  10.159
   44MYC    H97 5696   5.143   0.937  10.142
   44MYC    H98 5697   4.979   0.990  10.180
   44MYC    C50 5698   5.134   1.102  10.281
   44MYC    H95 5699   5.071   1.190  10.299
   44MYC    H96 5700   5.236   1.139  10.260
   44MYC    C49 5701   5.138   1.015  10.408
   44MYC    H93 5702   5.212   0.935  10.395
   44MYC    H94 5703   5.040   0.966  10.420
   44MYC    C48 5704   5.170   1.096  10.535
   44MYC    H91 5705   5.095   1.175  10.546
   44MYC    H92 5706   5.267   1.145  10.525
   44MYC    C47 5707   5.169   1.008  10.662
   44MYC    H89 5708   5.258   0.945  10.663
   44MYC    H90 5709   5.083   0.940  10.657
   44MYC    C46 5710   5.158   1.090  10.792
   44MYC    H87 5711   5.062   1.144  10.789
   44MYC    H88 5712   5.236   1.166  10.795
   44MYC    C45 5713   5.164   1.003  10.920
   44MYC    H85 5714   5.266   1.005  10.961
   44MYC    H86 5715   5.143   0.899  10.894
   44MYC    C44 5716   5.064   1.046  11.029
   44MYC    H83 5717   5.059   0.964  11.103
   44MYC    H84 5718   4.963   1.051  10.985
   44MYC    C18 5719   5.096   1.176  11.103
   44MYC    H31 5720   5.178   1.164  11.173
   44MYC    C17 5721   5.079   1.314  11.042
   44MYC    H30 5722   5.043   1.318  10.940
   44MYC    C19 5723   4.982   1.265  11.147
   44MYC    H32 5724   4.881   1.240  11.113
   44MYC    H33 5725   4.988   1.307  11.247
   44MYC    C16 5726   5.178   1.425  11.076
   44MYC    H28 5727   5.276   1.402  11.033
   44MYC    H29 5728   5.194   1.427  11.184
   44MYC    C15 5729   5.136   1.568  11.033
   44MYC    H26 5730   5.213   1.638  11.068
   44MYC    H27 5731   5.044   1.596  11.084
   44MYC    C14 5732   5.118   1.589  10.880
   44MYC    H24 5733   5.024   1.541  10.848
   44MYC    H25 5734   5.199   1.540  10.826
   44MYC    C13 5735   5.115   1.738  10.841
   44MYC    H22 5736   5.213   1.782  10.864
   44MYC    H23 5737   5.042   1.791  10.904
   44MYC    C12 5738   5.081   1.765  10.692
   44MYC    H20 5739   4.976   1.738  10.674
   44MYC    H21 5740   5.142   1.701  10.629
   44MYC    C11 5741   5.104   1.914  10.654
   44MYC    H18 5742   5.211   1.937  10.666
   44MYC    H19 5743   5.050   1.977  10.725
   44MYC    C10 5744   5.061   1.954  10.511
   44MYC    H16 5745   5.078   2.062  10.500
   44MYC    H17 5746   4.952   1.939  10.501
   44MYC     C9 5747   5.132   1.880  10.396
   44MYC    H14 5748   5.094   1.777  10.390
   44MYC    H15 5749   5.240   1.872  10.418
   44MYC     C8 5750   5.113   1.951  10.260
   44MYC    H12 5751   5.176   2.042  10.258
   44MYC    H13 5752   5.009   1.984  10.251
   44MYC     C7 5753   5.148   1.863  10.138
   44MYC    H10 5754   5.077   1.779  10.135
   44MYC    H11 5755   5.248   1.820  10.150
   44MYC     C6 5756   5.141   1.939  10.004
   44MYC     H8 5757   5.227   2.008   9.997
   44MYC     H9 5758   5.051   2.001  10.001
   44MYC     C5 5759   5.142   1.844   9.883
   44MYC     H6 5760   5.051   1.783   9.886
   44MYC     H7 5761   5.227   1.776   9.892
   44MYC     C4 5762   5.149   1.916   9.746
   44MYC     H4 5763   5.244   1.972   9.741
   44MYC     H5 5764   5.070   1.992   9.740
   44MYC     C2 5765   5.142   1.824   9.620
   44MYC     H2 5766   5.223   1.856   9.555
   44MYC     O3 5767   5.165   1.687   9.656
   44MYC     H3 5768   5.212   1.644   9.582
   44MYC     C1 5769   5.011   1.837   9.536
   44MYC     H1 5770   5.015   1.936   9.490
   44MYC    C81 5771   4.881   1.833   9.618
   44MYC    O82 5772   4.848   1.741   9.690
   44MYC    O83 5773   4.794   1.931   9.585
   44MYC   H105 5774   4.714   1.914   9.638
   44MYC    C20 5775   5.002   1.738   9.416
   44MYC    H34 5776   4.997   1.635   9.454
   44MYC    H35 5777   4.908   1.756   9.363
   44MYC    C21 5778   5.118   1.751   9.316
   44MYC    H36 5779   5.124   1.855   9.281
   44MYC    H37 5780   5.213   1.728   9.365
   44MYC    C22 5781   5.104   1.658   9.194
   44MYC    H38 5782   5.109   1.553   9.227
   44MYC    H39 5783   5.005   1.673   9.149
   44MYC    C23 5784   5.212   1.684   9.088
   44MYC    H40 5785   5.213   1.792   9.065
   44MYC    H41 5786   5.311   1.660   9.129
   44MYC    C24 5787   5.188   1.605   8.958
   44MYC    H42 5788   5.199   1.498   8.977
   44MYC    H43 5789   5.083   1.621   8.928
   44MYC    C25 5790   5.281   1.649   8.844
   44MYC    H44 5791   5.294   1.758   8.847
   44MYC    H45 5792   5.380   1.605   8.858
   44MYC    C26 5793   5.225   1.611   8.706
   44MYC    H46 5794   5.225   1.501   8.695
   44MYC    H47 5795   5.121   1.644   8.700
   44MYC    C27 5796   5.303   1.675   8.589
   44MYC    H48 5797   5.313   1.782   8.608
   44MYC    H49 5798   5.404   1.632   8.584
   44MYC    C28 5799   5.231   1.654   8.455
   44MYC    H50 5800   5.225   1.547   8.433
   44MYC    H51 5801   5.128   1.691   8.464
   44MYC    C29 5802   5.299   1.727   8.337
   44MYC    H52 5803   5.313   1.832   8.363
   44MYC    H53 5804   5.398   1.683   8.320
   44MYC    C30 5805   5.214   1.717   8.209
   44MYC    H54 5806   5.183   1.613   8.194
   44MYC    H55 5807   5.123   1.776   8.223
   44MYC    C31 5808   5.288   1.765   8.083
   44MYC    H56 5809   5.323   1.868   8.097
   44MYC    H57 5810   5.376   1.702   8.067
   44MYC    C32 5811   5.197   1.758   7.959
   44MYC    H58 5812   5.153   1.658   7.952
   44MYC    H59 5813   5.113   1.828   7.972
   44MYC    C33 5814   5.270   1.790   7.827
   44MYC    H60 5815   5.312   1.891   7.832
   44MYC    H61 5816   5.353   1.720   7.814
   44MYC    C34 5817   5.175   1.779   7.705
   44MYC    H62 5818   5.132   1.678   7.703
   44MYC    H63 5819   5.092   1.849   7.718
   44MYC    C35 5820   5.245   1.806   7.571
   44MYC    H64 5821   5.288   1.907   7.572
   44MYC    H65 5822   5.328   1.735   7.558
   44MYC    C36 5823   5.147   1.794   7.452
   44MYC    H66 5824   5.097   1.697   7.456
   44MYC    H67 5825   5.069   1.871   7.462
   44MYC    C37 5826   5.216   1.808   7.315
   44MYC    H68 5827   5.272   1.902   7.311
   44MYC    H69 5828   5.288   1.726   7.302
   44MYC    C38 5829   5.115   1.805   7.198
   44MYC    H70 5830   5.047   1.720   7.211
   44MYC    H71 5831   5.053   1.896   7.203
   44MYC    C39 5832   5.181   1.796   7.059
   44MYC    H72 5833   5.255   1.876   7.047
   44MYC    H73 5834   5.235   1.701   7.052
   44MYC    C40 5835   5.078   1.804   6.945
   44MYC    H74 5836   4.998   1.730   6.962
   44MYC    H75 5837   5.030   1.903   6.946
   44MYC    C41 5838   5.138   1.779   6.805
   44MYC    H76 5839   5.217   1.853   6.786
   44MYC    H77 5840   5.186   1.681   6.803
   44MYC    C42 5841   5.033   1.786   6.692
   44MYC    H78 5842   4.954   1.712   6.711
   44MYC    H79 5843   4.985   1.885   6.694
   44MYC    C43 5844   5.092   1.761   6.552
   44MYC    H80 5845   5.013   1.765   6.476
   44MYC    H81 5846   5.139   1.662   6.547
   44MYC    H82 5847   5.167   1.837   6.527
   45MYC   HH15 5848   6.076   1.320   6.581
   45MYC    C80 5849   6.012   1.314   6.670
   45MYC   H100 5850   5.953   1.406   6.676
   45MYC   H101 5851   5.943   1.230   6.656
   45MYC    C79 5852   6.097   1.294   6.796
   45MYC   H102 5853   6.170   1.375   6.804
   45MYC   H103 5854   6.153   1.200   6.787
   45MYC    C78 5855   6.013   1.289   6.925
   45MYC   HH14 5856   5.941   1.207   6.918
   45MYC   H104 5857   5.955   1.382   6.934
   45MYC    C77 5858   6.096   1.269   7.053
   45MYC   H106 5859   6.173   1.347   7.060
   45MYC   H107 5860   6.148   1.172   7.047
   45MYC    C76 5861   6.009   1.272   7.180
   45MYC   H108 5862   5.927   1.200   7.170
   45MYC   H109 5863   5.964   1.372   7.190
   45MYC    C75 5864   6.088   1.239   7.308
   45MYC   H110 5865   6.178   1.303   7.313
   45MYC   H111 5866   6.123   1.136   7.303
   45MYC    C74 5867   6.005   1.261   7.435
   45MYC   H112 5868   5.914   1.200   7.431
   45MYC   H113 5869   5.973   1.365   7.440
   45MYC    C73 5870   6.082   1.225   7.563
   45MYC   HH13 5871   6.179   1.276   7.562
   45MYC   H114 5872   6.102   1.117   7.565
   45MYC    C72 5873   6.007   1.265   7.691
   45MYC   H115 5874   5.909   1.215   7.695
   45MYC   H116 5875   5.987   1.373   7.689
   45MYC    C71 5876   6.086   1.231   7.819
   45MYC   H117 5877   6.188   1.270   7.809
   45MYC   H118 5878   6.094   1.122   7.829
   45MYC    C70 5879   6.023   1.291   7.946
   45MYC   H119 5880   5.920   1.253   7.957
   45MYC   H120 5881   6.017   1.400   7.935
   45MYC    C69 5882   6.104   1.256   8.071
   45MYC   H121 5883   6.210   1.279   8.053
   45MYC   H122 5884   6.098   1.148   8.089
   45MYC    C68 5885   6.057   1.332   8.197
   45MYC   HH12 5886   5.951   1.311   8.216
   45MYC   H123 5887   6.067   1.440   8.180
   45MYC    C67 5888   6.140   1.291   8.320
   45MYC   H124 5889   6.247   1.306   8.297
   45MYC   H125 5890   6.127   1.184   8.338
   45MYC    C66 5891   6.105   1.369   8.448
   45MYC   H126 5892   5.999   1.357   8.470
   45MYC   H127 5893   6.124   1.476   8.433
   45MYC    C65 5894   6.189   1.317   8.565
   45MYC   H128 5895   6.296   1.327   8.540
   45MYC   H129 5896   6.170   1.210   8.577
   45MYC    C64 5897   6.164   1.387   8.700
   45MYC   H130 5898   6.057   1.381   8.726
   45MYC   H131 5899   6.190   1.493   8.693
   45MYC    C63 5900   6.248   1.319   8.809
   45MYC   HH11 5901   6.354   1.324   8.780
   45MYC   H132 5902   6.222   1.212   8.812
   45MYC    C62 5903   6.234   1.377   8.950
   45MYC   H133 5904   6.128   1.382   8.979
   45MYC   H134 5905   6.273   1.479   8.952
   45MYC    C61 5906   6.311   1.288   9.050
   45MYC   H135 5907   6.407   1.260   9.005
   45MYC   H136 5908   6.255   1.195   9.065
   45MYC    C60 5909   6.337   1.354   9.184
   45MYC   H137 5910   6.246   1.377   9.238
   45MYC    C58 5911   0.006   1.306   9.264
   45MYC   H138 5912   0.071   1.234   9.215
   45MYC    C59 5913   0.004   1.446   9.205
   45MYC   H139 5914   6.438   1.531   9.271
   45MYC   H140 5915   0.069   1.466   9.121
   45MYC    C57 5916   6.437   1.272   9.411
   45MYC   HH10 5917   0.075   1.217   9.445
   45MYC   H141 5918   6.353   1.203   9.420
   45MYC    C56 5919   6.415   1.394   9.505
   45MYC   H142 5920   6.325   1.449   9.475
   45MYC   H143 5921   0.050   1.463   9.494
   45MYC    C55 5922   6.404   1.355   9.653
   45MYC   H144 5923   6.416   1.446   9.713
   45MYC   H145 5924   0.038   1.289   9.680
   45MYC    C54 5925   6.271   1.285   9.691
   45MYC   H146 5926   6.252   1.202   9.622
   45MYC   H147 5927   6.188   1.355   9.679
   45MYC    C53 5928   6.271   1.229   9.834
   45MYC   H148 5929   6.348   1.152   9.842
   45MYC   H149 5930   6.175   1.180   9.850
   45MYC    C52 5931   6.290   1.333   9.946
   45MYC    H99 5932   6.209   1.406   9.942
   45MYC   H150 5933   6.384   1.388   9.932
   45MYC    C51 5934   6.294   1.265  10.084
   45MYC    H97 5935   6.386   1.206  10.093
   45MYC    H98 5936   6.210   1.195  10.092
   45MYC    C50 5937   6.286   1.365  10.201
   45MYC    H95 5938   6.194   1.423  10.190
   45MYC    H96 5939   6.370   1.435  10.195
   45MYC    C49 5940   6.287   1.294  10.337
   45MYC    H93 5941   6.389   1.262  10.362
   45MYC    H94 5942   6.226   1.203  10.332
   45MYC    C48 5943   6.231   1.383  10.449
   45MYC    H91 5944   6.128   1.410  10.423
   45MYC    H92 5945   6.289   1.476  10.455
   45MYC    C47 5946   6.232   1.314  10.588
   45MYC    H89 5947   6.334   1.315  10.628
   45MYC    H90 5948   6.202   1.210  10.578
   45MYC    C46 5949   6.136   1.384  10.685
   45MYC    H87 5950   6.034   1.377  10.644
   45MYC    H88 5951   6.161   1.491  10.688
   45MYC    C45 5952   6.137   1.325  10.827
   45MYC    H85 5953   6.233   1.349  10.876
   45MYC    H86 5954   6.131   1.216  10.821
   45MYC    C44 5955   6.020   1.376  10.914
   45MYC    H83 5956   6.022   1.322  11.010
   45MYC    H84 5957   5.926   1.347  10.866
   45MYC    C18 5958   6.019   1.526  10.939
   45MYC    H31 5959   6.034   1.585  10.849
   45MYC    C17 5960   5.921   1.584  11.038
   45MYC    H30 5961   5.860   1.512  11.091
   45MYC    C19 5962   6.069   1.585  11.069
   45MYC    H32 5963   6.105   1.517  11.146
   45MYC    H33 5964   6.122   1.680  11.064
   45MYC    C16 5965   5.846   1.714  11.011
   45MYC    H28 5966   5.915   1.793  10.978
   45MYC    H29 5967   5.804   1.749  11.107
   45MYC    C15 5968   5.729   1.702  10.910
   45MYC    H26 5969   5.654   1.777  10.936
   45MYC    H27 5970   5.681   1.604  10.921
   45MYC    C14 5971   5.771   1.724  10.762
   45MYC    H24 5972   5.834   1.641  10.727
   45MYC    H25 5973   5.832   1.815  10.757
   45MYC    C13 5974   5.651   1.742  10.666
   45MYC    H22 5975   5.687   1.788  10.573
   45MYC    H23 5976   5.581   1.814  10.711
   45MYC    C12 5977   5.574   1.613  10.631
   45MYC    H20 5978   5.556   1.556  10.722
   45MYC    H21 5979   5.637   1.551  10.566
   45MYC    C11 5980   5.439   1.643  10.562
   45MYC    H18 5981   5.456   1.705  10.473
   45MYC    H19 5982   5.379   1.704  10.630
   45MYC    C10 5983   5.355   1.519  10.522
   45MYC    H16 5984   5.257   1.554  10.486
   45MYC    H17 5985   5.333   1.459  10.611
   45MYC     C9 5986   5.416   1.428  10.413
   45MYC    H14 5987   5.346   1.344  10.395
   45MYC    H15 5988   5.510   1.384  10.448
   45MYC     C8 5989   5.439   1.503  10.281
   45MYC    H12 5990   5.526   1.569  10.292
   45MYC    H13 5991   5.352   1.568  10.262
   45MYC     C7 5992   5.460   1.414  10.158
   45MYC    H10 5993   5.373   1.348  10.145
   45MYC    H11 5994   5.548   1.349  10.173
   45MYC     C6 5995   5.479   1.501  10.033
   45MYC     H8 5996   5.572   1.558  10.045
   45MYC     H9 5997   5.398   1.574  10.028
   45MYC     C5 5998   5.483   1.423   9.901
   45MYC     H6 5999   5.386   1.375   9.883
   45MYC     H7 6000   5.559   1.344   9.905
   45MYC     C4 6001   5.516   1.520   9.786
   45MYC     H4 6002   5.616   1.560   9.804
   45MYC     H5 6003   5.446   1.605   9.789
   45MYC     C2 6004   5.512   1.456   9.646
   45MYC     H2 6005   5.563   1.359   9.650
   45MYC     O3 6006   5.376   1.437   9.606
   45MYC     H3 6007   5.335   1.376   9.670
   45MYC     C1 6008   5.588   1.543   9.541
   45MYC     H1 6009   5.693   1.541   9.573
   45MYC    C81 6010   5.543   1.691   9.543
   45MYC    O82 6011   5.440   1.733   9.494
   45MYC    O83 6012   5.623   1.772   9.615
   45MYC   H105 6013   5.579   1.859   9.615
   45MYC    C20 6014   5.579   1.483   9.400
   45MYC    H34 6015   5.602   1.376   9.405
   45MYC    H35 6016   5.476   1.492   9.363
   45MYC    C21 6017   5.674   1.549   9.299
   45MYC    H36 6018   5.661   1.658   9.300
   45MYC    H37 6019   5.778   1.528   9.327
   45MYC    C22 6020   5.647   1.496   9.158
   45MYC    H38 6021   5.654   1.387   9.158
   45MYC    H39 6022   5.544   1.522   9.131
   45MYC    C23 6023   5.742   1.553   9.052
   45MYC    H40 6024   5.738   1.662   9.055
   45MYC    H41 6025   5.845   1.522   9.073
   45MYC    C24 6026   5.700   1.504   8.913
   45MYC    H42 6027   5.712   1.395   8.908
   45MYC    H43 6028   5.594   1.525   8.899
   45MYC    C25 6029   5.779   1.569   8.798
   45MYC    H44 6030   5.773   1.678   8.808
   45MYC    H45 6031   5.884   1.540   8.804
   45MYC    C26 6032   5.720   1.527   8.663
   45MYC    H46 6033   5.731   1.419   8.651
   45MYC    H47 6034   5.612   1.548   8.663
   45MYC    C27 6035   5.784   1.599   8.544
   45MYC    H48 6036   5.780   1.707   8.560
   45MYC    H49 6037   5.889   1.570   8.536
   45MYC    C28 6038   5.709   1.565   8.414
   45MYC    H50 6039   5.707   1.456   8.401
   45MYC    H51 6040   5.606   1.599   8.423
   45MYC    C29 6041   5.773   1.628   8.290
   45MYC    H52 6042   5.782   1.736   8.303
   45MYC    H53 6043   5.874   1.588   8.277
   45MYC    C30 6044   5.689   1.598   8.164
   45MYC    H54 6045   5.671   1.490   8.158
   45MYC    H55 6046   5.591   1.647   8.174
   45MYC    C31 6047   5.756   1.645   8.035
   45MYC    H56 6048   5.775   1.753   8.040
   45MYC    H57 6049   5.854   1.596   8.026
   45MYC    C32 6050   5.671   1.613   7.911
   45MYC    H58 6051   5.646   1.506   7.911
   45MYC    H59 6052   5.577   1.668   7.916
   45MYC    C33 6053   5.744   1.648   7.781
   45MYC    H60 6054   5.767   1.755   7.780
   45MYC    H61 6055   5.840   1.594   7.778
   45MYC    C34 6056   5.664   1.612   7.655
   45MYC    H62 6057   5.637   1.506   7.656
   45MYC    H63 6058   5.570   1.669   7.653
   45MYC    C35 6059   5.745   1.642   7.528
   45MYC    H64 6060   5.777   1.747   7.531
   45MYC    H65 6061   5.837   1.581   7.530
   45MYC    C36 6062   5.670   1.616   7.396
   45MYC    H66 6063   5.641   1.511   7.391
   45MYC    H67 6064   5.579   1.676   7.393
   45MYC    C37 6065   5.760   1.651   7.276
   45MYC    H68 6066   5.796   1.754   7.288
   45MYC    H69 6067   5.848   1.586   7.278
   45MYC    C38 6068   5.691   1.638   7.139
   45MYC    H70 6069   5.659   1.535   7.123
   45MYC    H71 6070   5.602   1.702   7.136
   45MYC    C39 6071   5.788   1.680   7.027
   45MYC    H72 6072   5.820   1.783   7.044
   45MYC    H73 6073   5.878   1.617   7.032
   45MYC    C40 6074   5.729   1.670   6.885
   45MYC    H74 6075   5.699   1.566   6.865
   45MYC    H75 6076   5.638   1.732   6.878
   45MYC    C41 6077   5.830   1.716   6.778
   45MYC    H76 6078   5.853   1.822   6.795
   45MYC    H77 6079   5.924   1.660   6.792
   45MYC    C42 6080   5.782   1.697   6.633
   45MYC    H78 6081   5.760   1.591   6.616
   45MYC    H79 6082   5.688   1.752   6.619
   45MYC    C43 6083   5.885   1.745   6.530
   45MYC    H80 6084   5.850   1.724   6.428
   45MYC    H81 6085   5.981   1.695   6.545
   45MYC    H82 6086   5.901   1.853   6.539
   46MYC   HH15 6087   0.602   2.524   6.668
   46MYC    C80 6088   0.570   2.454   6.745
   46MYC   H100 6089   0.462   2.438   6.735
   46MYC   H101 6090   0.621   2.358   6.729
   46MYC    C79 6091   0.604   2.509   6.885
   46MYC   H102 6092   0.560   2.609   6.895
   46MYC   H103 6093   0.713   2.521   6.893
   46MYC    C78 6094   0.553   2.420   7.000
   46MYC   HH14 6095   0.596   2.319   6.990
   46MYC   H104 6096   0.444   2.410   6.993
   46MYC    C77 6097   0.590   2.477   7.138
   46MYC   H106 6098   0.562   2.583   7.141
   46MYC   H107 6099   0.699   2.473   7.151
   46MYC    C76 6100   0.522   2.405   7.256
   46MYC   H108 6101   0.552   2.300   7.258
   46MYC   H109 6102   0.413   2.408   7.243
   46MYC    C75 6103   0.558   2.472   7.390
   46MYC   H110 6104   0.534   2.579   7.384
   46MYC   H111 6105   0.667   2.465   7.405
   46MYC    C74 6106   0.487   2.412   7.512
   46MYC   H112 6107   0.522   2.309   7.529
   46MYC   H113 6108   0.379   2.408   7.495
   46MYC    C73 6109   0.515   2.498   7.637
   46MYC   HH13 6110   0.467   2.596   7.625
   46MYC   H114 6111   0.623   2.516   7.645
   46MYC    C72 6112   0.468   2.435   7.769
   46MYC   H115 6113   0.525   2.342   7.787
   46MYC   H116 6114   0.362   2.407   7.761
   46MYC    C71 6115   0.486   2.532   7.887
   46MYC   H117 6116   0.401   2.601   7.890
   46MYC   H118 6117   0.576   2.593   7.871
   46MYC    C70 6118   0.501   2.461   8.022
   46MYC   H119 6119   0.595   2.405   8.024
   46MYC   H120 6120   0.420   2.388   8.035
   46MYC    C69 6121   0.497   2.560   8.140
   46MYC   H121 6122   0.396   2.600   8.147
   46MYC   H122 6123   0.564   2.644   8.119
   46MYC    C68 6124   0.538   2.496   8.273
   46MYC   HH12 6125   0.646   2.479   8.274
   46MYC   H123 6126   0.490   2.398   8.285
   46MYC    C67 6127   0.498   2.585   8.392
   46MYC   H124 6128   0.389   2.591   8.397
   46MYC   H125 6129   0.535   2.687   8.374
   46MYC    C66 6130   0.553   2.535   8.526
   46MYC   H126 6131   0.662   2.536   8.523
   46MYC   H127 6132   0.521   2.432   8.543
   46MYC    C65 6133   0.505   2.624   8.641
   46MYC   H128 6134   0.395   2.619   8.648
   46MYC   H129 6135   0.532   2.728   8.620
   46MYC    C64 6136   0.565   2.583   8.776
   46MYC   H130 6137   0.674   2.577   8.767
   46MYC   H131 6138   0.529   2.483   8.804
   46MYC    C63 6139   0.530   2.684   8.886
   46MYC   HH11 6140   0.421   2.693   8.894
   46MYC   H132 6141   0.569   2.782   8.858
   46MYC    C62 6142   0.587   2.643   9.022
   46MYC   H133 6143   0.692   2.612   9.012
   46MYC   H134 6144   0.531   2.556   9.060
   46MYC    C61 6145   0.580   2.758   9.124
   46MYC   H135 6146   0.481   2.804   9.119
   46MYC   H136 6147   0.653   2.835   9.096
   46MYC    C60 6148   0.608   2.709   9.264
   46MYC   H137 6149   0.703   2.659   9.272
   46MYC    C58 6150   0.563   2.791   9.383
   46MYC   H138 6151   0.506   2.881   9.363
   46MYC    C59 6152   0.496   2.659   9.352
   46MYC   H139 6153   0.516   2.575   9.417
   46MYC   H140 6154   0.394   2.662   9.313
   46MYC    C57 6155   0.655   2.806   9.503
   46MYC   HH10 6156   0.705   2.903   9.498
   46MYC   H141 6157   0.733   2.729   9.501
   46MYC    C56 6158   0.576   2.793   9.634
   46MYC   H142 6159   0.530   2.694   9.639
   46MYC   H143 6160   0.494   2.866   9.634
   46MYC    C55 6161   0.664   2.816   9.757
   46MYC   H144 6162   0.693   2.921   9.762
   46MYC   H145 6163   0.756   2.757   9.748
   46MYC    C54 6164   0.592   2.775   9.886
   46MYC   H146 6165   0.576   2.666   9.884
   46MYC   H147 6166   0.493   2.821   9.890
   46MYC    C53 6167   0.672   2.814  10.011
   46MYC   H148 6168   0.672   2.923  10.022
   46MYC   H149 6169   0.776   2.781   9.999
   46MYC    C52 6170   0.613   2.750  10.138
   46MYC    H99 6171   0.608   2.641  10.122
   46MYC   H150 6172   0.511   2.785  10.153
   46MYC    C51 6173   0.698   2.778  10.263
   46MYC    H97 6174   0.700   2.886  10.283
   46MYC    H98 6175   0.801   2.746  10.244
   46MYC    C50 6176   0.643   2.702  10.384
   46MYC    H95 6177   0.623   2.598  10.355
   46MYC    H96 6178   0.546   2.746  10.412
   46MYC    C49 6179   0.737   2.703  10.505
   46MYC    H93 6180   0.745   2.804  10.546
   46MYC    H94 6181   0.837   2.672  10.474
   46MYC    C48 6182   0.685   2.605  10.612
   46MYC    H91 6183   0.680   2.505  10.569
   46MYC    H92 6184   0.582   2.632  10.639
   46MYC    C47 6185   0.771   2.600  10.739
   46MYC    H89 6186   0.774   2.699  10.787
   46MYC    H90 6187   0.874   2.574  10.711
   46MYC    C46 6188   0.716   2.495  10.837
   46MYC    H87 6189   0.703   2.400  10.785
   46MYC    H88 6190   0.617   2.527  10.872
   46MYC    C45 6191   0.807   2.473  10.958
   46MYC    H85 6192   0.810   2.565  11.019
   46MYC    H86 6193   0.909   2.455  10.922
   46MYC    C44 6194   0.766   2.354  11.046
   46MYC    H83 6195   0.840   2.344  11.126
   46MYC    H84 6196   0.773   2.262  10.987
   46MYC    C18 6197   0.626   2.366  11.107
   46MYC    H31 6198   0.598   2.468  11.130
   46MYC    C17 6199   0.515   2.271  11.067
   46MYC    H30 6200   0.542   2.199  10.991
   46MYC    C19 6201   0.580   2.259  11.203
   46MYC    H32 6202   0.646   2.175  11.220
   46MYC    H33 6203   0.524   2.291  11.290
   46MYC    C16 6204   0.368   2.311  11.058
   46MYC    H28 6205   0.357   2.402  10.997
   46MYC    H29 6206   0.332   2.338  11.158
   46MYC    C15 6207   0.277   2.199  11.003
   46MYC    H26 6208   0.177   2.211  11.048
   46MYC    H27 6209   0.315   2.101  11.035
   46MYC    C14 6210   0.259   2.203  10.850
   46MYC    H24 6211   0.357   2.218  10.802
   46MYC    H25 6212   0.198   2.290  10.828
   46MYC    C13 6213   0.189   2.081  10.787
   46MYC    H22 6214   0.093   2.064  10.836
   46MYC    H23 6215   0.250   1.992  10.804
   46MYC    C12 6216   0.165   2.098  10.634
   46MYC    H20 6217   0.138   2.001  10.592
   46MYC    H21 6218   0.259   2.127  10.586
   46MYC    C11 6219   0.054   2.200  10.597
   46MYC    H18 6220   0.082   2.300  10.631
   46MYC    H19 6221   6.413   2.172  10.652
   46MYC    C10 6222   0.021   2.205  10.447
   46MYC    H16 6223   6.373   2.255  10.434
   46MYC    H17 6224   0.008   2.103  10.408
   46MYC     C9 6225   0.125   2.280  10.361
   46MYC    H14 6226   0.225   2.237  10.377
   46MYC    H15 6227   0.129   2.385  10.394
   46MYC     C8 6228   0.093   2.276  10.210
   46MYC    H12 6229   6.440   2.310  10.193
   46MYC    H13 6230   0.099   2.172  10.175
   46MYC     C7 6231   0.189   2.364  10.126
   46MYC    H10 6232   0.292   2.332  10.144
   46MYC    H11 6233   0.180   2.468  10.159
   46MYC     C6 6234   0.160   2.357   9.975
   46MYC     H8 6235   0.057   2.390   9.956
   46MYC     H9 6236   0.166   2.252   9.942
   46MYC     C5 6237   0.258   2.443   9.892
   46MYC     H6 6238   0.361   2.407   9.906
   46MYC     H7 6239   0.256   2.545   9.933
   46MYC     C4 6240   0.226   2.452   9.741
   46MYC     H4 6241   0.286   2.534   9.700
   46MYC     H5 6242   0.122   2.486   9.730
   46MYC     C2 6243   0.251   2.326   9.652
   46MYC     H2 6244   0.322   2.360   9.575
   46MYC     O3 6245   0.314   2.220   9.724
   46MYC     H3 6246   0.246   2.179   9.781
   46MYC     C1 6247   0.124   2.274   9.579
   46MYC     H1 6248   0.078   2.362   9.532
   46MYC    C81 6249   0.019   2.216   9.676
   46MYC    O82 6250   0.034   2.112   9.738
   46MYC    O83 6251   6.357   2.291   9.689
   46MYC   H105 6252   6.301   2.243   9.752
   46MYC    C20 6253   0.156   2.174   9.464
   46MYC    H34 6254   0.216   2.091   9.502
   46MYC    H35 6255   0.061   2.131   9.428
   46MYC    C21 6256   0.227   2.241   9.344
   46MYC    H36 6257   0.167   2.327   9.312
   46MYC    H37 6258   0.325   2.280   9.374
   46MYC    C22 6259   0.248   2.147   9.224
   46MYC    H38 6260   0.324   2.072   9.248
   46MYC    H39 6261   0.154   2.093   9.204
   46MYC    C23 6262   0.289   2.225   9.097
   46MYC    H40 6263   0.216   2.305   9.081
   46MYC    H41 6264   0.386   2.273   9.112
   46MYC    C24 6265   0.294   2.136   8.972
   46MYC    H42 6266   0.380   2.068   8.977
   46MYC    H43 6267   0.204   2.073   8.969
   46MYC    C25 6268   0.300   2.218   8.841
   46MYC    H44 6269   0.221   2.294   8.843
   46MYC    H45 6270   0.396   2.270   8.834
   46MYC    C26 6271   0.278   2.129   8.717
   46MYC    H46 6272   0.361   2.057   8.710
   46MYC    H47 6273   0.186   2.071   8.730
   46MYC    C27 6274   0.269   2.209   8.586
   46MYC    H48 6275   0.194   2.288   8.596
   46MYC    H49 6276   0.366   2.257   8.567
   46MYC    C28 6277   0.231   2.119   8.467
   46MYC    H50 6278   0.300   2.033   8.464
   46MYC    H51 6279   0.131   2.079   8.483
   46MYC    C29 6280   0.237   2.193   8.333
   46MYC    H52 6281   0.172   2.281   8.337
   46MYC    H53 6282   0.339   2.228   8.316
   46MYC    C30 6283   0.193   2.104   8.215
   46MYC    H54 6284   0.248   2.009   8.218
   46MYC    H55 6285   0.086   2.081   8.224
   46MYC    C31 6286   0.219   2.172   8.080
   46MYC    H56 6287   0.177   2.273   8.082
   46MYC    H57 6288   0.328   2.182   8.066
   46MYC    C32 6289   0.161   2.097   7.959
   46MYC    H58 6290   0.203   1.995   7.954
   46MYC    H59 6291   0.052   2.086   7.972
   46MYC    C33 6292   0.190   2.171   7.828
   46MYC    H60 6293   0.168   2.278   7.842
   46MYC    H61 6294   0.297   2.163   7.805
   46MYC    C34 6295   0.109   2.121   7.707
   46MYC    H62 6296   0.127   2.014   7.691
   46MYC    H63 6297   0.002   2.134   7.729
   46MYC    C35 6298   0.145   2.200   7.580
   46MYC    H64 6299   0.145   2.307   7.602
   46MYC    H65 6300   0.247   2.174   7.550
   46MYC    C36 6301   0.050   2.175   7.461
   46MYC    H66 6302   0.047   2.068   7.438
   46MYC    H67 6303   6.398   2.206   7.489
   46MYC    C37 6304   0.095   2.254   7.337
   46MYC    H68 6305   0.103   2.361   7.362
   46MYC    H69 6306   0.196   2.221   7.309
   46MYC    C38 6307   0.003   2.238   7.214
   46MYC    H70 6308   6.441   2.131   7.191
   46MYC    H71 6309   6.353   2.277   7.238
   46MYC    C39 6310   0.060   2.312   7.091
   46MYC    H72 6311   0.062   2.419   7.111
   46MYC    H73 6312   0.164   2.280   7.076
   46MYC    C40 6313   6.431   2.286   6.961
   46MYC    H74 6314   6.424   2.178   6.944
   46MYC    H75 6315   6.328   2.323   6.973
   46MYC    C41 6316   0.047   2.353   6.839
   46MYC    H76 6317   0.045   2.461   6.852
   46MYC    H77 6318   0.153   2.323   6.835
   46MYC    C42 6319   6.429   2.316   6.706
   46MYC    H78 6320   6.432   2.207   6.692
   46MYC    H79 6321   6.323   2.345   6.709
   46MYC    C43 6322   0.046   2.383   6.584
   46MYC    H80 6323   6.448   2.350   6.492
   46MYC    H81 6324   0.153   2.356   6.580
   46MYC    H82 6325   0.039   2.492   6.590
   47MYC   HH15 6326   1.559   2.415   6.698
   47MYC    C80 6327   1.479   2.441   6.769
   47MYC   H100 6328   1.458   2.548   6.759
   47MYC   H101 6329   1.389   2.384   6.741
   47MYC    C79 6330   1.522   2.406   6.913
   47MYC   H102 6331   1.613   2.462   6.937
   47MYC   H103 6332   1.548   2.300   6.918
   47MYC    C78 6333   1.414   2.438   7.018
   47MYC   HH14 6334   1.320   2.388   6.990
   47MYC   H104 6335   1.394   2.546   7.017
   47MYC    C77 6336   1.454   2.394   7.160
   47MYC   H106 6337   1.550   2.440   7.187
   47MYC   H107 6338   1.469   2.286   7.161
   47MYC    C76 6339   1.349   2.432   7.267
   47MYC   H108 6340   1.251   2.390   7.238
   47MYC   H109 6341   1.338   2.541   7.269
   47MYC    C75 6342   1.387   2.381   7.407
   47MYC   H110 6343   1.490   2.411   7.430
   47MYC   H111 6344   1.384   2.271   7.407
   47MYC    C74 6345   1.293   2.434   7.518
   47MYC   H112 6346   1.190   2.403   7.497
   47MYC   H113 6347   1.295   2.544   7.516
   47MYC    C73 6348   1.335   2.385   7.658
   47MYC   HH13 6349   1.440   2.412   7.675
   47MYC   H114 6350   1.329   2.276   7.661
   47MYC    C72 6351   1.248   2.443   7.771
   47MYC   H115 6352   1.144   2.408   7.759
   47MYC   H116 6353   1.246   2.553   7.763
   47MYC    C71 6354   1.300   2.403   7.910
   47MYC   H117 6355   1.403   2.440   7.921
   47MYC   H118 6356   1.303   2.294   7.917
   47MYC    C70 6357   1.215   2.459   8.025
   47MYC   H119 6358   1.112   2.420   8.017
   47MYC   H120 6359   1.209   2.569   8.016
   47MYC    C69 6360   1.273   2.422   8.162
   47MYC   H121 6361   1.376   2.459   8.169
   47MYC   H122 6362   1.278   2.313   8.171
   47MYC    C68 6363   1.192   2.478   8.280
   47MYC   HH12 6364   1.090   2.436   8.278
   47MYC   H123 6365   1.182   2.587   8.269
   47MYC    C67 6366   1.258   2.447   8.416
   47MYC   H124 6367   1.357   2.495   8.419
   47MYC   H125 6368   1.274   2.339   8.425
   47MYC    C66 6369   1.174   2.496   8.535
   47MYC   H126 6370   1.080   2.440   8.539
   47MYC   H127 6371   1.148   2.602   8.520
   47MYC    C65 6372   1.249   2.483   8.669
   47MYC   H128 6373   1.342   2.541   8.664
   47MYC   H129 6374   1.277   2.378   8.686
   47MYC    C64 6375   1.164   2.532   8.787
   47MYC   H130 6376   1.077   2.466   8.800
   47MYC   H131 6377   1.125   2.632   8.763
   47MYC    C63 6378   1.242   2.540   8.920
   47MYC   HH11 6379   1.333   2.599   8.904
   47MYC   H132 6380   1.273   2.440   8.951
   47MYC    C62 6381   1.157   2.606   9.030
   47MYC   H133 6382   1.070   2.543   9.052
   47MYC   H134 6383   1.118   2.701   8.992
   47MYC    C61 6384   1.234   2.635   9.160
   47MYC   H135 6385   1.170   2.698   9.223
   47MYC   H136 6386   1.322   2.696   9.136
   47MYC    C60 6387   1.280   2.513   9.239
   47MYC   H137 6388   1.380   2.480   9.211
   47MYC    C58 6389   1.240   2.504   9.384
   47MYC   H138 6390   1.171   2.580   9.419
   47MYC    C59 6391   1.185   2.406   9.285
   47MYC   H139 6392   1.222   2.304   9.289
   47MYC   H140 6393   1.082   2.416   9.255
   47MYC    C57 6394   1.340   2.463   9.491
   47MYC   HH10 6395   1.422   2.536   9.493
   47MYC   H141 6396   1.383   2.366   9.468
   47MYC    C56 6397   1.274   2.457   9.630
   47MYC   H142 6398   1.196   2.380   9.630
   47MYC   H143 6399   1.225   2.553   9.650
   47MYC    C55 6400   1.375   2.429   9.742
   47MYC   H144 6401   1.457   2.502   9.736
   47MYC   H145 6402   1.420   2.330   9.727
   47MYC    C54 6403   1.310   2.436   9.881
   47MYC   H146 6404   1.238   2.354   9.890
   47MYC   H147 6405   1.255   2.530   9.892
   47MYC    C53 6406   1.414   2.426   9.994
   47MYC   H148 6407   1.483   2.511   9.988
   47MYC   H149 6408   1.474   2.335   9.980
   47MYC    C52 6409   1.350   2.423  10.134
   47MYC    H99 6410   1.276   2.342  10.137
   47MYC   H150 6411   1.295   2.517  10.152
   47MYC    C51 6412   1.454   2.402  10.245
   47MYC    H97 6413   1.523   2.487  10.248
   47MYC    H98 6414   1.514   2.313  10.219
   47MYC    C50 6415   1.392   2.381  10.385
   47MYC    H95 6416   1.308   2.311  10.377
   47MYC    H96 6417   1.352   2.476  10.422
   47MYC    C49 6418   1.494   2.323  10.484
   47MYC    H93 6419   1.580   2.390  10.492
   47MYC    H94 6420   1.532   2.228  10.443
   47MYC    C48 6421   1.437   2.296  10.625
   47MYC    H91 6422   1.340   2.245  10.616
   47MYC    H92 6423   1.420   2.391  10.676
   47MYC    C47 6424   1.532   2.207  10.708
   47MYC    H89 6425   1.632   2.252  10.709
   47MYC    H90 6426   1.542   2.111  10.656
   47MYC    C46 6427   1.486   2.179  10.853
   47MYC    H87 6428   1.537   2.088  10.886
   47MYC    H88 6429   1.378   2.158  10.854
   47MYC    C45 6430   1.517   2.292  10.952
   47MYC    H85 6431   1.454   2.380  10.931
   47MYC    H86 6432   1.621   2.324  10.937
   47MYC    C44 6433   1.501   2.249  11.100
   47MYC    H83 6434   1.581   2.298  11.157
   47MYC    H84 6435   1.522   2.142  11.110
   47MYC    C18 6436   1.368   2.283  11.166
   47MYC    H31 6437   1.321   2.373  11.126
   47MYC    C17 6438   1.276   2.178  11.227
   47MYC    H30 6439   1.308   2.074  11.221
   47MYC    C19 6440   1.359   2.266  11.316
   47MYC    H32 6441   1.440   2.216  11.368
   47MYC    H33 6442   1.309   2.344  11.372
   47MYC    C16 6443   1.124   2.193  11.235
   47MYC    H28 6444   1.095   2.296  11.213
   47MYC    H29 6445   1.093   2.175  11.338
   47MYC    C15 6446   1.045   2.098  11.144
   47MYC    H26 6447   0.939   2.108  11.167
   47MYC    H27 6448   1.074   1.995  11.169
   47MYC    C14 6449   1.066   2.120  10.993
   47MYC    H24 6450   1.173   2.121  10.969
   47MYC    H25 6451   1.027   2.219  10.965
   47MYC    C13 6452   0.995   2.012  10.910
   47MYC    H22 6453   0.889   2.010  10.937
   47MYC    H23 6454   1.036   1.913  10.937
   47MYC    C12 6455   1.010   2.032  10.758
   47MYC    H20 6456   1.115   2.024  10.730
   47MYC    H21 6457   0.978   2.133  10.732
   47MYC    C11 6458   0.928   1.930  10.675
   47MYC    H18 6459   0.821   1.951  10.689
   47MYC    H19 6460   0.945   1.829  10.714
   47MYC    C10 6461   0.959   1.931  10.524
   47MYC    H16 6462   0.882   1.873  10.473
   47MYC    H17 6463   1.054   1.881  10.506
   47MYC     C9 6464   0.963   2.071  10.460
   47MYC    H14 6465   1.060   2.118  10.484
   47MYC    H15 6466   0.885   2.134  10.505
   47MYC     C8 6467   0.942   2.069  10.308
   47MYC    H12 6468   0.840   2.034  10.287
   47MYC    H13 6469   1.010   1.996  10.262
   47MYC     C7 6470   0.964   2.207  10.244
   47MYC    H10 6471   1.071   2.229  10.242
   47MYC    H11 6472   0.917   2.283  10.308
   47MYC     C6 6473   0.906   2.219  10.102
   47MYC     H8 6474   0.799   2.193  10.106
   47MYC     H9 6475   0.954   2.145  10.037
   47MYC     C5 6476   0.921   2.361  10.044
   47MYC     H6 6477   1.027   2.382  10.024
   47MYC     H7 6478   0.890   2.433  10.121
   47MYC     C4 6479   0.836   2.389   9.918
   47MYC     H4 6480   0.821   2.497   9.911
   47MYC     H5 6481   0.736   2.345   9.933
   47MYC     C2 6482   0.895   2.340   9.783
   47MYC     H2 6483   0.993   2.388   9.771
   47MYC     O3 6484   0.914   2.198   9.783
   47MYC     H3 6485   0.981   2.177   9.851
   47MYC     C1 6486   0.808   2.384   9.662
   47MYC     H1 6487   0.814   2.493   9.660
   47MYC    C81 6488   0.658   2.350   9.679
   47MYC    O82 6489   0.571   2.435   9.690
   47MYC    O83 6490   0.627   2.218   9.677
   47MYC   H105 6491   0.531   2.212   9.691
   47MYC    C20 6492   0.862   2.333   9.525
   47MYC    H34 6493   0.972   2.334   9.526
   47MYC    H35 6494   0.833   2.229   9.510
   47MYC    C21 6495   0.814   2.421   9.408
   47MYC    H36 6496   0.712   2.454   9.425
   47MYC    H37 6497   0.876   2.511   9.404
   47MYC    C22 6498   0.821   2.351   9.270
   47MYC    H38 6499   0.843   2.426   9.194
   47MYC    H39 6500   0.903   2.278   9.269
   47MYC    C23 6501   0.690   2.279   9.232
   47MYC    H40 6502   0.659   2.212   9.314
   47MYC    H41 6503   0.610   2.353   9.221
   47MYC    C24 6504   0.700   2.196   9.103
   47MYC    H42 6505   0.765   2.110   9.120
   47MYC    H43 6506   0.600   2.156   9.080
   47MYC    C25 6507   0.753   2.274   8.980
   47MYC    H44 6508   0.700   2.369   8.971
   47MYC    H45 6509   0.859   2.296   8.994
   47MYC    C26 6510   0.735   2.195   8.849
   47MYC    H46 6511   0.775   2.094   8.862
   47MYC    H47 6512   0.627   2.184   8.829
   47MYC    C27 6513   0.803   2.259   8.727
   47MYC    H48 6514   0.774   2.364   8.718
   47MYC    H49 6515   0.912   2.255   8.739
   47MYC    C28 6516   0.763   2.184   8.598
   47MYC    H50 6517   0.783   2.077   8.611
   47MYC    H51 6518   0.655   2.195   8.584
   47MYC    C29 6519   0.835   2.232   8.470
   47MYC    H52 6520   0.819   2.340   8.457
   47MYC    H53 6521   0.942   2.215   8.480
   47MYC    C30 6522   0.780   2.157   8.348
   47MYC    H54 6523   0.792   2.049   8.364
   47MYC    H55 6524   0.672   2.176   8.341
   47MYC    C31 6525   0.846   2.195   8.214
   47MYC    H56 6526   0.839   2.303   8.200
   47MYC    H57 6527   0.952   2.168   8.217
   47MYC    C32 6528   0.777   2.123   8.097
   47MYC    H58 6529   0.781   2.015   8.113
   47MYC    H59 6530   0.670   2.151   8.096
   47MYC    C33 6531   0.838   2.155   7.960
   47MYC    H60 6532   0.840   2.264   7.945
   47MYC    H61 6533   0.942   2.120   7.957
   47MYC    C34 6534   0.759   2.090   7.844
   47MYC    H62 6535   0.753   1.982   7.861
   47MYC    H63 6536   0.656   2.128   7.846
   47MYC    C35 6537   0.821   2.118   7.706
   47MYC    H64 6538   0.828   2.226   7.691
   47MYC    H65 6539   0.923   2.078   7.705
   47MYC    C36 6540   0.740   2.056   7.591
   47MYC    H66 6541   0.731   1.947   7.608
   47MYC    H67 6542   0.638   2.097   7.591
   47MYC    C37 6543   0.806   2.080   7.454
   47MYC    H68 6544   0.813   2.188   7.436
   47MYC    H69 6545   0.908   2.041   7.456
   47MYC    C38 6546   0.729   2.015   7.337
   47MYC    H70 6547   0.715   1.908   7.358
   47MYC    H71 6548   0.629   2.059   7.329
   47MYC    C39 6549   0.804   2.030   7.202
   47MYC    H72 6550   0.814   2.136   7.178
   47MYC    H73 6551   0.905   1.989   7.213
   47MYC    C40 6552   0.733   1.957   7.085
   47MYC    H74 6553   0.719   1.852   7.112
   47MYC    H75 6554   0.634   2.001   7.071
   47MYC    C41 6555   0.813   1.967   6.954
   47MYC    H76 6556   0.823   2.072   6.925
   47MYC    H77 6557   0.914   1.928   6.970
   47MYC    C42 6558   0.748   1.889   6.837
   47MYC    H78 6559   0.739   1.783   6.865
   47MYC    H79 6560   0.646   1.926   6.821
   47MYC    C43 6561   0.827   1.900   6.706
   47MYC    H80 6562   0.776   1.844   6.626
   47MYC    H81 6563   0.928   1.859   6.717
   47MYC    H82 6564   0.835   2.004   6.674
   48MYC   HH15 6565   1.908   2.491   6.603
   48MYC    C80 6566   1.930   2.430   6.692
   48MYC   H100 6567   1.862   2.344   6.692
   48MYC   H101 6568   2.033   2.394   6.684
   48MYC    C79 6569   1.912   2.515   6.819
   48MYC   H102 6570   1.810   2.555   6.820
   48MYC   H103 6571   1.980   2.600   6.815
   48MYC    C78 6572   1.938   2.436   6.950
   48MYC   HH14 6573   2.043   2.404   6.952
   48MYC   H104 6574   1.876   2.345   6.950
   48MYC    C77 6575   1.906   2.519   7.075
   48MYC   H106 6576   1.800   2.546   7.074
   48MYC   H107 6577   1.962   2.613   7.072
   48MYC    C76 6578   1.938   2.447   7.208
   48MYC   H108 6579   2.047   2.440   7.219
   48MYC   H109 6580   1.899   2.345   7.204
   48MYC    C75 6581   1.877   2.520   7.330
   48MYC   H110 6582   1.768   2.515   7.323
   48MYC   H111 6583   1.905   2.626   7.326
   48MYC    C74 6584   1.922   2.461   7.465
   48MYC   H112 6585   2.029   2.480   7.479
   48MYC   H113 6586   1.909   2.352   7.463
   48MYC    C73 6587   1.843   2.520   7.584
   48MYC   HH13 6588   1.738   2.493   7.573
   48MYC   H114 6589   1.849   2.629   7.581
   48MYC    C72 6590   1.895   2.470   7.720
   48MYC   H115 6591   1.998   2.505   7.735
   48MYC   H116 6592   1.899   2.360   7.719
   48MYC    C71 6593   1.807   2.515   7.838
   48MYC   H117 6594   1.705   2.478   7.824
   48MYC   H118 6595   1.802   2.625   7.839
   48MYC    C70 6596   1.862   2.465   7.973
   48MYC   H119 6597   1.962   2.506   7.988
   48MYC   H120 6598   1.872   2.356   7.970
   48MYC    C69 6599   1.772   2.504   8.092
   48MYC   H121 6600   1.672   2.463   8.077
   48MYC   H122 6601   1.763   2.613   8.096
   48MYC    C68 6602   1.829   2.452   8.225
   48MYC   HH12 6603   1.932   2.489   8.237
   48MYC   H123 6604   1.835   2.343   8.222
   48MYC    C67 6605   1.746   2.495   8.347
   48MYC   H124 6606   1.643   2.459   8.336
   48MYC   H125 6607   1.742   2.605   8.351
   48MYC    C66 6608   1.805   2.441   8.478
   48MYC   H126 6609   1.910   2.472   8.487
   48MYC   H127 6610   1.804   2.331   8.475
   48MYC    C65 6611   1.728   2.489   8.602
   48MYC   H128 6612   1.622   2.462   8.592
   48MYC   H129 6613   1.733   2.599   8.608
   48MYC    C64 6614   1.784   2.428   8.732
   48MYC   H130 6615   1.888   2.460   8.746
   48MYC   H131 6616   1.785   2.319   8.721
   48MYC    C63 6617   1.701   2.465   8.856
   48MYC   HH11 6618   1.595   2.442   8.835
   48MYC   H132 6619   1.707   2.573   8.874
   48MYC    C62 6620   1.747   2.388   8.981
   48MYC   H133 6621   1.839   2.432   9.020
   48MYC   H134 6622   1.770   2.285   8.953
   48MYC    C61 6623   1.640   2.385   9.092
   48MYC   H135 6624   1.544   2.353   9.048
   48MYC   H136 6625   1.625   2.487   9.130
   48MYC    C60 6626   1.676   2.290   9.205
   48MYC   H137 6627   1.763   2.227   9.183
   48MYC    C58 6628   1.657   2.332   9.348
   48MYC   H138 6629   1.612   2.430   9.364
   48MYC    C59 6630   1.569   2.225   9.290
   48MYC   H139 6631   1.586   2.123   9.323
   48MYC   H140 6632   1.466   2.250   9.269
   48MYC    C57 6633   1.765   2.302   9.450
   48MYC   HH10 6634   1.845   2.375   9.439
   48MYC   H141 6635   1.809   2.203   9.431
   48MYC    C56 6636   1.713   2.306   9.595
   48MYC   H142 6637   1.646   2.221   9.614
   48MYC   H143 6638   1.654   2.397   9.610
   48MYC    C55 6639   1.829   2.305   9.696
   48MYC   H144 6640   1.897   2.387   9.671
   48MYC   H145 6641   1.886   2.212   9.685
   48MYC    C54 6642   1.785   2.319   9.844
   48MYC   H146 6643   1.747   2.223   9.880
   48MYC   H147 6644   1.704   2.392   9.852
   48MYC    C53 6645   1.904   2.365   9.930
   48MYC   H148 6646   1.932   2.467   9.899
   48MYC   H149 6647   1.990   2.301   9.907
   48MYC    C52 6648   1.880   2.364  10.082
   48MYC    H99 6649   1.857   2.262  10.113
   48MYC   H150 6650   1.794   2.427  10.108
   48MYC    C51 6651   2.006   2.414  10.156
   48MYC    H97 6652   2.020   2.521  10.138
   48MYC    H98 6653   2.094   2.364  10.111
   48MYC    C50 6654   2.011   2.385  10.307
   48MYC    H95 6655   2.116   2.389  10.338
   48MYC    H96 6656   1.979   2.282  10.326
   48MYC    C49 6657   1.930   2.481  10.397
   48MYC    H93 6658   1.824   2.454  10.395
   48MYC    H94 6659   1.939   2.584  10.360
   48MYC    C48 6660   1.985   2.475  10.541
   48MYC    H91 6661   2.084   2.524  10.542
   48MYC    H92 6662   2.002   2.371  10.568
   48MYC    C47 6663   1.900   2.542  10.650
   48MYC    H89 6664   1.800   2.496  10.652
   48MYC    H90 6665   1.888   2.649  10.626
   48MYC    C46 6666   1.966   2.526  10.788
   48MYC    H87 6667   2.067   2.570  10.784
   48MYC    H88 6668   1.979   2.419  10.807
   48MYC    C45 6669   1.889   2.589  10.906
   48MYC    H85 6670   1.792   2.538  10.918
   48MYC    H86 6671   1.868   2.694  10.883
   48MYC    C44 6672   1.966   2.585  11.040
   48MYC    H83 6673   1.914   2.648  11.113
   48MYC    H84 6674   2.065   2.631  11.026
   48MYC    C18 6675   1.983   2.445  11.099
   48MYC    H31 6676   1.888   2.404  11.134
   48MYC    C17 6677   2.083   2.347  11.044
   48MYC    H30 6678   2.147   2.384  10.964
   48MYC    C19 6679   2.105   2.407  11.180
   48MYC    H32 6680   2.185   2.480  11.190
   48MYC    H33 6681   2.089   2.345  11.267
   48MYC    C16 6682   2.037   2.202  11.022
   48MYC    H28 6683   1.961   2.201  10.943
   48MYC    H29 6684   1.988   2.165  11.112
   48MYC    C15 6685   2.148   2.102  10.982
   48MYC    H26 6686   2.100   2.005  10.964
   48MYC    H27 6687   2.217   2.088  11.066
   48MYC    C14 6688   2.229   2.141  10.856
   48MYC    H24 6689   2.291   2.229  10.877
   48MYC    H25 6690   2.159   2.169  10.776
   48MYC    C13 6691   2.320   2.027  10.806
   48MYC    H22 6692   2.258   1.940  10.783
   48MYC    H23 6693   2.389   1.999  10.886
   48MYC    C12 6694   2.401   2.065  10.681
   48MYC    H20 6695   2.467   2.150  10.704
   48MYC    H21 6696   2.331   2.098  10.602
   48MYC    C11 6697   2.485   1.946  10.628
   48MYC    H18 6698   2.417   1.865  10.600
   48MYC    H19 6699   2.548   1.908  10.709
   48MYC    C10 6700   2.576   1.979  10.508
   48MYC    H16 6701   2.632   1.889  10.482
   48MYC    H17 6702   2.648   2.056  10.537
   48MYC     C9 6703   2.500   2.028  10.382
   48MYC    H14 6704   2.451   2.124  10.405
   48MYC    H15 6705   2.421   1.956  10.358
   48MYC     C8 6706   2.592   2.048  10.260
   48MYC    H12 6707   2.623   1.950  10.221
   48MYC    H13 6708   2.684   2.099  10.293
   48MYC     C7 6709   2.528   2.131  10.148
   48MYC    H10 6710   2.605   2.155  10.073
   48MYC    H11 6711   2.494   2.227  10.189
   48MYC     C6 6712   2.410   2.062  10.075
   48MYC     H8 6713   2.337   2.023  10.148
   48MYC     H9 6714   2.448   1.976  10.020
   48MYC     C5 6715   2.337   2.158   9.980
   48MYC     H6 6716   2.411   2.221   9.929
   48MYC     H7 6717   2.276   2.227  10.040
   48MYC     C4 6718   2.246   2.089   9.876
   48MYC     H4 6719   2.145   2.131   9.884
   48MYC     H5 6720   2.236   1.982   9.899
   48MYC     C2 6721   2.298   2.108   9.731
   48MYC     H2 6722   2.318   2.215   9.718
   48MYC     O3 6723   2.420   2.035   9.714
   48MYC     H3 6724   2.398   1.940   9.716
   48MYC     C1 6725   2.194   2.069   9.622
   48MYC     H1 6726   2.102   2.122   9.647
   48MYC    C81 6727   2.163   1.917   9.624
   48MYC    O82 6728   2.239   1.831   9.583
   48MYC    O83 6729   2.051   1.885   9.692
   48MYC   H105 6730   2.048   1.788   9.692
   48MYC    C20 6731   2.240   2.116   9.482
   48MYC    H34 6732   2.279   2.218   9.490
   48MYC    H35 6733   2.323   2.054   9.448
   48MYC    C21 6734   2.129   2.117   9.375
   48MYC    H36 6735   2.081   2.018   9.371
   48MYC    H37 6736   2.052   2.190   9.402
   48MYC    C22 6737   2.186   2.151   9.236
   48MYC    H38 6738   2.241   2.246   9.242
   48MYC    H39 6739   2.259   2.074   9.210
   48MYC    C23 6740   2.081   2.161   9.124
   48MYC    H40 6741   2.012   2.076   9.130
   48MYC    H41 6742   2.022   2.252   9.136
   48MYC    C24 6743   2.151   2.159   8.987
   48MYC    H42 6744   2.226   2.239   8.984
   48MYC    H43 6745   2.205   2.064   8.978
   48MYC    C25 6746   2.058   2.176   8.864
   48MYC    H44 6747   1.963   2.124   8.881
   48MYC    H45 6748   2.036   2.283   8.851
   48MYC    C26 6749   2.126   2.119   8.738
   48MYC    H46 6750   2.235   2.130   8.748
   48MYC    H47 6751   2.106   2.011   8.734
   48MYC    C27 6752   2.084   2.183   8.605
   48MYC    H48 6753   1.976   2.174   8.591
   48MYC    H49 6754   2.108   2.290   8.608
   48MYC    C28 6755   2.159   2.117   8.487
   48MYC    H50 6756   2.266   2.110   8.512
   48MYC    H51 6757   2.122   2.014   8.475
   48MYC    C29 6758   2.145   2.192   8.354
   48MYC    H52 6759   2.039   2.195   8.325
   48MYC    H53 6760   2.178   2.296   8.366
   48MYC    C30 6761   2.228   2.125   8.242
   48MYC    H54 6762   2.334   2.132   8.267
   48MYC    H55 6763   2.203   2.018   8.237
   48MYC    C31 6764   2.203   2.188   8.104
   48MYC    H56 6765   2.097   2.176   8.079
   48MYC    H57 6766   2.222   2.295   8.108
   48MYC    C32 6767   2.289   2.125   7.992
   48MYC    H58 6768   2.394   2.152   8.008
   48MYC    H59 6769   2.282   2.016   7.997
   48MYC    C33 6770   2.243   2.173   7.853
   48MYC    H60 6771   2.139   2.142   7.838
   48MYC    H61 6772   2.245   2.282   7.850
   48MYC    C34 6773   2.327   2.118   7.736
   48MYC    H62 6774   2.431   2.151   7.747
   48MYC    H63 6775   2.327   2.008   7.738
   48MYC    C35 6776   2.271   2.168   7.601
   48MYC    H64 6777   2.168   2.131   7.591
   48MYC    H65 6778   2.265   2.277   7.603
   48MYC    C36 6779   2.352   2.125   7.477
   48MYC    H66 6780   2.453   2.165   7.485
   48MYC    H67 6781   2.360   2.016   7.474
   48MYC    C37 6782   2.285   2.176   7.347
   48MYC    H68 6783   2.185   2.132   7.339
   48MYC    H69 6784   2.272   2.285   7.355
   48MYC    C38 6785   2.365   2.146   7.219
   48MYC    H70 6786   2.465   2.188   7.229
   48MYC    H71 6787   2.376   2.037   7.209
   48MYC    C39 6788   2.298   2.203   7.093
   48MYC    H72 6789   2.197   2.161   7.083
   48MYC    H73 6790   2.286   2.312   7.106
   48MYC    C40 6791   2.378   2.176   6.964
   48MYC    H74 6792   2.481   2.211   6.978
   48MYC    H75 6793   2.382   2.068   6.947
   48MYC    C41 6794   2.319   2.247   6.840
   48MYC    H76 6795   2.215   2.216   6.826
   48MYC    H77 6796   2.319   2.355   6.859
   48MYC    C42 6797   2.399   2.218   6.711
   48MYC    H78 6798   2.506   2.234   6.730
   48MYC    H79 6799   2.387   2.112   6.684
   48MYC    C43 6800   2.356   2.306   6.593
   48MYC    H80 6801   2.415   2.281   6.504
   48MYC    H81 6802   2.372   2.412   6.616
   48MYC    H82 6803   2.250   2.290   6.570
   49MYC   HH15 6804   2.703   2.462   6.590
   49MYC    C80 6805   2.749   2.507   6.679
   49MYC   H100 6806   2.857   2.493   6.674
   49MYC   H101 6807   2.728   2.615   6.677
   49MYC    C79 6808   2.691   2.443   6.806
   49MYC   H102 6809   2.717   2.337   6.808
   49MYC   H103 6810   2.582   2.451   6.803
   49MYC    C78 6811   2.741   2.509   6.936
   49MYC   HH14 6812   2.715   2.616   6.935
   49MYC   H104 6813   2.850   2.502   6.942
   49MYC    C77 6814   2.679   2.444   7.061
   49MYC   H106 6815   2.713   2.340   7.068
   49MYC   H107 6816   2.570   2.442   7.050
   49MYC    C76 6817   2.713   2.517   7.193
   49MYC   H108 6818   2.682   2.622   7.185
   49MYC   H109 6819   2.822   2.516   7.207
   49MYC    C75 6820   2.645   2.451   7.314
   49MYC   H110 6821   2.680   2.348   7.324
   49MYC   H111 6822   2.537   2.446   7.296
   49MYC    C74 6823   2.670   2.527   7.445
   49MYC   H112 6824   2.627   2.628   7.438
   49MYC   H113 6825   2.778   2.538   7.462
   49MYC    C73 6826   2.607   2.454   7.566
   49MYC   HH13 6827   2.657   2.357   7.579
   49MYC   H114 6828   2.501   2.434   7.546
   49MYC    C72 6829   2.619   2.536   7.696
   49MYC   H115 6830   2.563   2.629   7.684
   49MYC   H116 6831   2.724   2.564   7.712
   49MYC    C71 6832   2.568   2.460   7.819
   49MYC   H117 6833   2.634   2.374   7.838
   49MYC   H118 6834   2.468   2.420   7.800
   49MYC    C70 6835   2.564   2.551   7.943
   49MYC   H119 6836   2.488   2.628   7.928
   49MYC   H120 6837   2.661   2.602   7.953
   49MYC    C69 6838   2.535   2.474   8.073
   49MYC   H121 6839   2.612   2.398   8.088
   49MYC   H122 6840   2.439   2.422   8.064
   49MYC    C68 6841   2.531   2.569   8.194
   49MYC   HH12 6842   2.445   2.636   8.185
   49MYC   H123 6843   2.622   2.631   8.195
   49MYC    C67 6844   2.522   2.493   8.327
   49MYC   H124 6845   2.607   2.423   8.335
   49MYC   H125 6846   2.430   2.433   8.329
   49MYC    C66 6847   2.524   2.588   8.448
   49MYC   H126 6848   2.438   2.656   8.442
   49MYC   H127 6849   2.615   2.649   8.445
   49MYC    C65 6850   2.519   2.510   8.580
   49MYC   H128 6851   2.610   2.449   8.590
   49MYC   H129 6852   2.434   2.441   8.578
   49MYC    C64 6853   2.507   2.602   8.703
   49MYC   H130 6854   2.421   2.668   8.690
   49MYC   H131 6855   2.596   2.665   8.711
   49MYC    C63 6856   2.489   2.520   8.831
   49MYC   HH11 6857   2.574   2.452   8.844
   49MYC   H132 6858   2.399   2.458   8.821
   49MYC    C62 6859   2.476   2.607   8.956
   49MYC   H133 6860   2.399   2.684   8.940
   49MYC   H134 6861   2.571   2.660   8.974
   49MYC    C61 6862   2.439   2.524   9.079
   49MYC   H135 6863   2.508   2.439   9.089
   49MYC   H136 6864   2.338   2.481   9.065
   49MYC    C60 6865   2.440   2.607   9.206
   49MYC   H137 6866   2.385   2.699   9.195
   49MYC    C58 6867   2.437   2.539   9.340
   49MYC   H138 6868   2.445   2.430   9.341
   49MYC    C59 6869   2.562   2.613   9.295
   49MYC   H139 6870   2.584   2.708   9.343
   49MYC   H140 6871   2.648   2.554   9.268
   49MYC    C57 6872   2.349   2.591   9.451
   49MYC   HH10 6873   2.258   2.530   9.457
   49MYC   H141 6874   2.318   2.694   9.431
   49MYC    C56 6875   2.423   2.588   9.586
   49MYC   H142 6876   2.497   2.669   9.587
   49MYC   H143 6877   2.478   2.494   9.593
   49MYC    C55 6878   2.331   2.601   9.708
   49MYC   H144 6879   2.256   2.521   9.706
   49MYC   H145 6880   2.278   2.697   9.706
   49MYC    C54 6881   2.414   2.590   9.837
   49MYC   H146 6882   2.485   2.674   9.840
   49MYC   H147 6883   2.473   2.498   9.833
   49MYC    C53 6884   2.332   2.589   9.966
   49MYC   H148 6885   2.257   2.510   9.962
   49MYC   H149 6886   2.279   2.685   9.977
   49MYC    C52 6887   2.425   2.566  10.087
   49MYC    H99 6888   2.507   2.638  10.083
   49MYC   H150 6889   2.469   2.466  10.078
   49MYC    C51 6890   2.355   2.579  10.223
   49MYC    H97 6891   2.270   2.510  10.226
   49MYC    H98 6892   2.315   2.680  10.235
   49MYC    C50 6893   2.452   2.546  10.338
   49MYC    H95 6894   2.538   2.614  10.334
   49MYC    H96 6895   2.490   2.444  10.324
   49MYC    C49 6896   2.387   2.556  10.477
   49MYC    H93 6897   2.297   2.494  10.479
   49MYC    H94 6898   2.356   2.660  10.495
   49MYC    C48 6899   2.482   2.509  10.589
   49MYC    H91 6900   2.578   2.560  10.577
   49MYC    H92 6901   2.500   2.402  10.578
   49MYC    C47 6902   2.428   2.538  10.730
   49MYC    H89 6903   2.330   2.492  10.743
   49MYC    H90 6904   2.415   2.647  10.740
   49MYC    C46 6905   2.524   2.488  10.841
   49MYC    H87 6906   2.627   2.509  10.811
   49MYC    H88 6907   2.515   2.379  10.850
   49MYC    C45 6908   2.497   2.555  10.977
   49MYC    H85 6909   2.396   2.530  11.012
   49MYC    H86 6910   2.500   2.663  10.962
   49MYC    C44 6911   2.602   2.521  11.085
   49MYC    H83 6912   2.597   2.599  11.162
   49MYC    H84 6913   2.702   2.528  11.041
   49MYC    C18 6914   2.582   2.385  11.151
   49MYC    H31 6915   2.477   2.365  11.172
   49MYC    C17 6916   2.670   2.267  11.120
   49MYC    H30 6917   2.750   2.285  11.048
   49MYC    C19 6918   2.680   2.336  11.254
   49MYC    H32 6919   2.768   2.396  11.274
   49MYC    H33 6920   2.639   2.285  11.341
   49MYC    C16 6921   2.609   2.128  11.109
   49MYC    H28 6922   2.524   2.131  11.040
   49MYC    H29 6923   2.568   2.100  11.207
   49MYC    C15 6924   2.704   2.014  11.067
   49MYC    H26 6925   2.649   1.920  11.073
   49MYC    H27 6926   2.787   2.007  11.138
   49MYC    C14 6927   2.760   2.029  10.924
   49MYC    H24 6928   2.839   2.106  10.924
   49MYC    H25 6929   2.681   2.065  10.857
   49MYC    C13 6930   2.818   1.898  10.868
   49MYC    H22 6931   2.737   1.825  10.856
   49MYC    H23 6932   2.889   1.856  10.940
   49MYC    C12 6933   2.889   1.918  10.732
   49MYC    H20 6934   2.968   1.993  10.745
   49MYC    H21 6935   2.818   1.961  10.660
   49MYC    C11 6936   2.948   1.789  10.674
   49MYC    H18 6937   2.868   1.718  10.650
   49MYC    H19 6938   3.010   1.740  10.751
   49MYC    C10 6939   3.034   1.813  10.548
   49MYC    H16 6940   3.112   1.736  10.542
   49MYC    H17 6941   3.087   1.909  10.558
   49MYC     C9 6942   2.954   1.811  10.416
   49MYC    H14 6943   2.862   1.868  10.429
   49MYC    H15 6944   2.925   1.708  10.394
   49MYC     C8 6945   3.032   1.871  10.297
   49MYC    H12 6946   3.130   1.823  10.288
   49MYC    H13 6947   3.050   1.977  10.318
   49MYC     C7 6948   2.956   1.856  10.163
   49MYC    H10 6949   2.848   1.855  10.183
   49MYC    H11 6950   2.980   1.759  10.119
   49MYC     C6 6951   2.985   1.969  10.063
   49MYC     H8 6952   3.092   1.972  10.038
   49MYC     H9 6953   2.962   2.065  10.110
   49MYC     C5 6954   2.902   1.958   9.933
   49MYC     H6 6955   2.892   2.059   9.890
   49MYC     H7 6956   2.800   1.927   9.959
   49MYC     C4 6957   2.960   1.861   9.826
   49MYC     H4 6958   2.879   1.794   9.793
   49MYC     H5 6959   3.037   1.797   9.871
   49MYC     C2 6960   3.016   1.936   9.703
   49MYC     H2 6961   2.935   2.000   9.665
   49MYC     O3 6962   3.126   2.019   9.742
   49MYC     H3 6963   3.205   1.962   9.748
   49MYC     C1 6964   3.058   1.843   9.585
   49MYC     H1 6965   2.970   1.784   9.557
   49MYC    C81 6966   3.169   1.742   9.623
   49MYC    O82 6967   3.271   1.773   9.683
   49MYC    O83 6968   3.161   1.625   9.556
   49MYC   H105 6969   3.245   1.579   9.575
   49MYC    C20 6970   3.099   1.924   9.459
   49MYC    H34 6971   3.063   2.027   9.469
   49MYC    H35 6972   3.208   1.929   9.452
   49MYC    C21 6973   3.042   1.867   9.327
   49MYC    H36 6974   3.072   1.763   9.314
   49MYC    H37 6975   2.932   1.868   9.333
   49MYC    C22 6976   3.087   1.949   9.205
   49MYC    H38 6977   3.073   2.056   9.225
   49MYC    H39 6978   3.194   1.933   9.188
   49MYC    C23 6979   3.009   1.913   9.077
   49MYC    H40 6980   3.021   1.806   9.057
   49MYC    H41 6981   2.902   1.932   9.093
   49MYC    C24 6982   3.056   1.994   8.954
   49MYC    H42 6983   3.043   2.101   8.973
   49MYC    H43 6984   3.163   1.977   8.937
   49MYC    C25 6985   2.978   1.956   8.827
   49MYC    H44 6986   2.983   1.847   8.814
   49MYC    H45 6987   2.872   1.981   8.841
   49MYC    C26 6988   3.029   2.024   8.699
   49MYC    H46 6989   3.012   2.132   8.706
   49MYC    H47 6990   3.137   2.009   8.690
   49MYC    C27 6991   2.959   1.968   8.574
   49MYC    H48 6992   2.977   1.860   8.570
   49MYC    H49 6993   2.851   1.981   8.585
   49MYC    C28 6994   3.005   2.032   8.442
   49MYC    H50 6995   2.981   2.139   8.443
   49MYC    H51 6996   3.113   2.022   8.431
   49MYC    C29 6997   2.935   1.965   8.322
   49MYC    H52 6998   2.963   1.858   8.319
   49MYC    H53 6999   2.826   1.969   8.337
   49MYC    C30 7000   2.968   2.029   8.186
   49MYC    H54 7001   2.951   2.137   8.192
   49MYC    H55 7002   3.075   2.014   8.163
   49MYC    C31 7003   2.882   1.970   8.073
   49MYC    H56 7004   2.895   1.861   8.070
   49MYC    H57 7005   2.776   1.989   8.096
   49MYC    C32 7006   2.914   2.028   7.935
   49MYC    H58 7007   2.920   2.137   7.941
   49MYC    H59 7008   3.013   1.992   7.903
   49MYC    C33 7009   2.808   1.990   7.829
   49MYC    H60 7010   2.789   1.882   7.833
   49MYC    H61 7011   2.714   2.041   7.853
   49MYC    C34 7012   2.852   2.027   7.686
   49MYC    H62 7013   2.883   2.133   7.683
   49MYC    H63 7014   2.940   1.968   7.660
   49MYC    C35 7015   2.742   2.006   7.581
   49MYC    H64 7016   2.687   1.913   7.603
   49MYC    H65 7017   2.670   2.088   7.586
   49MYC    C36 7018   2.800   1.995   7.439
   49MYC    H66 7019   2.872   2.077   7.422
   49MYC    H67 7020   2.857   1.902   7.433
   49MYC    C37 7021   2.695   1.998   7.326
   49MYC    H68 7022   2.607   1.939   7.355
   49MYC    H69 7023   2.662   2.101   7.313
   49MYC    C38 7024   2.752   1.943   7.194
   49MYC    H70 7025   2.848   1.991   7.173
   49MYC    H71 7026   2.771   1.836   7.206
   49MYC    C39 7027   2.659   1.964   7.073
   49MYC    H72 7028   2.559   1.923   7.096
   49MYC    H73 7029   2.647   2.072   7.056
   49MYC    C40 7030   2.713   1.898   6.945
   49MYC    H74 7031   2.814   1.936   6.924
   49MYC    H75 7032   2.722   1.791   6.962
   49MYC    C41 7033   2.623   1.921   6.822
   49MYC    H76 7034   2.522   1.886   6.845
   49MYC    H77 7035   2.617   2.028   6.801
   49MYC    C42 7036   2.675   1.848   6.697
   49MYC    H78 7037   2.773   1.887   6.669
   49MYC    H79 7038   2.689   1.741   6.720
   49MYC    C43 7039   2.580   1.859   6.577
   49MYC    H80 7040   2.617   1.796   6.495
   49MYC    H81 7041   2.575   1.963   6.541
   49MYC    H82 7042   2.479   1.826   6.603
   50MYC   HH15 7043   3.805   2.114   6.727
   50MYC    C80 7044   3.740   2.168   6.798
   50MYC   H100 7045   3.739   2.274   6.771
   50MYC   H101 7046   3.638   2.128   6.788
   50MYC    C79 7047   3.792   2.149   6.942
   50MYC   H102 7048   3.895   2.187   6.948
   50MYC   H103 7049   3.796   2.042   6.965
   50MYC    C78 7050   3.705   2.221   7.047
   50MYC   HH14 7051   3.602   2.186   7.038
   50MYC   H104 7052   3.705   2.329   7.027
   50MYC    C77 7053   3.754   2.196   7.191
   50MYC   H106 7054   3.860   2.223   7.199
   50MYC   H107 7055   3.746   2.089   7.213
   50MYC    C76 7056   3.675   2.276   7.297
   50MYC   H108 7057   3.567   2.269   7.276
   50MYC   H109 7058   3.702   2.382   7.290
   50MYC    C75 7059   3.700   2.225   7.440
   50MYC   H110 7060   3.808   2.220   7.458
   50MYC   H111 7061   3.662   2.122   7.447
   50MYC    C74 7062   3.635   2.311   7.549
   50MYC   H112 7063   3.530   2.331   7.524
   50MYC   H113 7064   3.685   2.408   7.555
   50MYC    C73 7065   3.641   2.242   7.687
   50MYC   HH13 7066   3.744   2.210   7.706
   50MYC   H114 7067   3.580   2.151   7.683
   50MYC    C72 7068   3.593   2.329   7.804
   50MYC   H115 7069   3.490   2.363   7.785
   50MYC   H116 7070   3.656   2.418   7.811
   50MYC    C71 7071   3.598   2.251   7.936
   50MYC   H117 7072   3.699   2.211   7.950
   50MYC   H118 7073   3.531   2.164   7.929
   50MYC    C70 7074   3.559   2.333   8.060
   50MYC   H119 7075   3.459   2.375   8.048
   50MYC   H120 7076   3.629   2.418   8.071
   50MYC    C69 7077   3.564   2.246   8.187
   50MYC   H121 7078   3.662   2.198   8.194
   50MYC   H122 7079   3.490   2.166   8.177
   50MYC    C68 7080   3.537   2.324   8.317
   50MYC   HH12 7081   3.438   2.371   8.312
   50MYC   H123 7082   3.611   2.403   8.329
   50MYC    C67 7083   3.542   2.230   8.439
   50MYC   H124 7084   3.639   2.178   8.440
   50MYC   H125 7085   3.465   2.152   8.427
   50MYC    C66 7086   3.522   2.301   8.574
   50MYC   H126 7087   3.427   2.357   8.572
   50MYC   H127 7088   3.602   2.374   8.589
   50MYC    C65 7089   3.519   2.200   8.690
   50MYC   H128 7090   3.614   2.145   8.692
   50MYC   H129 7091   3.440   2.126   8.672
   50MYC    C64 7092   3.496   2.265   8.827
   50MYC   H130 7093   3.401   2.320   8.826
   50MYC   H131 7094   3.575   2.338   8.848
   50MYC    C63 7095   3.492   2.159   8.939
   50MYC   HH11 7096   3.586   2.104   8.939
   50MYC   H132 7097   3.412   2.087   8.917
   50MYC    C62 7098   3.468   2.219   9.079
   50MYC   H133 7099   3.369   2.265   9.082
   50MYC   H134 7100   3.541   2.298   9.098
   50MYC    C61 7101   3.478   2.112   9.189
   50MYC   H135 7102   3.578   2.067   9.186
   50MYC   H136 7103   3.408   2.031   9.168
   50MYC    C60 7104   3.450   2.168   9.328
   50MYC   H137 7105   3.344   2.188   9.344
   50MYC    C58 7106   3.530   2.120   9.446
   50MYC   H138 7107   3.612   2.052   9.425
   50MYC    C59 7108   3.546   2.262   9.397
   50MYC   H139 7109   3.504   2.342   9.457
   50MYC   H140 7110   3.638   2.287   9.344
   50MYC    C57 7111   3.462   2.090   9.578
   50MYC   HH10 7112   3.416   1.990   9.574
   50MYC   H141 7113   3.380   2.161   9.595
   50MYC    C56 7114   3.560   2.096   9.697
   50MYC   H142 7115   3.611   2.193   9.696
   50MYC   H143 7116   3.637   2.019   9.685
   50MYC    C55 7117   3.489   2.079   9.833
   50MYC   H144 7118   3.440   1.980   9.837
   50MYC   H145 7119   3.410   2.154   9.841
   50MYC    C54 7120   3.586   2.093   9.953
   50MYC   H146 7121   3.647   2.182   9.939
   50MYC   H147 7122   3.654   2.007   9.955
   50MYC    C53 7123   3.511   2.104  10.087
   50MYC   H148 7124   3.457   2.011  10.107
   50MYC   H149 7125   3.436   2.184  10.079
   50MYC    C52 7126   3.605   2.137  10.206
   50MYC    H99 7127   3.660   2.229  10.183
   50MYC   H150 7128   3.678   2.057  10.218
   50MYC    C51 7129   3.527   2.157  10.338
   50MYC    H97 7130   3.480   2.062  10.366
   50MYC    H98 7131   3.446   2.229  10.320
   50MYC    C50 7132   3.614   2.208  10.454
   50MYC    H95 7133   3.657   2.305  10.426
   50MYC    H96 7134   3.698   2.140  10.471
   50MYC    C49 7135   3.533   2.224  10.585
   50MYC    H93 7136   3.506   2.124  10.622
   50MYC    H94 7137   3.440   2.277  10.563
   50MYC    C48 7138   3.608   2.301  10.695
   50MYC    H91 7139   3.636   2.400  10.657
   50MYC    H92 7140   3.701   2.248  10.720
   50MYC    C47 7141   3.527   2.317  10.825
   50MYC    H89 7142   3.547   2.230  10.889
   50MYC    H90 7143   3.420   2.318  10.802
   50MYC    C46 7144   3.561   2.443  10.906
   50MYC    H87 7145   3.548   2.532  10.842
   50MYC    H88 7146   3.667   2.439  10.934
   50MYC    C45 7147   3.471   2.457  11.032
   50MYC    H85 7148   3.489   2.372  11.099
   50MYC    H86 7149   3.366   2.452  11.001
   50MYC    C44 7150   3.492   2.589  11.108
   50MYC    H83 7151   3.410   2.602  11.179
   50MYC    H84 7152   3.485   2.672  11.037
   50MYC    C18 7153   3.626   2.596  11.182
   50MYC    H31 7154   3.701   2.530  11.140
   50MYC    C17 7155   3.674   2.727  11.239
   50MYC    H30 7156   3.605   2.811  11.236
   50MYC    C19 7157   3.634   2.615  11.331
   50MYC    H32 7158   3.543   2.629  11.388
   50MYC    H33 7159   3.709   2.557  11.383
   50MYC    C16 7160   3.821   2.772  11.230
   50MYC    H28 7161   3.885   2.695  11.273
   50MYC    H29 7162   3.834   2.860  11.294
   50MYC    C15 7163   3.876   2.806  11.089
   50MYC    H26 7164   3.983   2.826  11.102
   50MYC    H27 7165   3.834   2.899  11.052
   50MYC    C14 7166   3.864   2.695  10.982
   50MYC    H24 7167   3.758   2.678  10.958
   50MYC    H25 7168   3.903   2.601  11.025
   50MYC    C13 7169   3.939   2.726  10.851
   50MYC    H22 7170   4.038   2.766  10.875
   50MYC    H23 7171   3.885   2.805  10.797
   50MYC    C12 7172   3.957   2.602  10.760
   50MYC    H20 7173   3.859   2.568  10.726
   50MYC    H21 7174   3.999   2.520  10.820
   50MYC    C11 7175   4.052   2.625  10.640
   50MYC    H18 7176   4.070   2.529  10.589
   50MYC    H19 7177   4.149   2.657  10.678
   50MYC    C10 7178   4.004   2.729  10.536
   50MYC    H16 7179   4.087   2.748  10.467
   50MYC    H17 7180   3.986   2.824  10.587
   50MYC     C9 7181   3.877   2.692  10.453
   50MYC    H14 7182   3.846   2.782  10.399
   50MYC    H15 7183   3.795   2.669  10.521
   50MYC     C8 7184   3.892   2.577  10.349
   50MYC    H12 7185   3.800   2.575  10.290
   50MYC    H13 7186   3.898   2.481  10.400
   50MYC     C7 7187   4.014   2.591  10.255
   50MYC    H10 7188   4.105   2.570  10.311
   50MYC    H11 7189   4.020   2.696  10.223
   50MYC     C6 7190   4.012   2.502  10.129
   50MYC     H8 7191   3.996   2.397  10.157
   50MYC     H9 7192   4.111   2.507  10.082
   50MYC     C5 7193   3.906   2.545  10.024
   50MYC     H6 7194   3.917   2.652  10.007
   50MYC     H7 7195   3.805   2.528  10.065
   50MYC     C4 7196   3.919   2.470   9.889
   50MYC     H4 7197   3.929   2.363   9.909
   50MYC     H5 7198   4.013   2.501   9.842
   50MYC     C2 7199   3.803   2.490   9.788
   50MYC     H2 7200   3.834   2.434   9.699
   50MYC     O3 7201   3.684   2.429   9.839
   50MYC     H3 7202   3.618   2.500   9.851
   50MYC     C1 7203   3.776   2.638   9.743
   50MYC     H1 7204   3.874   2.684   9.726
   50MYC    C81 7205   3.705   2.726   9.850
   50MYC    O82 7206   3.753   2.827   9.897
   50MYC    O83 7207   3.576   2.693   9.874
   50MYC   H105 7208   3.542   2.761   9.935
   50MYC    C20 7209   3.699   2.648   9.608
   50MYC    H34 7210   3.603   2.595   9.615
   50MYC    H35 7211   3.675   2.754   9.591
   50MYC    C21 7212   3.777   2.596   9.486
   50MYC    H36 7213   3.881   2.632   9.490
   50MYC    H37 7214   3.782   2.486   9.489
   50MYC    C22 7215   3.716   2.640   9.352
   50MYC    H38 7216   3.611   2.608   9.347
   50MYC    H39 7217   3.716   2.749   9.347
   50MYC    C23 7218   3.791   2.582   9.230
   50MYC    H40 7219   3.899   2.599   9.244
   50MYC    H41 7220   3.776   2.474   9.226
   50MYC    C24 7221   3.747   2.646   9.097
   50MYC    H42 7222   3.639   2.637   9.086
   50MYC    H43 7223   3.770   2.753   9.099
   50MYC    C25 7224   3.817   2.581   8.975
   50MYC    H44 7225   3.925   2.575   8.994
   50MYC    H45 7226   3.780   2.479   8.964
   50MYC    C26 7227   3.793   2.659   8.844
   50MYC    H46 7228   3.685   2.669   8.828
   50MYC    H47 7229   3.834   2.760   8.854
   50MYC    C27 7230   3.856   2.589   8.723
   50MYC    H48 7231   3.962   2.570   8.742
   50MYC    H49 7232   3.808   2.491   8.709
   50MYC    C28 7233   3.841   2.671   8.593
   50MYC    H50 7234   3.736   2.699   8.580
   50MYC    H51 7235   3.899   2.764   8.602
   50MYC    C29 7236   3.889   2.593   8.469
   50MYC    H52 7237   3.994   2.566   8.480
   50MYC    H53 7238   3.832   2.499   8.463
   50MYC    C30 7239   3.869   2.671   8.338
   50MYC    H54 7240   3.765   2.705   8.331
   50MYC    H55 7241   3.932   2.761   8.339
   50MYC    C31 7242   3.902   2.586   8.213
   50MYC    H56 7243   4.007   2.554   8.219
   50MYC    H57 7244   3.840   2.496   8.214
   50MYC    C32 7245   3.878   2.662   8.082
   50MYC    H58 7246   3.773   2.690   8.075
   50MYC    H59 7247   3.937   2.755   8.082
   50MYC    C33 7248   3.917   2.579   7.957
   50MYC    H60 7249   4.023   2.552   7.963
   50MYC    H61 7250   3.860   2.485   7.957
   50MYC    C34 7251   3.890   2.655   7.826
   50MYC    H62 7252   3.782   2.675   7.818
   50MYC    H63 7253   3.941   2.752   7.830
   50MYC    C35 7254   3.936   2.578   7.701
   50MYC    H64 7255   4.044   2.559   7.708
   50MYC    H65 7256   3.886   2.481   7.696
   50MYC    C36 7257   3.907   2.657   7.572
   50MYC    H66 7258   3.799   2.677   7.567
   50MYC    H67 7259   3.956   2.755   7.578
   50MYC    C37 7260   3.951   2.586   7.443
   50MYC    H68 7261   4.060   2.571   7.445
   50MYC    H69 7262   3.904   2.487   7.437
   50MYC    C38 7263   3.913   2.668   7.318
   50MYC    H70 7264   3.804   2.684   7.318
   50MYC    H71 7265   3.960   2.767   7.324
   50MYC    C39 7266   3.954   2.602   7.184
   50MYC    H72 7267   4.063   2.593   7.180
   50MYC    H73 7268   3.912   2.501   7.180
   50MYC    C40 7269   3.903   2.683   7.063
   50MYC    H74 7270   3.794   2.691   7.069
   50MYC    H75 7271   3.942   2.786   7.070
   50MYC    C41 7272   3.943   2.623   6.927
   50MYC    H76 7273   4.052   2.621   6.919
   50MYC    H77 7274   3.908   2.519   6.922
   50MYC    C42 7275   3.884   2.702   6.808
   50MYC    H78 7276   3.774   2.703   6.817
   50MYC    H79 7277   3.917   2.807   6.814
   50MYC    C43 7278   3.923   2.644   6.671
   50MYC    H80 7279   3.875   2.702   6.591
   50MYC    H81 7280   3.890   2.540   6.662
   50MYC    H82 7281   4.031   2.648   6.657
   51MYC   HH15 7282   4.232   2.352   6.616
   51MYC    C80 7283   4.284   2.344   6.712
   51MYC   H100 7284   4.363   2.270   6.702
   51MYC   H101 7285   4.330   2.441   6.734
   51MYC    C79 7286   4.185   2.304   6.823
   51MYC   H102 7287   4.140   2.207   6.798
   51MYC   H103 7288   4.104   2.377   6.827
   51MYC    C78 7289   4.253   2.294   6.961
   51MYC   HH14 7290   4.299   2.391   6.985
   51MYC   H104 7291   4.333   2.220   6.957
   51MYC    C77 7292   4.155   2.257   7.074
   51MYC   H106 7293   4.111   2.159   7.052
   51MYC   H107 7294   4.073   2.330   7.076
   51MYC    C76 7295   4.223   2.252   7.212
   51MYC   H108 7296   4.272   2.349   7.231
   51MYC   H109 7297   4.302   2.176   7.210
   51MYC    C75 7298   4.125   2.222   7.326
   51MYC   H110 7299   4.074   2.126   7.306
   51MYC   H111 7300   4.048   2.300   7.328
   51MYC    C74 7301   4.194   2.215   7.463
   51MYC   H112 7302   4.249   2.309   7.480
   51MYC   H113 7303   4.268   2.134   7.463
   51MYC    C73 7304   4.094   2.194   7.577
   51MYC   HH13 7305   4.038   2.101   7.559
   51MYC   H114 7306   4.022   2.276   7.577
   51MYC    C72 7307   4.162   2.186   7.715
   51MYC   H115 7308   4.224   2.275   7.730
   51MYC   H116 7309   4.228   2.099   7.719
   51MYC    C71 7310   4.057   2.177   7.827
   51MYC   H117 7311   3.996   2.087   7.813
   51MYC   H118 7312   3.990   2.264   7.820
   51MYC    C70 7313   4.120   2.175   7.967
   51MYC   H119 7314   4.189   2.260   7.978
   51MYC   H120 7315   4.179   2.083   7.980
   51MYC    C69 7316   4.012   2.183   8.076
   51MYC   H121 7317   3.944   2.098   8.067
   51MYC   H122 7318   3.953   2.274   8.061
   51MYC    C68 7319   4.072   2.186   8.217
   51MYC   HH12 7320   4.140   2.272   8.226
   51MYC   H123 7321   4.132   2.095   8.233
   51MYC    C67 7322   3.964   2.196   8.325
   51MYC   H124 7323   3.899   2.107   8.320
   51MYC   H125 7324   3.900   2.283   8.306
   51MYC    C66 7325   4.024   2.207   8.465
   51MYC   H126 7326   4.080   2.301   8.473
   51MYC   H127 7327   4.096   2.125   8.481
   51MYC    C65 7328   3.918   2.202   8.576
   51MYC   H128 7329   3.863   2.107   8.569
   51MYC   H129 7330   3.845   2.283   8.562
   51MYC    C64 7331   3.981   2.214   8.715
   51MYC   H130 7332   4.032   2.311   8.723
   51MYC   H131 7333   4.059   2.136   8.725
   51MYC    C63 7334   3.880   2.198   8.828
   51MYC   HH11 7335   3.828   2.102   8.818
   51MYC   H132 7336   3.805   2.278   8.821
   51MYC    C62 7337   3.949   2.204   8.965
   51MYC   H133 7338   4.001   2.300   8.974
   51MYC   H134 7339   4.025   2.125   8.967
   51MYC    C61 7340   3.852   2.188   9.083
   51MYC   H135 7341   3.791   2.098   9.067
   51MYC   H136 7342   3.783   2.272   9.084
   51MYC    C60 7343   3.919   2.176   9.219
   51MYC   H137 7344   3.848   2.195   9.299
   51MYC    C58 7345   4.021   2.068   9.246
   51MYC   H138 7346   4.052   2.009   9.160
   51MYC    C59 7347   4.063   2.214   9.246
   51MYC   H139 7348   4.084   2.265   9.340
   51MYC   H140 7349   4.126   2.248   9.165
   51MYC    C57 7350   4.011   1.982   9.371
   51MYC   HH10 7351   4.093   1.909   9.371
   51MYC   H141 7352   3.918   1.924   9.367
   51MYC    C56 7353   4.016   2.060   9.503
   51MYC   H142 7354   3.939   2.138   9.504
   51MYC   H143 7355   4.113   2.111   9.511
   51MYC    C55 7356   3.997   1.973   9.627
   51MYC   H144 7357   4.070   1.891   9.626
   51MYC   H145 7358   3.897   1.928   9.627
   51MYC    C54 7359   4.017   2.056   9.755
   51MYC   H146 7360   3.941   2.135   9.759
   51MYC   H147 7361   4.115   2.105   9.750
   51MYC    C53 7362   4.009   1.972   9.883
   51MYC   H148 7363   4.077   1.886   9.874
   51MYC   H149 7364   3.907   1.932   9.895
   51MYC    C52 7365   4.048   2.056  10.005
   51MYC    H99 7366   3.981   2.142  10.013
   51MYC   H150 7367   4.149   2.094   9.992
   51MYC    C51 7368   4.041   1.975  10.135
   51MYC    H97 7369   4.104   1.885  10.124
   51MYC    H98 7370   3.938   1.942  10.152
   51MYC    C50 7371   4.092   2.056  10.255
   51MYC    H95 7372   4.045   2.155  10.255
   51MYC    H96 7373   4.200   2.069  10.246
   51MYC    C49 7374   4.064   1.987  10.389
   51MYC    H93 7375   4.112   1.889  10.390
   51MYC    H94 7376   3.956   1.972  10.400
   51MYC    C48 7377   4.117   2.070  10.507
   51MYC    H91 7378   4.085   2.173  10.495
   51MYC    H92 7379   4.226   2.072  10.505
   51MYC    C47 7380   4.067   2.015  10.642
   51MYC    H89 7381   4.109   1.914  10.658
   51MYC    H90 7382   3.959   2.004  10.635
   51MYC    C46 7383   4.102   2.104  10.762
   51MYC    H87 7384   4.104   2.209  10.733
   51MYC    H88 7385   4.203   2.080  10.797
   51MYC    C45 7386   3.998   2.086  10.876
   51MYC    H85 7387   3.992   1.980  10.903
   51MYC    H86 7388   3.900   2.116  10.837
   51MYC    C44 7389   4.028   2.169  11.002
   51MYC    H83 7390   3.936   2.178  11.061
   51MYC    H84 7391   4.054   2.271  10.972
   51MYC    C18 7392   4.138   2.107  11.087
   51MYC    H31 7393   4.217   2.062  11.027
   51MYC    C17 7394   4.182   2.175  11.214
   51MYC    H30 7395   4.125   2.261  11.246
   51MYC    C19 7396   4.110   2.042  11.220
   51MYC    H32 7397   4.007   2.040  11.254
   51MYC    H33 7398   4.169   1.954  11.247
   51MYC    C16 7399   4.331   2.188  11.243
   51MYC    H28 7400   4.384   2.098  11.209
   51MYC    H29 7401   4.347   2.194  11.351
   51MYC    C15 7402   4.396   2.312  11.176
   51MYC    H26 7403   4.505   2.302  11.184
   51MYC    H27 7404   4.368   2.402  11.230
   51MYC    C14 7405   4.364   2.329  11.027
   51MYC    H24 7406   4.258   2.357  11.015
   51MYC    H25 7407   4.379   2.233  10.977
   51MYC    C13 7408   4.449   2.436  10.956
   51MYC    H22 7409   4.555   2.419  10.977
   51MYC    H23 7410   4.425   2.536  10.994
   51MYC    C12 7411   4.425   2.431  10.804
   51MYC    H20 7412   4.324   2.468  10.783
   51MYC    H21 7413   4.427   2.326  10.772
   51MYC    C11 7414   4.527   2.511  10.721
   51MYC    H18 7415   4.627   2.467  10.733
   51MYC    H19 7416   4.532   2.613  10.759
   51MYC    C10 7417   4.490   2.514  10.571
   51MYC    H16 7418   4.551   2.590  10.521
   51MYC    H17 7419   4.386   2.547  10.563
   51MYC     C9 7420   4.507   2.381  10.495
   51MYC    H14 7421   4.476   2.295  10.556
   51MYC    H15 7422   4.614   2.366  10.474
   51MYC     C8 7423   4.425   2.378  10.364
   51MYC    H12 7424   4.413   2.480  10.326
   51MYC    H13 7425   4.324   2.340  10.386
   51MYC     C7 7426   4.489   2.293  10.253
   51MYC    H10 7427   4.509   2.192  10.290
   51MYC    H11 7428   4.586   2.338  10.227
   51MYC     C6 7429   4.400   2.284  10.126
   51MYC     H8 7430   4.356   2.382  10.105
   51MYC     H9 7431   4.317   2.217  10.146
   51MYC     C5 7432   4.477   2.234  10.002
   51MYC     H6 7433   4.406   2.188   9.932
   51MYC     H7 7434   4.546   2.154  10.032
   51MYC     C4 7435   4.555   2.347   9.930
   51MYC     H4 7436   4.654   2.309   9.904
   51MYC     H5 7437   4.572   2.429  10.000
   51MYC     C2 7438   4.486   2.400   9.802
   51MYC     H2 7439   4.491   2.318   9.728
   51MYC     O3 7440   4.348   2.430   9.826
   51MYC     H3 7441   4.334   2.524   9.804
   51MYC     C1 7442   4.560   2.523   9.743
   51MYC     H1 7443   4.666   2.496   9.735
   51MYC    C81 7444   4.555   2.644   9.839
   51MYC    O82 7445   4.652   2.689   9.897
   51MYC    O83 7446   4.434   2.707   9.846
   51MYC   H105 7447   4.450   2.788   9.897
   51MYC    C20 7448   4.514   2.564   9.601
   51MYC    H34 7449   4.409   2.597   9.604
   51MYC    H35 7450   4.573   2.650   9.569
   51MYC    C21 7451   4.525   2.453   9.494
   51MYC    H36 7452   4.621   2.400   9.504
   51MYC    H37 7453   4.445   2.379   9.509
   51MYC    C22 7454   4.515   2.511   9.351
   51MYC    H38 7455   4.427   2.576   9.345
   51MYC    H39 7456   4.603   2.574   9.333
   51MYC    C23 7457   4.506   2.404   9.240
   51MYC    H40 7458   4.589   2.334   9.249
   51MYC    H41 7459   4.413   2.346   9.253
   51MYC    C24 7460   4.507   2.468   9.100
   51MYC    H42 7461   4.428   2.545   9.095
   51MYC    H43 7462   4.603   2.520   9.086
   51MYC    C25 7463   4.486   2.368   8.985
   51MYC    H44 7464   4.564   2.291   8.990
   51MYC    H45 7465   4.389   2.319   8.997
   51MYC    C26 7466   4.492   2.438   8.847
   51MYC    H46 7467   4.417   2.517   8.843
   51MYC    H47 7468   4.590   2.486   8.835
   51MYC    C27 7469   4.469   2.340   8.730
   51MYC    H48 7470   4.543   2.259   8.736
   51MYC    H49 7471   4.370   2.295   8.738
   51MYC    C28 7472   4.482   2.410   8.592
   51MYC    H50 7473   4.405   2.487   8.583
   51MYC    H51 7474   4.579   2.461   8.587
   51MYC    C29 7475   4.470   2.311   8.474
   51MYC    H52 7476   4.541   2.229   8.489
   51MYC    H53 7477   4.370   2.267   8.473
   51MYC    C30 7478   4.499   2.379   8.339
   51MYC    H54 7479   4.422   2.454   8.319
   51MYC    H55 7480   4.595   2.432   8.345
   51MYC    C31 7481   4.503   2.280   8.221
   51MYC    H56 7482   4.574   2.199   8.243
   51MYC    H57 7483   4.404   2.235   8.207
   51MYC    C32 7484   4.547   2.350   8.090
   51MYC    H58 7485   4.480   2.434   8.070
   51MYC    H59 7486   4.648   2.392   8.104
   51MYC    C33 7487   4.548   2.256   7.968
   51MYC    H60 7488   4.611   2.169   7.990
   51MYC    H61 7489   4.446   2.219   7.951
   51MYC    C34 7490   4.599   2.327   7.842
   51MYC    H62 7491   4.545   2.422   7.829
   51MYC    H63 7492   4.705   2.352   7.855
   51MYC    C35 7493   4.582   2.243   7.714
   51MYC    H64 7494   4.633   2.146   7.726
   51MYC    H65 7495   4.476   2.221   7.700
   51MYC    C36 7496   4.637   2.314   7.589
   51MYC    H66 7497   4.604   2.418   7.589
   51MYC    H67 7498   4.747   2.316   7.595
   51MYC    C37 7499   4.593   2.248   7.457
   51MYC    H68 7500   4.614   2.140   7.461
   51MYC    H69 7501   4.484   2.259   7.446
   51MYC    C38 7502   4.663   2.309   7.334
   51MYC    H70 7503   4.653   2.418   7.337
   51MYC    H71 7504   4.770   2.287   7.341
   51MYC    C39 7505   4.608   2.257   7.200
   51MYC    H72 7506   4.588   2.149   7.207
   51MYC    H73 7507   4.512   2.306   7.179
   51MYC    C40 7508   4.705   2.284   7.083
   51MYC    H74 7509   4.731   2.390   7.081
   51MYC    H75 7510   4.797   2.228   7.103
   51MYC    C41 7511   4.650   2.241   6.945
   51MYC    H76 7512   4.619   2.136   6.949
   51MYC    H77 7513   4.561   2.301   6.922
   51MYC    C42 7514   4.755   2.260   6.834
   51MYC    H78 7515   4.781   2.366   6.826
   51MYC    H79 7516   4.846   2.205   6.860
   51MYC    C43 7517   4.707   2.211   6.696
   51MYC    H80 7518   4.786   2.226   6.621
   51MYC    H81 7519   4.618   2.267   6.664
   51MYC    H82 7520   4.682   2.105   6.699
   52MYC   HH15 7521   5.083   2.430   6.684
   52MYC    C80 7522   5.128   2.362   6.757
   52MYC   H100 7523   5.085   2.262   6.742
   52MYC   H101 7524   5.236   2.357   6.738
   52MYC    C79 7525   5.100   2.412   6.900
   52MYC   H102 7526   4.992   2.422   6.913
   52MYC   H103 7527   5.142   2.513   6.911
   52MYC    C78 7528   5.158   2.321   7.010
   52MYC   HH14 7529   5.267   2.330   7.011
   52MYC   H104 7530   5.135   2.216   6.987
   52MYC    C77 7531   5.101   2.355   7.149
   52MYC   H106 7532   4.993   2.336   7.149
   52MYC   H107 7533   5.114   2.463   7.168
   52MYC    C76 7534   5.166   2.277   7.265
   52MYC   H108 7535   5.269   2.311   7.278
   52MYC   H109 7536   5.169   2.170   7.241
   52MYC    C75 7537   5.089   2.296   7.397
   52MYC   H110 7538   4.991   2.246   7.389
   52MYC   H111 7539   5.068   2.403   7.413
   52MYC    C74 7540   5.162   2.241   7.521
   52MYC   H112 7541   5.260   2.290   7.530
   52MYC   H113 7542   5.181   2.134   7.507
   52MYC    C73 7543   5.082   2.262   7.651
   52MYC   HH13 7544   4.985   2.213   7.642
   52MYC   H114 7545   5.063   2.370   7.664
   52MYC    C72 7546   5.155   2.208   7.775
   52MYC   H115 7547   5.251   2.261   7.786
   52MYC   H116 7548   5.178   2.102   7.760
   52MYC    C71 7549   5.073   2.224   7.905
   52MYC   H117 7550   4.978   2.170   7.894
   52MYC   H118 7551   5.049   2.330   7.920
   52MYC    C70 7552   5.149   2.171   8.028
   52MYC   H119 7553   5.237   2.234   8.045
   52MYC   H120 7554   5.186   2.070   8.007
   52MYC    C69 7555   5.063   2.166   8.155
   52MYC   H121 7556   4.983   2.093   8.143
   52MYC   H122 7557   5.016   2.264   8.171
   52MYC    C68 7558   5.147   2.131   8.280
   52MYC   HH12 7559   5.219   2.212   8.297
   52MYC   H123 7560   5.205   2.040   8.261
   52MYC    C67 7561   5.062   2.110   8.408
   52MYC   H124 7562   5.020   2.008   8.407
   52MYC   H125 7563   4.978   2.180   8.409
   52MYC    C66 7564   5.146   2.130   8.535
   52MYC   H126 7565   5.177   2.236   8.539
   52MYC   H127 7566   5.238   2.071   8.528
   52MYC    C65 7567   5.073   2.094   8.666
   52MYC   H128 7568   5.068   1.985   8.676
   52MYC   H129 7569   4.970   2.131   8.662
   52MYC    C64 7570   5.143   2.154   8.790
   52MYC   H130 7571   5.145   2.263   8.779
   52MYC   H131 7572   5.247   2.121   8.794
   52MYC    C63 7573   5.073   2.119   8.923
   52MYC   HH11 7574   5.078   2.011   8.940
   52MYC   H132 7575   4.967   2.146   8.916
   52MYC    C62 7576   5.136   2.192   9.044
   52MYC   H133 7577   5.144   2.299   9.021
   52MYC   H134 7578   5.238   2.155   9.060
   52MYC    C61 7579   5.054   2.176   9.173
   52MYC   H135 7580   5.043   2.069   9.196
   52MYC   H136 7581   4.953   2.214   9.156
   52MYC    C60 7582   5.114   2.249   9.292
   52MYC   H137 7583   5.145   2.351   9.268
   52MYC    C58 7584   5.058   2.227   9.431
   52MYC   H138 7585   4.978   2.154   9.438
   52MYC    C59 7586   5.196   2.176   9.396
   52MYC   H139 7587   5.282   2.228   9.438
   52MYC   H140 7588   5.209   2.068   9.385
   52MYC    C57 7589   5.040   2.342   9.529
   52MYC   HH10 7590   4.946   2.395   9.506
   52MYC   H141 7591   5.121   2.415   9.518
   52MYC    C56 7592   5.035   2.292   9.674
   52MYC   H142 7593   5.130   2.241   9.697
   52MYC   H143 7594   4.955   2.217   9.684
   52MYC    C55 7595   5.013   2.403   9.778
   52MYC   H144 7596   4.918   2.455   9.757
   52MYC   H145 7597   5.093   2.478   9.770
   52MYC    C54 7598   5.009   2.347   9.922
   52MYC   H146 7599   5.102   2.291   9.940
   52MYC   H147 7600   4.926   2.276   9.931
   52MYC    C53 7601   4.995   2.455  10.032
   52MYC   H148 7602   4.901   2.509  10.019
   52MYC   H149 7603   5.076   2.528  10.020
   52MYC    C52 7604   5.002   2.393  10.173
   52MYC    H99 7605   5.090   2.327  10.177
   52MYC   H150 7606   4.914   2.330  10.189
   52MYC    C51 7607   5.013   2.496  10.287
   52MYC    H97 7608   4.915   2.544  10.304
   52MYC    H98 7609   5.083   2.576  10.259
   52MYC    C50 7610   5.063   2.431  10.418
   52MYC    H95 7611   5.159   2.383  10.398
   52MYC    H96 7612   4.993   2.351  10.448
   52MYC    C49 7613   5.080   2.528  10.537
   52MYC    H93 7614   4.981   2.554  10.577
   52MYC    H94 7615   5.126   2.622  10.502
   52MYC    C48 7616   5.169   2.468  10.648
   52MYC    H91 7617   5.271   2.459  10.609
   52MYC    H92 7618   5.135   2.366  10.670
   52MYC    C47 7619   5.170   2.549  10.779
   52MYC    H89 7620   5.071   2.541  10.825
   52MYC    H90 7621   5.187   2.655  10.756
   52MYC    C46 7622   5.278   2.501  10.880
   52MYC    H87 7623   5.377   2.529  10.842
   52MYC    H88 7624   5.275   2.391  10.884
   52MYC    C45 7625   5.261   2.558  11.023
   52MYC    H85 7626   5.171   2.514  11.068
   52MYC    H86 7627   5.243   2.665  11.017
   52MYC    C44 7628   5.382   2.537  11.116
   52MYC    H83 7629   5.360   2.586  11.211
   52MYC    H84 7630   5.469   2.588  11.074
   52MYC    C18 7631   5.414   2.391  11.143
   52MYC    H31 7632   5.328   2.337  11.183
   52MYC    C17 7633   5.505   2.315  11.050
   52MYC    H30 7634   5.551   2.374  10.971
   52MYC    C19 7635   5.549   2.346  11.191
   52MYC    H32 7636   5.626   2.421  11.204
   52MYC    H33 7637   5.553   2.264  11.263
   52MYC    C16 7638   5.463   2.175  11.006
   52MYC    H28 7639   5.361   2.179  10.964
   52MYC    H29 7640   5.456   2.110  11.094
   52MYC    C15 7641   5.556   2.107  10.903
   52MYC    H26 7642   5.521   2.004  10.887
   52MYC    H27 7643   5.657   2.101  10.944
   52MYC    C14 7644   5.560   2.180  10.767
   52MYC    H24 7645   5.607   2.278  10.782
   52MYC    H25 7646   5.457   2.200  10.733
   52MYC    C13 7647   5.636   2.104  10.657
   52MYC    H22 7648   5.571   2.028  10.614
   52MYC    H23 7649   5.723   2.053  10.700
   52MYC    C12 7650   5.683   2.200  10.546
   52MYC    H20 7651   5.746   2.277  10.592
   52MYC    H21 7652   5.596   2.251  10.505
   52MYC    C11 7653   5.763   2.133  10.433
   52MYC    H18 7654   5.697   2.068  10.375
   52MYC    H19 7655   5.840   2.068  10.476
   52MYC    C10 7656   5.833   2.235  10.340
   52MYC    H16 7657   5.880   2.181  10.257
   52MYC    H17 7658   5.914   2.284  10.396
   52MYC     C9 7659   5.741   2.346  10.283
   52MYC    H14 7660   5.803   2.415  10.223
   52MYC    H15 7661   5.699   2.406  10.364
   52MYC     C8 7662   5.627   2.293  10.193
   52MYC    H12 7663   5.570   2.216  10.247
   52MYC    H13 7664   5.673   2.243  10.107
   52MYC     C7 7665   5.529   2.403  10.147
   52MYC    H10 7666   5.584   2.494  10.121
   52MYC    H11 7667   5.462   2.428  10.230
   52MYC     C6 7668   5.443   2.360  10.025
   52MYC     H8 7669   5.357   2.428  10.016
   52MYC     H9 7670   5.402   2.260  10.044
   52MYC     C5 7671   5.523   2.361   9.893
   52MYC     H6 7672   5.619   2.312   9.908
   52MYC     H7 7673   5.546   2.465   9.867
   52MYC     C4 7674   5.449   2.295   9.775
   52MYC     H4 7675   5.367   2.362   9.744
   52MYC     H5 7676   5.402   2.202   9.809
   52MYC     C2 7677   5.537   2.264   9.650
   52MYC     H2 7678   5.466   2.261   9.566
   52MYC     O3 7679   5.630   2.370   9.626
   52MYC     H3 7680   5.699   2.365   9.695
   52MYC     C1 7681   5.609   2.126   9.653
   52MYC     H1 7682   5.530   2.052   9.671
   52MYC    C81 7683   5.710   2.111   9.769
   52MYC    O82 7684   5.817   2.169   9.775
   52MYC    O83 7685   5.670   2.027   9.867
   52MYC   H105 7686   5.743   2.025   9.931
   52MYC    C20 7687   5.676   2.088   9.518
   52MYC    H34 7688   5.749   2.166   9.491
   52MYC    H35 7689   5.734   1.996   9.531
   52MYC    C21 7690   5.575   2.070   9.403
   52MYC    H36 7691   5.496   2.001   9.434
   52MYC    H37 7692   5.528   2.166   9.381
   52MYC    C22 7693   5.639   2.016   9.274
   52MYC    H38 7694   5.725   2.080   9.247
   52MYC    H39 7695   5.677   1.915   9.290
   52MYC    C23 7696   5.539   2.016   9.156
   52MYC    H40 7697   5.453   1.953   9.181
   52MYC    H41 7698   5.501   2.119   9.142
   52MYC    C24 7699   5.602   1.967   9.025
   52MYC    H42 7700   5.702   2.012   9.014
   52MYC    H43 7701   5.616   1.859   9.029
   52MYC    C25 7702   5.519   2.004   8.901
   52MYC    H44 7703   5.418   1.960   8.909
   52MYC    H45 7704   5.507   2.113   8.897
   52MYC    C26 7705   5.585   1.956   8.770
   52MYC    H46 7706   5.691   1.983   8.771
   52MYC    H47 7707   5.580   1.846   8.765
   52MYC    C27 7708   5.519   2.016   8.645
   52MYC    H48 7709   5.413   1.991   8.645
   52MYC    H49 7710   5.527   2.125   8.650
   52MYC    C28 7711   5.583   1.966   8.514
   52MYC    H50 7712   5.692   1.976   8.520
   52MYC    H51 7713   5.561   1.860   8.501
   52MYC    C29 7714   5.534   2.045   8.391
   52MYC    H52 7715   5.425   2.041   8.386
   52MYC    H53 7716   5.562   2.150   8.401
   52MYC    C30 7717   5.592   1.990   8.258
   52MYC    H54 7718   5.701   1.990   8.264
   52MYC    H55 7719   5.560   1.886   8.246
   52MYC    C31 7720   5.547   2.073   8.136
   52MYC    H56 7721   5.437   2.078   8.135
   52MYC    H57 7722   5.583   2.176   8.146
   52MYC    C32 7723   5.597   2.013   8.004
   52MYC    H58 7724   5.706   2.009   8.004
   52MYC    H59 7725   5.561   1.910   7.995
   52MYC    C33 7726   5.549   2.093   7.881
   52MYC    H60 7727   5.440   2.103   7.884
   52MYC    H61 7728   5.591   2.194   7.885
   52MYC    C34 7729   5.589   2.026   7.748
   52MYC    H62 7730   5.699   2.023   7.741
   52MYC    H63 7731   5.554   1.922   7.748
   52MYC    C35 7732   5.532   2.098   7.625
   52MYC    H64 7733   5.423   2.106   7.635
   52MYC    H65 7734   5.572   2.200   7.622
   52MYC    C36 7735   5.566   2.026   7.493
   52MYC    H66 7736   5.674   2.021   7.481
   52MYC    H67 7737   5.529   1.923   7.498
   52MYC    C37 7738   5.504   2.096   7.371
   52MYC    H68 7739   5.395   2.097   7.380
   52MYC    H69 7740   5.537   2.201   7.370
   52MYC    C38 7741   5.545   2.030   7.237
   52MYC    H70 7742   5.654   2.028   7.231
   52MYC    H71 7743   5.511   1.926   7.236
   52MYC    C39 7744   5.487   2.104   7.115
   52MYC    H72 7745   5.378   2.091   7.111
   52MYC    H73 7746   5.506   2.212   7.126
   52MYC    C40 7747   5.549   2.057   6.982
   52MYC    H74 7748   5.659   2.063   6.990
   52MYC    H75 7749   5.524   1.952   6.965
   52MYC    C41 7750   5.505   2.142   6.861
   52MYC    H76 7751   5.397   2.127   6.844
   52MYC    H77 7752   5.520   2.248   6.884
   52MYC    C42 7753   5.582   2.107   6.732
   52MYC    H78 7754   5.690   2.118   6.751
   52MYC    H79 7755   5.564   2.002   6.705
   52MYC    C43 7756   5.544   2.197   6.613
   52MYC    H80 7757   5.602   2.170   6.524
   52MYC    H81 7758   5.563   2.303   6.636
   52MYC    H82 7759   5.437   2.187   6.589
   53MYC   HH15 7760   6.257   2.766   6.644
   53MYC    C80 7761   6.235   2.690   6.720
   53MYC   H100 7762   6.137   2.647   6.698
   53MYC   H101 7763   6.310   2.610   6.712
   53MYC    C79 7764   6.237   2.752   6.861
   53MYC   H102 7765   6.158   2.827   6.868
   53MYC   H103 7766   6.333   2.804   6.875
   53MYC    C78 7767   6.220   2.647   6.973
   53MYC   HH14 7768   6.308   2.581   6.973
   53MYC   H104 7769   6.133   2.585   6.951
   53MYC    C77 7770   6.202   2.710   7.112
   53MYC   H106 7771   6.108   2.765   7.114
   53MYC   H107 7772   6.282   2.782   7.131
   53MYC    C76 7773   6.202   2.604   7.225
   53MYC   H108 7774   6.303   2.564   7.237
   53MYC   H109 7775   6.138   2.520   7.195
   53MYC    C75 7776   6.152   2.660   7.360
   53MYC   H110 7777   6.049   2.696   7.347
   53MYC   H111 7778   6.213   2.746   7.389
   53MYC    C74 7779   6.153   2.554   7.472
   53MYC   H112 7780   6.257   2.527   7.494
   53MYC   H113 7781   6.102   2.463   7.438
   53MYC    C73 7782   6.086   2.605   7.601
   53MYC   HH13 7783   5.980   2.627   7.580
   53MYC   H114 7784   6.133   2.700   7.630
   53MYC    C72 7785   6.094   2.506   7.719
   53MYC   H115 7786   6.199   2.481   7.737
   53MYC   H116 7787   6.043   2.412   7.692
   53MYC    C71 7788   6.032   2.565   7.847
   53MYC   H117 7789   5.923   2.572   7.834
   53MYC   H118 7790   6.069   2.667   7.859
   53MYC    C70 7791   6.064   2.484   7.974
   53MYC   H119 7792   6.172   2.464   7.977
   53MYC   H120 7793   6.013   2.387   7.972
   53MYC    C69 7794   6.024   2.562   8.101
   53MYC   H121 7795   5.915   2.570   8.107
   53MYC   H122 7796   6.063   2.665   8.093
   53MYC    C68 7797   6.079   2.501   8.232
   53MYC   HH12 7798   6.185   2.477   8.219
   53MYC   H123 7799   6.026   2.407   8.253
   53MYC    C67 7800   6.064   2.598   8.351
   53MYC   H124 7801   5.958   2.623   8.365
   53MYC   H125 7802   6.116   2.692   8.327
   53MYC    C66 7803   6.122   2.542   8.482
   53MYC   H126 7804   6.225   2.508   8.465
   53MYC   H127 7805   6.063   2.454   8.513
   53MYC    C65 7806   6.122   2.646   8.595
   53MYC   H128 7807   6.019   2.683   8.611
   53MYC   H129 7808   6.182   2.733   8.565
   53MYC    C64 7809   6.177   2.591   8.727
   53MYC   H130 7810   6.279   2.554   8.712
   53MYC   H131 7811   6.117   2.504   8.758
   53MYC    C63 7812   6.177   2.695   8.841
   53MYC   HH11 7813   6.074   2.730   8.857
   53MYC   H132 7814   6.236   2.782   8.810
   53MYC    C62 7815   6.233   2.638   8.972
   53MYC   H133 7816   6.340   2.617   8.960
   53MYC   H134 7817   6.183   2.543   8.994
   53MYC    C61 7818   6.212   2.734   9.091
   53MYC   H135 7819   6.105   2.755   9.101
   53MYC   H136 7820   6.260   2.830   9.069
   53MYC    C60 7821   6.267   2.679   9.221
   53MYC   H137 7822   6.375   2.691   9.230
   53MYC    C58 7823   6.184   2.689   9.347
   53MYC   H138 7824   6.084   2.729   9.336
   53MYC    C59 7825   6.210   2.554   9.285
   53MYC   H139 7826   6.279   2.487   9.335
   53MYC   H140 7827   6.127   2.504   9.236
   53MYC    C57 7828   6.247   2.727   9.480
   53MYC   HH10 7829   6.265   2.835   9.483
   53MYC   H141 7830   6.344   2.678   9.491
   53MYC    C56 7831   6.157   2.688   9.598
   53MYC   H142 7832   6.145   2.579   9.600
   53MYC   H143 7833   6.057   2.731   9.585
   53MYC    C55 7834   6.215   2.736   9.732
   53MYC   H144 7835   6.205   2.845   9.739
   53MYC   H145 7836   6.322   2.713   9.734
   53MYC    C54 7837   6.148   2.670   9.853
   53MYC   H146 7838   6.155   2.561   9.843
   53MYC   H147 7839   6.041   2.696   9.857
   53MYC    C53 7840   6.217   2.713   9.984
   53MYC   H148 7841   6.186   2.815  10.009
   53MYC   H149 7842   6.325   2.715   9.968
   53MYC    C52 7843   6.187   2.620  10.102
   53MYC    H99 7844   6.213   2.517  10.075
   53MYC   H150 7845   6.080   2.622  10.125
   53MYC    C51 7846   6.270   2.661  10.224
   53MYC    H97 7847   6.246   2.765  10.250
   53MYC    H98 7848   6.376   2.658  10.199
   53MYC    C50 7849   6.246   2.573  10.348
   53MYC    H95 7850   6.269   2.468  10.324
   53MYC    H96 7851   6.140   2.578  10.375
   53MYC    C49 7852   6.333   2.621  10.465
   53MYC    H93 7853   6.325   2.730  10.473
   53MYC    H94 7854   6.438   2.599  10.443
   53MYC    C48 7855   6.294   2.559  10.600
   53MYC    H91 7856   6.313   2.451  10.598
   53MYC    H92 7857   6.187   2.573  10.616
   53MYC    C47 7858   6.373   2.625  10.714
   53MYC    H89 7859   6.360   2.734  10.707
   53MYC    H90 7860   0.030   2.605  10.700
   53MYC    C46 7861   6.328   2.579  10.853
   53MYC    H87 7862   6.351   2.472  10.867
   53MYC    H88 7863   6.219   2.589  10.857
   53MYC    C45 7864   6.393   2.662  10.966
   53MYC    H85 7865   6.383   2.768  10.943
   53MYC    H86 7866   0.051   2.641  10.969
   53MYC    C44 7867   6.334   2.636  11.106
   53MYC    H83 7868   6.379   2.707  11.177
   53MYC    H84 7869   6.364   2.536  11.140
   53MYC    C18 7870   6.182   2.649  11.111
   53MYC    H31 7871   6.145   2.732  11.052
   53MYC    C17 7872   6.098   2.523  11.115
   53MYC    H30 7873   6.152   2.429  11.124
   53MYC    C19 7874   6.103   2.615  11.235
   53MYC    H32 7875   6.158   2.582  11.322
   53MYC    H33 7876   6.016   2.677  11.256
   53MYC    C16 7877   5.971   2.510  11.030
   53MYC    H28 7878   5.977   2.578  10.944
   53MYC    H29 7879   5.885   2.543  11.089
   53MYC    C15 7880   5.945   2.366  10.979
   53MYC    H26 7881   5.840   2.360  10.946
   53MYC    H27 7882   5.953   2.296  11.063
   53MYC    C14 7883   6.037   2.321  10.863
   53MYC    H24 7884   6.141   2.320  10.898
   53MYC    H25 7885   6.031   2.393  10.781
   53MYC    C13 7886   6.001   2.180  10.810
   53MYC    H22 7887   5.897   2.182  10.776
   53MYC    H23 7888   6.005   2.110  10.894
   53MYC    C12 7889   6.091   2.129  10.695
   53MYC    H20 7890   6.196   2.148  10.722
   53MYC    H21 7891   6.070   2.186  10.604
   53MYC    C11 7892   6.073   1.978  10.669
   53MYC    H18 7893   5.970   1.958  10.636
   53MYC    H19 7894   6.086   1.925  10.764
   53MYC    C10 7895   6.172   1.915  10.567
   53MYC    H16 7896   6.176   1.807  10.587
   53MYC    H17 7897   6.273   1.953  10.587
   53MYC     C9 7898   6.137   1.935  10.418
   53MYC    H14 7899   6.142   2.042  10.392
   53MYC    H15 7900   6.034   1.902  10.400
   53MYC     C8 7901   6.233   1.855  10.326
   53MYC    H12 7902   6.223   1.748  10.350
   53MYC    H13 7903   6.336   1.883  10.349
   53MYC     C7 7904   6.208   1.873  10.174
   53MYC    H10 7905   6.224   1.978  10.147
   53MYC    H11 7906   6.104   1.850  10.152
   53MYC     C6 7907   6.302   1.783  10.089
   53MYC     H8 7908   6.281   1.678  10.113
   53MYC     H9 7909   6.405   1.801  10.119
   53MYC     C5 7910   6.291   1.802   9.936
   53MYC     H6 7911   6.361   1.732   9.889
   53MYC     H7 7912   6.324   1.903   9.909
   53MYC     C4 7913   6.149   1.778   9.880
   53MYC     H4 7914   6.087   1.865   9.904
   53MYC     H5 7915   6.105   1.692   9.932
   53MYC     C2 7916   6.142   1.752   9.727
   53MYC     H2 7917   6.196   1.833   9.676
   53MYC     O3 7918   6.207   1.628   9.698
   53MYC     H3 7919   6.151   1.557   9.733
   53MYC     C1 7920   5.996   1.750   9.671
   53MYC     H1 7921   5.962   1.854   9.673
   53MYC    C81 7922   5.901   1.670   9.764
   53MYC    O82 7923   5.902   1.548   9.774
   53MYC    O83 7924   5.828   1.747   9.848
   53MYC   H105 7925   5.778   1.684   9.903
   53MYC    C20 7926   5.981   1.699   9.525
   53MYC    H34 7927   6.012   1.593   9.520
   53MYC    H35 7928   5.874   1.701   9.499
   53MYC    C21 7929   6.058   1.779   9.418
   53MYC    H36 7930   6.030   1.885   9.425
   53MYC    H37 7931   6.166   1.772   9.437
   53MYC    C22 7932   6.027   1.727   9.276
   53MYC    H38 7933   6.055   1.622   9.268
   53MYC    H39 7934   5.919   1.733   9.259
   53MYC    C23 7935   6.099   1.806   9.164
   53MYC    H40 7936   6.082   1.913   9.179
   53MYC    H41 7937   6.208   1.789   9.172
   53MYC    C24 7938   6.050   1.766   9.024
   53MYC    H42 7939   6.061   1.658   9.010
   53MYC    H43 7940   5.943   1.788   9.017
   53MYC    C25 7941   6.124   1.839   8.910
   53MYC    H44 7942   6.129   1.946   8.933
   53MYC    H45 7943   6.227   1.802   8.904
   53MYC    C26 7944   6.054   1.820   8.774
   53MYC    H46 7945   6.046   1.713   8.752
   53MYC    H47 7946   5.951   1.859   8.781
   53MYC    C27 7947   6.126   1.891   8.658
   53MYC    H48 7948   6.143   1.996   8.684
   53MYC    H49 7949   6.225   1.844   8.644
   53MYC    C28 7950   6.046   1.883   8.527
   53MYC    H50 7951   6.024   1.778   8.505
   53MYC    H51 7952   5.950   1.934   8.540
   53MYC    C29 7953   6.120   1.945   8.407
   53MYC    H52 7954   6.138   2.052   8.426
   53MYC    H53 7955   6.218   1.897   8.397
   53MYC    C30 7956   6.041   1.927   8.276
   53MYC    H54 7957   6.021   1.820   8.261
   53MYC    H55 7958   5.944   1.978   8.285
   53MYC    C31 7959   6.116   1.982   8.153
   53MYC    H56 7960   6.129   2.090   8.163
   53MYC    H57 7961   6.216   1.937   8.148
   53MYC    C32 7962   6.040   1.951   8.023
   53MYC    H58 7963   6.026   1.843   8.014
   53MYC    H59 7964   5.940   1.996   8.029
   53MYC    C33 7965   6.111   2.003   7.897
   53MYC    H60 7966   6.128   2.111   7.908
   53MYC    H61 7967   6.209   1.955   7.888
   53MYC    C34 7968   6.029   1.977   7.769
   53MYC    H62 7969   6.012   1.870   7.758
   53MYC    H63 7970   5.930   2.024   7.781
   53MYC    C35 7971   6.096   2.032   7.643
   53MYC    H64 7972   6.119   2.139   7.656
   53MYC    H65 7973   6.192   1.981   7.628
   53MYC    C36 7974   6.009   2.015   7.517
   53MYC    H66 7975   5.988   1.908   7.502
   53MYC    H67 7976   5.913   2.065   7.533
   53MYC    C37 7977   6.076   2.072   7.391
   53MYC    H68 7978   6.090   2.180   7.403
   53MYC    H69 7979   6.175   2.027   7.380
   53MYC    C38 7980   5.995   2.046   7.262
   53MYC    H70 7981   5.986   1.937   7.247
   53MYC    H71 7982   5.893   2.085   7.274
   53MYC    C39 7983   6.060   2.110   7.138
   53MYC    H72 7984   6.048   2.219   7.143
   53MYC    H73 7985   6.168   2.090   7.140
   53MYC    C40 7986   6.003   2.058   7.005
   53MYC    H74 7987   6.018   1.949   7.000
   53MYC    H75 7988   5.895   2.076   7.001
   53MYC    C41 7989   6.071   2.123   6.882
   53MYC    H76 7990   6.043   2.229   6.878
   53MYC    H77 7991   6.179   2.119   6.894
   53MYC    C42 7992   6.033   2.056   6.749
   53MYC    H78 7993   6.060   1.949   6.753
   53MYC    H79 7994   5.925   2.061   6.734
   53MYC    C43 7995   6.104   2.119   6.627
   53MYC    H80 7996   6.074   2.068   6.535
   53MYC    H81 7997   6.213   2.109   6.637
   53MYC    H82 7998   6.079   2.225   6.619
   54MYC   HH15 7999   0.226   2.757   6.519
   54MYC    C80 8000   0.237   2.817   6.610
   54MYC   H100 8001   0.339   2.855   6.614
   54MYC   H101 8002   0.168   2.902   6.605
   54MYC    C79 8003   0.207   2.730   6.734
   54MYC   H102 8004   0.281   2.650   6.741
   54MYC   H103 8005   0.109   2.682   6.721
   54MYC    C78 8006   0.205   2.811   6.865
   54MYC   HH14 8007   0.119   2.880   6.863
   54MYC   H104 8008   0.295   2.873   6.872
   54MYC    C77 8009   0.195   2.722   6.991
   54MYC   H106 8010   0.286   2.663   7.000
   54MYC   H107 8011   0.111   2.652   6.979
   54MYC    C76 8012   0.173   2.804   7.120
   54MYC   H108 8013   0.077   2.856   7.114
   54MYC   H109 8014   0.251   2.881   7.129
   54MYC    C75 8015   0.175   2.715   7.246
   54MYC   H110 8016   0.274   2.670   7.257
   54MYC   H111 8017   0.104   2.633   7.233
   54MYC    C74 8018   0.139   2.792   7.375
   54MYC   H112 8019   0.042   2.841   7.361
   54MYC   H113 8020   0.213   2.870   7.394
   54MYC    C73 8021   0.130   2.697   7.497
   54MYC   HH13 8022   0.227   2.649   7.513
   54MYC   H114 8023   0.058   2.618   7.473
   54MYC    C72 8024   0.086   2.768   7.627
   54MYC   H115 8025   0.009   2.842   7.604
   54MYC   H116 8026   0.171   2.822   7.670
   54MYC    C71 8027   0.029   2.668   7.730
   54MYC   H117 8028   0.102   2.588   7.748
   54MYC   H118 8029   6.391   2.620   7.684
   54MYC    C70 8030   6.435   2.731   7.863
   54MYC   H119 8031   6.339   2.688   7.893
   54MYC   H120 8032   6.416   2.839   7.849
   54MYC    C69 8033   0.086   2.711   7.978
   54MYC   H121 8034   0.182   2.757   7.952
   54MYC   H122 8035   0.103   2.604   7.992
   54MYC    C68 8036   0.034   2.771   8.110
   54MYC   HH12 8037   6.386   2.726   8.133
   54MYC   H123 8038   0.017   2.878   8.096
   54MYC    C67 8039   0.128   2.750   8.230
   54MYC   H124 8040   0.226   2.795   8.208
   54MYC   H125 8041   0.145   2.642   8.245
   54MYC    C66 8042   0.069   2.812   8.358
   54MYC   H126 8043   6.422   2.765   8.379
   54MYC   H127 8044   0.050   2.918   8.340
   54MYC    C65 8045   0.160   2.797   8.481
   54MYC   H128 8046   0.259   2.839   8.459
   54MYC   H129 8047   0.173   2.691   8.503
   54MYC    C64 8048   0.101   2.870   8.603
   54MYC   H130 8049   6.445   2.841   8.615
   54MYC   H131 8050   0.103   2.978   8.585
   54MYC    C63 8051   0.176   2.838   8.732
   54MYC   HH11 8052   0.282   2.864   8.721
   54MYC   H132 8053   0.171   2.730   8.751
   54MYC    C62 8054   0.118   2.913   8.854
   54MYC   H133 8055   0.010   2.896   8.858
   54MYC   H134 8056   0.134   3.020   8.842
   54MYC    C61 8057   0.182   2.865   8.984
   54MYC   H135 8058   0.290   2.881   8.979
   54MYC   H136 8059   0.166   2.757   8.995
   54MYC    C60 8060   0.125   2.935   9.106
   54MYC   H137 8061   0.017   2.930   9.110
   54MYC    C58 8062   0.198   2.920   9.236
   54MYC   H138 8063   0.295   2.871   9.233
   54MYC    C59 8064   0.190   3.055   9.170
   54MYC   H139 8065   0.127   3.130   9.216
   54MYC   H140 8066   0.281   3.094   9.124
   54MYC    C57 8067   0.121   2.883   9.360
   54MYC   HH10 8068   0.115   2.774   9.367
   54MYC   H141 8069   0.017   2.920   9.355
   54MYC    C56 8070   0.187   2.939   9.486
   54MYC   H142 8071   0.175   3.048   9.488
   54MYC   H143 8072   0.295   2.918   9.482
   54MYC    C55 8073   0.130   2.877   9.614
   54MYC   H144 8074   0.153   2.770   9.615
   54MYC   H145 8075   0.021   2.887   9.615
   54MYC    C54 8076   0.188   2.944   9.738
   54MYC   H146 8077   0.153   3.047   9.743
   54MYC   H147 8078   0.298   2.948   9.730
   54MYC    C53 8079   0.151   2.870   9.867
   54MYC   H148 8080   0.191   2.768   9.863
   54MYC   H149 8081   0.042   2.862   9.875
   54MYC    C52 8082   0.207   2.943   9.989
   54MYC    H99 8083   0.157   3.041   9.998
   54MYC   H150 8084   0.314   2.963   9.974
   54MYC    C51 8085   0.188   2.864  10.118
   54MYC    H97 8086   0.240   2.768  10.110
   54MYC    H98 8087   0.082   2.844  10.135
   54MYC    C50 8088   0.246   2.942  10.237
   54MYC    H95 8089   0.192   3.037  10.248
   54MYC    H96 8090   0.351   2.966  10.217
   54MYC    C49 8091   0.237   2.863  10.368
   54MYC    H93 8092   0.287   2.767  10.356
   54MYC    H94 8093   0.132   2.843  10.392
   54MYC    C48 8094   0.303   2.941  10.482
   54MYC    H91 8095   0.252   3.037  10.493
   54MYC    H92 8096   0.406   2.964  10.452
   54MYC    C47 8097   0.303   2.865  10.615
   54MYC    H89 8098   0.291   2.758  10.597
   54MYC    H90 8099   0.217   2.896  10.676
   54MYC    C46 8100   0.434   2.886  10.694
   54MYC    H87 8101   0.446   2.992  10.719
   54MYC    H88 8102   0.518   2.861  10.628
   54MYC    C45 8103   0.445   2.800  10.820
   54MYC    H85 8104   0.550   2.787  10.846
   54MYC    H86 8105   0.408   2.700  10.798
   54MYC    C44 8106   0.370   2.858  10.941
   54MYC    H83 8107   0.334   2.775  11.004
   54MYC    H84 8108   0.281   2.913  10.909
   54MYC    C18 8109   0.463   2.948  11.019
   54MYC    H31 8110   0.515   3.019  10.955
   54MYC    C17 8111   0.435   2.990  11.160
   54MYC    H30 8112   0.343   2.953  11.205
   54MYC    C19 8113   0.544   2.889  11.132
   54MYC    H32 8114   0.526   2.785  11.159
   54MYC    H33 8115   0.648   2.919  11.137
   54MYC    C16 8116   0.473   3.129  11.209
   54MYC    H28 8117   0.579   3.147  11.189
   54MYC    H29 8118   0.461   3.133  11.317
   54MYC    C15 8119   0.389   3.246  11.152
   54MYC    H26 8120   0.408   3.334  11.215
   54MYC    H27 8121   0.282   3.223  11.163
   54MYC    C14 8122   0.421   3.281  11.005
   54MYC    H24 8123   0.360   3.217  10.940
   54MYC    H25 8124   0.526   3.258  10.983
   54MYC    C13 8125   0.395   3.430  10.972
   54MYC    H22 8126   0.460   3.493  11.033
   54MYC    H23 8127   0.291   3.453  11.000
   54MYC    C12 8128   0.414   3.468  10.824
   54MYC    H20 8129   0.394   3.575  10.813
   54MYC    H21 8130   0.336   3.417  10.766
   54MYC    C11 8131   0.551   3.434  10.761
   54MYC    H18 8132   0.565   3.325  10.760
   54MYC    H19 8133   0.631   3.476  10.823
   54MYC    C10 8134   0.567   3.487  10.616
   54MYC    H16 8135   0.664   3.452  10.578
   54MYC    H17 8136   0.571   3.596  10.617
   54MYC     C9 8137   0.455   3.442  10.519
   54MYC    H14 8138   0.363   3.499  10.541
   54MYC    H15 8139   0.431   3.337  10.539
   54MYC     C8 8140   0.490   3.459  10.369
   54MYC    H12 8141   0.590   3.420  10.351
   54MYC    H13 8142   0.491   3.566  10.344
   54MYC     C7 8143   0.389   3.385  10.278
   54MYC    H10 8144   0.290   3.428  10.291
   54MYC    H11 8145   0.382   3.280  10.312
   54MYC     C6 8146   0.428   3.385  10.129
   54MYC     H8 8147   0.529   3.344  10.118
   54MYC     H9 8148   0.431   3.488  10.092
   54MYC     C5 8149   0.330   3.301  10.044
   54MYC     H6 8150   0.232   3.349  10.044
   54MYC     H7 8151   0.317   3.204  10.094
   54MYC     C4 8152   0.374   3.271   9.899
   54MYC     H4 8153   0.314   3.186   9.863
   54MYC     H5 8154   0.478   3.237   9.897
   54MYC     C2 8155   0.354   3.388   9.799
   54MYC     H2 8156   0.256   3.433   9.820
   54MYC     O3 8157   0.456   3.485   9.818
   54MYC     H3 8158   0.485   3.481   9.911
   54MYC     C1 8159   0.352   3.340   9.651
   54MYC     H1 8160   0.270   3.268   9.644
   54MYC    C81 8161   0.481   3.266   9.609
   54MYC    O82 8162   0.592   3.316   9.604
   54MYC    O83 8163   0.460   3.140   9.565
   54MYC   H105 8164   0.547   3.108   9.536
   54MYC    C20 8165   0.315   3.454   9.552
   54MYC    H34 8166   0.226   3.506   9.588
   54MYC    H35 8167   0.396   3.527   9.548
   54MYC    C21 8168   0.288   3.401   9.409
   54MYC    H36 8169   0.379   3.353   9.371
   54MYC    H37 8170   0.211   3.323   9.413
   54MYC    C22 8171   0.244   3.509   9.309
   54MYC    H38 8172   0.147   3.552   9.339
   54MYC    H39 8173   0.317   3.591   9.309
   54MYC    C23 8174   0.233   3.450   9.167
   54MYC    H40 8175   0.327   3.397   9.146
   54MYC    H41 8176   0.153   3.375   9.165
   54MYC    C24 8177   0.209   3.553   9.055
   54MYC    H42 8178   0.107   3.593   9.062
   54MYC    H43 8179   0.279   3.637   9.065
   54MYC    C25 8180   0.231   3.485   8.918
   54MYC    H44 8181   0.330   3.438   8.919
   54MYC    H45 8182   0.158   3.404   8.907
   54MYC    C26 8183   0.222   3.577   8.795
   54MYC    H46 8184   0.117   3.605   8.779
   54MYC    H47 8185   0.279   3.669   8.812
   54MYC    C27 8186   0.278   3.503   8.672
   54MYC    H48 8187   0.387   3.509   8.674
   54MYC    H49 8188   0.252   3.396   8.678
   54MYC    C28 8189   0.227   3.556   8.537
   54MYC    H50 8190   0.117   3.552   8.536
   54MYC    H51 8191   0.257   3.660   8.525
   54MYC    C29 8192   0.281   3.472   8.420
   54MYC    H52 8193   0.391   3.482   8.417
   54MYC    H53 8194   0.259   3.366   8.436
   54MYC    C30 8195   0.224   3.515   8.284
   54MYC    H54 8196   0.114   3.505   8.286
   54MYC    H55 8197   0.247   3.621   8.268
   54MYC    C31 8198   0.279   3.432   8.167
   54MYC    H56 8199   0.389   3.433   8.171
   54MYC    H57 8200   0.247   3.328   8.177
   54MYC    C32 8201   0.234   3.487   8.031
   54MYC    H58 8202   0.124   3.488   8.026
   54MYC    H59 8203   0.267   3.591   8.022
   54MYC    C33 8204   0.289   3.407   7.911
   54MYC    H60 8205   0.398   3.402   7.918
   54MYC    H61 8206   0.251   3.305   7.916
   54MYC    C34 8207   0.250   3.471   7.777
   54MYC    H62 8208   0.140   3.480   7.772
   54MYC    H63 8209   0.291   3.573   7.772
   54MYC    C35 8210   0.300   3.392   7.656
   54MYC    H64 8211   0.410   3.385   7.660
   54MYC    H65 8212   0.262   3.289   7.661
   54MYC    C36 8213   0.258   3.456   7.522
   54MYC    H66 8214   0.149   3.464   7.519
   54MYC    H67 8215   0.298   3.558   7.517
   54MYC    C37 8216   0.307   3.377   7.400
   54MYC    H68 8217   0.417   3.370   7.404
   54MYC    H69 8218   0.268   3.275   7.405
   54MYC    C38 8219   0.266   3.442   7.267
   54MYC    H70 8220   0.156   3.450   7.262
   54MYC    H71 8221   0.306   3.544   7.263
   54MYC    C39 8222   0.316   3.363   7.145
   54MYC    H72 8223   0.424   3.348   7.154
   54MYC    H73 8224   0.269   3.264   7.144
   54MYC    C40 8225   0.287   3.435   7.012
   54MYC    H74 8226   0.180   3.452   7.002
   54MYC    H75 8227   0.337   3.532   7.012
   54MYC    C41 8228   0.337   3.354   6.890
   54MYC    H76 8229   0.442   3.326   6.906
   54MYC    H77 8230   0.280   3.261   6.883
   54MYC    C42 8231   0.326   3.432   6.758
   54MYC    H78 8232   0.223   3.464   6.742
   54MYC    H79 8233   0.388   3.523   6.765
   54MYC    C43 8234   0.373   3.350   6.637
   54MYC    H80 8235   0.375   3.414   6.548
   54MYC    H81 8236   0.305   3.266   6.618
   54MYC    H82 8237   0.474   3.310   6.653
   55MYC   HH15 8238   0.876   3.205   6.664
   55MYC    C80 8239   0.924   3.164   6.753
   55MYC   H100 8240   0.896   3.058   6.762
   55MYC   H101 8241   1.032   3.171   6.740
   55MYC    C79 8242   0.880   3.242   6.879
   55MYC   H102 8243   0.770   3.239   6.887
   55MYC   H103 8244   0.908   3.348   6.866
   55MYC    C78 8245   0.943   3.188   7.008
   55MYC   HH14 8246   1.052   3.186   6.997
   55MYC   H104 8247   0.910   3.084   7.023
   55MYC    C77 8248   0.907   3.271   7.134
   55MYC   H106 8249   0.798   3.272   7.147
   55MYC   H107 8250   0.938   3.375   7.118
   55MYC    C76 8251   0.974   3.216   7.261
   55MYC   H108 8252   1.083   3.214   7.246
   55MYC   H109 8253   0.942   3.112   7.277
   55MYC    C75 8254   0.943   3.298   7.388
   55MYC   H110 8255   0.835   3.305   7.402
   55MYC   H111 8256   0.981   3.400   7.375
   55MYC    C74 8257   1.007   3.236   7.514
   55MYC   H112 8258   1.114   3.222   7.497
   55MYC   H113 8259   0.964   3.136   7.530
   55MYC    C73 8260   0.988   3.321   7.641
   55MYC   HH13 8261   0.882   3.342   7.657
   55MYC   H114 8262   1.037   3.418   7.625
   55MYC    C72 8263   1.048   3.256   7.768
   55MYC   H115 8264   1.073   3.334   7.841
   55MYC   H116 8265   1.143   3.207   7.742
   55MYC    C71 8266   0.953   3.155   7.836
   55MYC   H117 8267   0.907   3.090   7.760
   55MYC   H118 8268   0.871   3.211   7.882
   55MYC    C70 8269   1.021   3.064   7.941
   55MYC   H119 8270   1.121   3.101   7.965
   55MYC   H120 8271   1.035   2.964   7.897
   55MYC    C69 8272   0.941   3.051   8.073
   55MYC   H121 8273   0.835   3.038   8.050
   55MYC   H122 8274   0.951   3.145   8.129
   55MYC    C68 8275   0.987   2.933   8.161
   55MYC   HH12 8276   1.096   2.931   8.168
   55MYC   H123 8277   0.956   2.839   8.112
   55MYC    C67 8278   0.928   2.937   8.304
   55MYC   H124 8279   0.820   2.959   8.298
   55MYC   H125 8280   0.975   3.020   8.358
   55MYC    C66 8281   0.948   2.805   8.382
   55MYC   H126 8282   1.055   2.782   8.386
   55MYC   H127 8283   0.900   2.724   8.326
   55MYC    C65 8284   0.891   2.807   8.526
   55MYC   H128 8285   0.892   2.704   8.564
   55MYC   H129 8286   0.785   2.837   8.523
   55MYC    C64 8287   0.968   2.897   8.624
   55MYC   H130 8288   0.963   3.002   8.590
   55MYC   H131 8289   1.074   2.869   8.622
   55MYC    C63 8290   0.915   2.889   8.768
   55MYC   HH11 8291   0.919   2.784   8.802
   55MYC   H132 8292   0.810   2.920   8.770
   55MYC    C62 8293   0.996   2.976   8.866
   55MYC   H133 8294   0.992   3.081   8.833
   55MYC   H134 8295   1.101   2.946   8.864
   55MYC    C61 8296   0.944   2.967   9.011
   55MYC   H135 8297   0.948   2.862   9.044
   55MYC   H136 8298   0.838   2.995   9.013
   55MYC    C60 8299   1.020   3.056   9.107
   55MYC   H137 8300   1.008   3.161   9.084
   55MYC    C58 8301   1.028   3.018   9.253
   55MYC   H138 8302   0.986   2.921   9.280
   55MYC    C59 8303   1.153   3.016   9.168
   55MYC   H139 8304   1.227   3.094   9.184
   55MYC   H140 8305   1.194   2.920   9.139
   55MYC    C57 8306   1.003   3.124   9.359
   55MYC   HH10 8307   0.896   3.146   9.362
   55MYC   H141 8308   1.054   3.217   9.332
   55MYC    C56 8309   1.050   3.080   9.499
   55MYC   H142 8310   1.159   3.068   9.499
   55MYC   H143 8311   1.007   2.981   9.521
   55MYC    C55 8312   1.006   3.178   9.609
   55MYC   H144 8313   0.896   3.179   9.613
   55MYC   H145 8314   1.037   3.280   9.583
   55MYC    C54 8315   1.063   3.141   9.747
   55MYC   H146 8316   1.168   3.172   9.751
   55MYC   H147 8317   1.061   3.032   9.759
   55MYC    C53 8318   0.985   3.205   9.863
   55MYC   H148 8319   0.882   3.167   9.861
   55MYC   H149 8320   0.980   3.314   9.850
   55MYC    C52 8321   1.048   3.172   9.999
   55MYC    H99 8322   1.144   3.224  10.007
   55MYC   H150 8323   1.069   3.064  10.004
   55MYC    C51 8324   0.959   3.210  10.118
   55MYC    H97 8325   0.864   3.156  10.111
   55MYC    H98 8326   0.936   3.318  10.113
   55MYC    C50 8327   1.026   3.178  10.253
   55MYC    H95 8328   1.123   3.229  10.257
   55MYC    H96 8329   1.046   3.070  10.258
   55MYC    C49 8330   0.942   3.221  10.373
   55MYC    H93 8331   0.844   3.170  10.369
   55MYC    H94 8332   0.922   3.329  10.367
   55MYC    C48 8333   1.009   3.188  10.508
   55MYC    H91 8334   1.116   3.212  10.502
   55MYC    H92 8335   1.001   3.080  10.526
   55MYC    C47 8336   0.948   3.267  10.625
   55MYC    H89 8337   0.839   3.256  10.623
   55MYC    H90 8338   0.969   3.374  10.612
   55MYC    C46 8339   1.002   3.221  10.761
   55MYC    H87 8340   1.110   3.235  10.764
   55MYC    H88 8341   0.984   3.113  10.771
   55MYC    C45 8342   0.936   3.295  10.879
   55MYC    H85 8343   0.827   3.284  10.874
   55MYC    H86 8344   0.958   3.402  10.870
   55MYC    C44 8345   0.985   3.246  11.017
   55MYC    H83 8346   0.944   3.312  11.095
   55MYC    H84 8347   1.094   3.258  11.022
   55MYC    C18 8348   0.947   3.102  11.050
   55MYC    H31 8349   0.882   3.056  10.976
   55MYC    C17 8350   1.045   3.013  11.123
   55MYC    H30 8351   1.137   3.057  11.160
   55MYC    C19 8352   0.921   3.060  11.193
   55MYC    H32 8353   0.932   3.135  11.271
   55MYC    H33 8354   0.844   2.986  11.213
   55MYC    C16 8355   1.063   2.867  11.083
   55MYC    H28 8356   0.977   2.832  11.026
   55MYC    H29 8357   1.067   2.807  11.175
   55MYC    C15 8358   1.193   2.840  11.002
   55MYC    H26 8359   1.203   2.731  10.990
   55MYC    H27 8360   1.279   2.873  11.060
   55MYC    C14 8361   1.197   2.905  10.862
   55MYC    H24 8362   1.199   3.014  10.872
   55MYC    H25 8363   1.106   2.878  10.807
   55MYC    C13 8364   1.322   2.860  10.780
   55MYC    H22 8365   1.326   2.751  10.782
   55MYC    H23 8366   1.412   2.895  10.832
   55MYC    C12 8367   1.323   2.906  10.632
   55MYC    H20 8368   1.225   2.949  10.605
   55MYC    H21 8369   1.335   2.817  10.570
   55MYC    C11 8370   1.434   3.008  10.597
   55MYC    H18 8371   1.530   2.973  10.637
   55MYC    H19 8372   1.412   3.103  10.648
   55MYC    C10 8373   1.452   3.036  10.446
   55MYC    H16 8374   1.518   3.123  10.434
   55MYC    H17 8375   1.355   3.064  10.402
   55MYC     C9 8376   1.514   2.918  10.366
   55MYC    H14 8377   1.453   2.828  10.382
   55MYC    H15 8378   1.614   2.896  10.406
   55MYC     C8 8379   1.524   2.942  10.214
   55MYC    H12 8380   1.595   3.024  10.195
   55MYC    H13 8381   1.426   2.975  10.178
   55MYC     C7 8382   1.569   2.816  10.137
   55MYC    H10 8383   1.502   2.732  10.163
   55MYC    H11 8384   1.669   2.787  10.170
   55MYC     C6 8385   1.570   2.829   9.982
   55MYC     H8 8386   1.598   2.731   9.942
   55MYC     H9 8387   1.648   2.900   9.953
   55MYC     C5 8388   1.435   2.872   9.922
   55MYC     H6 8389   1.420   2.979   9.939
   55MYC     H7 8390   1.355   2.821   9.977
   55MYC     C4 8391   1.413   2.841   9.771
   55MYC     H4 8392   1.309   2.869   9.748
   55MYC     H5 8393   1.416   2.732   9.757
   55MYC     C2 8394   1.503   2.910   9.664
   55MYC     H2 8395   1.435   2.935   9.582
   55MYC     O3 8396   1.558   3.032   9.713
   55MYC     H3 8397   1.653   3.034   9.690
   55MYC     C1 8398   1.613   2.818   9.601
   55MYC     H1 8399   1.562   2.725   9.572
   55MYC    C81 8400   1.725   2.775   9.699
   55MYC    O82 8401   1.743   2.660   9.732
   55MYC    O83 8402   1.817   2.871   9.725
   55MYC   H105 8403   1.885   2.827   9.779
   55MYC    C20 8404   1.674   2.876   9.471
   55MYC    H34 8405   1.727   2.970   9.491
   55MYC    H35 8406   1.750   2.804   9.436
   55MYC    C21 8407   1.573   2.899   9.356
   55MYC    H36 8408   1.496   2.820   9.358
   55MYC    H37 8409   1.522   2.995   9.372
   55MYC    C22 8410   1.641   2.899   9.218
   55MYC    H38 8411   1.723   2.971   9.217
   55MYC    H39 8412   1.685   2.800   9.202
   55MYC    C23 8413   1.543   2.930   9.103
   55MYC    H40 8414   1.453   2.870   9.114
   55MYC    H41 8415   1.513   3.035   9.107
   55MYC    C24 8416   1.606   2.900   8.965
   55MYC    H42 8417   1.691   2.967   8.949
   55MYC    H43 8418   1.646   2.798   8.966
   55MYC    C25 8419   1.507   2.913   8.848
   55MYC    H44 8420   1.419   2.850   8.867
   55MYC    H45 8421   1.472   3.017   8.842
   55MYC    C26 8422   1.571   2.871   8.715
   55MYC    H46 8423   1.664   2.928   8.700
   55MYC    H47 8424   1.600   2.765   8.722
   55MYC    C27 8425   1.480   2.891   8.593
   55MYC    H48 8426   1.384   2.839   8.609
   55MYC    H49 8427   1.457   2.997   8.581
   55MYC    C28 8428   1.546   2.837   8.464
   55MYC    H50 8429   1.644   2.884   8.452
   55MYC    H51 8430   1.562   2.729   8.476
   55MYC    C29 8431   1.462   2.862   8.337
   55MYC    H52 8432   1.362   2.818   8.350
   55MYC    H53 8433   1.450   2.970   8.323
   55MYC    C30 8434   1.530   2.800   8.213
   55MYC    H54 8435   1.633   2.838   8.206
   55MYC    H55 8436   1.536   2.692   8.226
   55MYC    C31 8437   1.456   2.832   8.082
   55MYC    H56 8438   1.353   2.794   8.087
   55MYC    H57 8439   1.451   2.940   8.069
   55MYC    C32 8440   1.528   2.769   7.961
   55MYC    H58 8441   1.634   2.797   7.963
   55MYC    H59 8442   1.523   2.660   7.968
   55MYC    C33 8443   1.468   2.813   7.826
   55MYC    H60 8444   1.362   2.784   7.822
   55MYC    H61 8445   1.471   2.923   7.820
   55MYC    C34 8446   1.543   2.753   7.706
   55MYC    H62 8447   1.650   2.776   7.715
   55MYC    H63 8448   1.532   2.644   7.706
   55MYC    C35 8449   1.491   2.809   7.572
   55MYC    H64 8450   1.385   2.784   7.560
   55MYC    H65 8451   1.498   2.919   7.574
   55MYC    C36 8452   1.570   2.758   7.450
   55MYC    H66 8453   1.676   2.786   7.460
   55MYC    H67 8454   1.566   2.648   7.447
   55MYC    C37 8455   1.514   2.815   7.318
   55MYC    H68 8456   1.414   2.775   7.302
   55MYC    H69 8457   1.503   2.924   7.328
   55MYC    C38 8458   1.602   2.785   7.196
   55MYC    H70 8459   1.700   2.833   7.209
   55MYC    H71 8460   1.619   2.678   7.188
   55MYC    C39 8461   1.537   2.836   7.065
   55MYC    H72 8462   1.441   2.783   7.051
   55MYC    H73 8463   1.513   2.943   7.076
   55MYC    C40 8464   1.625   2.816   6.940
   55MYC    H74 8465   1.712   2.883   6.947
   55MYC    H75 8466   1.662   2.713   6.938
   55MYC    C41 8467   1.548   2.845   6.810
   55MYC    H76 8468   1.459   2.780   6.806
   55MYC    H77 8469   1.511   2.948   6.811
   55MYC    C42 8470   1.632   2.824   6.683
   55MYC    H78 8471   1.714   2.897   6.681
   55MYC    H79 8472   1.678   2.724   6.686
   55MYC    C43 8473   1.551   2.836   6.553
   55MYC    H80 8474   1.615   2.821   6.466
   55MYC    H81 8475   1.505   2.936   6.546
   55MYC    H82 8476   1.470   2.761   6.551
   56MYC   HH15 8477   2.089   3.429   6.588
   56MYC    C80 8478   2.047   3.378   6.676
   56MYC   H100 8479   1.938   3.373   6.664
   56MYC   H101 8480   2.086   3.276   6.679
   56MYC    C79 8481   2.084   3.455   6.805
   56MYC   H102 8482   2.041   3.556   6.799
   56MYC   H103 8483   2.193   3.466   6.810
   56MYC    C78 8484   2.033   3.384   6.932
   56MYC   HH14 8485   2.084   3.287   6.943
   56MYC   H104 8486   1.926   3.363   6.922
   56MYC    C77 8487   2.055   3.467   7.061
   56MYC   H106 8488   1.997   3.560   7.053
   56MYC   H107 8489   2.160   3.496   7.069
   56MYC    C76 8490   2.013   3.391   7.188
   56MYC   H108 8491   2.084   3.310   7.207
   56MYC   H109 8492   1.915   3.344   7.173
   56MYC    C75 8493   2.004   3.482   7.312
   56MYC   H110 8494   1.924   3.556   7.297
   56MYC   H111 8495   2.098   3.539   7.322
   56MYC    C74 8496   1.979   3.405   7.443
   56MYC   H112 8497   2.068   3.344   7.465
   56MYC   H113 8498   1.895   3.336   7.429
   56MYC    C73 8499   1.949   3.498   7.561
   56MYC   HH13 8500   1.850   3.544   7.547
   56MYC   H114 8501   2.022   3.580   7.563
   56MYC    C72 8502   1.953   3.427   7.698
   56MYC   H115 8503   2.055   3.390   7.715
   56MYC   H116 8504   1.887   3.339   7.696
   56MYC    C71 8505   1.912   3.519   7.814
   56MYC   H117 8506   1.804   3.536   7.810
   56MYC   H118 8507   1.960   3.617   7.801
   56MYC    C70 8508   1.951   3.464   7.952
   56MYC   H119 8509   2.060   3.457   7.957
   56MYC   H120 8510   1.912   3.362   7.963
   56MYC    C69 8511   1.899   3.550   8.068
   56MYC   H121 8512   1.790   3.540   8.074
   56MYC   H122 8513   1.920   3.656   8.047
   56MYC    C68 8514   1.962   3.512   8.202
   56MYC   HH12 8515   2.070   3.532   8.198
   56MYC   H123 8516   1.951   3.404   8.219
   56MYC    C67 8517   1.902   3.588   8.322
   56MYC   H124 8518   1.795   3.564   8.330
   56MYC   H125 8519   1.910   3.696   8.304
   56MYC    C66 8520   1.973   3.553   8.454
   56MYC   H126 8521   2.080   3.577   8.444
   56MYC   H127 8522   1.966   3.445   8.470
   56MYC    C65 8523   1.916   3.626   8.576
   56MYC   H128 8524   1.811   3.599   8.590
   56MYC   H129 8525   1.920   3.735   8.559
   56MYC    C64 8526   1.996   3.592   8.703
   56MYC   H130 8527   2.102   3.615   8.687
   56MYC   H131 8528   1.990   3.483   8.721
   56MYC    C63 8529   1.948   3.665   8.830
   56MYC   HH11 8530   1.844   3.635   8.852
   56MYC   H132 8531   1.947   3.773   8.812
   56MYC    C62 8532   2.039   3.634   8.950
   56MYC   H133 8533   2.141   3.666   8.927
   56MYC   H134 8534   2.042   3.525   8.965
   56MYC    C61 8535   1.993   3.700   9.081
   56MYC   H135 8536   1.894   3.660   9.108
   56MYC   H136 8537   1.980   3.808   9.065
   56MYC    C60 8538   2.093   3.677   9.193
   56MYC   H137 8539   2.182   3.738   9.183
   56MYC    C58 8540   2.044   3.649   9.333
   56MYC   H138 8541   1.937   3.637   9.346
   56MYC    C59 8542   2.113   3.540   9.254
   56MYC   H139 8543   2.214   3.513   9.283
   56MYC   H140 8544   2.052   3.458   9.218
   56MYC    C57 8545   2.110   3.713   9.454
   56MYC   HH10 8546   2.065   3.812   9.470
   56MYC   H141 8547   2.217   3.729   9.436
   56MYC    C56 8548   2.090   3.627   9.580
   56MYC   H142 8549   2.149   3.535   9.570
   56MYC   H143 8550   1.985   3.597   9.586
   56MYC    C55 8551   2.129   3.699   9.710
   56MYC   H144 8552   2.078   3.795   9.714
   56MYC   H145 8553   2.237   3.719   9.710
   56MYC    C54 8554   2.090   3.617   9.834
   56MYC   H146 8555   2.139   3.519   9.829
   56MYC   H147 8556   1.982   3.599   9.831
   56MYC    C53 8557   2.126   3.685   9.967
   56MYC   H148 8558   2.086   3.787   9.970
   56MYC   H149 8559   2.235   3.693   9.975
   56MYC    C52 8560   2.071   3.605  10.087
   56MYC    H99 8561   2.101   3.500  10.077
   56MYC   H150 8562   1.961   3.608  10.085
   56MYC    C51 8563   2.121   3.658  10.223
   56MYC    H97 8564   2.092   3.763  10.236
   56MYC    H98 8565   2.230   3.655  10.223
   56MYC    C50 8566   2.067   3.575  10.342
   56MYC    H95 8567   2.086   3.468  10.324
   56MYC    H96 8568   1.959   3.588  10.351
   56MYC    C49 8569   2.135   3.615  10.474
   56MYC    H93 8570   2.113   3.720  10.496
   56MYC    H94 8571   2.243   3.607  10.457
   56MYC    C48 8572   2.101   3.528  10.596
   56MYC    H91 8573   2.134   3.425  10.576
   56MYC    H92 8574   1.992   3.524  10.609
   56MYC    C47 8575   2.167   3.580  10.726
   56MYC    H89 8576   2.115   3.671  10.759
   56MYC    H90 8577   2.271   3.607  10.705
   56MYC    C46 8578   2.171   3.478  10.840
   56MYC    H87 8579   2.237   3.395  10.810
   56MYC    H88 8580   2.071   3.436  10.857
   56MYC    C45 8581   2.224   3.538  10.973
   56MYC    H85 8582   2.147   3.602  11.016
   56MYC    H86 8583   2.310   3.603  10.952
   56MYC    C44 8584   2.269   3.433  11.078
   56MYC    H83 8585   2.284   3.484  11.173
   56MYC    H84 8586   2.366   3.393  11.048
   56MYC    C18 8587   2.171   3.319  11.101
   56MYC    H31 8588   2.072   3.354  11.132
   56MYC    C17 8589   2.176   3.194  11.015
   56MYC    H30 8590   2.256   3.188  10.943
   56MYC    C19 8591   2.217   3.189  11.160
   56MYC    H32 8592   2.324   3.176  11.180
   56MYC    H33 8593   2.152   3.140  11.231
   56MYC    C16 8594   2.046   3.128  10.969
   56MYC    H28 8595   1.970   3.205  10.949
   56MYC    H29 8596   2.006   3.066  11.050
   56MYC    C15 8597   2.063   3.041  10.843
   56MYC    H26 8598   1.969   2.986  10.827
   56MYC    H27 8599   2.141   2.966  10.861
   56MYC    C14 8600   2.096   3.120  10.716
   56MYC    H24 8601   2.196   3.166  10.724
   56MYC    H25 8602   2.024   3.202  10.704
   56MYC    C13 8603   2.093   3.032  10.590
   56MYC    H22 8604   1.993   2.986  10.582
   56MYC    H23 8605   2.164   2.949  10.601
   56MYC    C12 8606   2.124   3.110  10.461
   56MYC    H20 8607   2.231   3.134  10.458
   56MYC    H21 8608   2.069   3.205  10.461
   56MYC    C11 8609   2.083   3.030  10.336
   56MYC    H18 8610   1.974   3.019  10.336
   56MYC    H19 8611   2.125   2.929  10.341
   56MYC    C10 8612   2.127   3.096  10.204
   56MYC    H16 8613   2.232   3.069  10.185
   56MYC    H17 8614   2.123   3.205  10.214
   56MYC     C9 8615   2.039   3.052  10.086
   56MYC    H14 8616   1.943   3.106  10.091
   56MYC    H15 8617   2.016   2.946  10.096
   56MYC     C8 8618   2.102   3.074   9.947
   56MYC    H12 8619   2.028   3.037   9.876
   56MYC    H13 8620   2.190   3.009   9.938
   56MYC     C7 8621   2.142   3.220   9.913
   56MYC    H10 8622   2.201   3.261   9.996
   56MYC    H11 8623   2.052   3.282   9.904
   56MYC     C6 8624   2.229   3.234   9.785
   56MYC     H8 8625   2.307   3.157   9.785
   56MYC     H9 8626   2.282   3.330   9.790
   56MYC     C5 8627   2.154   3.229   9.649
   56MYC     H6 8628   2.229   3.243   9.570
   56MYC     H7 8629   2.087   3.316   9.642
   56MYC     C4 8630   2.072   3.100   9.623
   56MYC     H4 8631   1.971   3.116   9.665
   56MYC     H5 8632   2.117   3.018   9.679
   56MYC     C2 8633   2.057   3.052   9.477
   56MYC     H2 8634   1.966   2.992   9.473
   56MYC     O3 8635   2.042   3.163   9.388
   56MYC     H3 8636   2.024   3.242   9.442
   56MYC     C1 8637   2.173   2.959   9.433
   56MYC     H1 8638   2.175   2.877   9.506
   56MYC    C81 8639   2.313   3.025   9.441
   56MYC    O82 8640   2.354   3.111   9.365
   56MYC    O83 8641   2.389   2.978   9.543
   56MYC   H105 8642   2.473   3.027   9.537
   56MYC    C20 8643   2.152   2.892   9.295
   56MYC    H34 8644   2.127   2.970   9.221
   56MYC    H35 8645   2.248   2.850   9.264
   56MYC    C21 8646   2.045   2.781   9.294
   56MYC    H36 8647   2.054   2.718   9.383
   56MYC    H37 8648   1.945   2.827   9.298
   56MYC    C22 8649   2.052   2.689   9.169
   56MYC    H38 8650   2.141   2.625   9.177
   56MYC    H39 8651   1.965   2.622   9.169
   56MYC    C23 8652   2.058   2.768   9.038
   56MYC    H40 8653   1.973   2.837   9.034
   56MYC    H41 8654   2.150   2.829   9.036
   56MYC    C24 8655   2.058   2.682   8.910
   56MYC    H42 8656   2.135   2.604   8.917
   56MYC    H43 8657   1.961   2.633   8.900
   56MYC    C25 8658   2.087   2.771   8.788
   56MYC    H44 8659   2.023   2.861   8.794
   56MYC    H45 8660   2.191   2.806   8.793
   56MYC    C26 8661   2.062   2.704   8.653
   56MYC    H46 8662   2.124   2.614   8.643
   56MYC    H47 8663   1.957   2.673   8.648
   56MYC    C27 8664   2.091   2.801   8.537
   56MYC    H48 8665   2.043   2.897   8.558
   56MYC    H49 8666   2.199   2.819   8.533
   56MYC    C28 8667   2.042   2.750   8.401
   56MYC    H50 8668   2.088   2.653   8.379
   56MYC    H51 8669   1.933   2.734   8.406
   56MYC    C29 8670   2.073   2.850   8.289
   56MYC    H52 8671   2.028   2.947   8.312
   56MYC    H53 8672   2.182   2.865   8.284
   56MYC    C30 8673   2.022   2.802   8.152
   56MYC    H54 8674   2.061   2.701   8.132
   56MYC    H55 8675   1.913   2.795   8.155
   56MYC    C31 8676   2.064   2.896   8.038
   56MYC    H56 8677   2.023   2.996   8.056
   56MYC    H57 8678   2.173   2.905   8.037
   56MYC    C32 8679   2.016   2.845   7.901
   56MYC    H58 8680   2.056   2.744   7.885
   56MYC    H59 8681   1.907   2.837   7.902
   56MYC    C33 8682   2.059   2.936   7.785
   56MYC    H60 8683   2.015   3.036   7.798
   56MYC    H61 8684   2.168   2.947   7.785
   56MYC    C34 8685   2.014   2.877   7.650
   56MYC    H62 8686   2.065   2.781   7.635
   56MYC    H63 8687   1.907   2.857   7.653
   56MYC    C35 8688   2.044   2.969   7.530
   56MYC    H64 8689   1.985   3.061   7.538
   56MYC    H65 8690   2.150   2.998   7.531
   56MYC    C36 8691   2.012   2.898   7.398
   56MYC    H66 8692   2.074   2.807   7.391
   56MYC    H67 8693   1.908   2.865   7.399
   56MYC    C37 8694   2.036   2.983   7.272
   56MYC    H68 8695   1.963   3.065   7.269
   56MYC    H69 8696   2.136   3.028   7.276
   56MYC    C38 8697   2.023   2.898   7.145
   56MYC    H70 8698   2.099   2.818   7.148
   56MYC    H71 8699   1.925   2.848   7.145
   56MYC    C39 8700   2.038   2.976   7.013
   56MYC    H72 8701   1.960   3.052   7.007
   56MYC    H73 8702   2.135   3.028   7.012
   56MYC    C40 8703   2.029   2.881   6.892
   56MYC    H74 8704   2.113   2.811   6.894
   56MYC    H75 8705   1.937   2.822   6.901
   56MYC    C41 8706   2.027   2.954   6.756
   56MYC    H76 8707   1.942   3.024   6.754
   56MYC    H77 8708   2.118   3.014   6.746
   56MYC    C42 8709   2.016   2.855   6.638
   56MYC    H78 8710   2.103   2.788   6.638
   56MYC    H79 8711   1.928   2.792   6.651
   56MYC    C43 8712   2.006   2.926   6.502
   56MYC    H80 8713   1.996   2.852   6.422
   56MYC    H81 8714   2.096   2.986   6.483
   56MYC    H82 8715   1.919   2.992   6.499
   57MYC   HH15 8716   3.094   3.585   6.593
   57MYC    C80 8717   3.108   3.530   6.687
   57MYC   H100 8718   3.215   3.508   6.699
   57MYC   H101 8719   3.077   3.596   6.770
   57MYC    C79 8720   3.025   3.400   6.686
   57MYC   H102 8721   3.053   3.342   6.597
   57MYC   H103 8722   2.919   3.425   6.675
   57MYC    C78 8723   3.044   3.311   6.811
   57MYC   HH14 8724   3.152   3.292   6.825
   57MYC   H104 8725   2.998   3.213   6.792
   57MYC    C77 8726   2.984   3.370   6.940
   57MYC   H106 8727   2.875   3.377   6.930
   57MYC   H107 8728   3.022   3.472   6.955
   57MYC    C76 8729   3.019   3.287   7.066
   57MYC   H108 8730   3.128   3.281   7.074
   57MYC   H109 8731   2.981   3.185   7.055
   57MYC    C75 8732   2.962   3.350   7.194
   57MYC   H110 8733   2.852   3.340   7.195
   57MYC   H111 8734   2.984   3.457   7.194
   57MYC    C74 8735   3.020   3.288   7.323
   57MYC   H112 8736   3.129   3.295   7.319
   57MYC   H113 8737   2.994   3.182   7.328
   57MYC    C73 8738   2.969   3.361   7.448
   57MYC   HH13 8739   2.861   3.342   7.460
   57MYC   H114 8740   2.981   3.469   7.435
   57MYC    C72 8741   3.042   3.319   7.577
   57MYC   H115 8742   3.150   3.337   7.565
   57MYC   H116 8743   3.028   3.212   7.595
   57MYC    C71 8744   2.991   3.400   7.697
   57MYC   H117 8745   2.885   3.375   7.715
   57MYC   H118 8746   2.995   3.507   7.673
   57MYC    C70 8747   3.070   3.375   7.827
   57MYC   H119 8748   3.175   3.403   7.811
   57MYC   H120 8749   3.067   3.269   7.853
   57MYC    C69 8750   3.011   3.459   7.941
   57MYC   H121 8751   2.909   3.425   7.961
   57MYC   H122 8752   3.006   3.564   7.910
   57MYC    C68 8753   3.093   3.451   8.071
   57MYC   HH12 8754   3.193   3.491   8.053
   57MYC   H123 8755   3.104   3.346   8.101
   57MYC    C67 8756   3.024   3.529   8.184
   57MYC   H124 8757   2.929   3.479   8.209
   57MYC   H125 8758   3.000   3.630   8.149
   57MYC    C66 8759   3.112   3.538   8.308
   57MYC   H126 8760   3.200   3.599   8.286
   57MYC   H127 8761   3.147   3.438   8.336
   57MYC    C65 8762   3.036   3.599   8.427
   57MYC   H128 8763   2.953   3.533   8.454
   57MYC   H129 8764   2.992   3.696   8.399
   57MYC    C64 8765   3.128   3.617   8.548
   57MYC   H130 8766   3.200   3.698   8.527
   57MYC   H131 8767   3.186   3.526   8.563
   57MYC    C63 8768   3.051   3.650   8.675
   57MYC   HH11 8769   2.970   3.577   8.689
   57MYC   H132 8770   3.003   3.749   8.666
   57MYC    C62 8771   3.142   3.647   8.798
   57MYC   H133 8772   3.227   3.714   8.783
   57MYC   H134 8773   3.183   3.545   8.808
   57MYC    C61 8774   3.068   3.685   8.926
   57MYC   H135 8775   2.963   3.653   8.920
   57MYC   H136 8776   3.066   3.794   8.934
   57MYC    C60 8777   3.133   3.627   9.049
   57MYC   H137 8778   3.241   3.644   9.052
   57MYC    C58 8779   3.059   3.631   9.179
   57MYC   H138 8780   2.957   3.668   9.177
   57MYC    C59 8781   3.083   3.498   9.110
   57MYC   H139 8782   3.156   3.431   9.154
   57MYC   H140 8783   2.998   3.450   9.065
   57MYC    C57 8784   3.133   3.670   9.305
   57MYC   HH10 8785   3.121   3.777   9.323
   57MYC   H141 8786   3.240   3.651   9.294
   57MYC    C56 8787   3.081   3.591   9.425
   57MYC   H142 8788   3.092   3.483   9.405
   57MYC   H143 8789   2.974   3.610   9.437
   57MYC    C55 8790   3.154   3.625   9.555
   57MYC   H144 8791   3.142   3.732   9.576
   57MYC   H145 8792   3.261   3.604   9.546
   57MYC    C54 8793   3.095   3.544   9.671
   57MYC   H146 8794   3.113   3.437   9.652
   57MYC   H147 8795   2.986   3.558   9.672
   57MYC    C53 8796   3.151   3.581   9.809
   57MYC   H148 8797   3.137   3.688   9.826
   57MYC   H149 8798   3.259   3.560   9.812
   57MYC    C52 8799   3.078   3.501   9.917
   57MYC    H99 8800   3.096   3.394   9.901
   57MYC   H150 8801   2.970   3.518   9.904
   57MYC    C51 8802   3.116   3.538  10.060
   57MYC    H97 8803   3.095   3.645  10.077
   57MYC    H98 8804   3.223   3.522  10.075
   57MYC    C50 8805   3.035   3.453  10.160
   57MYC    H95 8806   3.058   3.347  10.143
   57MYC    H96 8807   2.928   3.466  10.140
   57MYC    C49 8808   3.063   3.489  10.306
   57MYC    H93 8809   3.029   3.592  10.326
   57MYC    H94 8810   3.171   3.486  10.324
   57MYC    C48 8811   2.993   3.392  10.403
   57MYC    H91 8812   3.029   3.290  10.383
   57MYC    H92 8813   2.885   3.392  10.384
   57MYC    C47 8814   3.020   3.428  10.550
   57MYC    H89 8815   2.971   3.522  10.574
   57MYC    H90 8816   3.128   3.443  10.563
   57MYC    C46 8817   2.974   3.318  10.648
   57MYC    H87 8818   3.023   3.224  10.621
   57MYC    H88 8819   2.866   3.303  10.638
   57MYC    C45 8820   3.009   3.354  10.794
   57MYC    H85 8821   2.947   3.437  10.829
   57MYC    H86 8822   3.113   3.389  10.797
   57MYC    C44 8823   2.999   3.234  10.891
   57MYC    H83 8824   3.061   3.258  10.978
   57MYC    H84 8825   3.044   3.146  10.843
   57MYC    C18 8826   2.859   3.200  10.938
   57MYC    H31 8827   2.788   3.190  10.857
   57MYC    C17 8828   2.842   3.108  11.057
   57MYC    H30 8829   2.933   3.075  11.105
   57MYC    C19 8830   2.807   3.254  11.069
   57MYC    H32 8831   2.873   3.316  11.129
   57MYC    H33 8832   2.703   3.284  11.069
   57MYC    C16 8833   2.732   3.002  11.064
   57MYC    H28 8834   2.637   3.043  11.030
   57MYC    H29 8835   2.717   2.976  11.170
   57MYC    C15 8836   2.765   2.871  10.988
   57MYC    H26 8837   2.690   2.796  11.014
   57MYC    H27 8838   2.861   2.832  11.023
   57MYC    C14 8839   2.770   2.884  10.833
   57MYC    H24 8840   2.795   2.785  10.792
   57MYC    H25 8841   2.852   2.951  10.804
   57MYC    C13 8842   2.637   2.932  10.770
   57MYC    H22 8843   2.611   3.031  10.809
   57MYC    H23 8844   2.557   2.863  10.798
   57MYC    C12 8845   2.644   2.943  10.616
   57MYC    H20 8846   2.670   2.846  10.574
   57MYC    H21 8847   2.724   3.013  10.589
   57MYC    C11 8848   2.510   2.992  10.555
   57MYC    H18 8849   2.487   3.092  10.592
   57MYC    H19 8850   2.429   2.926  10.590
   57MYC    C10 8851   2.508   2.992  10.401
   57MYC    H16 8852   2.405   3.011  10.367
   57MYC    H17 8853   2.534   2.892  10.364
   57MYC     C9 8854   2.601   3.097  10.335
   57MYC    H14 8855   2.705   3.074  10.360
   57MYC    H15 8856   2.579   3.197  10.376
   57MYC     C8 8857   2.585   3.101  10.182
   57MYC    H12 8858   2.485   3.137  10.157
   57MYC    H13 8859   2.593   2.999  10.142
   57MYC     C7 8860   2.690   3.189  10.112
   57MYC    H10 8861   2.790   3.146  10.129
   57MYC    H11 8862   2.690   3.289  10.156
   57MYC     C6 8863   2.665   3.202   9.960
   57MYC     H8 8864   2.572   3.259   9.944
   57MYC     H9 8865   2.648   3.102   9.919
   57MYC     C5 8866   2.782   3.271   9.887
   57MYC     H6 8867   2.871   3.207   9.892
   57MYC     H7 8868   2.806   3.361   9.943
   57MYC     C4 8869   2.753   3.313   9.740
   57MYC     H4 8870   2.798   3.412   9.727
   57MYC     H5 8871   2.646   3.327   9.726
   57MYC     C2 8872   2.809   3.225   9.624
   57MYC     H2 8873   2.797   3.288   9.535
   57MYC     O3 8874   2.948   3.201   9.643
   57MYC     H3 8875   2.993   3.287   9.653
   57MYC     C1 8876   2.732   3.092   9.594
   57MYC     H1 8877   2.626   3.118   9.584
   57MYC    C81 8878   2.743   2.986   9.706
   57MYC    O82 8879   2.848   2.944   9.752
   57MYC    O83 8880   2.626   2.922   9.732
   57MYC   H105 8881   2.649   2.851   9.794
   57MYC    C20 8882   2.773   3.025   9.460
   57MYC    H34 8883   2.877   2.991   9.466
   57MYC    H35 8884   2.712   2.935   9.447
   57MYC    C21 8885   2.756   3.113   9.334
   57MYC    H36 8886   2.655   3.156   9.332
   57MYC    H37 8887   2.827   3.196   9.337
   57MYC    C22 8888   2.780   3.034   9.204
   57MYC    H38 8889   2.878   2.984   9.209
   57MYC    H39 8890   2.704   2.955   9.196
   57MYC    C23 8891   2.776   3.121   9.077
   57MYC    H40 8892   2.683   3.180   9.076
   57MYC    H41 8893   2.859   3.193   9.079
   57MYC    C24 8894   2.783   3.038   8.947
   57MYC    H42 8895   2.872   2.973   8.950
   57MYC    H43 8896   2.695   2.972   8.944
   57MYC    C25 8897   2.788   3.123   8.819
   57MYC    H44 8898   2.713   3.203   8.826
   57MYC    H45 8899   2.886   3.171   8.811
   57MYC    C26 8900   2.760   3.040   8.692
   57MYC    H46 8901   2.830   2.956   8.687
   57MYC    H47 8902   2.660   2.998   8.699
   57MYC    C27 8903   2.771   3.123   8.562
   57MYC    H48 8904   2.716   3.217   8.575
   57MYC    H49 8905   2.876   3.149   8.545
   57MYC    C28 8906   2.715   3.049   8.439
   57MYC    H50 8907   2.770   2.955   8.425
   57MYC    H51 8908   2.611   3.021   8.459
   57MYC    C29 8909   2.722   3.132   8.310
   57MYC    H52 8910   2.669   3.227   8.325
   57MYC    H53 8911   2.826   3.157   8.288
   57MYC    C30 8912   2.660   3.059   8.190
   57MYC    H54 8913   2.717   2.967   8.172
   57MYC    H55 8914   2.558   3.028   8.214
   57MYC    C31 8915   2.658   3.143   8.060
   57MYC    H56 8916   2.589   3.228   8.073
   57MYC    H57 8917   2.757   3.185   8.042
   57MYC    C32 8918   2.614   3.059   7.939
   57MYC    H58 8919   2.685   2.976   7.928
   57MYC    H59 8920   2.516   3.014   7.959
   57MYC    C33 8921   2.608   3.137   7.806
   57MYC    H60 8922   2.531   3.214   7.812
   57MYC    H61 8923   2.704   3.187   7.788
   57MYC    C34 8924   2.577   3.041   7.689
   57MYC    H62 8925   2.653   2.962   7.688
   57MYC    H63 8926   2.481   2.993   7.707
   57MYC    C35 8927   2.575   3.107   7.549
   57MYC    H64 8928   2.498   3.185   7.546
   57MYC    H65 8929   2.672   3.154   7.529
   57MYC    C36 8930   2.545   3.000   7.441
   57MYC    H66 8931   2.616   2.918   7.452
   57MYC    H67 8932   2.445   2.958   7.461
   57MYC    C37 8933   2.550   3.050   7.296
   57MYC    H68 8934   2.484   3.137   7.283
   57MYC    H69 8935   2.652   3.083   7.272
   57MYC    C38 8936   2.507   2.938   7.198
   57MYC    H70 8937   2.562   2.846   7.223
   57MYC    H71 8938   2.400   2.917   7.216
   57MYC    C39 8939   2.529   2.970   7.049
   57MYC    H72 8940   2.488   3.069   7.026
   57MYC    H73 8941   2.637   2.973   7.029
   57MYC    C40 8942   2.461   2.865   6.958
   57MYC    H74 8943   2.484   2.764   6.995
   57MYC    H75 8944   2.352   2.878   6.967
   57MYC    C41 8945   2.503   2.873   6.810
   57MYC    H76 8946   2.515   2.978   6.780
   57MYC    H77 8947   2.601   2.824   6.798
   57MYC    C42 8948   2.400   2.806   6.716
   57MYC    H78 8949   2.366   2.711   6.760
   57MYC    H79 8950   2.313   2.872   6.710
   57MYC    C43 8951   2.453   2.779   6.574
   57MYC    H80 8952   2.370   2.750   6.508
   57MYC    H81 8953   2.526   2.698   6.575
   57MYC    H82 8954   2.500   2.869   6.532
   58MYC   HH15 8955   3.628   3.580   6.628
   58MYC    C80 8956   3.598   3.524   6.717
   58MYC   H100 8957   3.488   3.527   6.723
   58MYC   H101 8958   3.630   3.420   6.706
   58MYC    C79 8959   3.660   3.587   6.844
   58MYC   H102 8960   3.630   3.692   6.850
   58MYC   H103 8961   3.770   3.585   6.834
   58MYC    C78 8962   3.619   3.514   6.973
   58MYC   HH14 8963   3.654   3.410   6.968
   58MYC   H104 8964   3.510   3.510   6.979
   58MYC    C77 8965   3.674   3.580   7.101
   58MYC   H106 8966   3.636   3.683   7.107
   58MYC   H107 8967   3.783   3.587   7.095
   58MYC    C76 8968   3.634   3.502   7.228
   58MYC   H108 8969   3.677   3.401   7.223
   58MYC   H109 8970   3.525   3.491   7.230
   58MYC    C75 8971   3.680   3.570   7.358
   58MYC   H110 8972   3.633   3.670   7.365
   58MYC   H111 8973   3.788   3.586   7.354
   58MYC    C74 8974   3.644   3.488   7.483
   58MYC   H112 8975   3.695   3.391   7.478
   58MYC   H113 8976   3.536   3.468   7.484
   58MYC    C73 8977   3.683   3.559   7.613
   58MYC   HH13 8978   3.628   3.654   7.620
   58MYC   H114 8979   3.790   3.585   7.610
   58MYC    C72 8980   3.656   3.475   7.739
   58MYC   H115 8981   3.717   3.384   7.737
   58MYC   H116 8982   3.551   3.443   7.739
   58MYC    C71 8983   3.684   3.554   7.867
   58MYC   H117 8984   3.616   3.640   7.872
   58MYC   H118 8985   3.786   3.595   7.863
   58MYC    C70 8986   3.670   3.471   7.996
   58MYC   H119 8987   3.747   3.393   7.999
   58MYC   H120 8988   3.572   3.421   7.996
   58MYC    C69 8989   3.681   3.561   8.120
   58MYC   H121 8990   3.603   3.637   8.116
   58MYC   H122 8991   3.777   3.613   8.119
   58MYC    C68 8992   3.668   3.484   8.253
   58MYC   HH12 8993   3.751   3.414   8.263
   58MYC   H123 8994   3.575   3.426   8.253
   58MYC    C67 8995   3.667   3.582   8.372
   58MYC   H124 8996   3.588   3.656   8.358
   58MYC   H125 8997   3.762   3.636   8.374
   58MYC    C66 8998   3.646   3.512   8.507
   58MYC   H126 8999   3.725   3.438   8.522
   58MYC   H127 9000   3.550   3.457   8.505
   58MYC    C65 9001   3.645   3.612   8.624
   58MYC   H128 9002   3.562   3.682   8.611
   58MYC   H129 9003   3.738   3.670   8.622
   58MYC    C64 9004   3.632   3.540   8.758
   58MYC   H130 9005   3.716   3.470   8.766
   58MYC   H131 9006   3.540   3.482   8.760
   58MYC    C63 9007   3.636   3.635   8.879
   58MYC   HH11 9008   3.551   3.704   8.875
   58MYC   H132 9009   3.728   3.695   8.876
   58MYC    C62 9010   3.632   3.555   9.011
   58MYC   H133 9011   3.708   3.476   9.007
   58MYC   H134 9012   3.534   3.505   9.020
   58MYC    C61 9013   3.657   3.640   9.136
   58MYC   H135 9014   3.578   3.716   9.145
   58MYC   H136 9015   3.752   3.695   9.124
   58MYC    C60 9016   3.665   3.553   9.260
   58MYC   H137 9017   3.730   3.467   9.247
   58MYC    C58 9018   3.662   3.613   9.398
   58MYC   H138 9019   3.650   3.721   9.403
   58MYC    C59 9020   3.544   3.534   9.348
   58MYC   H139 9021   3.527   3.435   9.391
   58MYC   H140 9022   3.453   3.588   9.322
   58MYC    C57 9023   3.751   3.558   9.507
   58MYC   HH10 9024   3.848   3.609   9.504
   58MYC   H141 9025   3.770   3.452   9.490
   58MYC    C56 9026   3.689   3.576   9.647
   58MYC   H142 9027   3.586   3.539   9.646
   58MYC   H143 9028   3.684   3.683   9.669
   58MYC    C55 9029   3.768   3.504   9.757
   58MYC   H144 9030   3.870   3.542   9.760
   58MYC   H145 9031   3.773   3.397   9.735
   58MYC    C54 9032   3.702   3.525   9.895
   58MYC   H146 9033   3.600   3.485   9.893
   58MYC   H147 9034   3.693   3.633   9.913
   58MYC    C53 9035   3.780   3.462  10.011
   58MYC   H148 9036   3.882   3.501  10.012
   58MYC   H149 9037   3.786   3.353   9.996
   58MYC    C52 9038   3.711   3.491  10.145
   58MYC    H99 9039   3.613   3.441  10.147
   58MYC   H150 9040   3.691   3.599  10.153
   58MYC    C51 9041   3.793   3.450  10.268
   58MYC    H97 9042   3.881   3.516  10.277
   58MYC    H98 9043   3.830   3.348  10.256
   58MYC    C50 9044   3.709   3.458  10.397
   58MYC    H95 9045   3.641   3.372  10.399
   58MYC    H96 9046   3.646   3.547  10.393
   58MYC    C49 9047   3.791   3.464  10.527
   58MYC    H93 9048   3.833   3.564  10.538
   58MYC    H94 9049   3.875   3.394  10.521
   58MYC    C48 9050   3.704   3.429  10.650
   58MYC    H91 9051   3.693   3.321  10.654
   58MYC    H92 9052   3.604   3.471  10.637
   58MYC    C47 9053   3.761   3.481  10.783
   58MYC    H89 9054   3.754   3.590  10.784
   58MYC    H90 9055   3.868   3.455  10.790
   58MYC    C46 9056   3.688   3.422  10.906
   58MYC    H87 9057   3.718   3.317  10.918
   58MYC    H88 9058   3.579   3.422  10.887
   58MYC    C45 9059   3.716   3.501  11.035
   58MYC    H85 9060   3.663   3.597  11.030
   58MYC    H86 9061   3.823   3.524  11.040
   58MYC    C44 9062   3.677   3.427  11.165
   58MYC    H83 9063   3.704   3.492  11.249
   58MYC    H84 9064   3.739   3.337  11.175
   58MYC    C18 9065   3.529   3.391  11.180
   58MYC    H31 9066   3.463   3.472  11.151
   58MYC    C17 9067   3.475   3.249  11.168
   58MYC    H30 9068   3.547   3.171  11.145
   58MYC    C19 9069   3.490   3.314  11.303
   58MYC    H32 9070   3.569   3.276  11.368
   58MYC    H33 9071   3.401   3.346  11.355
   58MYC    C16 9072   3.334   3.220  11.118
   58MYC    H28 9073   3.284   3.312  11.087
   58MYC    H29 9074   3.274   3.180  11.201
   58MYC    C15 9075   3.326   3.117  11.002
   58MYC    H26 9076   3.222   3.101  10.975
   58MYC    H27 9077   3.360   3.020  11.038
   58MYC    C14 9078   3.405   3.160  10.876
   58MYC    H24 9079   3.509   3.178  10.903
   58MYC    H25 9080   3.364   3.254  10.839
   58MYC    C13 9081   3.402   3.055  10.762
   58MYC    H22 9082   3.298   3.039  10.730
   58MYC    H23 9083   3.439   2.959  10.799
   58MYC    C12 9084   3.487   3.100  10.642
   58MYC    H20 9085   3.590   3.116  10.674
   58MYC    H21 9086   3.448   3.197  10.607
   58MYC    C11 9087   3.486   3.000  10.524
   58MYC    H18 9088   3.383   2.968  10.507
   58MYC    H19 9089   3.544   2.910  10.551
   58MYC    C10 9090   3.544   3.062  10.394
   58MYC    H16 9091   3.654   3.064  10.399
   58MYC    H17 9092   3.511   3.166  10.388
   58MYC     C9 9093   3.498   2.988  10.266
   58MYC    H14 9094   3.396   2.951  10.281
   58MYC    H15 9095   3.561   2.901  10.248
   58MYC     C8 9096   3.497   3.080  10.141
   58MYC    H12 9097   3.599   3.096  10.105
   58MYC    H13 9098   3.458   3.179  10.170
   58MYC     C7 9099   3.408   3.026  10.028
   58MYC    H10 9100   3.311   2.995  10.071
   58MYC    H11 9101   3.453   2.936   9.985
   58MYC     C6 9102   3.380   3.129   9.916
   58MYC     H8 9103   3.468   3.138   9.851
   58MYC     H9 9104   3.364   3.228   9.961
   58MYC     C5 9105   3.254   3.096   9.832
   58MYC     H6 9106   3.239   3.176   9.758
   58MYC     H7 9107   3.167   3.099   9.898
   58MYC     C4 9108   3.256   2.958   9.761
   58MYC     H4 9109   3.159   2.945   9.710
   58MYC     H5 9110   3.260   2.879   9.837
   58MYC     C2 9111   3.371   2.936   9.660
   58MYC     H2 9112   3.465   2.938   9.715
   58MYC     O3 9113   3.356   2.805   9.604
   58MYC     H3 9114   3.281   2.808   9.541
   58MYC     C1 9115   3.382   3.043   9.546
   58MYC     H1 9116   3.425   3.133   9.592
   58MYC    C81 9117   3.246   3.087   9.488
   58MYC    O82 9118   3.208   3.203   9.488
   58MYC    O83 9119   3.170   2.987   9.438
   58MYC   H105 9120   3.085   3.030   9.414
   58MYC    C20 9121   3.482   3.000   9.435
   58MYC    H34 9122   3.579   2.977   9.480
   58MYC    H35 9123   3.446   2.909   9.386
   58MYC    C21 9124   3.502   3.106   9.324
   58MYC    H36 9125   3.405   3.128   9.277
   58MYC    H37 9126   3.537   3.200   9.369
   58MYC    C22 9127   3.601   3.061   9.216
   58MYC    H38 9128   3.703   3.070   9.254
   58MYC    H39 9129   3.585   2.955   9.193
   58MYC    C23 9130   3.586   3.142   9.086
   58MYC    H40 9131   3.481   3.137   9.053
   58MYC    H41 9132   3.608   3.247   9.106
   58MYC    C24 9133   3.675   3.090   8.972
   58MYC    H42 9134   3.780   3.095   9.003
   58MYC    H43 9135   3.651   2.986   8.950
   58MYC    C25 9136   3.657   3.175   8.845
   58MYC    H44 9137   3.550   3.180   8.820
   58MYC    H45 9138   3.688   3.277   8.868
   58MYC    C26 9139   3.737   3.126   8.722
   58MYC    H46 9140   3.806   3.206   8.693
   58MYC    H47 9141   3.799   3.040   8.749
   58MYC    C27 9142   3.648   3.090   8.601
   58MYC    H48 9143   3.592   2.999   8.623
   58MYC    H49 9144   3.575   3.170   8.585
   58MYC    C28 9145   3.730   3.072   8.471
   58MYC    H50 9146   3.786   3.164   8.453
   58MYC    H51 9147   3.803   2.992   8.485
   58MYC    C29 9148   3.643   3.041   8.348
   58MYC    H52 9149   3.596   2.943   8.360
   58MYC    H53 9150   3.562   3.115   8.341
   58MYC    C30 9151   3.725   3.044   8.218
   58MYC    H54 9152   3.771   3.144   8.208
   58MYC    H55 9153   3.807   2.972   8.225
   58MYC    C31 9154   3.643   3.016   8.090
   58MYC    H56 9155   3.602   2.914   8.095
   58MYC    H57 9156   3.559   3.085   8.085
   58MYC    C32 9157   3.730   3.030   7.964
   58MYC    H58 9158   3.777   3.129   7.965
   58MYC    H59 9159   3.811   2.957   7.967
   58MYC    C33 9160   3.653   3.014   7.832
   58MYC    H60 9161   3.610   2.913   7.826
   58MYC    H61 9162   3.569   3.085   7.830
   58MYC    C34 9163   3.744   3.039   7.710
   58MYC    H62 9164   3.794   3.136   7.722
   58MYC    H63 9165   3.822   2.962   7.708
   58MYC    C35 9166   3.670   3.040   7.575
   58MYC    H64 9167   3.623   2.942   7.558
   58MYC    H65 9168   3.589   3.114   7.577
   58MYC    C36 9169   3.765   3.072   7.458
   58MYC    H66 9170   3.812   3.169   7.476
   58MYC    H67 9171   3.846   2.997   7.456
   58MYC    C37 9172   3.696   3.075   7.320
   58MYC    H68 9173   3.653   2.977   7.299
   58MYC    H69 9174   3.614   3.148   7.322
   58MYC    C38 9175   3.795   3.113   7.207
   58MYC    H70 9176   3.835   3.213   7.227
   58MYC    H71 9177   3.880   3.044   7.210
   58MYC    C39 9178   3.733   3.110   7.066
   58MYC    H72 9179   3.701   3.007   7.043
   58MYC    H73 9180   3.644   3.173   7.064
   58MYC    C40 9181   3.833   3.158   6.959
   58MYC    H74 9182   3.857   3.263   6.978
   58MYC    H75 9183   3.926   3.101   6.968
   58MYC    C41 9184   3.779   3.144   6.815
   58MYC    H76 9185   3.764   3.037   6.793
   58MYC    H77 9186   3.682   3.193   6.807
   58MYC    C42 9187   3.875   3.204   6.710
   58MYC    H78 9188   3.883   3.312   6.727
   58MYC    H79 9189   3.976   3.162   6.724
   58MYC    C43 9190   3.831   3.180   6.565
   58MYC    H80 9191   3.901   3.227   6.495
   58MYC    H81 9192   3.731   3.222   6.547
   58MYC    H82 9193   3.828   3.072   6.543
   59MYC   HH15 9194   4.195   3.466   6.631
   59MYC    C80 9195   4.230   3.401   6.712
   59MYC   H100 9196   4.200   3.298   6.690
   59MYC   H101 9197   4.339   3.405   6.716
   59MYC    C79 9198   4.169   3.446   6.847
   59MYC   H102 9199   4.060   3.438   6.842
   59MYC   H103 9200   4.193   3.553   6.862
   59MYC    C78 9201   4.222   3.365   6.966
   59MYC   HH14 9202   4.330   3.383   6.977
   59MYC   H104 9203   4.210   3.258   6.946
   59MYC    C77 9204   4.151   3.400   7.099
   59MYC   H106 9205   4.047   3.365   7.094
   59MYC   H107 9206   4.148   3.508   7.112
   59MYC    C76 9207   4.220   3.337   7.221
   59MYC   H108 9208   4.316   3.387   7.238
   59MYC   H109 9209   4.243   3.231   7.201
   59MYC    C75 9210   4.135   3.345   7.349
   59MYC   H110 9211   4.050   3.276   7.340
   59MYC   H111 9212   4.093   3.446   7.360
   59MYC    C74 9213   4.215   3.311   7.476
   59MYC   H112 9214   4.288   3.390   7.494
   59MYC   H113 9215   4.271   3.218   7.461
   59MYC    C73 9216   4.125   3.295   7.600
   59MYC   HH13 9217   4.063   3.205   7.588
   59MYC   H114 9218   4.056   3.380   7.607
   59MYC    C72 9219   4.205   3.285   7.731
   59MYC   H115 9220   4.260   3.379   7.746
   59MYC   H116 9221   4.279   3.205   7.723
   59MYC    C71 9222   4.114   3.260   7.853
   59MYC   H117 9223   4.061   3.165   7.840
   59MYC   H118 9224   4.038   3.339   7.858
   59MYC    C70 9225   4.191   3.256   7.986
   59MYC   H119 9226   4.255   3.346   7.994
   59MYC   H120 9227   4.258   3.169   7.987
   59MYC    C69 9228   4.097   3.251   8.107
   59MYC   H121 9229   4.025   3.169   8.095
   59MYC   H122 9230   4.040   3.344   8.111
   59MYC    C68 9231   4.172   3.232   8.241
   59MYC   HH12 9232   4.254   3.305   8.245
   59MYC   H123 9233   4.218   3.133   8.243
   59MYC    C67 9234   4.080   3.250   8.364
   59MYC   H124 9235   4.063   3.152   8.410
   59MYC   H125 9236   3.981   3.287   8.333
   59MYC    C66 9237   4.139   3.347   8.468
   59MYC   H126 9238   4.158   3.444   8.420
   59MYC   H127 9239   4.236   3.308   8.502
   59MYC    C65 9240   4.047   3.368   8.589
   59MYC   H128 9241   4.017   3.270   8.628
   59MYC   H129 9242   3.956   3.420   8.557
   59MYC    C64 9243   4.115   3.447   8.701
   59MYC   H130 9244   4.147   3.545   8.663
   59MYC   H131 9245   4.206   3.393   8.730
   59MYC    C63 9246   4.026   3.468   8.825
   59MYC   HH11 9247   3.975   3.374   8.849
   59MYC   H132 9248   3.948   3.542   8.803
   59MYC    C62 9249   4.109   3.512   8.946
   59MYC   H133 9250   4.158   3.608   8.924
   59MYC   H134 9251   4.189   3.438   8.961
   59MYC    C61 9252   4.029   3.525   9.076
   59MYC   H135 9253   3.959   3.441   9.085
   59MYC   H136 9254   3.969   3.617   9.074
   59MYC    C60 9255   4.123   3.527   9.195
   59MYC   H137 9256   4.192   3.610   9.192
   59MYC    C58 9257   4.082   3.479   9.332
   59MYC   H138 9258   3.981   3.441   9.343
   59MYC    C59 9259   4.176   3.396   9.249
   59MYC   H139 9260   4.281   3.392   9.278
   59MYC   H140 9261   4.137   3.303   9.207
   59MYC    C57 9262   4.134   3.548   9.456
   59MYC   HH10 9263   4.071   3.634   9.480
   59MYC   H141 9264   4.235   3.588   9.437
   59MYC    C56 9265   4.140   3.454   9.578
   59MYC   H142 9266   4.193   3.362   9.551
   59MYC   H143 9267   4.038   3.426   9.606
   59MYC    C55 9268   4.211   3.519   9.698
   59MYC   H144 9269   4.169   3.618   9.715
   59MYC   H145 9270   4.317   3.534   9.674
   59MYC    C54 9271   4.199   3.435   9.826
   59MYC   H146 9272   4.254   3.340   9.812
   59MYC   H147 9273   4.094   3.409   9.842
   59MYC    C53 9274   4.252   3.508   9.950
   59MYC   H148 9275   4.198   3.602   9.962
   59MYC   H149 9276   4.358   3.533   9.937
   59MYC    C52 9277   4.235   3.423  10.078
   59MYC    H99 9278   4.300   3.335  10.072
   59MYC   H150 9279   4.132   3.387  10.083
   59MYC    C51 9280   4.266   3.502  10.206
   59MYC    H97 9281   4.197   3.587  10.213
   59MYC    H98 9282   4.367   3.543  10.201
   59MYC    C50 9283   4.252   3.415  10.333
   59MYC    H95 9284   4.330   3.338  10.333
   59MYC    H96 9285   4.155   3.363  10.331
   59MYC    C49 9286   4.261   3.499  10.461
   59MYC    H93 9287   4.179   3.572  10.461
   59MYC    H94 9288   4.355   3.555  10.462
   59MYC    C48 9289   4.253   3.414  10.590
   59MYC    H91 9290   4.340   3.348  10.596
   59MYC    H92 9291   4.164   3.350  10.586
   59MYC    C47 9292   4.246   3.503  10.715
   59MYC    H89 9293   4.154   3.563  10.710
   59MYC    H90 9294   4.331   3.572  10.715
   59MYC    C46 9295   4.247   3.424  10.847
   59MYC    H87 9296   4.343   3.372  10.858
   59MYC    H88 9297   4.168   3.347  10.843
   59MYC    C45 9298   4.223   3.517  10.968
   59MYC    H85 9299   4.123   3.560  10.959
   59MYC    H86 9300   4.294   3.600  10.964
   59MYC    C44 9301   4.234   3.448  11.104
   59MYC    H83 9302   4.216   3.522  11.182
   59MYC    H84 9303   4.338   3.414  11.119
   59MYC    C18 9304   4.137   3.331  11.121
   59MYC    H31 9305   4.052   3.335  11.054
   59MYC    C17 9306   4.189   3.195  11.163
   59MYC    H30 9307   4.294   3.186  11.186
   59MYC    C19 9308   4.107   3.278  11.259
   59MYC    H32 9309   4.157   3.325  11.342
   59MYC    H33 9310   4.005   3.249  11.278
   59MYC    C16 9311   4.130   3.065  11.109
   59MYC    H28 9312   4.038   3.085  11.052
   59MYC    H29 9313   4.100   3.004  11.195
   59MYC    C15 9314   4.227   2.981  11.023
   59MYC    H26 9315   4.190   2.878  11.020
   59MYC    H27 9316   4.325   2.977  11.071
   59MYC    C14 9317   4.243   3.031  10.877
   59MYC    H24 9318   4.289   3.130  10.877
   59MYC    H25 9319   4.144   3.040  10.832
   59MYC    C13 9320   4.328   2.934  10.792
   59MYC    H22 9321   4.285   2.834  10.799
   59MYC    H23 9322   4.429   2.928  10.835
   59MYC    C12 9323   4.338   2.974  10.643
   59MYC    H20 9324   4.390   3.070  10.635
   59MYC    H21 9325   4.238   2.988  10.602
   59MYC    C11 9326   4.412   2.866  10.561
   59MYC    H18 9327   4.352   2.775  10.561
   59MYC    H19 9328   4.506   2.841  10.612
   59MYC    C10 9329   4.445   2.904  10.414
   59MYC    H16 9330   4.505   2.823  10.372
   59MYC    H17 9331   4.507   2.994  10.412
   59MYC     C9 9332   4.320   2.928  10.325
   59MYC    H14 9333   4.304   3.036  10.314
   59MYC    H15 9334   4.231   2.888  10.375
   59MYC     C8 9335   4.333   2.862  10.186
   59MYC    H12 9336   4.348   2.754  10.201
   59MYC    H13 9337   4.421   2.900  10.134
   59MYC     C7 9338   4.208   2.881  10.097
   59MYC    H10 9339   4.118   2.873  10.160
   59MYC    H11 9340   4.204   2.797  10.027
   59MYC     C6 9341   4.201   3.015  10.021
   59MYC     H8 9342   4.292   3.029   9.962
   59MYC     H9 9343   4.196   3.097  10.094
   59MYC     C5 9344   4.078   3.024   9.928
   59MYC     H6 9345   4.066   3.128   9.895
   59MYC     H7 9346   3.988   3.000   9.986
   59MYC     C4 9347   4.084   2.930   9.805
   59MYC     H4 9348   3.995   2.867   9.804
   59MYC     H5 9349   4.169   2.861   9.813
   59MYC     C2 9350   4.093   3.004   9.670
   59MYC     H2 9351   4.012   3.078   9.668
   59MYC     O3 9352   4.219   3.073   9.663
   59MYC     H3 9353   4.287   3.005   9.648
   59MYC     C1 9354   4.074   2.911   9.546
   59MYC     H1 9355   3.976   2.863   9.558
   59MYC    C81 9356   4.178   2.797   9.541
   59MYC    O82 9357   4.150   2.680   9.555
   59MYC    O83 9358   4.304   2.836   9.509
   59MYC   H105 9359   4.356   2.753   9.504
   59MYC    C20 9360   4.068   2.992   9.414
   59MYC    H34 9361   3.988   3.067   9.422
   59MYC    H35 9362   4.162   3.048   9.401
   59MYC    C21 9363   4.044   2.908   9.286
   59MYC    H36 9364   4.120   2.829   9.279
   59MYC    H37 9365   3.946   2.858   9.293
   59MYC    C22 9366   4.048   2.994   9.159
   59MYC    H38 9367   3.964   3.064   9.160
   59MYC    H39 9368   4.139   3.055   9.161
   59MYC    C23 9369   4.045   2.913   9.027
   59MYC    H40 9370   4.033   2.806   9.048
   59MYC    H41 9371   3.958   2.943   8.968
   59MYC    C24 9372   4.173   2.933   8.942
   59MYC    H42 9373   4.188   3.041   8.925
   59MYC    H43 9374   4.259   2.897   8.999
   59MYC    C25 9375   4.168   2.862   8.806
   59MYC    H44 9376   4.142   2.756   8.821
   59MYC    H45 9377   4.089   2.906   8.744
   59MYC    C26 9378   4.302   2.871   8.731
   59MYC    H46 9379   4.333   2.976   8.722
   59MYC    H47 9380   4.379   2.820   8.790
   59MYC    C27 9381   4.298   2.808   8.590
   59MYC    H48 9382   4.252   2.709   8.596
   59MYC    H49 9383   4.235   2.870   8.525
   59MYC    C28 9384   4.439   2.794   8.528
   59MYC    H50 9385   4.489   2.892   8.528
   59MYC    H51 9386   4.498   2.728   8.593
   59MYC    C29 9387   4.438   2.735   8.386
   59MYC    H52 9388   4.532   2.683   8.369
   59MYC    H53 9389   4.358   2.661   8.378
   59MYC    C30 9390   4.420   2.840   8.274
   59MYC    H54 9391   4.327   2.897   8.290
   59MYC    H55 9392   4.503   2.912   8.279
   59MYC    C31 9393   4.416   2.775   8.134
   59MYC    H56 9394   4.499   2.705   8.124
   59MYC    H57 9395   4.323   2.717   8.124
   59MYC    C32 9396   4.424   2.878   8.020
   59MYC    H58 9397   4.344   2.951   8.031
   59MYC    H59 9398   4.519   2.932   8.027
   59MYC    C33 9399   4.414   2.812   7.881
   59MYC    H60 9400   4.485   2.729   7.874
   59MYC    H61 9401   4.313   2.768   7.869
   59MYC    C34 9402   4.440   2.910   7.765
   59MYC    H62 9403   4.373   2.996   7.774
   59MYC    H63 9404   4.543   2.948   7.774
   59MYC    C35 9405   4.422   2.845   7.627
   59MYC    H64 9406   4.476   2.750   7.623
   59MYC    H65 9407   4.315   2.821   7.613
   59MYC    C36 9408   4.469   2.934   7.510
   59MYC    H66 9409   4.417   3.031   7.515
   59MYC    H67 9410   4.577   2.954   7.522
   59MYC    C37 9411   4.445   2.869   7.373
   59MYC    H68 9412   4.498   2.773   7.368
   59MYC    H69 9413   4.338   2.847   7.363
   59MYC    C38 9414   4.488   2.958   7.255
   59MYC    H70 9415   4.439   3.056   7.263
   59MYC    H71 9416   4.596   2.976   7.260
   59MYC    C39 9417   4.454   2.896   7.118
   59MYC    H72 9418   4.512   2.804   7.104
   59MYC    H73 9419   4.348   2.867   7.118
   59MYC    C40 9420   4.479   2.991   6.999
   59MYC    H74 9421   4.424   3.084   7.016
   59MYC    H75 9422   4.586   3.016   6.995
   59MYC    C41 9423   4.435   2.930   6.864
   59MYC    H76 9424   4.495   2.841   6.843
   59MYC    H77 9425   4.330   2.897   6.872
   59MYC    C42 9426   4.447   3.028   6.746
   59MYC    H78 9427   4.391   3.120   6.769
   59MYC    H79 9428   4.552   3.058   6.734
   59MYC    C43 9429   4.395   2.969   6.614
   59MYC    H80 9430   4.408   3.041   6.532
   59MYC    H81 9431   4.288   2.945   6.622
   59MYC    H82 9432   4.449   2.878   6.589
   60MYC   HH15 9433   5.528   3.270   6.510
   60MYC    C80 9434   5.485   3.215   6.594
   60MYC   H100 9435   5.379   3.241   6.602
   60MYC   H101 9436   5.493   3.108   6.573
   60MYC    C79 9437   5.559   3.251   6.724
   60MYC   H102 9438   5.548   3.358   6.743
   60MYC   H103 9439   5.665   3.230   6.712
   60MYC    C78 9440   5.507   3.172   6.847
   60MYC   HH14 9441   5.532   3.066   6.835
   60MYC   H104 9442   5.398   3.179   6.851
   60MYC    C77 9443   5.566   3.224   6.980
   60MYC   H106 9444   5.535   3.328   6.994
   60MYC   H107 9445   5.675   3.224   6.975
   60MYC    C76 9446   5.520   3.141   7.102
   60MYC   H108 9447   5.568   3.042   7.098
   60MYC   H109 9448   5.412   3.124   7.096
   60MYC    C75 9449   5.553   3.209   7.236
   60MYC   H110 9450   5.499   3.304   7.242
   60MYC   H111 9451   5.660   3.233   7.240
   60MYC    C74 9452   5.515   3.122   7.357
   60MYC   H112 9453   5.574   3.029   7.355
   60MYC   H113 9454   5.410   3.093   7.350
   60MYC    C73 9455   5.539   3.193   7.492
   60MYC   HH13 9456   5.475   3.283   7.496
   60MYC   H114 9457   5.643   3.228   7.497
   60MYC    C72 9458   5.508   3.103   7.612
   60MYC   H115 9459   5.569   3.012   7.606
   60MYC   H116 9460   5.403   3.072   7.608
   60MYC    C71 9461   5.534   3.173   7.747
   60MYC   H117 9462   5.476   3.266   7.751
   60MYC   H118 9463   5.640   3.201   7.754
   60MYC    C70 9464   5.497   3.084   7.867
   60MYC   H119 9465   5.554   2.991   7.863
   60MYC   H120 9466   5.391   3.058   7.860
   60MYC    C69 9467   5.523   3.154   8.002
   60MYC   H121 9468   5.478   3.254   7.999
   60MYC   H122 9469   5.631   3.169   8.015
   60MYC    C68 9470   5.467   3.076   8.121
   60MYC   HH12 9471   5.514   2.977   8.127
   60MYC   H123 9472   5.359   3.061   8.106
   60MYC    C67 9473   5.488   3.152   8.253
   60MYC   H124 9474   5.450   3.254   8.242
   60MYC   H125 9475   5.595   3.159   8.274
   60MYC    C66 9476   5.418   3.085   8.373
   60MYC   H126 9477   5.465   2.989   8.394
   60MYC   H127 9478   5.313   3.065   8.348
   60MYC    C65 9479   5.423   3.175   8.497
   60MYC   H128 9480   5.366   3.267   8.477
   60MYC   H129 9481   5.527   3.205   8.516
   60MYC    C64 9482   5.367   3.109   8.624
   60MYC   H130 9483   5.432   3.024   8.651
   60MYC   H131 9484   5.267   3.068   8.605
   60MYC    C63 9485   5.360   3.209   8.741
   60MYC   HH11 9486   5.277   3.278   8.723
   60MYC   H132 9487   5.452   3.268   8.742
   60MYC    C62 9488   5.343   3.142   8.878
   60MYC   H133 9489   5.429   3.076   8.895
   60MYC   H134 9490   5.253   3.080   8.879
   60MYC    C61 9491   5.336   3.246   8.991
   60MYC   H135 9492   5.235   3.290   8.993
   60MYC   H136 9493   5.405   3.329   8.969
   60MYC    C60 9494   5.373   3.189   9.126
   60MYC   H137 9495   5.477   3.157   9.130
   60MYC    C58 9496   5.317   3.253   9.250
   60MYC   H138 9497   5.241   3.329   9.237
   60MYC    C59 9498   5.277   3.112   9.213
   60MYC   H139 9499   5.318   3.030   9.272
   60MYC   H140 9500   5.176   3.096   9.176
   60MYC    C57 9501   5.411   3.285   9.365
   60MYC   HH10 9502   5.448   3.388   9.353
   60MYC   H141 9503   5.499   3.220   9.364
   60MYC    C56 9504   5.342   3.272   9.502
   60MYC   H142 9505   5.322   3.166   9.522
   60MYC   H143 9506   5.245   3.323   9.498
   60MYC    C55 9507   5.426   3.332   9.615
   60MYC   H144 9508   5.445   3.438   9.594
   60MYC   H145 9509   5.524   3.282   9.618
   60MYC    C54 9510   5.357   3.320   9.751
   60MYC   H146 9511   5.338   3.214   9.772
   60MYC   H147 9512   5.259   3.370   9.748
   60MYC    C53 9513   5.441   3.380   9.865
   60MYC   H148 9514   5.459   3.486   9.844
   60MYC   H149 9515   5.538   3.329   9.868
   60MYC    C52 9516   5.372   3.368  10.001
   60MYC    H99 9517   5.332   3.266  10.012
   60MYC   H150 9518   5.286   3.436  10.004
   60MYC    C51 9519   5.465   3.398  10.119
   60MYC    H97 9520   5.507   3.499  10.111
   60MYC    H98 9521   5.550   3.328  10.117
   60MYC    C50 9522   5.391   3.383  10.253
   60MYC    H95 9523   5.332   3.291  10.249
   60MYC    H96 9524   5.319   3.466  10.264
   60MYC    C49 9525   5.482   3.377  10.376
   60MYC    H93 9526   5.533   3.474  10.390
   60MYC    H94 9527   5.560   3.301  10.361
   60MYC    C48 9528   5.402   3.342  10.503
   60MYC    H91 9529   5.349   3.248  10.484
   60MYC    H92 9530   5.326   3.419  10.521
   60MYC    C47 9531   5.488   3.324  10.628
   60MYC    H89 9532   5.539   3.418  10.651
   60MYC    H90 9533   5.564   3.248  10.608
   60MYC    C46 9534   5.405   3.281  10.750
   60MYC    H87 9535   5.360   3.183  10.730
   60MYC    H88 9536   5.323   3.352  10.762
   60MYC    C45 9537   5.486   3.274  10.881
   60MYC    H85 9538   5.535   3.370  10.900
   60MYC    H86 9539   5.566   3.199  10.870
   60MYC    C44 9540   5.402   3.235  11.005
   60MYC    H83 9541   5.469   3.226  11.091
   60MYC    H84 9542   5.361   3.135  10.987
   60MYC    C18 9543   5.288   3.332  11.038
   60MYC    H31 9544   5.285   3.419  10.973
   60MYC    C17 9545   5.157   3.275  11.087
   60MYC    H30 9546   5.154   3.168  11.106
   60MYC    C19 9547   5.242   3.356  11.180
   60MYC    H32 9548   5.293   3.304  11.260
   60MYC    H33 9549   5.209   3.457  11.205
   60MYC    C16 9550   5.024   3.328  11.035
   60MYC    H28 9551   5.039   3.428  10.991
   60MYC    H29 9552   4.955   3.341  11.119
   60MYC    C15 9553   4.958   3.236  10.930
   60MYC    H26 9554   4.866   3.284  10.895
   60MYC    H27 9555   4.929   3.142  10.977
   60MYC    C14 9556   5.050   3.207  10.808
   60MYC    H24 9557   5.131   3.140  10.840
   60MYC    H25 9558   5.096   3.300  10.775
   60MYC    C13 9559   4.975   3.143  10.690
   60MYC    H22 9560   4.895   3.211  10.658
   60MYC    H23 9561   4.926   3.051  10.724
   60MYC    C12 9562   5.065   3.112  10.568
   60MYC    H20 9563   5.147   3.185  10.566
   60MYC    H21 9564   5.007   3.128  10.477
   60MYC    C11 9565   5.121   2.968  10.566
   60MYC    H18 9566   5.042   2.899  10.534
   60MYC    H19 9567   5.148   2.938  10.668
   60MYC    C10 9568   5.246   2.947  10.476
   60MYC    H16 9569   5.268   2.840  10.471
   60MYC    H17 9570   5.332   2.994  10.526
   60MYC     C9 9571   5.238   3.003  10.332
   60MYC    H14 9572   5.335   2.986  10.283
   60MYC    H15 9573   5.225   3.112  10.338
   60MYC     C8 9574   5.126   2.946  10.242
   60MYC    H12 9575   5.028   2.971  10.285
   60MYC    H13 9576   5.133   2.837  10.238
   60MYC     C7 9577   5.135   3.004  10.099
   60MYC    H10 9578   5.223   2.962  10.049
   60MYC    H11 9579   5.151   3.112  10.106
   60MYC     C6 9580   5.010   2.981  10.011
   60MYC     H8 9581   4.923   3.022  10.063
   60MYC     H9 9582   4.992   2.873   9.998
   60MYC     C5 9583   5.024   3.049   9.872
   60MYC     H6 9584   5.096   2.992   9.811
   60MYC     H7 9585   5.068   3.148   9.886
   60MYC     C4 9586   4.891   3.067   9.794
   60MYC     H4 9587   4.891   3.168   9.753
   60MYC     H5 9588   4.806   3.063   9.864
   60MYC     C2 9589   4.868   2.968   9.677
   60MYC     H2 9590   4.957   2.971   9.613
   60MYC     O3 9591   4.854   2.835   9.729
   60MYC     H3 9592   4.776   2.833   9.787
   60MYC     C1 9593   4.746   3.007   9.589
   60MYC     H1 9594   4.769   3.106   9.546
   60MYC    C81 9595   4.614   3.028   9.666
   60MYC    O82 9596   4.566   2.948   9.744
   60MYC    O83 9597   4.542   3.135   9.623
   60MYC   H105 9598   4.456   3.129   9.668
   60MYC    C20 9599   4.724   2.914   9.466
   60MYC    H34 9600   4.748   2.810   9.491
   60MYC    H35 9601   4.617   2.915   9.439
   60MYC    C21 9602   4.804   2.959   9.342
   60MYC    H36 9603   4.777   3.062   9.318
   60MYC    H37 9604   4.911   2.958   9.365
   60MYC    C22 9605   4.777   2.871   9.218
   60MYC    H38 9606   4.822   2.772   9.234
   60MYC    H39 9607   4.669   2.856   9.207
   60MYC    C23 9608   4.832   2.933   9.089
   60MYC    H40 9609   4.792   3.034   9.077
   60MYC    H41 9610   4.942   2.942   9.095
   60MYC    C24 9611   4.794   2.851   8.964
   60MYC    H42 9612   4.834   2.749   8.975
   60MYC    H43 9613   4.685   2.843   8.959
   60MYC    C25 9614   4.847   2.911   8.833
   60MYC    H44 9615   4.821   3.018   8.827
   60MYC    H45 9616   4.957   2.905   8.831
   60MYC    C26 9617   4.789   2.839   8.710
   60MYC    H46 9618   4.791   2.731   8.727
   60MYC    H47 9619   4.684   2.867   8.699
   60MYC    C27 9620   4.864   2.868   8.579
   60MYC    H48 9621   4.870   2.977   8.563
   60MYC    H49 9622   4.967   2.831   8.588
   60MYC    C28 9623   4.795   2.803   8.458
   60MYC    H50 9624   4.763   2.701   8.484
   60MYC    H51 9625   4.705   2.860   8.434
   60MYC    C29 9626   4.884   2.795   8.333
   60MYC    H52 9627   4.922   2.895   8.309
   60MYC    H53 9628   4.971   2.731   8.354
   60MYC    C30 9629   4.809   2.739   8.211
   60MYC    H54 9630   4.770   2.639   8.234
   60MYC    H55 9631   4.723   2.803   8.190
   60MYC    C31 9632   4.898   2.732   8.085
   60MYC    H56 9633   4.944   2.830   8.070
   60MYC    H57 9634   4.979   2.660   8.103
   60MYC    C32 9635   4.821   2.693   7.958
   60MYC    H58 9636   4.780   2.591   7.969
   60MYC    H59 9637   4.735   2.760   7.945
   60MYC    C33 9638   4.910   2.700   7.833
   60MYC    H60 9639   4.959   2.799   7.830
   60MYC    H61 9640   4.991   2.626   7.842
   60MYC    C34 9641   4.835   2.679   7.701
   60MYC    H62 9642   4.788   2.580   7.700
   60MYC    H63 9643   4.754   2.753   7.693
   60MYC    C35 9644   4.929   2.693   7.579
   60MYC    H64 9645   4.986   2.786   7.589
   60MYC    H65 9646   5.001   2.611   7.580
   60MYC    C36 9647   4.855   2.696   7.444
   60MYC    H66 9648   4.796   2.605   7.431
   60MYC    H67 9649   4.784   2.780   7.444
   60MYC    C37 9650   4.952   2.712   7.325
   60MYC    H68 9651   5.027   2.788   7.350
   60MYC    H69 9652   5.007   2.618   7.311
   60MYC    C38 9653   4.883   2.753   7.194
   60MYC    H70 9654   4.808   2.678   7.166
   60MYC    H71 9655   4.830   2.847   7.211
   60MYC    C39 9656   4.982   2.772   7.077
   60MYC    H72 9657   5.070   2.827   7.113
   60MYC    H73 9658   5.018   2.674   7.044
   60MYC    C40 9659   4.921   2.848   6.958
   60MYC    H74 9660   4.835   2.793   6.919
   60MYC    H75 9661   4.884   2.945   6.994
   60MYC    C41 9662   5.022   2.874   6.844
   60MYC    H76 9663   5.110   2.924   6.884
   60MYC    H77 9664   5.056   2.778   6.803
   60MYC    C42 9665   4.963   2.960   6.730
   60MYC    H78 9666   4.880   2.905   6.683
   60MYC    H79 9667   4.920   3.052   6.772
   60MYC    C43 9668   5.066   2.999   6.622
   60MYC    H80 9669   5.018   3.058   6.544
   60MYC    H81 9670   5.109   2.909   6.576
   60MYC    H82 9671   5.147   3.058   6.666
   61MYC   HH15 9672   6.421   3.127   6.620
   61MYC    C80 9673   6.361   3.101   6.708
   61MYC   H100 9674   6.261   3.145   6.696
   61MYC   H101 9675   6.352   2.992   6.712
   61MYC    C79 9676   6.428   3.155   6.837
   61MYC   H102 9677   6.443   3.263   6.827
   61MYC   H103 9678   0.078   3.110   6.846
   61MYC    C78 9679   6.347   3.125   6.964
   61MYC   HH14 9680   6.328   3.018   6.971
   61MYC   H104 9681   6.249   3.175   6.956
   61MYC    C77 9682   6.417   3.173   7.093
   61MYC   H106 9683   6.434   3.281   7.088
   61MYC   H107 9684   0.066   3.125   7.099
   61MYC    C76 9685   6.337   3.139   7.221
   61MYC   H108 9686   6.330   3.030   7.230
   61MYC   H109 9687   6.235   3.177   7.211
   61MYC    C75 9688   6.400   3.198   7.348
   61MYC   H110 9689   6.390   3.307   7.346
   61MYC   H111 9690   0.058   3.176   7.349
   61MYC    C74 9691   6.338   3.142   7.478
   61MYC   H112 9692   6.368   3.038   7.489
   61MYC   H113 9693   6.229   3.144   7.469
   61MYC    C73 9694   6.377   3.222   7.603
   61MYC   HH13 9695   6.327   3.320   7.600
   61MYC   H114 9696   0.035   3.242   7.602
   61MYC    C72 9697   6.341   3.150   7.735
   61MYC   H115 9698   6.408   3.064   7.747
   61MYC   H116 9699   6.239   3.111   7.728
   61MYC    C71 9700   6.351   3.241   7.859
   61MYC   H117 9701   6.278   3.322   7.849
   61MYC   H118 9702   0.000   3.286   7.863
   61MYC    C70 9703   6.325   3.165   7.990
   61MYC   H119 9704   6.403   3.089   8.003
   61MYC   H120 9705   6.230   3.110   7.982
   61MYC    C69 9706   6.320   3.257   8.113
   61MYC   H121 9707   6.239   3.330   8.101
   61MYC   H122 9708   6.414   3.313   8.120
   61MYC    C68 9709   6.299   3.178   8.244
   61MYC   HH12 9710   6.382   3.108   8.256
   61MYC   H123 9711   6.207   3.118   8.236
   61MYC    C67 9712   6.289   3.268   8.369
   61MYC   H124 9713   6.200   3.332   8.360
   61MYC   H125 9714   6.377   3.333   8.373
   61MYC    C66 9715   6.280   3.185   8.498
   61MYC   H126 9716   6.369   3.121   8.505
   61MYC   H127 9717   6.193   3.118   8.493
   61MYC    C65 9718   6.270   3.270   8.625
   61MYC   H128 9719   6.177   3.328   8.623
   61MYC   H129 9720   6.353   3.343   8.628
   61MYC    C64 9721   6.275   3.184   8.753
   61MYC   H130 9722   6.371   3.132   8.757
   61MYC   H131 9723   6.197   3.107   8.747
   61MYC    C63 9724   6.256   3.265   8.882
   61MYC   HH11 9725   6.158   3.313   8.880
   61MYC   H132 9726   6.331   3.344   8.887
   61MYC    C62 9727   6.267   3.176   9.008
   61MYC   H133 9728   6.367   3.132   9.011
   61MYC   H134 9729   6.195   3.093   9.000
   61MYC    C61 9730   6.242   3.253   9.139
   61MYC   H135 9731   6.142   3.297   9.136
   61MYC   H136 9732   6.313   3.336   9.146
   61MYC    C60 9733   6.256   3.163   9.260
   61MYC   H137 9734   6.354   3.116   9.265
   61MYC    C58 9735   6.193   3.198   9.393
   61MYC   H138 9736   6.129   3.286   9.395
   61MYC    C59 9737   6.141   3.081   9.312
   61MYC   H139 9738   6.162   2.981   9.347
   61MYC   H140 9739   6.045   3.093   9.263
   61MYC    C57 9740   6.274   3.180   9.520
   61MYC   HH10 9741   6.334   3.271   9.536
   61MYC   H141 9742   6.345   3.098   9.508
   61MYC    C56 9743   6.188   3.154   9.646
   61MYC   H142 9744   6.132   3.061   9.634
   61MYC   H143 9745   6.115   3.235   9.658
   61MYC    C55 9746   6.277   3.145   9.772
   61MYC   H144 9747   6.336   3.238   9.780
   61MYC   H145 9748   6.349   3.063   9.758
   61MYC    C54 9749   6.201   3.123   9.904
   61MYC   H146 9750   6.139   3.033   9.896
   61MYC   H147 9751   6.134   3.208   9.922
   61MYC    C53 9752   6.300   3.109  10.022
   61MYC   H148 9753   6.367   3.196  10.023
   61MYC   H149 9754   6.362   3.021  10.005
   61MYC    C52 9755   6.233   3.097  10.160
   61MYC    H99 9756   6.167   3.010  10.161
   61MYC   H150 9757   6.171   3.185  10.178
   61MYC    C51 9758   6.337   3.083  10.274
   61MYC    H97 9759   6.409   3.165  10.267
   61MYC    H98 9760   6.393   2.990  10.260
   61MYC    C50 9761   6.273   3.083  10.413
   61MYC    H95 9762   6.205   2.998  10.422
   61MYC    H96 9763   6.213   3.175  10.423
   61MYC    C49 9764   6.375   3.079  10.530
   61MYC    H93 9765   6.441   3.166  10.522
   61MYC    H94 9766   6.437   2.990  10.521
   61MYC    C48 9767   6.306   3.080  10.668
   61MYC    H91 9768   6.247   2.988  10.679
   61MYC    H92 9769   6.237   3.164  10.673
   61MYC    C47 9770   6.405   3.091  10.786
   61MYC    H89 9771   0.007   3.188  10.779
   61MYC    H90 9772   0.030   3.012  10.779
   61MYC    C46 9773   6.336   3.082  10.924
   61MYC    H87 9774   6.292   2.982  10.935
   61MYC    H88 9775   6.253   3.154  10.927
   61MYC    C45 9776   6.432   3.112  11.041
   61MYC    H85 9777   0.008   3.218  11.041
   61MYC    H86 9778   0.076   3.057  11.026
   61MYC    C44 9779   6.377   3.074  11.181
   61MYC    H83 9780   6.448   3.110  11.257
   61MYC    H84 9781   6.376   2.965  11.190
   61MYC    C18 9782   6.238   3.130  11.211
   61MYC    H31 9783   6.233   3.238  11.196
   61MYC    C17 9784   6.115   3.049  11.178
   61MYC    H30 9785   6.133   2.949  11.141
   61MYC    C19 9786   6.154   3.074  11.322
   61MYC    H32 9787   6.193   2.990  11.379
   61MYC    H33 9788   6.094   3.144  11.380
   61MYC    C16 9789   5.993   3.116  11.115
   61MYC    H28 9790   6.026   3.190  11.042
   61MYC    H29 9791   5.939   3.172  11.192
   61MYC    C15 9792   5.895   3.019  11.046
   61MYC    H26 9793   5.803   3.074  11.024
   61MYC    H27 9794   5.868   2.939  11.116
   61MYC    C14 9795   5.948   2.957  10.914
   61MYC    H24 9796   6.035   2.893  10.934
   61MYC    H25 9797   5.983   3.037  10.849
   61MYC    C13 9798   5.842   2.873  10.839
   61MYC    H22 9799   5.752   2.934  10.827
   61MYC    H23 9800   5.814   2.786  10.899
   61MYC    C12 9801   5.887   2.823  10.699
   61MYC    H20 9802   5.940   2.727  10.711
   61MYC    H21 9803   5.961   2.891  10.657
   61MYC    C11 9804   5.770   2.806  10.600
   61MYC    H18 9805   5.713   2.899  10.592
   61MYC    H19 9806   5.700   2.732  10.641
   61MYC    C10 9807   5.812   2.761  10.457
   61MYC    H16 9808   5.737   2.691  10.419
   61MYC    H17 9809   5.906   2.705  10.463
   61MYC     C9 9810   5.825   2.878  10.356
   61MYC    H14 9811   5.884   2.958  10.401
   61MYC    H15 9812   5.726   2.919  10.337
   61MYC     C8 9813   5.893   2.837  10.224
   61MYC    H12 9814   5.854   2.740  10.190
   61MYC    H13 9815   6.000   2.822  10.244
   61MYC     C7 9816   5.878   2.940  10.109
   61MYC    H10 9817   5.956   2.920  10.035
   61MYC    H11 9818   5.896   3.041  10.148
   61MYC     C6 9819   5.741   2.934  10.038
   61MYC     H8 9820   5.660   2.953  10.111
   61MYC     H9 9821   5.726   2.831  10.002
   61MYC     C5 9822   5.727   3.034   9.921
   61MYC     H6 9823   5.821   3.040   9.866
   61MYC     H7 9824   5.709   3.134   9.963
   61MYC     C4 9825   5.612   3.000   9.822
   61MYC     H4 9826   5.573   3.094   9.783
   61MYC     H5 9827   5.530   2.951   9.875
   61MYC     C2 9828   5.657   2.913   9.701
   61MYC     H2 9829   5.739   2.968   9.652
   61MYC     O3 9830   5.708   2.787   9.746
   61MYC     H3 9831   5.632   2.729   9.763
   61MYC     C1 9832   5.545   2.892   9.595
   61MYC     H1 9833   5.505   2.991   9.569
   61MYC    C81 9834   5.425   2.810   9.649
   61MYC    O82 9835   5.434   2.698   9.697
   61MYC    O83 9836   5.304   2.865   9.622
   61MYC   H105 9837   5.239   2.799   9.651
   61MYC    C20 9838   5.597   2.831   9.462
   61MYC    H34 9839   5.664   2.746   9.483
   61MYC    H35 9840   5.512   2.789   9.406
   61MYC    C21 9841   5.669   2.933   9.371
   61MYC    H36 9842   5.598   3.013   9.346
   61MYC    H37 9843   5.753   2.979   9.424
   61MYC    C22 9844   5.720   2.871   9.239
   61MYC    H38 9845   5.803   2.803   9.261
   61MYC    H39 9846   5.639   2.810   9.196
   61MYC    C23 9847   5.765   2.975   9.135
   61MYC    H40 9848   5.685   3.048   9.119
   61MYC    H41 9849   5.852   3.031   9.172
   61MYC    C24 9850   5.799   2.908   9.000
   61MYC    H42 9851   5.880   2.836   9.015
   61MYC    H43 9852   5.711   2.851   8.968
   61MYC    C25 9853   5.839   3.005   8.887
   61MYC    H44 9854   5.783   3.099   8.896
   61MYC    H45 9855   5.946   3.030   8.896
   61MYC    C26 9856   5.810   2.942   8.749
   61MYC    H46 9857   5.840   2.836   8.752
   61MYC    H47 9858   5.702   2.944   8.732
   61MYC    C27 9859   5.881   3.009   8.631
   61MYC    H48 9860   5.860   3.116   8.630
   61MYC    H49 9861   5.990   2.997   8.642
   61MYC    C28 9862   5.836   2.947   8.497
   61MYC    H50 9863   5.834   2.838   8.505
   61MYC    H51 9864   5.733   2.979   8.476
   61MYC    C29 9865   5.927   2.985   8.378
   61MYC    H52 9866   5.939   3.094   8.375
   61MYC    H53 9867   6.026   2.942   8.394
   61MYC    C30 9868   5.870   2.936   8.244
   61MYC    H54 9869   5.855   2.827   8.247
   61MYC    H55 9870   5.771   2.981   8.229
   61MYC    C31 9871   5.961   2.971   8.124
   61MYC    H56 9872   5.987   3.078   8.130
   61MYC    H57 9873   6.054   2.914   8.131
   61MYC    C32 9874   5.893   2.943   7.989
   61MYC    H58 9875   5.869   2.837   7.981
   61MYC    H59 9876   5.798   2.998   7.986
   61MYC    C33 9877   5.979   2.986   7.869
   61MYC    H60 9878   6.011   3.090   7.881
   61MYC    H61 9879   6.070   2.924   7.865
   61MYC    C34 9880   5.902   2.973   7.736
   61MYC    H62 9881   5.869   2.869   7.724
   61MYC    H63 9882   5.812   3.035   7.741
   61MYC    C35 9883   5.984   3.015   7.613
   61MYC    H64 9884   6.016   3.120   7.624
   61MYC    H65 9885   6.076   2.954   7.607
   61MYC    C36 9886   5.904   2.999   7.483
   61MYC    H66 9887   5.871   2.895   7.475
   61MYC    H67 9888   5.813   3.061   7.489
   61MYC    C37 9889   5.981   3.038   7.356
   61MYC    H68 9890   6.000   3.146   7.356
   61MYC    H69 9891   6.079   2.988   7.355
   61MYC    C38 9892   5.904   2.999   7.228
   61MYC    H70 9893   5.898   2.890   7.223
   61MYC    H71 9894   5.801   3.036   7.236
   61MYC    C39 9895   5.967   3.053   7.098
   61MYC    H72 9896   5.959   3.162   7.098
   61MYC    H73 9897   6.073   3.028   7.095
   61MYC    C40 9898   5.898   2.995   6.973
   61MYC    H74 9899   5.920   2.888   6.967
   61MYC    H75 9900   5.789   3.004   6.984
   61MYC    C41 9901   5.940   3.064   6.842
   61MYC    H76 9902   5.911   3.170   6.846
   61MYC    H77 9903   6.049   3.061   6.833
   61MYC    C42 9904   5.876   2.999   6.718
   61MYC    H78 9905   5.908   2.894   6.712
   61MYC    H79 9906   5.767   2.998   6.729
   61MYC    C43 9907   5.913   3.069   6.586
   61MYC    H80 9908   5.865   3.020   6.502
   61MYC    H81 9909   6.022   3.067   6.570
   61MYC    H82 9910   5.881   3.174   6.588
   62MYC   HH15 9911   0.750   3.571   6.539
   62MYC    C80 9912   0.692   3.549   6.629
   62MYC   H100 9913   0.593   3.594   6.618
   62MYC   H101 9914   0.681   3.440   6.636
   62MYC    C79 9915   0.764   3.603   6.753
   62MYC   H102 9916   0.780   3.711   6.741
   62MYC   H103 9917   0.862   3.556   6.761
   62MYC    C78 9918   0.685   3.578   6.883
   62MYC   HH14 9919   0.663   3.471   6.892
   62MYC   H104 9920   0.589   3.629   6.878
   62MYC    C77 9921   0.760   3.624   7.010
   62MYC   H106 9922   0.781   3.731   7.003
   62MYC   H107 9923   0.857   3.572   7.015
   62MYC    C76 9924   0.681   3.595   7.139
   62MYC   H108 9925   0.656   3.488   7.143
   62MYC   H109 9926   0.586   3.650   7.137
   62MYC    C75 9927   0.759   3.632   7.267
   62MYC   H110 9928   0.782   3.739   7.265
   62MYC   H111 9929   0.854   3.579   7.268
   62MYC    C74 9930   0.680   3.599   7.395
   62MYC   H112 9931   0.656   3.492   7.396
   62MYC   H113 9932   0.586   3.654   7.395
   62MYC    C73 9933   0.759   3.634   7.523
   62MYC   HH13 9934   0.793   3.738   7.517
   62MYC   H114 9935   0.850   3.572   7.528
   62MYC    C72 9936   0.677   3.615   7.651
   62MYC   H115 9937   0.644   3.511   7.659
   62MYC   H116 9938   0.587   3.677   7.645
   62MYC    C71 9939   0.757   3.653   7.777
   62MYC   H117 9940   0.809   3.748   7.760
   62MYC   H118 9941   0.834   3.577   7.795
   62MYC    C70 9942   0.669   3.667   7.903
   62MYC   H119 9943   0.615   3.574   7.921
   62MYC   H120 9944   0.595   3.746   7.886
   62MYC    C69 9945   0.754   3.703   8.027
   62MYC   H121 9946   0.813   3.792   8.006
   62MYC   H122 9947   0.824   3.621   8.045
   62MYC    C68 9948   0.670   3.726   8.154
   62MYC   HH12 9949   0.602   3.642   8.169
   62MYC   H123 9950   0.608   3.816   8.141
   62MYC    C67 9951   0.759   3.743   8.278
   62MYC   H124 9952   0.826   3.829   8.264
   62MYC   H125 9953   0.823   3.654   8.286
   62MYC    C66 9954   0.681   3.760   8.409
   62MYC   H126 9955   0.602   3.684   8.414
   62MYC   H127 9956   0.632   3.858   8.411
   62MYC    C65 9957   0.773   3.745   8.532
   62MYC   H128 9958   0.852   3.820   8.529
   62MYC   H129 9959   0.822   3.647   8.526
   62MYC    C64 9960   0.698   3.754   8.666
   62MYC   H130 9961   0.609   3.691   8.662
   62MYC   H131 9962   0.665   3.857   8.682
   62MYC    C63 9963   0.786   3.708   8.784
   62MYC   HH11 9964   0.875   3.772   8.790
   62MYC   H132 9965   0.822   3.606   8.764
   62MYC    C62 9966   0.712   3.710   8.919
   62MYC   H133 9967   0.616   3.660   8.909
   62MYC   H134 9968   0.691   3.814   8.947
   62MYC    C61 9969   0.793   3.642   9.031
   62MYC   H135 9970   0.894   3.686   9.034
   62MYC   H136 9971   0.806   3.536   9.006
   62MYC    C60 9972   0.726   3.655   9.167
   62MYC   H137 9973   0.628   3.608   9.170
   62MYC    C58 9974   0.809   3.651   9.293
   62MYC   H138 9975   0.916   3.645   9.281
   62MYC    C59 9976   0.744   3.781   9.248
   62MYC   H139 9977   0.658   3.817   9.304
   62MYC   H140 9978   0.809   3.858   9.209
   62MYC    C57 9979   0.761   3.582   9.420
   62MYC   HH10 9980   0.798   3.479   9.423
   62MYC   H141 9981   0.651   3.576   9.421
   62MYC    C56 9982   0.809   3.659   9.544
   62MYC   H142 9983   0.766   3.760   9.540
   62MYC   H143 9984   0.918   3.671   9.539
   62MYC    C55 9985   0.772   3.595   9.679
   62MYC   H144 9986   0.831   3.504   9.694
   62MYC   H145 9987   0.666   3.566   9.678
   62MYC    C54 9988   0.796   3.695   9.794
   62MYC   H146 9989   0.722   3.776   9.785
   62MYC   H147 9990   0.895   3.740   9.782
   62MYC    C53 9991   0.785   3.636   9.936
   62MYC   H148 9992   0.859   3.555   9.947
   62MYC   H149 9993   0.686   3.592   9.951
   62MYC    C52 9994   0.812   3.745  10.041
   62MYC    H99 9995   0.735   3.823  10.032
   62MYC   H150 9996   0.908   3.794  10.018
   62MYC    C51 9997   0.816   3.695  10.186
   62MYC    H97 9998   0.888   3.613  10.194
   62MYC    H98 9999   0.717   3.655  10.213
   62MYC    C5010000   0.855   3.808  10.284
   62MYC    H9510001   0.787   3.892  10.271
   62MYC    H9610002   0.956   3.844  10.257
   62MYC    C4910003   0.855   3.764  10.431
   62MYC    H9310004   0.918   3.675  10.442
   62MYC    H9410005   0.753   3.735  10.459
   62MYC    C4810006   0.906   3.875  10.526
   62MYC    H9110007   0.845   3.965  10.514
   62MYC    H9210008   1.008   3.901  10.497
   62MYC    C4710009   0.907   3.832  10.674
   62MYC    H8910010   0.973   3.900  10.730
   62MYC    H9010011   0.949   3.732  10.682
   62MYC    C4610012   0.767   3.834  10.740
   62MYC    H8710013   0.699   3.773  10.680
   62MYC    H8810014   0.728   3.936  10.738
   62MYC    C4510015   0.767   3.779  10.885
   62MYC    H8510016   0.838   3.834  10.947
   62MYC    H8610017   0.801   3.675  10.882
   62MYC    C4410018   0.627   3.782  10.952
   62MYC    H8310019   0.633   3.723  11.045
   62MYC    H8410020   0.556   3.730  10.887
   62MYC    C1810021   0.574   3.921  10.983
   62MYC    H3110022   0.572   3.987  10.897
   62MYC    C1710023   0.459   3.939  11.080
   62MYC    H3010024   0.424   3.849  11.130
   62MYC    C1910025   0.596   3.987  11.118
   62MYC    H3210026   0.648   3.931  11.195
   62MYC    H3310027   0.612   4.094  11.120
   62MYC    C1610028   0.347   4.039  11.056
   62MYC    H2810029   0.385   4.128  11.003
   62MYC    H2910030   0.310   4.075  11.152
   62MYC    C1510031   0.228   3.982  10.977
   62MYC    H2610032   0.146   4.055  10.979
   62MYC    H2710033   0.191   3.892  11.028
   62MYC    C1410034   0.261   3.947  10.830
   62MYC    H2410035   0.336   3.868  10.827
   62MYC    H2510036   0.305   4.035  10.781
   62MYC    C1310037   0.137   3.902  10.750
   62MYC    H2210038   0.066   3.986  10.744
   62MYC    H2310039   0.088   3.821  10.805
   62MYC    C1210040   0.172   3.854  10.608
   62MYC    H2010041   0.246   3.774  10.615
   62MYC    H2110042   0.218   3.936  10.552
   62MYC    C1110043   0.048   3.803  10.532
   62MYC    H1810044   6.433   3.888  10.505
   62MYC    H1910045   6.441   3.740  10.599
   62MYC    C1010046   0.080   3.719  10.408
   62MYC    H1610047   6.436   3.678  10.369
   62MYC    H1710048   0.143   3.633  10.435
   62MYC     C910049   0.149   3.799  10.298
   62MYC    H1410050   0.247   3.832  10.332
   62MYC    H1510051   0.089   3.889  10.277
   62MYC     C810052   0.165   3.719  10.168
   62MYC    H1210053   0.066   3.684  10.134
   62MYC    H1310054   0.227   3.631  10.185
   62MYC     C710055   0.228   3.806  10.060
   62MYC    H1010056   0.331   3.830  10.089
   62MYC    H1110057   0.174   3.901  10.057
   62MYC     C610058   0.228   3.741   9.921
   62MYC     H810059   0.125   3.718   9.890
   62MYC     H910060   0.280   3.645   9.927
   62MYC     C510061   0.295   3.829   9.814
   62MYC     H610062   0.304   3.771   9.721
   62MYC     H710063   0.398   3.850   9.846
   62MYC     C410064   0.220   3.962   9.788
   62MYC     H410065   0.289   4.045   9.806
   62MYC     H510066   0.140   3.976   9.861
   62MYC     C210067   0.159   3.973   9.647
   62MYC     H210068   0.239   3.951   9.576
   62MYC     O310069   0.056   3.875   9.634
   62MYC     H310070   6.434   3.901   9.694
   62MYC     C110071   0.104   4.116   9.617
   62MYC     H110072   0.188   4.185   9.616
   62MYC    C8110073   0.007   4.165   9.726
   62MYC    O8210074   6.361   4.102   9.767
   62MYC    O8310075   0.037   4.288   9.776
   62MYC   H10510076   6.418   4.307   9.842
   62MYC    C2010077   0.040   4.128   9.476
   62MYC    H3410078   6.408   4.055   9.466
   62MYC    H3510079   6.444   4.228   9.466
   62MYC    C2110080   0.142   4.110   9.362
   62MYC    H3610081   0.216   4.191   9.366
   62MYC    H3710082   0.197   4.016   9.376
   62MYC    C2210083   0.078   4.106   9.223
   62MYC    H3810084   0.000   4.029   9.220
   62MYC    H3910085   0.029   4.202   9.202
   62MYC    C2310086   0.183   4.074   9.114
   62MYC    H4010087   0.269   4.142   9.124
   62MYC    H4110088   0.221   3.972   9.130
   62MYC    C2410089   0.127   4.086   8.972
   62MYC    H4210090   0.029   4.037   8.967
   62MYC    H4310091   0.111   4.192   8.949
   62MYC    C2510092   0.220   4.023   8.867
   62MYC    H4410093   0.322   4.060   8.880
   62MYC    H4510094   0.222   3.914   8.882
   62MYC    C2610095   0.173   4.053   8.724
   62MYC    H4610096   0.066   4.029   8.715
   62MYC    H4710097   0.182   4.161   8.706
   62MYC    C2710098   0.250   3.976   8.616
   62MYC    H4810099   0.358   3.993   8.628
   62MYC    H4910100   0.233   3.869   8.630
   62MYC    C2810101   0.207   4.019   8.475
   62MYC    H5010102   0.097   4.015   8.469
   62MYC    H5110103   0.236   4.123   8.459
   62MYC    C2910104   0.264   3.931   8.363
   62MYC    H5210105   0.374   3.924   8.372
   62MYC    H5310106   0.224   3.830   8.373
   62MYC    C3010107   0.228   3.986   8.224
   62MYC    H5410108   0.121   4.009   8.221
   62MYC    H5510109   0.282   4.081   8.209
   62MYC    C3110110   0.261   3.890   8.109
   62MYC    H5610111   0.365   3.857   8.115
   62MYC    H5710112   0.198   3.801   8.119
   62MYC    C3210113   0.235   3.955   7.972
   62MYC    H5810114   0.132   3.993   7.969
   62MYC    H5910115   0.302   4.041   7.961
   62MYC    C3310116   0.256   3.859   7.854
   62MYC    H6010117   0.358   3.817   7.858
   62MYC    H6110118   0.186   3.776   7.862
   62MYC    C3410119   0.236   3.931   7.719
   62MYC    H6210120   0.135   3.973   7.716
   62MYC    H6310121   0.306   4.015   7.713
   62MYC    C3510122   0.257   3.839   7.598
   62MYC    H6410123   0.356   3.794   7.603
   62MYC    H6510124   0.183   3.758   7.601
   62MYC    C3610125   0.242   3.916   7.465
   62MYC    H6610126   0.142   3.960   7.460
   62MYC    H6710127   0.314   3.999   7.464
   62MYC    C3710128   0.265   3.827   7.341
   62MYC    H6810129   0.363   3.779   7.349
   62MYC    H6910130   0.190   3.747   7.339
   62MYC    C3810131   0.258   3.907   7.210
   62MYC    H7010132   0.158   3.953   7.201
   62MYC    H7110133   0.331   3.989   7.214
   62MYC    C3910134   0.286   3.821   7.085
   62MYC    H7210135   0.384   3.774   7.096
   62MYC    H7310136   0.212   3.741   7.080
   62MYC    C4010137   0.283   3.903   6.954
   62MYC    H7410138   0.183   3.948   6.943
   62MYC    H7510139   0.355   3.985   6.961
   62MYC    C4110140   0.315   3.817   6.830
   62MYC    H7610141   0.417   3.778   6.840
   62MYC    H7710142   0.247   3.731   6.827
   62MYC    C4210143   0.304   3.896   6.698
   62MYC    H7810144   0.201   3.933   6.686
   62MYC    H7910145   0.369   3.984   6.702
   62MYC    C4310146   0.341   3.812   6.574
   62MYC    H8010147   0.326   3.870   6.483
   62MYC    H8110148   0.280   3.721   6.569
   62MYC    H8210149   0.447   3.783   6.578
   63MYC   HH1510150   1.276   4.255   6.599
   63MYC    C8010151   1.243   4.186   6.677
   63MYC   H10010152   1.151   4.137   6.644
   63MYC   H10110153   1.320   4.109   6.692
   63MYC    C7910154   1.217   4.263   6.808
   63MYC   H10210155   1.136   4.335   6.792
   63MYC   H10310156   1.307   4.320   6.834
   63MYC    C7810157   1.182   4.170   6.926
   63MYC   HH1410158   1.268   4.104   6.946
   63MYC   H10410159   1.098   4.105   6.898
   63MYC    C7710160   1.145   4.247   7.054
   63MYC   H10610161   1.049   4.297   7.040
   63MYC   H10710162   1.220   4.325   7.073
   63MYC    C7610163   1.138   4.155   7.177
   63MYC   H10810164   1.236   4.107   7.191
   63MYC   H10910165   1.066   4.074   7.160
   63MYC    C7510166   1.100   4.229   7.307
   63MYC   H11010167   0.997   4.264   7.300
   63MYC   H11110168   1.163   4.318   7.318
   63MYC    C7410169   1.118   4.140   7.430
   63MYC   H11210170   1.224   4.112   7.438
   63MYC   H11310171   1.062   4.047   7.418
   63MYC    C7310172   1.075   4.207   7.562
   63MYC   HH1310173   0.965   4.215   7.564
   63MYC   H11410174   1.115   4.310   7.566
   63MYC    C7210175   1.125   4.129   7.684
   63MYC   H11510176   1.235   4.127   7.682
   63MYC   H11610177   1.091   4.025   7.677
   63MYC    C7110178   1.078   4.189   7.817
   63MYC   H11710179   0.970   4.172   7.828
   63MYC   H11810180   1.094   4.297   7.817
   63MYC    C7010181   1.154   4.127   7.936
   63MYC   H11910182   1.260   4.153   7.930
   63MYC   H12010183   1.146   4.018   7.932
   63MYC    C6910184   1.098   4.175   8.071
   63MYC   H12110185   0.993   4.144   8.078
   63MYC   H12210186   1.099   4.285   8.073
   63MYC    C6810187   1.175   4.121   8.192
   63MYC   HH1210188   1.279   4.158   8.188
   63MYC   H12310189   1.180   4.012   8.188
   63MYC    C6710190   1.108   4.165   8.322
   63MYC   H12410191   1.008   4.121   8.327
   63MYC   H12510192   1.096   4.274   8.320
   63MYC    C6610193   1.187   4.126   8.449
   63MYC   H12610194   1.287   4.170   8.444
   63MYC   H12710195   1.198   4.017   8.455
   63MYC    C6510196   1.113   4.178   8.573
   63MYC   H12810197   1.020   4.122   8.587
   63MYC   H12910198   1.084   4.283   8.556
   63MYC    C6410199   1.197   4.172   8.702
   63MYC   H13010200   1.294   4.220   8.685
   63MYC   H13110201   1.216   4.067   8.729
   63MYC    C6310202   1.124   4.244   8.816
   63MYC   HH1110203   1.030   4.191   8.838
   63MYC   H13210204   1.096   4.345   8.783
   63MYC    C6210205   1.207   4.256   8.944
   63MYC   H13310206   1.297   4.315   8.924
   63MYC   H13410207   1.239   4.155   8.975
   63MYC    C6110208   1.126   4.321   9.057
   63MYC   H13510209   1.037   4.259   9.076
   63MYC   H13610210   1.088   4.418   9.023
   63MYC    C6010211   1.205   4.340   9.185
   63MYC   H13710212   1.262   4.433   9.186
   63MYC    C5810213   1.145   4.293   9.315
   63MYC   H13810214   1.052   4.236   9.308
   63MYC    C5910215   1.267   4.224   9.260
   63MYC   H13910216   1.363   4.242   9.309
   63MYC   H14010217   1.255   4.124   9.219
   63MYC    C5710218   1.150   4.379   9.440
   63MYC   HH1010219   1.068   4.451   9.436
   63MYC   H14110220   1.243   4.437   9.443
   63MYC    C5610221   1.138   4.294   9.567
   63MYC   H14210222   1.229   4.233   9.577
   63MYC   H14310223   1.054   4.225   9.557
   63MYC    C5510224   1.117   4.378   9.694
   63MYC   H14410225   1.016   4.421   9.692
   63MYC   H14510226   1.187   4.463   9.696
   63MYC    C5410227   1.135   4.293   9.821
   63MYC   H14610228   1.238   4.255   9.824
   63MYC   H14710229   1.070   4.206   9.815
   63MYC    C5310230   1.105   4.369   9.952
   63MYC   H14810231   1.003   4.409   9.949
   63MYC   H14910232   1.174   4.454   9.962
   63MYC    C5210233   1.120   4.275  10.073
   63MYC    H9910234   1.221   4.232  10.072
   63MYC   H15010235   1.050   4.192  10.063
   63MYC    C5110236   1.099   4.343  10.210
   63MYC    H9710237   1.001   4.392  10.212
   63MYC    H9810238   1.175   4.421  10.223
   63MYC    C5010239   1.108   4.241  10.325
   63MYC    H9510240   1.186   4.167  10.301
   63MYC    H9610241   1.014   4.185  10.332
   63MYC    C4910242   1.142   4.304  10.462
   63MYC    H9310243   1.062   4.373  10.492
   63MYC    H9410244   1.233   4.363  10.450
   63MYC    C4810245   1.164   4.198  10.572
   63MYC    H9110246   1.223   4.115  10.531
   63MYC    H9210247   1.067   4.155  10.602
   63MYC    C4710248   1.237   4.254  10.695
   63MYC    H8910249   1.176   4.333  10.742
   63MYC    H9010250   1.330   4.301  10.661
   63MYC    C4610251   1.273   4.148  10.801
   63MYC    H8710252   1.328   4.066  10.752
   63MYC    H8810253   1.181   4.104  10.842
   63MYC    C4510254   1.360   4.206  10.915
   63MYC    H8510255   1.302   4.281  10.970
   63MYC    H8610256   1.446   4.258  10.871
   63MYC    C4410257   1.414   4.100  11.014
   63MYC    H8310258   1.475   4.152  11.089
   63MYC    H8410259   1.483   4.033  10.960
   63MYC    C1810260   1.306   4.018  11.084
   63MYC    H3110261   1.208   4.065  11.081
   63MYC    C1710262   1.313   3.867  11.084
   63MYC    H3010263   1.401   3.823  11.038
   63MYC    C1910264   1.338   3.944  11.211
   63MYC    H3210265   1.439   3.950  11.249
   63MYC    H3310266   1.261   3.943  11.288
   63MYC    C1610267   1.188   3.780  11.069
   63MYC    H2810268   1.112   3.833  11.010
   63MYC    H2910269   1.143   3.762  11.167
   63MYC    C1510270   1.217   3.644  11.002
   63MYC    H2610271   1.138   3.573  11.027
   63MYC    H2710272   1.309   3.603  11.043
   63MYC    C1410273   1.228   3.655  10.849
   63MYC    H2410274   1.289   3.743  10.823
   63MYC    H2510275   1.128   3.672  10.807
   63MYC    C1310276   1.289   3.531  10.782
   63MYC    H2210277   1.220   3.446  10.791
   63MYC    H2310278   1.381   3.503  10.835
   63MYC    C1210279   1.324   3.556  10.634
   63MYC    H2010280   1.386   3.646  10.627
   63MYC    H2110281   1.231   3.576  10.578
   63MYC    C1110282   1.400   3.438  10.568
   63MYC    H1810283   1.333   3.352  10.559
   63MYC    H1910284   1.482   3.408  10.634
   63MYC    C1010285   1.460   3.472  10.430
   63MYC    H1610286   1.523   3.388  10.399
   63MYC    H1710287   1.529   3.558  10.441
   63MYC     C910288   1.357   3.501  10.317
   63MYC    H1410289   1.256   3.477  10.352
   63MYC    H1510290   1.379   3.432  10.235
   63MYC     C810291   1.360   3.646  10.264
   63MYC    H1210292   1.462   3.671  10.231
   63MYC    H1310293   1.337   3.715  10.347
   63MYC     C710294   1.261   3.674  10.148
   63MYC    H1010295   1.260   3.782  10.128
   63MYC    H1110296   1.160   3.647  10.180
   63MYC     C610297   1.295   3.600  10.016
   63MYC     H810298   1.298   3.493  10.034
   63MYC     H910299   1.396   3.630   9.985
   63MYC     C510300   1.194   3.628   9.901
   63MYC     H610301   1.197   3.734   9.873
   63MYC     H710302   1.094   3.609   9.940
   63MYC     C410303   1.215   3.539   9.774
   63MYC     H410304   1.117   3.528   9.725
   63MYC     H510305   1.243   3.438   9.806
   63MYC     C210306   1.315   3.593   9.668
   63MYC     H210307   1.270   3.684   9.625
   63MYC     O310308   1.439   3.628   9.730
   63MYC     H310309   1.483   3.545   9.756
   63MYC     C110310   1.340   3.492   9.551
   63MYC     H110311   1.244   3.466   9.506
   63MYC    C8110312   1.404   3.360   9.600
   63MYC    O8210313   1.504   3.353   9.669
   63MYC    O8310314   1.354   3.249   9.540
   63MYC   H10510315   1.408   3.176   9.574
   63MYC    C2010316   1.427   3.552   9.436
   63MYC    H3410317   1.511   3.607   9.479
   63MYC    H3510318   1.473   3.469   9.380
   63MYC    C2110319   1.352   3.644   9.336
   63MYC    H3610320   1.260   3.683   9.381
   63MYC    H3710321   1.416   3.731   9.315
   63MYC    C2210322   1.318   3.575   9.201
   63MYC    H3810323   1.409   3.527   9.163
   63MYC    H3910324   1.245   3.496   9.218
   63MYC    C2310325   1.267   3.673   9.093
   63MYC    H4010326   1.172   3.718   9.126
   63MYC    H4110327   1.339   3.754   9.081
   63MYC    C2410328   1.245   3.604   8.956
   63MYC    H4210329   1.332   3.542   8.933
   63MYC    H4310330   1.158   3.537   8.962
   63MYC    C2510331   1.224   3.704   8.839
   63MYC    H4410332   1.137   3.768   8.860
   63MYC    H4510333   1.312   3.770   8.833
   63MYC    C2610334   1.205   3.633   8.704
   63MYC    H4610335   1.287   3.562   8.689
   63MYC    H4710336   1.112   3.574   8.707
   63MYC    C2710337   1.199   3.729   8.583
   63MYC    H4810338   1.116   3.798   8.594
   63MYC    H4910339   1.291   3.789   8.580
   63MYC    C2810340   1.186   3.652   8.449
   63MYC    H5010341   1.267   3.579   8.442
   63MYC    H5110342   1.092   3.595   8.450
   63MYC    C2910343   1.189   3.743   8.324
   63MYC    H5210344   1.102   3.810   8.325
   63MYC    H5310345   1.279   3.806   8.327
   63MYC    C3010346   1.190   3.661   8.193
   63MYC    H5410347   1.276   3.593   8.194
   63MYC    H5510348   1.099   3.599   8.188
   63MYC    C3110349   1.197   3.749   8.066
   63MYC    H5610350   1.105   3.809   8.060
   63MYC    H5710351   1.281   3.819   8.075
   63MYC    C3210352   1.214   3.667   7.937
   63MYC    H5810353   1.308   3.611   7.941
   63MYC    H5910354   1.133   3.593   7.931
   63MYC    C3310355   1.211   3.755   7.810
   63MYC    H6010356   1.115   3.807   7.807
   63MYC    H6110357   1.290   3.831   7.816
   63MYC    C3410358   1.229   3.674   7.680
   63MYC    H6210359   1.331   3.635   7.674
   63MYC    H6310360   1.162   3.587   7.683
   63MYC    C3510361   1.197   3.757   7.554
   63MYC    H6410362   1.098   3.802   7.565
   63MYC    H6510363   1.269   3.840   7.547
   63MYC    C3610364   1.199   3.675   7.423
   63MYC    H6610365   1.300   3.633   7.408
   63MYC    H6710366   1.130   3.591   7.432
   63MYC    C3710367   1.160   3.762   7.302
   63MYC    H6810368   1.060   3.804   7.318
   63MYC    H6910369   1.229   3.847   7.295
   63MYC    C3810370   1.160   3.686   7.167
   63MYC    H7010371   1.258   3.640   7.152
   63MYC    H7110372   1.086   3.605   7.170
   63MYC    C3910373   1.129   3.780   7.048
   63MYC    H7210374   1.030   3.824   7.062
   63MYC    H7310375   1.201   3.863   7.049
   63MYC    C4010376   1.136   3.710   6.911
   63MYC    H7410377   1.233   3.661   6.900
   63MYC    H7510378   1.060   3.632   6.906
   63MYC    C4110379   1.116   3.809   6.794
   63MYC    H7610380   1.018   3.858   6.804
   63MYC    H7710381   1.192   3.887   6.800
   63MYC    C4210382   1.125   3.742   6.655
   63MYC    H7810383   1.222   3.691   6.646
   63MYC    H7910384   1.048   3.665   6.646
   63MYC    C4310385   1.110   3.842   6.539
   63MYC    H8010386   1.119   3.791   6.443
   63MYC    H8110387   1.188   3.919   6.544
   63MYC    H8210388   1.012   3.891   6.543
   64MYC   HH1510389   1.598   3.897   6.660
   64MYC    C8010390   1.630   3.946   6.752
   64MYC   H10010391   1.739   3.955   6.751
   64MYC   H10110392   1.588   4.048   6.753
   64MYC    C7910393   1.583   3.867   6.876
   64MYC   H10210394   1.623   3.765   6.870
   64MYC   H10310395   1.473   3.858   6.873
   64MYC    C7810396   1.627   3.932   7.008
   64MYC   HH1410397   1.588   4.034   7.013
   64MYC   H10410398   1.736   3.939   7.009
   64MYC    C7710399   1.581   3.855   7.134
   64MYC   H10610400   1.619   3.752   7.130
   64MYC   H10710401   1.471   3.849   7.135
   64MYC    C7610402   1.630   3.924   7.263
   64MYC   H10810403   1.586   4.024   7.268
   64MYC   H10910404   1.738   3.936   7.257
   64MYC    C7510405   1.596   3.848   7.393
   64MYC   H11010406   1.642   3.748   7.391
   64MYC   H11110407   1.487   3.833   7.400
   64MYC    C7410408   1.645   3.925   7.516
   64MYC   H11210409   1.592   4.022   7.520
   64MYC   H11310410   1.751   3.948   7.505
   64MYC    C7310411   1.625   3.852   7.650
   64MYC   HH1310412   1.687   3.762   7.652
   64MYC   H11410413   1.520   3.819   7.659
   64MYC    C7210414   1.660   3.942   7.770
   64MYC   H11510415   1.595   4.031   7.767
   64MYC   H11610416   1.763   3.978   7.760
   64MYC    C7110417   1.644   3.873   7.906
   64MYC   H11710418   1.721   3.796   7.917
   64MYC   H11810419   1.547   3.822   7.910
   64MYC    C7010420   1.653   3.973   8.023
   64MYC   H11910421   1.576   4.051   8.010
   64MYC   H12010422   1.750   4.023   8.021
   64MYC    C6910423   1.633   3.906   8.159
   64MYC   H12110424   1.712   3.832   8.175
   64MYC   H12210425   1.538   3.851   8.159
   64MYC    C6810426   1.632   4.006   8.276
   64MYC   HH1210427   1.554   4.081   8.261
   64MYC   H12310428   1.728   4.059   8.279
   64MYC    C6710429   1.609   3.935   8.411
   64MYC   H12410430   1.679   3.851   8.419
   64MYC   H12510431   1.508   3.894   8.413
   64MYC    C6610432   1.629   4.027   8.533
   64MYC   H12610433   1.561   4.113   8.527
   64MYC   H12710434   1.732   4.066   8.531
   64MYC    C6510435   1.605   3.951   8.664
   64MYC   H12810436   1.655   3.853   8.659
   64MYC   H12910437   1.498   3.931   8.675
   64MYC    C6410438   1.657   4.026   8.788
   64MYC   H13010439   1.608   4.124   8.795
   64MYC   H13110440   1.765   4.043   8.778
   64MYC    C6310441   1.630   3.945   8.916
   64MYC   HH1110442   1.676   3.845   8.906
   64MYC   H13210443   1.522   3.930   8.928
   64MYC    C6210444   1.686   4.012   9.043
   64MYC   H13310445   1.637   4.109   9.057
   64MYC   H13410446   1.793   4.031   9.031
   64MYC    C6110447   1.664   3.925   9.167
   64MYC   H13510448   1.721   3.832   9.156
   64MYC   H13610449   1.558   3.896   9.172
   64MYC    C6010450   1.701   3.995   9.296
   64MYC   H13710451   1.637   4.080   9.317
   64MYC    C5810452   1.745   3.912   9.413
   64MYC   H13810453   1.759   3.805   9.396
   64MYC    C5910454   1.843   4.005   9.346
   64MYC   H13910455   1.872   4.095   9.398
   64MYC   H14010456   1.922   3.960   9.285
   64MYC    C5710457   1.683   3.941   9.549
   64MYC   HH1010458   1.579   3.906   9.549
   64MYC   H14110459   1.679   4.049   9.565
   64MYC    C5610460   1.757   3.874   9.665
   64MYC   H14210461   1.863   3.901   9.660
   64MYC   H14310462   1.751   3.765   9.655
   64MYC    C5510463   1.699   3.918   9.800
   64MYC   H14410464   1.593   3.891   9.805
   64MYC   H14510465   1.705   4.027   9.807
   64MYC    C5410466   1.772   3.857   9.921
   64MYC   H14610467   1.879   3.876   9.912
   64MYC   H14710468   1.758   3.748   9.922
   64MYC    C5310469   1.720   3.916  10.053
   64MYC   H14810470   1.613   3.891  10.065
   64MYC   H14910471   1.727   4.026  10.048
   64MYC    C5210472   1.798   3.868  10.177
   64MYC    H9910473   1.904   3.891  10.163
   64MYC   H15010474   1.788   3.759  10.186
   64MYC    C5110475   1.748   3.935  10.306
   64MYC    H9710476   1.645   3.902  10.325
   64MYC    H9810477   1.744   4.044  10.291
   64MYC    C5010478   1.836   3.906  10.428
   64MYC    H9510479   1.933   3.955  10.415
   64MYC    H9610480   1.856   3.798  10.435
   64MYC    C4910481   1.770   3.954  10.558
   64MYC    H9310482   1.690   3.883  10.584
   64MYC    H9410483   1.723   4.051  10.541
   64MYC    C4810484   1.866   3.965  10.678
   64MYC    H9110485   1.943   4.039  10.654
   64MYC    H9210486   1.917   3.869  10.694
   64MYC    C4710487   1.792   4.007  10.806
   64MYC    H8910488   1.719   3.930  10.833
   64MYC    H9010489   1.735   4.099  10.786
   64MYC    C4610490   1.887   4.032  10.924
   64MYC    H8710491   1.961   4.106  10.894
   64MYC    H8810492   1.941   3.939  10.945
   64MYC    C4510493   1.814   4.081  11.051
   64MYC    H8510494   1.744   4.004  11.084
   64MYC    H8610495   1.754   4.170  11.026
   64MYC    C4410496   1.910   4.119  11.166
   64MYC    H8310497   1.849   4.144  11.254
   64MYC    H8410498   1.963   4.210  11.139
   64MYC    C1810499   2.010   4.009  11.203
   64MYC    H3110500   1.971   3.909  11.186
   64MYC    C1710501   2.159   4.031  11.185
   64MYC    H3010502   2.192   4.130  11.154
   64MYC    C1910503   2.099   4.023  11.324
   64MYC    H3210504   2.093   4.115  11.382
   64MYC    H3310505   2.118   3.934  11.383
   64MYC    C1610506   2.252   3.920  11.139
   64MYC    H2810507   2.195   3.829  11.113
   64MYC    H2910508   2.316   3.892  11.223
   64MYC    C1510509   2.344   3.957  11.020
   64MYC    H2610510   2.418   3.876  11.007
   64MYC    H2710511   2.401   4.047  11.046
   64MYC    C1410512   2.270   3.978  10.887
   64MYC    H2410513   2.192   4.053  10.902
   64MYC    H2510514   2.219   3.885  10.858
   64MYC    C1310515   2.363   4.025  10.773
   64MYC    H2210516   2.439   3.948  10.755
   64MYC    H2310517   2.417   4.114  10.806
   64MYC    C1210518   2.287   4.059  10.642
   64MYC    H2010519   2.225   4.146  10.662
   64MYC    H2110520   2.219   3.978  10.614
   64MYC    C1110521   2.382   4.091  10.524
   64MYC    H1810522   2.409   4.002  10.468
   64MYC    H1910523   2.475   4.129  10.567
   64MYC    C1010524   2.328   4.195  10.425
   64MYC    H1610525   2.410   4.225  10.358
   64MYC    H1710526   2.300   4.285  10.480
   64MYC     C910527   2.210   4.148  10.338
   64MYC    H1410528   2.132   4.103  10.400
   64MYC    H1510529   2.246   4.069  10.270
   64MYC     C810530   2.150   4.265  10.256
   64MYC    H1210531   2.232   4.323  10.212
   64MYC    H1310532   2.098   4.334  10.324
   64MYC     C710533   2.054   4.225  10.144
   64MYC    H1010534   2.014   4.317  10.100
   64MYC    H1110535   1.969   4.169  10.184
   64MYC     C610536   2.122   4.144  10.032
   64MYC     H810537   2.133   4.040  10.065
   64MYC     H910538   2.224   4.183  10.016
   64MYC     C510539   2.046   4.148   9.899
   64MYC     H610540   2.031   4.253   9.868
   64MYC     H710541   1.946   4.106   9.914
   64MYC     C410542   2.119   4.070   9.788
   64MYC     H410543   2.042   4.023   9.725
   64MYC     H510544   2.174   3.988   9.834
   64MYC     C210545   2.211   4.151   9.691
   64MYC     H210546   2.146   4.181   9.608
   64MYC     O310547   2.263   4.270   9.752
   64MYC     H310548   2.353   4.250   9.785
   64MYC     C110549   2.327   4.062   9.635
   64MYC     H110550   2.286   3.960   9.627
   64MYC    C8110551   2.446   4.056   9.734
   64MYC    O8210552   2.527   4.145   9.748
   64MYC    O8310553   2.441   3.953   9.822
   64MYC   H10510554   2.514   3.968   9.884
   64MYC    C2010555   2.376   4.102   9.494
   64MYC    H3410556   2.421   4.201   9.498
   64MYC    H3510557   2.456   4.032   9.465
   64MYC    C2110558   2.266   4.101   9.385
   64MYC    H3610559   2.198   4.017   9.402
   64MYC    H3710560   2.207   4.193   9.392
   64MYC    C2210561   2.325   4.088   9.243
   64MYC    H3810562   2.405   4.162   9.229
   64MYC    H3910563   2.371   3.990   9.234
   64MYC    C2310564   2.220   4.106   9.132
   64MYC    H4010565   2.121   4.073   9.167
   64MYC    H4110566   2.212   4.212   9.107
   64MYC    C2410567   2.256   4.026   9.005
   64MYC    H4210568   2.362   4.043   8.980
   64MYC    H4310569   2.247   3.919   9.028
   64MYC    C2510570   2.169   4.060   8.884
   64MYC    H4410571   2.063   4.048   8.909
   64MYC    H4510572   2.185   4.165   8.856
   64MYC    C2610573   2.202   3.970   8.763
   64MYC    H4610574   2.310   3.979   8.741
   64MYC    H4710575   2.184   3.865   8.789
   64MYC    C2710576   2.122   4.006   8.636
   64MYC    H4810577   2.016   3.989   8.654
   64MYC    H4910578   2.136   4.112   8.614
   64MYC    C2810579   2.169   3.922   8.516
   64MYC    H5010580   2.276   3.941   8.500
   64MYC    H5110581   2.158   3.816   8.538
   64MYC    C2910582   2.093   3.954   8.386
   64MYC    H5210583   1.988   3.925   8.396
   64MYC    H5310584   2.095   4.063   8.368
   64MYC    C3010585   2.157   3.882   8.265
   64MYC    H5410586   2.262   3.912   8.258
   64MYC    H5510587   2.156   3.774   8.283
   64MYC    C3110588   2.088   3.912   8.131
   64MYC    H5610589   1.985   3.876   8.133
   64MYC    H5710590   2.083   4.021   8.116
   64MYC    C3210591   2.164   3.848   8.014
   64MYC    H5810592   2.269   3.881   8.017
   64MYC    H5910593   2.165   3.739   8.026
   64MYC    C3310594   2.106   3.883   7.876
   64MYC    H6010595   2.002   3.847   7.870
   64MYC    H6110596   2.103   3.992   7.864
   64MYC    C3410597   2.189   3.822   7.761
   64MYC    H6210598   2.293   3.853   7.771
   64MYC    H6310599   2.188   3.712   7.769
   64MYC    C3510600   2.138   3.863   7.622
   64MYC    H6410601   2.033   3.831   7.611
   64MYC    H6510602   2.138   3.973   7.615
   64MYC    C3610603   2.222   3.806   7.507
   64MYC    H6610604   2.325   3.842   7.516
   64MYC    H6710605   2.226   3.697   7.514
   64MYC    C3710606   2.166   3.846   7.369
   64MYC    H6810607   2.065   3.805   7.357
   64MYC    H6910608   2.157   3.955   7.365
   64MYC    C3810609   2.254   3.800   7.251
   64MYC    H7010610   2.355   3.843   7.262
   64MYC    H7110611   2.265   3.691   7.253
   64MYC    C3910612   2.196   3.844   7.115
   64MYC    H7210613   2.097   3.798   7.101
   64MYC    H7310614   2.180   3.953   7.117
   64MYC    C4010615   2.286   3.809   6.995
   64MYC    H7410616   2.386   3.852   7.013
   64MYC    H7510617   2.299   3.700   6.990
   64MYC    C4110618   2.231   3.862   6.861
   64MYC    H7610619   2.138   3.809   6.838
   64MYC    H7710620   2.206   3.968   6.872
   64MYC    C4210621   2.330   3.846   6.745
   64MYC    H7810622   2.424   3.898   6.769
   64MYC    H7910623   2.355   3.739   6.732
   64MYC    C4310624   2.277   3.901   6.611
   64MYC    H8010625   2.355   3.900   6.535
   64MYC    H8110626   2.242   4.004   6.623
   64MYC    H8210627   2.193   3.840   6.575
   65MYC   HH1510628   2.534   3.471   6.674
   65MYC    C8010629   2.588   3.528   6.751
   65MYC   H10010630   2.695   3.508   6.740
   65MYC   H10110631   2.571   3.635   6.732
   65MYC    C7910632   2.539   3.490   6.891
   65MYC   H10210633   2.560   3.383   6.908
   65MYC   H10310634   2.430   3.502   6.896
   65MYC    C7810635   2.605   3.574   7.002
   65MYC   HH1410636   2.578   3.679   6.989
   65MYC   H10410637   2.714   3.567   6.993
   65MYC    C7710638   2.564   3.528   7.144
   65MYC   H10610639   2.596   3.424   7.158
   65MYC   H10710640   2.455   3.531   7.153
   65MYC    C7610641   2.627   3.616   7.254
   65MYC   H10810642   2.587   3.718   7.246
   65MYC   H10910643   2.735   3.622   7.239
   65MYC    C7510644   2.599   3.560   7.395
   65MYC   H11010645   2.640   3.459   7.402
   65MYC   H11110646   2.490   3.552   7.409
   65MYC    C7410647   2.658   3.648   7.507
   65MYC   H11210648   2.613   3.748   7.503
   65MYC   H11310649   2.766   3.660   7.492
   65MYC    C7310650   2.632   3.586   7.645
   65MYC   HH1310651   2.680   3.487   7.650
   65MYC   H11410652   2.524   3.569   7.657
   65MYC    C7210653   2.683   3.672   7.762
   65MYC   H11510654   2.637   3.772   7.755
   65MYC   H11610655   2.791   3.685   7.755
   65MYC    C7110656   2.646   3.609   7.897
   65MYC   H11710657   2.696   3.511   7.906
   65MYC   H11810658   2.538   3.589   7.898
   65MYC    C7010659   2.681   3.696   8.018
   65MYC   H11910660   2.637   3.796   8.005
   65MYC   H12010661   2.790   3.709   8.024
   65MYC    C6910662   2.628   3.633   8.147
   65MYC   H12110663   2.675   3.535   8.162
   65MYC   H12210664   2.520   3.615   8.137
   65MYC    C6810665   2.652   3.720   8.271
   65MYC   HH1210666   2.610   3.820   8.255
   65MYC   H12310667   2.759   3.731   8.288
   65MYC    C6710668   2.586   3.657   8.396
   65MYC   H12410669   2.620   3.553   8.406
   65MYC   H12510670   2.477   3.655   8.382
   65MYC    C6610671   2.619   3.734   8.524
   65MYC   H12610672   2.584   3.837   8.516
   65MYC   H12710673   2.728   3.737   8.537
   65MYC    C6510674   2.556   3.667   8.647
   65MYC   H12810675   2.587   3.562   8.651
   65MYC   H12910676   2.447   3.669   8.638
   65MYC    C6410677   2.597   3.737   8.777
   65MYC   H13010678   2.557   3.839   8.778
   65MYC   H13110679   2.706   3.744   8.782
   65MYC    C6310680   2.548   3.661   8.901
   65MYC   HH1110681   2.595   3.562   8.904
   65MYC   H13210682   2.439   3.645   8.894
   65MYC    C6210683   2.579   3.737   9.030
   65MYC   H13310684   2.518   3.828   9.034
   65MYC   H13410685   2.684   3.769   9.030
   65MYC    C6110686   2.554   3.652   9.155
   65MYC   H13510687   2.629   3.572   9.160
   65MYC   H13610688   2.456   3.603   9.147
   65MYC    C6010689   2.556   3.736   9.281
   65MYC   H13710690   2.465   3.794   9.293
   65MYC    C5810691   2.616   3.678   9.406
   65MYC   H13810692   2.667   3.583   9.397
   65MYC    C5910693   2.682   3.796   9.338
   65MYC   H13910694   2.675   3.893   9.386
   65MYC   H14010695   2.775   3.778   9.286
   65MYC    C5710696   2.538   3.690   9.534
   65MYC   HH1010697   2.464   3.609   9.537
   65MYC   H14110698   2.481   3.784   9.538
   65MYC    C5610699   2.628   3.681   9.657
   65MYC   H14210700   2.674   3.780   9.675
   65MYC   H14310701   2.711   3.611   9.639
   65MYC    C5510702   2.551   3.635   9.781
   65MYC   H14410703   2.522   3.530   9.768
   65MYC   H14510704   2.458   3.692   9.790
   65MYC    C5410705   2.632   3.651   9.909
   65MYC   H14610706   2.653   3.758   9.924
   65MYC   H14710707   2.729   3.601   9.899
   65MYC    C5310708   2.559   3.595  10.032
   65MYC   H14810709   2.558   3.486  10.027
   65MYC   H14910710   2.454   3.629  10.032
   65MYC    C5210711   2.626   3.642  10.161
   65MYC    H9910712   2.608   3.750  10.172
   65MYC   H15010713   2.734   3.628  10.152
   65MYC    C5110714   2.576   3.568  10.285
   65MYC    H9710715   2.600   3.462  10.278
   65MYC    H9810716   2.467   3.578  10.294
   65MYC    C5010717   2.643   3.628  10.409
   65MYC    H9510718   2.610   3.732  10.419
   65MYC    H9610719   2.752   3.631  10.393
   65MYC    C4910720   2.615   3.552  10.540
   65MYC    H9310721   2.660   3.452  10.536
   65MYC    H9410722   2.507   3.540  10.555
   65MYC    C4810723   2.675   3.633  10.655
   65MYC    H9110724   2.632   3.734  10.655
   65MYC    H9210725   2.782   3.647  10.635
   65MYC    C4710726   2.658   3.574  10.795
   65MYC    H8910727   2.705   3.475  10.800
   65MYC    H9010728   2.552   3.563  10.819
   65MYC    C4610729   2.725   3.670  10.896
   65MYC    H8710730   2.662   3.760  10.905
   65MYC    H8810731   2.821   3.703  10.854
   65MYC    C4510732   2.750   3.611  11.035
   65MYC    H8510733   2.811   3.520  11.026
   65MYC    H8610734   2.655   3.581  11.079
   65MYC    C4410735   2.823   3.712  11.125
   65MYC    H8310736   2.808   3.686  11.229
   65MYC    H8410737   2.774   3.810  11.113
   65MYC    C1810738   2.972   3.725  11.096
   65MYC    H3110739   2.996   3.711  10.991
   65MYC    C1710740   3.050   3.831  11.170
   65MYC    H3010741   3.002   3.882  11.253
   65MYC    C1910742   3.080   3.685  11.194
   65MYC    H3210743   3.048   3.642  11.289
   65MYC    H3310744   3.172   3.644  11.154
   65MYC    C1610745   3.140   3.924  11.092
   65MYC    H2810746   3.186   3.870  11.008
   65MYC    H2910747   3.220   3.958  11.158
   65MYC    C1510748   3.066   4.048  11.036
   65MYC    H2610749   3.139   4.116  10.990
   65MYC    H2710750   3.021   4.103  11.120
   65MYC    C1410751   2.957   4.014  10.932
   65MYC    H2410752   2.887   3.943  10.975
   65MYC    H2510753   3.004   3.965  10.847
   65MYC    C1310754   2.874   4.135  10.885
   65MYC    H2210755   2.938   4.200  10.824
   65MYC    H2310756   2.842   4.193  10.972
   65MYC    C1210757   2.748   4.095  10.805
   65MYC    H2010758   2.697   4.186  10.771
   65MYC    H2110759   2.678   4.045  10.873
   65MYC    C1110760   2.772   4.001  10.684
   65MYC    H1810761   2.676   3.986  10.634
   65MYC    H1910762   2.805   3.903  10.720
   65MYC    C1010763   2.875   4.054  10.582
   65MYC    H1610764   2.975   4.054  10.627
   65MYC    H1710765   2.853   4.159  10.560
   65MYC     C910766   2.879   3.971  10.453
   65MYC    H1410767   2.785   3.916  10.440
   65MYC    H1510768   2.959   3.897  10.461
   65MYC     C810769   2.900   4.058  10.327
   65MYC    H1210770   2.985   4.126  10.344
   65MYC    H1310771   2.812   4.121  10.311
   65MYC     C710772   2.928   3.973  10.202
   65MYC    H1010773   2.847   3.900  10.188
   65MYC    H1110774   3.020   3.917  10.220
   65MYC     C610775   2.944   4.058  10.075
   65MYC     H810776   3.007   4.145  10.099
   65MYC     H910777   2.847   4.098  10.044
   65MYC     C510778   3.008   3.978   9.960
   65MYC     H610779   2.930   3.929   9.900
   65MYC     H710780   3.069   3.898  10.002
   65MYC     C410781   3.100   4.062   9.870
   65MYC     H410782   3.175   3.995   9.831
   65MYC     H510783   3.154   4.136   9.930
   65MYC     C210784   3.032   4.131   9.749
   65MYC     H210785   2.977   4.054   9.694
   65MYC     O310786   2.940   4.231   9.795
   65MYC     H310787   2.854   4.213   9.753
   65MYC     C110788   3.139   4.191   9.653
   65MYC     H110789   3.204   4.108   9.627
   65MYC    C8110790   3.233   4.293   9.722
   65MYC    O8210791   3.350   4.270   9.746
   65MYC    O8310792   3.181   4.417   9.738
   65MYC   H10510793   3.252   4.470   9.779
   65MYC    C2010794   3.083   4.245   9.520
   65MYC    H3410795   3.001   4.315   9.541
   65MYC    H3510796   3.161   4.304   9.471
   65MYC    C2110797   3.036   4.135   9.423
   65MYC    H3610798   3.118   4.065   9.405
   65MYC    H3710799   2.953   4.078   9.467
   65MYC    C2210800   2.991   4.195   9.288
   65MYC    H3810801   2.900   4.254   9.303
   65MYC    H3910802   3.070   4.263   9.254
   65MYC    C2310803   2.967   4.090   9.178
   65MYC    H4010804   3.052   4.020   9.175
   65MYC    H4110805   2.878   4.030   9.202
   65MYC    C2410806   2.951   4.157   9.041
   65MYC    H4210807   2.855   4.209   9.037
   65MYC    H4310808   3.029   4.233   9.030
   65MYC    C2510809   2.963   4.061   8.922
   65MYC    H4410810   3.062   4.013   8.926
   65MYC    H4510811   2.888   3.982   8.930
   65MYC    C2610812   2.950   4.133   8.787
   65MYC    H4610813   2.852   4.182   8.783
   65MYC    H4710814   3.026   4.213   8.782
   65MYC    C2710815   2.966   4.040   8.666
   65MYC    H4810816   3.066   3.995   8.667
   65MYC    H4910817   2.893   3.959   8.673
   65MYC    C2810818   2.945   4.115   8.533
   65MYC    H5010819   2.844   4.160   8.534
   65MYC    H5110820   3.016   4.198   8.527
   65MYC    C2910821   2.960   4.025   8.409
   65MYC    H5210822   3.064   3.991   8.402
   65MYC    H5310823   2.897   3.936   8.420
   65MYC    C3010824   2.920   4.100   8.281
   65MYC    H5410825   2.814   4.126   8.286
   65MYC    H5510826   2.976   4.194   8.275
   65MYC    C3110827   2.946   4.019   8.152
   65MYC    H5610828   3.054   3.999   8.143
   65MYC    H5710829   2.895   3.922   8.159
   65MYC    C3210830   2.897   4.094   8.027
   65MYC    H5810831   2.788   4.104   8.032
   65MYC    H5910832   2.938   4.196   8.028
   65MYC    C3310833   2.936   4.026   7.895
   65MYC    H6010834   3.045   4.025   7.885
   65MYC    H6110835   2.902   3.922   7.896
   65MYC    C3410836   2.873   4.098   7.774
   65MYC    H6210837   2.764   4.088   7.779
   65MYC    H6310838   2.896   4.206   7.780
   65MYC    C3510839   2.923   4.046   7.637
   65MYC    H6410840   3.029   4.069   7.626
   65MYC    H6510841   2.912   3.937   7.633
   65MYC    C3610842   2.844   4.110   7.522
   65MYC    H6610843   2.739   4.079   7.529
   65MYC    H6710844   2.845   4.219   7.533
   65MYC    C3710845   2.897   4.075   7.381
   65MYC    H6810846   2.998   4.115   7.370
   65MYC    H6910847   2.903   3.966   7.371
   65MYC    C3810848   2.805   4.132   7.271
   65MYC    H7010849   2.706   4.085   7.280
   65MYC    H7110850   2.792   4.239   7.287
   65MYC    C3910851   2.858   4.109   7.128
   65MYC    H7210852   2.954   4.160   7.116
   65MYC    H7310853   2.875   4.002   7.111
   65MYC    C4010854   2.759   4.162   7.022
   65MYC    H7410855   2.663   4.110   7.034
   65MYC    H7510856   2.740   4.269   7.040
   65MYC    C4110857   2.808   4.144   6.877
   65MYC    H7610858   2.901   4.200   6.863
   65MYC    H7710859   2.831   4.038   6.860
   65MYC    C4210860   2.704   4.190   6.773
   65MYC    H7810861   2.610   4.136   6.788
   65MYC    H7910862   2.682   4.297   6.789
   65MYC    C4310863   2.750   4.170   6.627
   65MYC    H8010864   2.672   4.204   6.558
   65MYC    H8110865   2.770   4.064   6.608
   65MYC    H8210866   2.841   4.227   6.607
   66MYC   HH1510867   3.419   3.979   6.626
   66MYC    C8010868   3.470   3.940   6.714
   66MYC   H10010869   3.473   3.831   6.707
   66MYC   H10110870   3.574   3.978   6.713
   66MYC    C7910871   3.398   3.985   6.843
   66MYC   H10210872   3.296   3.946   6.843
   66MYC   H10310873   3.391   4.094   6.843
   66MYC    C7810874   3.471   3.939   6.971
   66MYC   HH1410875   3.575   3.972   6.966
   66MYC   H10410876   3.472   3.829   6.975
   66MYC    C7710877   3.407   3.993   7.100
   66MYC   H10610878   3.306   3.951   7.111
   66MYC   H10710879   3.395   4.102   7.092
   66MYC    C7610880   3.491   3.961   7.224
   66MYC   H10810881   3.594   3.997   7.209
   66MYC   H10910882   3.496   3.852   7.237
   66MYC    C7510883   3.436   4.024   7.353
   66MYC   H11010884   3.336   3.983   7.373
   66MYC   H11110885   3.424   4.133   7.339
   66MYC    C7410886   3.528   3.999   7.473
   66MYC   H11210887   3.623   4.052   7.459
   66MYC   H11310888   3.552   3.892   7.478
   66MYC    C7310889   3.465   4.042   7.607
   66MYC   HH1310890   3.370   3.988   7.620
   66MYC   H11410891   3.441   4.149   7.604
   66MYC    C7210892   3.557   4.012   7.726
   66MYC   H11510893   3.640   4.084   7.727
   66MYC   H11610894   3.600   3.912   7.716
   66MYC    C7110895   3.481   4.020   7.859
   66MYC   H11710896   3.401   3.945   7.858
   66MYC   H11810897   3.433   4.118   7.868
   66MYC    C7010898   3.571   3.996   7.982
   66MYC   H11910899   3.641   4.080   7.992
   66MYC   H12010900   3.630   3.904   7.968
   66MYC    C6910901   3.486   3.983   8.109
   66MYC   H12110902   3.431   3.887   8.106
   66MYC   H12210903   3.410   4.062   8.109
   66MYC    C6810904   3.566   3.992   8.239
   66MYC   HH1210905   3.616   4.089   8.244
   66MYC   H12310906   3.645   3.915   8.240
   66MYC    C6710907   3.474   3.973   8.359
   66MYC   H12410908   3.438   3.869   8.362
   66MYC   H12510909   3.385   4.037   8.347
   66MYC    C6610910   3.540   4.007   8.493
   66MYC   H12610911   3.569   4.113   8.494
   66MYC   H12710912   3.631   3.947   8.507
   66MYC    C6510913   3.443   3.981   8.609
   66MYC   H12810914   3.416   3.874   8.610
   66MYC   H12910915   3.349   4.036   8.591
   66MYC    C6410916   3.499   4.020   8.745
   66MYC   H13010917   3.519   4.128   8.747
   66MYC   H13110918   3.594   3.968   8.762
   66MYC    C6310919   3.401   3.984   8.857
   66MYC   HH1110920   3.379   3.877   8.853
   66MYC   H13210921   3.306   4.037   8.840
   66MYC    C6210922   3.455   4.019   8.996
   66MYC   H13310923   3.471   4.128   9.002
   66MYC   H13410924   3.552   3.970   9.009
   66MYC    C6110925   3.358   3.975   9.107
   66MYC   H13510926   3.351   3.865   9.106
   66MYC   H13610927   3.258   4.012   9.084
   66MYC    C6010928   3.400   4.025   9.244
   66MYC   H13710929   3.345   4.114   9.274
   66MYC    C5810930   3.437   3.925   9.351
   66MYC   H13810931   3.440   3.821   9.321
   66MYC    C5910932   3.542   4.016   9.293
   66MYC   H13910933   3.578   4.098   9.354
   66MYC   H14010934   3.617   3.970   9.229
   66MYC    C5710935   3.387   3.944   9.492
   66MYC   HH1010936   3.282   3.916   9.496
   66MYC   H14110937   3.393   4.051   9.518
   66MYC    C5610938   3.465   3.863   9.596
   66MYC   H14210939   3.570   3.895   9.598
   66MYC   H14310940   3.462   3.757   9.570
   66MYC    C5510941   3.403   3.883   9.735
   66MYC   H14410942   3.299   3.848   9.729
   66MYC   H14510943   3.400   3.990   9.757
   66MYC    C5410944   3.472   3.811   9.851
   66MYC   H14610945   3.577   3.841   9.856
   66MYC   H14710946   3.469   3.702   9.834
   66MYC    C5310947   3.401   3.844   9.984
   66MYC   H14810948   3.297   3.810   9.980
   66MYC   H14910949   3.399   3.953   9.996
   66MYC    C5210950   3.468   3.783  10.109
   66MYC    H9910951   3.574   3.809  10.109
   66MYC   H15010952   3.460   3.674  10.105
   66MYC    C5110953   3.402   3.836  10.239
   66MYC    H9710954   3.297   3.806  10.241
   66MYC    H9810955   3.404   3.945  10.236
   66MYC    C5010956   3.472   3.788  10.368
   66MYC    H9510957   3.579   3.808  10.361
   66MYC    H9610958   3.459   3.679  10.378
   66MYC    C4910959   3.415   3.858  10.493
   66MYC    H9310960   3.311   3.825  10.509
   66MYC    H9410961   3.411   3.965  10.474
   66MYC    C4810962   3.497   3.835  10.621
   66MYC    H9110963   3.599   3.873  10.605
   66MYC    H9210964   3.506   3.728  10.642
   66MYC    C4710965   3.434   3.906  10.744
   66MYC    H8910966   3.350   3.846  10.780
   66MYC    H9010967   3.393   4.002  10.712
   66MYC    C4610968   3.533   3.933  10.860
   66MYC    H8710969   3.613   3.998  10.824
   66MYC    H8810970   3.578   3.838  10.892
   66MYC    C4510971   3.462   4.000  10.980
   66MYC    H8510972   3.401   3.923  11.029
   66MYC    H8610973   3.393   4.076  10.943
   66MYC    C4410974   3.554   4.064  11.086
   66MYC    H8310975   3.496   4.139  11.140
   66MYC    H8410976   3.635   4.119  11.036
   66MYC    C1810977   3.611   3.963  11.186
   66MYC    H3110978   3.593   3.860  11.156
   66MYC    C1710979   3.740   3.991  11.259
   66MYC    H3010980   3.786   4.089  11.244
   66MYC    C1910981   3.611   3.991  11.334
   66MYC    H3210982   3.572   4.086  11.369
   66MYC    H3310983   3.591   3.907  11.400
   66MYC    C1610984   3.842   3.879  11.275
   66MYC    H2810985   3.790   3.782  11.274
   66MYC    H2910986   3.890   3.884  11.373
   66MYC    C1510987   3.947   3.879  11.163
   66MYC    H2610988   4.010   3.789  11.172
   66MYC    H2710989   4.014   3.965  11.175
   66MYC    C1410990   3.883   3.885  11.023
   66MYC    H2410991   3.849   3.987  11.004
   66MYC    H2510992   3.795   3.821  11.020
   66MYC    C1310993   3.976   3.840  10.909
   66MYC    H2210994   3.992   3.733  10.918
   66MYC    H2310995   4.074   3.889  10.918
   66MYC    C1210996   3.915   3.868  10.770
   66MYC    H2010997   3.810   3.838  10.769
   66MYC    H2110998   3.966   3.803  10.698
   66MYC    C1110999   3.929   4.016  10.725
   66MYC    H1811000   4.035   4.043  10.725
   66MYC    H1911001   3.880   4.082  10.799
   66MYC    C1011002   3.870   4.048  10.586
   66MYC    H1611003   3.899   4.150  10.558
   66MYC    H1711004   3.760   4.047  10.591
   66MYC     C911005   3.917   3.949  10.477
   66MYC    H1411006   3.862   3.855  10.489
   66MYC    H1511007   4.023   3.926  10.494
   66MYC     C811008   3.903   3.998  10.333
   66MYC    H1211009   3.968   4.086  10.318
   66MYC    H1311010   3.800   4.030  10.314
   66MYC     C711011   3.942   3.886  10.234
   66MYC    H1011012   3.866   3.808  10.238
   66MYC    H1111013   4.036   3.840  10.267
   66MYC     C611014   3.960   3.934  10.089
   66MYC     H811015   4.054   3.991  10.082
   66MYC     H911016   3.878   4.002  10.062
   66MYC     C511017   3.962   3.815   9.991
   66MYC     H611018   3.860   3.777   9.981
   66MYC     H711019   4.020   3.733  10.037
   66MYC     C411020   4.021   3.842   9.851
   66MYC     H411021   4.013   3.748   9.796
   66MYC     H511022   4.128   3.865   9.860
   66MYC     C211023   3.951   3.952   9.768
   66MYC     H211024   3.842   3.934   9.776
   66MYC     O311025   3.981   4.081   9.822
   66MYC     H311026   3.949   4.083   9.914
   66MYC     C111027   3.987   3.946   9.617
   66MYC     H111028   3.950   3.849   9.581
   66MYC    C8111029   4.140   3.948   9.591
   66MYC    O8211030   4.202   3.855   9.543
   66MYC    O8311031   4.203   4.064   9.620
   66MYC   H10511032   4.296   4.051   9.594
   66MYC    C2011033   3.912   4.056   9.537
   66MYC    H3411034   3.819   4.081   9.591
   66MYC    H3511035   3.971   4.148   9.535
   66MYC    C2111036   3.870   4.020   9.394
   66MYC    H3611037   3.807   3.931   9.396
   66MYC    H3711038   3.808   4.102   9.358
   66MYC    C2211039   3.984   3.998   9.292
   66MYC    H3811040   4.055   4.081   9.298
   66MYC    H3911041   4.038   3.906   9.314
   66MYC    C2311042   3.925   3.992   9.150
   66MYC    H4011043   3.848   3.913   9.147
   66MYC    H4111044   3.873   4.086   9.129
   66MYC    C2411045   4.026   3.966   9.037
   66MYC    H4211046   4.105   4.041   9.040
   66MYC    H4311047   4.072   3.867   9.051
   66MYC    C2511048   3.955   3.971   8.900
   66MYC    H4411049   3.869   3.903   8.901
   66MYC    H4511050   3.914   4.072   8.886
   66MYC    C2611051   4.044   3.937   8.779
   66MYC    H4611052   4.130   4.004   8.777
   66MYC    H4711053   4.082   3.834   8.790
   66MYC    C2711054   3.964   3.948   8.648
   66MYC    H4811055   3.880   3.878   8.650
   66MYC    H4911056   3.922   4.049   8.641
   66MYC    C2811057   4.049   3.922   8.522
   66MYC    H5011058   4.131   3.995   8.518
   66MYC    H5111059   4.093   3.822   8.527
   66MYC    C2911060   3.963   3.935   8.394
   66MYC    H5211061   3.889   3.854   8.392
   66MYC    H5311062   3.907   4.029   8.397
   66MYC    C3011063   4.046   3.931   8.265
   66MYC    H5411064   4.119   4.013   8.266
   66MYC    H5511065   4.102   3.837   8.259
   66MYC    C3111066   3.957   3.946   8.140
   66MYC    H5611067   3.885   3.863   8.138
   66MYC    H5711068   3.899   4.039   8.148
   66MYC    C3211069   4.037   3.947   8.009
   66MYC    H5811070   4.110   4.029   8.011
   66MYC    H5911071   4.093   3.853   8.000
   66MYC    C3311072   3.946   3.964   7.886
   66MYC    H6011073   3.869   3.886   7.887
   66MYC    H6111074   3.894   4.061   7.893
   66MYC    C3411075   4.023   3.957   7.754
   66MYC    H6211076   4.103   4.032   7.754
   66MYC    H6311077   4.072   3.859   7.747
   66MYC    C3511078   3.933   3.978   7.631
   66MYC    H6411079   3.851   3.905   7.634
   66MYC    H6511080   3.887   4.077   7.636
   66MYC    C3611081   4.011   3.962   7.500
   66MYC    H6611082   4.093   4.034   7.497
   66MYC    H6711083   4.056   3.862   7.497
   66MYC    C3711084   3.922   3.981   7.375
   66MYC    H6811085   3.839   3.910   7.379
   66MYC    H6911086   3.880   4.082   7.375
   66MYC    C3811087   4.002   3.958   7.246
   66MYC    H7011088   4.081   4.034   7.237
   66MYC    H7111089   4.052   3.861   7.252
   66MYC    C3911090   3.915   3.961   7.119
   66MYC    H7211091   3.831   3.891   7.132
   66MYC    H7311092   3.872   4.061   7.106
   66MYC    C4011093   3.996   3.921   6.994
   66MYC    H7411094   4.074   3.995   6.976
   66MYC    H7511095   4.046   3.825   7.013
   66MYC    C4111096   3.908   3.907   6.868
   66MYC    H7611097   3.822   3.843   6.892
   66MYC    H7711098   3.868   4.005   6.840
   66MYC    C4211099   3.985   3.846   6.750
   66MYC    H7811100   4.067   3.913   6.721
   66MYC    H7911101   4.031   3.751   6.781
   66MYC    C4311102   3.895   3.819   6.629
   66MYC    H8011103   3.952   3.767   6.551
   66MYC    H8111104   3.856   3.913   6.588
   66MYC    H8211105   3.810   3.756   6.656
   67MYC   HH1511106   4.186   4.432   6.608
   67MYC    C8011107   4.234   4.378   6.691
   67MYC   H10011108   4.239   4.272   6.663
   67MYC   H10111109   4.336   4.416   6.703
   67MYC    C7911110   4.153   4.395   6.821
   67MYC   H10211111   4.056   4.346   6.810
   67MYC   H10311112   4.133   4.502   6.835
   67MYC    C7811113   4.226   4.340   6.946
   67MYC   HH1411114   4.322   4.392   6.957
   67MYC   H10411115   4.248   4.234   6.931
   67MYC    C7711116   4.142   4.358   7.074
   67MYC   H10611117   4.051   4.296   7.067
   67MYC   H10711118   4.109   4.462   7.081
   67MYC    C7611119   4.218   4.321   7.203
   67MYC   H10811120   4.309   4.383   7.210
   67MYC   H10911121   4.251   4.217   7.198
   67MYC    C7511122   4.133   4.343   7.329
   67MYC   H11011123   4.046   4.275   7.326
   67MYC   H11111124   4.093   4.445   7.329
   67MYC    C7411125   4.211   4.320   7.460
   67MYC   H11211126   4.296   4.389   7.463
   67MYC   H11311127   4.252   4.218   7.461
   67MYC    C7311128   4.124   4.341   7.585
   67MYC   HH1311129   4.042   4.268   7.586
   67MYC   H11411130   4.078   4.441   7.581
   67MYC    C7211131   4.205   4.329   7.716
   67MYC   H11511132   4.285   4.403   7.715
   67MYC   H11611133   4.253   4.230   7.719
   67MYC    C7111134   4.119   4.348   7.842
   67MYC   H11711135   4.045   4.268   7.849
   67MYC   H11811136   4.063   4.443   7.834
   67MYC    C7011137   4.205   4.351   7.970
   67MYC   H11911138   4.273   4.436   7.964
   67MYC   H12011139   4.267   4.261   7.974
   67MYC    C6911140   4.121   4.361   8.099
   67MYC   H12111141   4.061   4.270   8.110
   67MYC   H12211142   4.052   4.445   8.091
   67MYC    C6811143   4.210   4.380   8.223
   67MYC   HH1211144   4.264   4.475   8.213
   67MYC   H12311145   4.286   4.301   8.227
   67MYC    C6711146   4.131   4.381   8.355
   67MYC   H12411147   4.081   4.284   8.368
   67MYC   H12511148   4.052   4.457   8.350
   67MYC    C6611149   4.220   4.409   8.477
   67MYC   H12611150   4.271   4.505   8.463
   67MYC   H12711151   4.299   4.332   8.483
   67MYC    C6511152   4.143   4.412   8.610
   67MYC   H12811153   4.091   4.317   8.624
   67MYC   H12911154   4.066   4.491   8.606
   67MYC    C6411155   4.234   4.438   8.731
   67MYC   H13011156   4.287   4.533   8.718
   67MYC   H13111157   4.310   4.359   8.736
   67MYC    C6311158   4.157   4.442   8.865
   67MYC   HH1111159   4.097   4.351   8.874
   67MYC   H13211160   4.088   4.527   8.865
   67MYC    C6211161   4.251   4.452   8.987
   67MYC   H13311162   4.309   4.544   8.980
   67MYC   H13411163   4.322   4.368   8.984
   67MYC    C6111164   4.175   4.449   9.121
   67MYC   H13511165   4.106   4.363   9.121
   67MYC   H13611166   4.113   4.539   9.129
   67MYC    C6011167   4.269   4.441   9.240
   67MYC   H13711168   4.346   4.517   9.237
   67MYC    C5811169   4.214   4.403   9.375
   67MYC   H13811170   4.110   4.373   9.379
   67MYC    C5911171   4.308   4.309   9.303
   67MYC   H13911172   4.410   4.300   9.341
   67MYC   H14011173   4.267   4.218   9.261
   67MYC    C5711174   4.256   4.480   9.500
   67MYC   HH1011175   4.191   4.567   9.512
   67MYC   H14111176   4.358   4.518   9.490
   67MYC    C5611177   4.248   4.392   9.626
   67MYC   H14211178   4.323   4.313   9.620
   67MYC   H14311179   4.150   4.343   9.629
   67MYC    C5511180   4.267   4.470   9.758
   67MYC   H14411181   4.195   4.553   9.762
   67MYC   H14511182   4.367   4.514   9.760
   67MYC    C5411183   4.248   4.379   9.881
   67MYC   H14611184   4.318   4.295   9.876
   67MYC   H14711185   4.147   4.335   9.877
   67MYC    C5311186   4.266   4.453  10.015
   67MYC   H14811187   4.194   4.535  10.021
   67MYC   H14911188   4.366   4.497  10.018
   67MYC    C5211189   4.248   4.359  10.136
   67MYC    H9911190   4.324   4.280  10.131
   67MYC   H15011191   4.150   4.310  10.130
   67MYC    C5111192   4.260   4.433  10.271
   67MYC    H9711193   4.178   4.505  10.280
   67MYC    H9811194   4.353   4.489  10.273
   67MYC    C5011195   4.256   4.337  10.391
   67MYC    H9511196   4.340   4.266  10.383
   67MYC    H9611197   4.164   4.277  10.388
   67MYC    C4911198   4.265   4.410  10.527
   67MYC    H9311199   4.175   4.470  10.541
   67MYC    H9411200   4.350   4.479  10.524
   67MYC    C4811201   4.284   4.313  10.646
   67MYC    H9111202   4.376   4.257  10.631
   67MYC    H9211203   4.201   4.241  10.648
   67MYC    C4711204   4.291   4.387  10.781
   67MYC    H8911205   4.193   4.431  10.804
   67MYC    H9011206   4.361   4.471  10.772
   67MYC    C4611207   4.336   4.297  10.898
   67MYC    H8711208   4.436   4.258  10.875
   67MYC    H8811209   4.269   4.210  10.906
   67MYC    C4511210   4.339   4.372  11.032
   67MYC    H8511211   4.237   4.385  11.070
   67MYC    H8611212   4.379   4.473  11.015
   67MYC    C4411213   4.428   4.305  11.140
   67MYC    H8311214   4.443   4.378  11.221
   67MYC    H8411215   4.527   4.287  11.097
   67MYC    C1811216   4.372   4.176  11.198
   67MYC    H3111217   4.267   4.160  11.178
   67MYC    C1711218   4.460   4.053  11.215
   67MYC    H3011219   4.565   4.062  11.187
   67MYC    C1911220   4.419   4.133  11.336
   67MYC    H3211221   4.495   4.193  11.384
   67MYC    H3311222   4.345   4.090  11.402
   67MYC    C1611223   4.405   3.912  11.198
   67MYC    H2811224   4.298   3.915  11.173
   67MYC    H2911225   4.412   3.859  11.293
   67MYC    C1511226   4.479   3.828  11.091
   67MYC    H2611227   4.439   3.726  11.093
   67MYC    H2711228   4.585   3.820  11.121
   67MYC    C1411229   4.470   3.884  10.947
   67MYC    H2411230   4.505   3.988  10.947
   67MYC    H2511231   4.365   3.885  10.914
   67MYC    C1311232   4.555   3.802  10.848
   67MYC    H2211233   4.512   3.702  10.836
   67MYC    H2311234   4.655   3.789  10.889
   67MYC    C1211235   4.569   3.868  10.709
   67MYC    H2011236   4.604   3.971  10.722
   67MYC    H2111237   4.471   3.874  10.661
   67MYC    C1111238   4.668   3.792  10.617
   67MYC    H1811239   4.631   3.691  10.598
   67MYC    H1911240   4.763   3.782  10.669
   67MYC    C1011241   4.694   3.863  10.482
   67MYC    H1611242   4.788   3.824  10.440
   67MYC    H1711243   4.711   3.970  10.501
   67MYC     C911244   4.584   3.845  10.376
   67MYC    H1411245   4.486   3.870  10.419
   67MYC    H1511246   4.580   3.740  10.345
   67MYC     C811247   4.608   3.934  10.251
   67MYC    H1211248   4.710   3.918  10.215
   67MYC    H1311249   4.600   4.039  10.281
   67MYC     C711250   4.509   3.907  10.136
   67MYC    H1011251   4.406   3.912  10.173
   67MYC    H1111252   4.525   3.805  10.099
   67MYC     C611253   4.525   4.008  10.019
   67MYC     H811254   4.630   4.012   9.988
   67MYC     H911255   4.501   4.108  10.057
   67MYC     C511256   4.434   3.978   9.898
   67MYC     H611257   4.426   4.069   9.836
   67MYC     H711258   4.333   3.959   9.935
   67MYC     C411259   4.479   3.860   9.807
   67MYC     H411260   4.389   3.819   9.760
   67MYC     H511261   4.521   3.779   9.868
   67MYC     C211262   4.578   3.900   9.695
   67MYC     H211263   4.533   3.985   9.642
   67MYC     O311264   4.703   3.942   9.751
   67MYC     H311265   4.770   3.876   9.728
   67MYC     C111266   4.602   3.786   9.591
   67MYC     H111267   4.503   3.750   9.562
   67MYC    C8111268   4.677   3.666   9.652
   67MYC    O8211269   4.795   3.667   9.685
   67MYC    O8311270   4.602   3.554   9.666
   67MYC   H10511271   4.662   3.487   9.703
   67MYC    C2011272   4.673   3.835   9.462
   67MYC    H3411273   4.765   3.889   9.487
   67MYC    H3511274   4.703   3.747   9.404
   67MYC    C2111275   4.583   3.923   9.372
   67MYC    H3611276   4.490   3.869   9.351
   67MYC    H3711277   4.555   4.016   9.425
   67MYC    C2211278   4.650   3.961   9.239
   67MYC    H3811279   4.733   4.030   9.257
   67MYC    H3911280   4.693   3.870   9.194
   67MYC    C2311281   4.552   4.023   9.137
   67MYC    H4011282   4.468   3.954   9.123
   67MYC    H4111283   4.510   4.117   9.177
   67MYC    C2411284   4.618   4.050   9.001
   67MYC    H4211285   4.686   4.136   9.009
   67MYC    H4311286   4.681   3.963   8.975
   67MYC    C2511287   4.517   4.074   8.887
   67MYC    H4411288   4.440   3.996   8.891
   67MYC    H4511289   4.467   4.170   8.901
   67MYC    C2611290   4.585   4.068   8.749
   67MYC    H4611291   4.660   4.148   8.741
   67MYC    H4711292   4.640   3.973   8.740
   67MYC    C2711293   4.486   4.079   8.631
   67MYC    H4811294   4.404   4.007   8.647
   67MYC    H4911295   4.441   4.179   8.630
   67MYC    C2811296   4.554   4.050   8.496
   67MYC    H5011297   4.629   4.127   8.476
   67MYC    H5111298   4.607   3.955   8.503
   67MYC    C2911299   4.454   4.042   8.379
   67MYC    H5211300   4.377   3.967   8.402
   67MYC    H5311301   4.403   4.139   8.368
   67MYC    C3011302   4.524   4.005   8.247
   67MYC    H5411303   4.596   4.083   8.222
   67MYC    H5511304   4.581   3.912   8.262
   67MYC    C3111305   4.427   3.984   8.130
   67MYC    H5611306   4.356   3.904   8.154
   67MYC    H5711307   4.368   4.076   8.115
   67MYC    C3211308   4.501   3.949   8.000
   67MYC    H5811309   4.576   4.027   7.980
   67MYC    H5911310   4.556   3.856   8.014
   67MYC    C3311311   4.409   3.935   7.878
   67MYC    H6011312   4.340   3.851   7.894
   67MYC    H6111313   4.348   4.026   7.868
   67MYC    C3411314   4.489   3.913   7.749
   67MYC    H6211315   4.561   3.995   7.737
   67MYC    H6311316   4.548   3.820   7.757
   67MYC    C3511317   4.401   3.906   7.623
   67MYC    H6411318   4.336   3.817   7.629
   67MYC    H6511319   4.335   3.993   7.620
   67MYC    C3611320   4.484   3.900   7.494
   67MYC    H6611321   4.548   3.989   7.488
   67MYC    H6711322   4.551   3.813   7.497
   67MYC    C3711323   4.397   3.892   7.367
   67MYC    H6811324   4.337   3.800   7.369
   67MYC    H6911325   4.327   3.976   7.367
   67MYC    C3811326   4.480   3.896   7.237
   67MYC    H7011327   4.541   3.988   7.237
   67MYC    H7111328   4.550   3.812   7.236
   67MYC    C3911329   4.393   3.893   7.110
   67MYC    H7211330   4.339   3.798   7.105
   67MYC    H7311331   4.318   3.972   7.118
   67MYC    C4011332   4.475   3.913   6.981
   67MYC    H7411333   4.535   4.005   6.991
   67MYC    H7511334   4.545   3.830   6.969
   67MYC    C4111335   4.386   3.925   6.856
   67MYC    H7611336   4.336   3.829   6.837
   67MYC    H7711337   4.307   3.998   6.874
   67MYC    C4211338   4.464   3.968   6.730
   67MYC    H7811339   4.514   4.064   6.749
   67MYC    H7911340   4.544   3.895   6.709
   67MYC    C4311341   4.375   3.982   6.606
   67MYC    H8011342   4.432   4.023   6.522
   67MYC    H8111343   4.291   4.050   6.626
   67MYC    H8211344   4.334   3.885   6.576
   68MYC   HH1511345   5.364   3.548   6.710
   68MYC    C8011346   5.333   3.634   6.770
   68MYC   H10011347   5.415   3.707   6.770
   68MYC   H10111348   5.246   3.680   6.721
   68MYC    C7911349   5.298   3.591   6.913
   68MYC   H10211350   5.386   3.543   6.958
   68MYC   H10311351   5.219   3.515   6.909
   68MYC    C7811352   5.252   3.708   7.003
   68MYC   HH1411353   5.164   3.755   6.957
   68MYC   H10411354   5.331   3.784   7.006
   68MYC    C7711355   5.218   3.665   7.147
   68MYC   H10611356   5.305   3.615   7.191
   68MYC   H10711357   5.137   3.590   7.143
   68MYC    C7611358   5.175   3.782   7.237
   68MYC   H10811359   5.089   3.833   7.192
   68MYC   H10911360   5.257   3.856   7.242
   68MYC    C7511361   5.138   3.737   7.380
   68MYC   H11011362   5.223   3.683   7.424
   68MYC   H11111363   5.055   3.665   7.373
   68MYC    C7411364   5.097   3.853   7.473
   68MYC   H11211365   5.022   3.916   7.423
   68MYC   H11311366   5.185   3.916   7.492
   68MYC    C7311367   5.040   3.802   7.607
   68MYC   HH1311368   5.113   3.735   7.654
   68MYC   H11411369   4.950   3.742   7.586
   68MYC    C7211370   5.003   3.914   7.707
   68MYC   H11511371   4.930   3.982   7.661
   68MYC   H11611372   5.093   3.973   7.728
   68MYC    C7111373   4.946   3.857   7.838
   68MYC   H11711374   5.015   3.779   7.873
   68MYC   H11811375   4.850   3.807   7.818
   68MYC    C7011376   4.928   3.961   7.950
   68MYC   H11911377   4.849   4.032   7.923
   68MYC   H12011378   5.021   4.018   7.961
   68MYC    C6911379   4.893   3.894   8.085
   68MYC   H12111380   4.955   3.803   8.095
   68MYC   H12211381   4.789   3.860   8.084
   68MYC    C6811382   4.919   3.982   8.209
   68MYC   HH1211383   4.847   4.065   8.212
   68MYC   H12311384   5.019   4.026   8.201
   68MYC    C6711385   4.911   3.899   8.339
   68MYC   H12411386   4.965   3.805   8.324
   68MYC   H12511387   4.806   3.872   8.359
   68MYC    C6611388   4.971   3.969   8.463
   68MYC   H12611389   4.907   4.052   8.495
   68MYC   H12711390   5.069   4.011   8.437
   68MYC    C6511391   4.989   3.869   8.580
   68MYC   H12811392   5.042   3.781   8.542
   68MYC   H12911393   4.891   3.835   8.614
   68MYC    C6411394   5.068   3.925   8.701
   68MYC   H13011395   5.011   4.006   8.748
   68MYC   H13111396   5.163   3.967   8.666
   68MYC    C6311397   5.097   3.814   8.804
   68MYC   HH1111398   5.154   3.734   8.755
   68MYC   H13211399   5.002   3.770   8.836
   68MYC    C6211400   5.175   3.860   8.929
   68MYC   H13311401   5.117   3.938   8.981
   68MYC   H13411402   5.270   3.905   8.898
   68MYC    C6111403   5.203   3.743   9.026
   68MYC   H13511404   5.267   3.670   8.975
   68MYC   H13611405   5.108   3.692   9.047
   68MYC    C6011406   5.268   3.785   9.158
   68MYC   H13711407   5.303   3.888   9.158
   68MYC    C5811408   5.217   3.728   9.288
   68MYC   H13811409   5.139   3.653   9.282
   68MYC    C5911410   5.352   3.688   9.237
   68MYC   H13911411   5.440   3.727   9.288
   68MYC   H14011412   5.363   3.586   9.199
   68MYC    C5711413   5.199   3.819   9.410
   68MYC   HH1011414   5.100   3.866   9.404
   68MYC   H14111415   5.272   3.900   9.408
   68MYC    C5611416   5.211   3.744   9.545
   68MYC   H14211417   5.317   3.719   9.562
   68MYC   H14311418   5.156   3.650   9.540
   68MYC    C5511419   5.157   3.828   9.662
   68MYC   H14411420   5.048   3.834   9.654
   68MYC   H14511421   5.194   3.931   9.653
   68MYC    C5411422   5.195   3.775   9.802
   68MYC   H14611423   5.304   3.777   9.813
   68MYC   H14711424   5.164   3.670   9.812
   68MYC    C5311425   5.129   3.859   9.915
   68MYC   H14811426   5.024   3.829   9.923
   68MYC   H14911427   5.130   3.965   9.887
   68MYC    C5211428   5.197   3.846  10.053
   68MYC    H9911429   5.294   3.897  10.050
   68MYC   H15011430   5.216   3.740  10.076
   68MYC    C5111431   5.112   3.909  10.165
   68MYC    H9711432   5.022   3.847  10.179
   68MYC    H9811433   5.077   4.008  10.132
   68MYC    C5011434   5.184   3.925  10.301
   68MYC    H9511435   5.265   3.999  10.290
   68MYC    H9611436   5.230   3.830  10.331
   68MYC    C4911437   5.085   3.973  10.410
   68MYC    H9311438   5.014   3.891  10.430
   68MYC    H9411439   5.027   4.057  10.371
   68MYC    C4811440   5.149   4.016  10.544
   68MYC    H9111441   5.221   4.096  10.525
   68MYC    H9211442   5.205   3.932  10.588
   68MYC    C4711443   5.042   4.065  10.644
   68MYC    H8911444   4.973   3.982  10.666
   68MYC    H9011445   4.982   4.143  10.595
   68MYC    C4611446   5.097   4.121  10.777
   68MYC    H8711447   5.170   4.200  10.755
   68MYC    H8811448   5.151   4.041  10.830
   68MYC    C4511449   4.985   4.178  10.866
   68MYC    H8511450   4.908   4.102  10.882
   68MYC    H8611451   4.936   4.260  10.812
   68MYC    C4411452   5.033   4.232  11.003
   68MYC    H8311453   4.950   4.287  11.048
   68MYC    H8411454   5.114   4.304  10.987
   68MYC    C1811455   5.078   4.122  11.099
   68MYC    H3111456   5.056   4.022  11.063
   68MYC    C1711457   5.202   4.139  11.185
   68MYC    H3011458   5.253   4.235  11.181
   68MYC    C1911459   5.065   4.141  11.249
   68MYC    H3211460   5.028   4.237  11.285
   68MYC    H3311461   5.036   4.055  11.308
   68MYC    C1611462   5.297   4.021  11.207
   68MYC    H2811463   5.253   3.929  11.166
   68MYC    H2911464   5.307   4.003  11.315
   68MYC    C1511465   5.438   4.040  11.147
   68MYC    H2611466   5.500   3.955  11.176
   68MYC    H2711467   5.484   4.130  11.191
   68MYC    C1411468   5.438   4.053  10.993
   68MYC    H2411469   5.383   4.144  10.965
   68MYC    H2511470   5.384   3.968  10.950
   68MYC    C1311471   5.580   4.060  10.932
   68MYC    H2211472   5.635   3.969  10.957
   68MYC    H2311473   5.634   4.144  10.976
   68MYC    C1211474   5.575   4.076  10.778
   68MYC    H2011475   5.512   4.162  10.754
   68MYC    H2111476   5.527   3.988  10.735
   68MYC    C1111477   5.714   4.097  10.712
   68MYC    H1811478   5.775   4.006  10.725
   68MYC    H1911479   5.766   4.177  10.765
   68MYC    C1011480   5.706   4.134  10.562
   68MYC    H1611481   5.806   4.166  10.529
   68MYC    H1711482   5.640   4.221  10.550
   68MYC     C911483   5.657   4.020  10.469
   68MYC    H1411484   5.559   3.985  10.501
   68MYC    H1511485   5.727   3.936  10.478
   68MYC     C811486   5.648   4.064  10.321
   68MYC    H1211487   5.744   4.110  10.291
   68MYC    H1311488   5.571   4.141  10.311
   68MYC     C711489   5.617   3.948  10.224
   68MYC    H1011490   5.517   3.907  10.246
   68MYC    H1111491   5.689   3.867  10.241
   68MYC     C611492   5.623   3.990  10.074
   68MYC     H811493   5.720   4.036  10.055
   68MYC     H911494   5.546   4.065  10.055
   68MYC     C511495   5.604   3.871   9.977
   68MYC     H611496   5.502   3.830   9.986
   68MYC     H711497   5.671   3.790  10.009
   68MYC     C411498   5.636   3.900   9.828
   68MYC     H411499   5.633   3.803   9.776
   68MYC     H511500   5.740   3.933   9.821
   68MYC     C211501   5.544   3.996   9.746
   68MYC     H211502   5.523   3.943   9.652
   68MYC     O311503   5.419   4.018   9.812
   68MYC     H311504   5.395   4.112   9.801
   68MYC     C111505   5.610   4.132   9.707
   68MYC     H111506   5.716   4.110   9.689
   68MYC    C8111507   5.604   4.236   9.821
   68MYC    O8211508   5.504   4.297   9.853
   68MYC    O8311509   5.722   4.257   9.884
   68MYC   H10511510   5.703   4.322   9.953
   68MYC    C2011511   5.554   4.193   9.575
   68MYC    H3411512   5.445   4.203   9.583
   68MYC    H3511513   5.594   4.294   9.566
   68MYC    C2111514   5.589   4.114   9.446
   68MYC    H3611515   5.694   4.082   9.449
   68MYC    H3711516   5.528   4.024   9.440
   68MYC    C2211517   5.568   4.199   9.319
   68MYC    H3811518   5.464   4.232   9.315
   68MYC    H3911519   5.629   4.290   9.326
   68MYC    C2311520   5.600   4.128   9.186
   68MYC    H4011521   5.701   4.085   9.191
   68MYC    H4111522   5.530   4.045   9.172
   68MYC    C2411523   5.592   4.225   9.066
   68MYC    H4211524   5.494   4.274   9.067
   68MYC    H4311525   5.667   4.303   9.078
   68MYC    C2511526   5.610   4.156   8.929
   68MYC    H4411527   5.710   4.110   8.925
   68MYC    H4511528   5.536   4.076   8.919
   68MYC    C2611529   5.595   4.254   8.811
   68MYC    H4611530   5.498   4.305   8.818
   68MYC    H4711531   5.673   4.332   8.817
   68MYC    C2711532   5.605   4.182   8.675
   68MYC    H4811533   5.702   4.132   8.668
   68MYC    H4911534   5.528   4.105   8.671
   68MYC    C2811535   5.589   4.276   8.553
   68MYC    H5011536   5.496   4.332   8.562
   68MYC    H5111537   5.671   4.348   8.552
   68MYC    C2911538   5.588   4.196   8.422
   68MYC    H5211539   5.679   4.134   8.417
   68MYC    H5311540   5.502   4.127   8.423
   68MYC    C3011541   5.581   4.282   8.294
   68MYC    H5411542   5.495   4.349   8.299
   68MYC    H5511543   5.671   4.345   8.288
   68MYC    C3111544   5.571   4.194   8.168
   68MYC    H5611545   5.655   4.123   8.167
   68MYC    H5711546   5.479   4.134   8.175
   68MYC    C3211547   5.570   4.272   8.035
   68MYC    H5811548   5.491   4.348   8.037
   68MYC    H5911549   5.666   4.324   8.024
   68MYC    C3311550   5.549   4.177   7.916
   68MYC    H6011551   5.622   4.096   7.921
   68MYC    H6111552   5.450   4.131   7.924
   68MYC    C3411553   5.562   4.245   7.778
   68MYC    H6211554   5.490   4.327   7.770
   68MYC    H6311555   5.662   4.289   7.770
   68MYC    C3511556   5.541   4.145   7.663
   68MYC    H6411557   5.600   4.055   7.682
   68MYC    H6511558   5.435   4.113   7.661
   68MYC    C3611559   5.579   4.201   7.524
   68MYC    H6611560   5.516   4.288   7.502
   68MYC    H6711561   5.683   4.236   7.528
   68MYC    C3711562   5.566   4.096   7.412
   68MYC    H6811563   5.626   4.008   7.437
   68MYC    H6911564   5.461   4.063   7.405
   68MYC    C3811565   5.611   4.151   7.275
   68MYC    H7011566   5.548   4.237   7.249
   68MYC    H7111567   5.714   4.187   7.283
   68MYC    C3911568   5.604   4.046   7.161
   68MYC    H7211569   5.677   3.967   7.180
   68MYC    H7311570   5.505   3.999   7.162
   68MYC    C4011571   5.629   4.110   7.023
   68MYC    H7411572   5.556   4.190   7.007
   68MYC    H7511573   5.728   4.157   7.022
   68MYC    C4111574   5.620   4.010   6.906
   68MYC    H7611575   5.698   3.933   6.917
   68MYC    H7711576   5.523   3.958   6.911
   68MYC    C4211577   5.633   4.079   6.769
   68MYC    H7811578   5.563   4.163   6.763
   68MYC    H7911579   5.734   4.121   6.759
   68MYC    C4311580   5.607   3.984   6.650
   68MYC    H8011581   5.676   3.899   6.651
   68MYC    H8111582   5.620   4.038   6.555
   68MYC    H8211583   5.504   3.946   6.654
   69MYC   HH1511584   6.140   4.070   6.544
   69MYC    C8011585   6.171   4.119   6.637
   69MYC   H10011586   6.279   4.109   6.647
   69MYC   H10111587   6.147   4.226   6.629
   69MYC    C7911588   6.098   4.056   6.757
   69MYC   H10211589   6.115   3.948   6.756
   69MYC   H10311590   5.990   4.072   6.746
   69MYC    C7811591   6.144   4.113   6.893
   69MYC   HH1411592   6.131   4.222   6.894
   69MYC   H10411593   6.252   4.093   6.905
   69MYC    C7711594   6.067   4.051   7.011
   69MYC   H10611595   6.067   3.941   7.000
   69MYC   H10711596   5.962   4.083   7.006
   69MYC    C7611597   6.125   4.085   7.150
   69MYC   H10811598   6.124   4.194   7.164
   69MYC   H10911599   6.230   4.053   7.154
   69MYC    C7511600   6.045   4.017   7.263
   69MYC   H11011601   6.035   3.911   7.240
   69MYC   H11111602   5.944   4.060   7.266
   69MYC    C7411603   6.110   4.031   7.402
   69MYC   H11211604   6.124   4.137   7.426
   69MYC   H11311605   6.210   3.985   7.401
   69MYC    C7311606   6.024   3.965   7.512
   69MYC   HH1311607   6.002   3.862   7.484
   69MYC   H11411608   5.928   4.018   7.519
   69MYC    C7211609   6.092   3.964   7.650
   69MYC   H11511610   6.129   4.065   7.673
   69MYC   H11611611   6.179   3.898   7.648
   69MYC    C7111612   5.996   3.920   7.763
   69MYC   H11711613   5.953   3.822   7.740
   69MYC   H11811614   5.913   3.992   7.769
   69MYC    C7011615   6.067   3.913   7.900
   69MYC   H11911616   6.131   4.002   7.912
   69MYC   H12011617   6.134   3.826   7.901
   69MYC    C6911618   5.971   3.906   8.020
   69MYC   H12111619   5.905   3.818   8.011
   69MYC   H12211620   5.906   3.995   8.019
   69MYC    C6811621   6.047   3.900   8.153
   69MYC   HH1211622   6.127   3.975   8.151
   69MYC   H12311623   6.096   3.802   8.162
   69MYC    C6711624   5.960   3.925   8.278
   69MYC   H12411625   5.882   3.848   8.286
   69MYC   H12511626   5.910   4.022   8.268
   69MYC    C6611627   6.046   3.926   8.406
   69MYC   H12611628   6.131   3.994   8.392
   69MYC   H12711629   6.088   3.826   8.422
   69MYC    C6511630   5.969   3.969   8.533
   69MYC   H12811631   5.886   3.900   8.551
   69MYC   H12911632   5.926   4.068   8.516
   69MYC    C6411633   6.061   3.974   8.657
   69MYC   H13011634   6.149   4.037   8.635
   69MYC   H13111635   6.099   3.873   8.678
   69MYC    C6311636   5.991   4.030   8.782
   69MYC   HH1111637   5.903   3.968   8.804
   69MYC   H13211638   5.954   4.131   8.760
   69MYC    C6211639   6.082   4.035   8.906
   69MYC   H13311640   6.172   4.094   8.883
   69MYC   H13411641   6.116   3.934   8.930
   69MYC    C6111642   6.011   4.096   9.027
   69MYC   H13511643   5.917   4.042   9.043
   69MYC   H13611644   5.983   4.200   9.005
   69MYC    C6011645   6.094   4.093   9.155
   69MYC   H13711646   6.187   4.149   9.146
   69MYC    C5811647   6.023   4.096   9.288
   69MYC   H13811648   5.915   4.092   9.285
   69MYC    C5911649   6.096   3.971   9.244
   69MYC   H13911650   6.190   3.947   9.294
   69MYC   H14011651   6.036   3.885   9.216
   69MYC    C5711652   6.074   4.182   9.403
   69MYC   HH1011653   6.042   4.286   9.389
   69MYC   H14111654   6.183   4.182   9.405
   69MYC    C5611655   6.020   4.130   9.538
   69MYC   H14211656   6.054   4.026   9.551
   69MYC   H14311657   5.911   4.127   9.534
   69MYC    C5511658   6.063   4.214   9.659
   69MYC   H14411659   6.007   4.308   9.660
   69MYC   H14511660   6.169   4.239   9.651
   69MYC    C5411661   6.038   4.137   9.791
   69MYC   H14611662   6.096   4.045   9.789
   69MYC   H14711663   5.933   4.107   9.796
   69MYC    C5311664   6.074   4.216   9.918
   69MYC   H14811665   6.004   4.300   9.930
   69MYC   H14911666   6.174   4.259   9.908
   69MYC    C5211667   6.070   4.126  10.043
   69MYC    H9911668   6.145   4.047  10.032
   69MYC   H15011669   5.972   4.076  10.049
   69MYC    C5111670   6.095   4.201  10.176
   69MYC    H9711671   6.014   4.274  10.191
   69MYC    H9811672   6.189   4.257  10.169
   69MYC    C5011673   6.101   4.105  10.297
   69MYC    H9511674   6.184   4.035  10.283
   69MYC    H9611675   6.009   4.045  10.300
   69MYC    C4911676   6.118   4.177  10.432
   69MYC    H9311677   6.033   4.245  10.448
   69MYC    H9411678   6.208   4.239  10.428
   69MYC    C4811679   6.126   4.080  10.551
   69MYC    H9111680   6.213   4.015  10.538
   69MYC    H9211681   6.037   4.017  10.551
   69MYC    C4711682   6.135   4.150  10.688
   69MYC    H8911683   6.040   4.202  10.709
   69MYC    H9011684   6.213   4.227  10.685
   69MYC    C4611685   6.166   4.052  10.804
   69MYC    H8711686   6.260   4.000  10.781
   69MYC    H8811687   6.087   3.976  10.810
   69MYC    C4511688   6.181   4.123  10.940
   69MYC    H8511689   6.085   4.168  10.968
   69MYC    H8611690   6.251   4.206  10.928
   69MYC    C4411691   6.232   4.032  11.055
   69MYC    H8311692   6.257   4.096  11.140
   69MYC    H8411693   6.325   3.983  11.024
   69MYC    C1811694   6.130   3.929  11.103
   69MYC    H3111695   6.032   3.973  11.121
   69MYC    C1711696   6.133   3.785  11.057
   69MYC    H3011697   6.216   3.754  10.994
   69MYC    C1911698   6.170   3.819  11.199
   69MYC    H3211699   6.275   3.812  11.227
   69MYC    H3311700   6.100   3.793  11.278
   69MYC    C1611701   6.002   3.716  11.021
   69MYC    H2811702   5.969   3.751  10.924
   69MYC    H2911703   5.925   3.748  11.092
   69MYC    C1511704   6.007   3.560  11.025
   69MYC    H2611705   5.909   3.523  11.058
   69MYC    H2711706   6.079   3.528  11.102
   69MYC    C1411707   6.042   3.491  10.891
   69MYC    H2411708   6.053   3.383  10.910
   69MYC    H2511709   6.139   3.526  10.855
   69MYC    C1311710   5.935   3.510  10.782
   69MYC    H2211711   5.922   3.617  10.761
   69MYC    H2311712   5.839   3.473  10.819
   69MYC    C1211713   5.967   3.441  10.648
   69MYC    H2011714   5.990   3.337  10.668
   69MYC    H2111715   6.057   3.486  10.605
   69MYC    C1111716   5.850   3.453  10.547
   69MYC    H1811717   5.824   3.558  10.535
   69MYC    H1911718   5.762   3.404  10.589
   69MYC    C1011719   5.875   3.394  10.406
   69MYC    H1611720   5.783   3.409  10.349
   69MYC    H1711721   5.890   3.286  10.411
   69MYC     C911722   5.992   3.461  10.331
   69MYC    H1411723   6.087   3.413  10.359
   69MYC    H1511724   5.999   3.566  10.362
   69MYC     C811725   5.975   3.456  10.178
   69MYC    H1211726   5.871   3.481  10.154
   69MYC    H1311727   5.992   3.354  10.141
   69MYC     C711728   6.066   3.556  10.103
   69MYC    H1011729   6.170   3.520  10.105
   69MYC    H1111730   6.064   3.653  10.154
   69MYC     C611731   6.019   3.575   9.958
   69MYC     H811732   5.912   3.596   9.960
   69MYC     H911733   6.033   3.480   9.904
   69MYC     C511734   6.088   3.689   9.882
   69MYC     H611735   6.193   3.664   9.863
   69MYC     H711736   6.089   3.778   9.946
   69MYC     C411737   6.017   3.728   9.748
   69MYC     H411738   6.071   3.815   9.708
   69MYC     H511739   5.917   3.766   9.771
   69MYC     C211740   6.008   3.622   9.634
   69MYC     H211741   6.032   3.678   9.543
   69MYC     O311742   6.107   3.520   9.650
   69MYC     H311743   6.182   3.558   9.699
   69MYC     C111744   5.866   3.560   9.611
   69MYC     H111745   5.801   3.646   9.593
   69MYC    C8111746   5.809   3.485   9.732
   69MYC    O8211747   5.841   3.372   9.766
   69MYC    O8311748   5.711   3.551   9.797
   69MYC   H10511749   5.682   3.491   9.868
   69MYC    C2011750   5.857   3.468   9.486
   69MYC    H3411751   5.921   3.380   9.500
   69MYC    H3511752   5.754   3.431   9.478
   69MYC    C2111753   5.895   3.536   9.353
   69MYC    H3611754   5.838   3.629   9.341
   69MYC    H3711755   6.002   3.563   9.354
   69MYC    C2211756   5.870   3.445   9.232
   69MYC    H3811757   5.926   3.351   9.244
   69MYC    H3911758   5.763   3.419   9.228
   69MYC    C2311759   5.910   3.511   9.099
   69MYC    H4011760   5.857   3.606   9.088
   69MYC    H4111761   6.017   3.534   9.101
   69MYC    C2411762   5.879   3.422   8.978
   69MYC    H4211763   5.937   3.329   8.985
   69MYC    H4311764   5.773   3.394   8.979
   69MYC    C2511765   5.910   3.492   8.844
   69MYC    H4411766   5.851   3.584   8.837
   69MYC    H4511767   6.016   3.522   8.842
   69MYC    C2611768   5.880   3.403   8.722
   69MYC    H4611769   5.948   3.317   8.724
   69MYC    H4711770   5.778   3.364   8.729
   69MYC    C2711771   5.896   3.479   8.590
   69MYC    H4811772   5.825   3.563   8.588
   69MYC    H4911773   5.997   3.523   8.585
   69MYC    C2811774   5.875   3.391   8.466
   69MYC    H5011775   5.949   3.311   8.466
   69MYC    H5111776   5.776   3.344   8.471
   69MYC    C2911777   5.887   3.473   8.336
   69MYC    H5211778   5.809   3.550   8.335
   69MYC    H5311779   5.984   3.524   8.335
   69MYC    C3011780   5.874   3.388   8.208
   69MYC    H5411781   5.955   3.314   8.205
   69MYC    H5511782   5.779   3.333   8.209
   69MYC    C3111783   5.880   3.476   8.082
   69MYC    H5611784   5.794   3.544   8.082
   69MYC    H5711785   5.970   3.539   8.087
   69MYC    C3211786   5.883   3.397   7.950
   69MYC    H5811787   5.972   3.332   7.949
   69MYC    H5911788   5.795   3.332   7.944
   69MYC    C3311789   5.885   3.490   7.828
   69MYC    H6011790   5.791   3.547   7.824
   69MYC    H6111791   5.966   3.564   7.840
   69MYC    C3411792   5.906   3.416   7.695
   69MYC    H6211793   6.002   3.363   7.698
   69MYC    H6311794   5.827   3.341   7.682
   69MYC    C3511795   5.905   3.513   7.575
   69MYC    H6411796   5.807   3.563   7.570
   69MYC    H6511797   5.981   3.591   7.590
   69MYC    C3611798   5.932   3.442   7.441
   69MYC    H6611799   6.030   3.393   7.444
   69MYC    H6711800   5.856   3.363   7.426
   69MYC    C3711801   5.928   3.539   7.321
   69MYC    H6811802   5.831   3.591   7.321
   69MYC    H6911803   6.006   3.615   7.333
   69MYC    C3811804   5.946   3.467   7.186
   69MYC    H7011805   6.046   3.422   7.181
   69MYC    H7111806   5.874   3.385   7.180
   69MYC    C3911807   5.925   3.561   7.065
   69MYC    H7211808   5.829   3.612   7.077
   69MYC    H7311809   6.003   3.639   7.065
   69MYC    C4011810   5.927   3.486   6.930
   69MYC    H7411811   6.029   3.455   6.907
   69MYC    H7511812   5.866   3.395   6.939
   69MYC    C4111813   5.871   3.571   6.814
   69MYC    H7611814   5.769   3.602   6.840
   69MYC    H7711815   5.930   3.663   6.804
   69MYC    C4211816   5.868   3.496   6.680
   69MYC    H7811817   5.971   3.481   6.644
   69MYC    H7911818   5.825   3.396   6.694
   69MYC    C4311819   5.786   3.569   6.572
   69MYC    H8011820   5.799   3.521   6.474
   69MYC    H8111821   5.818   3.674   6.563
   69MYC    H8211822   5.679   3.568   6.597
   70MYC   HH1511823   0.455   4.533   6.585
   70MYC    C8011824   0.504   4.540   6.683
   70MYC   H10011825   0.558   4.447   6.702
   70MYC   H10111826   0.576   4.623   6.680
   70MYC    C7911827   0.399   4.565   6.793
   70MYC   H10211828   0.327   4.482   6.793
   70MYC   H10311829   0.343   4.656   6.769
   70MYC    C7811830   0.461   4.579   6.934
   70MYC   HH1411831   0.537   4.658   6.932
   70MYC   H10411832   0.512   4.485   6.961
   70MYC    C7711833   0.356   4.613   7.042
   70MYC   H10611834   0.282   4.532   7.047
   70MYC   H10711835   0.303   4.704   7.012
   70MYC    C7611836   0.417   4.635   7.182
   70MYC   H10811837   0.500   4.707   7.175
   70MYC   H10911838   0.459   4.540   7.219
   70MYC    C7511839   0.314   4.688   7.284
   70MYC   H11011840   0.227   4.620   7.286
   70MYC   H11111841   0.277   4.785   7.250
   70MYC    C7411842   0.369   4.701   7.427
   70MYC   H11211843   0.463   4.758   7.426
   70MYC   H11311844   0.393   4.601   7.466
   70MYC    C7311845   0.270   4.771   7.523
   70MYC   HH1311846   0.169   4.732   7.506
   70MYC   H11411847   0.266   4.878   7.499
   70MYC    C7211848   0.305   4.753   7.673
   70MYC   H11511849   0.410   4.777   7.690
   70MYC   H11611850   0.292   4.647   7.698
   70MYC    C7111851   0.216   4.839   7.765
   70MYC   H11711852   0.112   4.830   7.733
   70MYC   H11811853   0.245   4.944   7.755
   70MYC    C7011854   0.224   4.798   7.915
   70MYC   H11911855   0.328   4.807   7.950
   70MYC   H12011856   0.196   4.693   7.924
   70MYC    C6911857   0.130   4.884   8.003
   70MYC   H12111858   0.033   4.892   7.953
   70MYC   H12211859   0.170   4.986   8.009
   70MYC    C6811860   0.105   4.829   8.145
   70MYC   HH1211861   0.079   4.722   8.137
   70MYC   H12311862   0.016   4.879   8.185
   70MYC    C6711863   0.221   4.846   8.246
   70MYC   H12411864   0.248   4.952   8.253
   70MYC   H12511865   0.310   4.792   8.210
   70MYC    C6611866   0.180   4.794   8.385
   70MYC   H12611867   0.145   4.691   8.374
   70MYC   H12711868   0.095   4.853   8.421
   70MYC    C6511869   0.291   4.796   8.493
   70MYC   H12811870   0.328   4.899   8.507
   70MYC   H12911871   0.376   4.736   8.458
   70MYC    C6411872   0.239   4.740   8.627
   70MYC   H13011873   0.179   4.651   8.607
   70MYC   H13111874   0.172   4.814   8.672
   70MYC    C6311875   0.348   4.702   8.729
   70MYC   HH1111876   0.404   4.792   8.760
   70MYC   H13211877   0.420   4.634   8.682
   70MYC    C6211878   0.287   4.633   8.853
   70MYC   H13311879   0.226   4.549   8.819
   70MYC   H13411880   0.220   4.704   8.903
   70MYC    C6111881   0.392   4.580   8.954
   70MYC   H13511882   0.457   4.663   8.985
   70MYC   H13611883   0.456   4.508   8.902
   70MYC    C6011884   0.335   4.513   9.080
   70MYC   H13711885   0.411   4.453   9.130
   70MYC    C5811886   0.238   4.585   9.170
   70MYC   H13811887   0.200   4.681   9.135
   70MYC    C5911888   0.192   4.463   9.094
   70MYC   H13911889   0.177   4.372   9.150
   70MYC   H14011890   0.122   4.478   9.013
   70MYC    C5711891   0.258   4.583   9.321
   70MYC   HH1011892   0.278   4.480   9.355
   70MYC   H14111893   0.166   4.615   9.371
   70MYC    C5611894   0.375   4.674   9.361
   70MYC   H14211895   0.356   4.777   9.328
   70MYC   H14311896   0.465   4.640   9.309
   70MYC    C5511897   0.406   4.675   9.512
   70MYC   H14411898   0.502   4.725   9.525
   70MYC   H14511899   0.418   4.572   9.548
   70MYC    C5411900   0.304   4.749   9.600
   70MYC   H14611901   0.208   4.695   9.601
   70MYC   H14711902   0.286   4.849   9.559
   70MYC    C5311903   0.358   4.763   9.744
   70MYC   H14811904   0.458   4.808   9.741
   70MYC   H14911905   0.369   4.662   9.787
   70MYC    C5211906   0.270   4.848   9.837
   70MYC    H9911907   0.169   4.806   9.841
   70MYC   H15011908   0.261   4.950   9.796
   70MYC    C5111909   0.330   4.855   9.978
   70MYC    H9711910   0.433   4.891   9.973
   70MYC    H9811911   0.335   4.753  10.019
   70MYC    C5011912   0.249   4.943  10.075
   70MYC    H9511913   0.145   4.911  10.074
   70MYC    H9611914   0.251   5.048  10.041
   70MYC    C4911915   0.303   4.935  10.219
   70MYC    H9311916   0.403   4.981  10.224
   70MYC    H9411917   0.315   4.830  10.247
   70MYC    C4811918   0.210   5.003  10.321
   70MYC    H9111919   0.109   4.963  10.308
   70MYC    H9211920   0.205   5.110  10.301
   70MYC    C4711921   0.253   4.979  10.467
   70MYC    H8911922   0.345   5.035  10.487
   70MYC    H9011923   0.277   4.873  10.480
   70MYC    C4611924   0.144   5.019  10.568
   70MYC    H8711925   0.055   4.957  10.551
   70MYC    H8811926   0.114   5.123  10.549
   70MYC    C4511927   0.185   5.006  10.716
   70MYC    H8511928   0.100   5.035  10.778
   70MYC    H8611929   0.265   5.079  10.736
   70MYC    C4411930   0.233   4.867  10.764
   70MYC    H8311931   0.272   4.878  10.865
   70MYC    H8411932   0.318   4.833  10.703
   70MYC    C1811933   0.124   4.761  10.765
   70MYC    H3111934   0.098   4.726  10.665
   70MYC    C1711935   0.117   4.661  10.878
   70MYC    H3011936   0.186   4.675  10.961
   70MYC    C1911937   0.010   4.767  10.864
   70MYC    H3211938   0.010   4.848  10.937
   70MYC    H3311939   6.362   4.734  10.831
   70MYC    C1611940   0.085   4.515  10.852
   70MYC    H2811941   0.030   4.506  10.758
   70MYC    H2911942   0.016   4.481  10.930
   70MYC    C1511943   0.208   4.422  10.850
   70MYC    H2611944   0.173   4.319  10.836
   70MYC    H2711945   0.259   4.425  10.947
   70MYC    C1411946   0.310   4.455  10.738
   70MYC    H2411947   0.358   4.551  10.758
   70MYC    H2511948   0.256   4.466  10.643
   70MYC    C1311949   0.419   4.347  10.721
   70MYC    H2211950   0.371   4.248  10.718
   70MYC    H2311951   0.484   4.346  10.809
   70MYC    C1211952   0.504   4.364  10.593
   70MYC    H2011953   0.558   4.460  10.598
   70MYC    H2111954   0.435   4.371  10.509
   70MYC    C1111955   0.605   4.249  10.570
   70MYC    H1811956   0.556   4.153  10.590
   70MYC    H1911957   0.686   4.258  10.644
   70MYC    C1011958   0.667   4.245  10.428
   70MYC    H1611959   0.749   4.172  10.427
   70MYC    H1711960   0.711   4.342  10.404
   70MYC     C911961   0.566   4.206  10.317
   70MYC    H1411962   0.485   4.280  10.315
   70MYC    H1511963   0.521   4.110  10.343
   70MYC     C811964   0.626   4.198  10.175
   70MYC    H1211965   0.706   4.123  10.174
   70MYC    H1311966   0.671   4.294  10.148
   70MYC     C711967   0.518   4.158  10.071
   70MYC    H1011968   0.432   4.225  10.082
   70MYC    H1111969   0.481   4.058  10.096
   70MYC     C611970   0.564   4.157   9.922
   70MYC     H811971   0.525   4.066   9.876
   70MYC     H911972   0.674   4.147   9.919
   70MYC     C511973   0.519   4.281   9.839
   70MYC     H611974   0.598   4.357   9.842
   70MYC     H711975   0.433   4.327   9.889
   70MYC     C411976   0.472   4.252   9.693
   70MYC     H411977   0.385   4.315   9.675
   70MYC     H511978   0.435   4.149   9.685
   70MYC     C211979   0.569   4.276   9.575
   70MYC     H211980   0.502   4.284   9.488
   70MYC     O311981   0.636   4.401   9.590
   70MYC     H311982   0.708   4.387   9.654
   70MYC     C111983   0.670   4.162   9.543
   70MYC     H111984   0.614   4.068   9.528
   70MYC    C8111985   0.771   4.137   9.656
   70MYC    O8211986   0.829   4.225   9.716
   70MYC    O8311987   0.814   4.009   9.664
   70MYC   H10511988   0.887   4.009   9.727
   70MYC    C2011989   0.746   4.184   9.409
   70MYC    H3411990   0.814   4.269   9.418
   70MYC    H3511991   0.809   4.096   9.390
   70MYC    C2111992   0.654   4.205   9.286
   70MYC    H3611993   0.576   4.128   9.284
   70MYC    H3711994   0.604   4.302   9.295
   70MYC    C2211995   0.730   4.203   9.152
   70MYC    H3811996   0.812   4.276   9.156
   70MYC    H3911997   0.775   4.104   9.139
   70MYC    C2311998   0.640   4.236   9.032
   70MYC    H4011999   0.550   4.172   9.035
   70MYC    H4112000   0.606   4.340   9.039
   70MYC    C2412001   0.712   4.214   8.898
   70MYC    H4212002   0.803   4.276   8.895
   70MYC    H4312003   0.744   4.109   8.891
   70MYC    C2512004   0.625   4.247   8.776
   70MYC    H4412005   0.531   4.191   8.781
   70MYC    H4512006   0.599   4.354   8.776
   70MYC    C2612007   0.696   4.213   8.644
   70MYC    H4612008   0.792   4.267   8.639
   70MYC    H4712009   0.720   4.106   8.644
   70MYC    C2712010   0.613   4.245   8.519
   70MYC    H4812011   0.515   4.197   8.527
   70MYC    H4912012   0.595   4.353   8.513
   70MYC    C2812013   0.683   4.198   8.391
   70MYC    H5012014   0.783   4.243   8.384
   70MYC    H5112015   0.698   4.089   8.397
   70MYC    C2912016   0.604   4.230   8.263
   70MYC    H5212017   0.499   4.202   8.276
   70MYC    H5312018   0.607   4.338   8.245
   70MYC    C3012019   0.662   4.156   8.141
   70MYC    H5412020   0.770   4.173   8.136
   70MYC    H5512021   0.647   4.048   8.157
   70MYC    C3112022   0.598   4.197   8.008
   70MYC    H5612023   0.489   4.207   8.019
   70MYC    H5712024   0.636   4.297   7.981
   70MYC    C3212025   0.629   4.097   7.895
   70MYC    H5812026   0.734   4.064   7.904
   70MYC    H5912027   0.567   4.008   7.909
   70MYC    C3312028   0.607   4.155   7.755
   70MYC    H6012029   0.505   4.194   7.747
   70MYC    H6112030   0.675   4.240   7.742
   70MYC    C3412031   0.631   4.053   7.643
   70MYC    H6212032   0.722   3.995   7.665
   70MYC    H6312033   0.548   3.982   7.639
   70MYC    C3512034   0.649   4.122   7.507
   70MYC    H6412035   0.562   4.187   7.487
   70MYC    H6512036   0.737   4.187   7.512
   70MYC    C3612037   0.665   4.025   7.388
   70MYC    H6612038   0.731   3.942   7.416
   70MYC    H6712039   0.567   3.982   7.364
   70MYC    C3712040   0.724   4.096   7.265
   70MYC    H6812041   0.688   4.200   7.262
   70MYC    H6912042   0.833   4.101   7.277
   70MYC    C3812043   0.692   4.030   7.130
   70MYC    H7012044   0.729   3.927   7.130
   70MYC    H7112045   0.583   4.025   7.119
   70MYC    C3912046   0.752   4.108   7.012
   70MYC    H7212047   0.728   4.214   7.024
   70MYC    H7312048   0.861   4.099   7.014
   70MYC    C4012049   0.699   4.060   6.875
   70MYC    H7412050   0.737   3.959   6.855
   70MYC    H7512051   0.590   4.053   6.879
   70MYC    C4112052   0.739   4.154   6.760
   70MYC    H7612053   0.709   4.257   6.785
   70MYC    H7712054   0.848   4.155   6.749
   70MYC    C4212055   0.673   4.116   6.626
   70MYC    H7812056   0.704   4.014   6.598
   70MYC    H7912057   0.564   4.114   6.638
   70MYC    C4312058   0.708   4.213   6.511
   70MYC    H8012059   0.655   4.183   6.419
   70MYC    H8112060   0.815   4.212   6.491
   70MYC    H8212061   0.677   4.315   6.536
   71MYC   HH1512062   0.980   4.703   6.628
   71MYC    C8012063   1.008   4.718   6.733
   71MYC   H10012064   1.112   4.684   6.746
   71MYC   H10112065   1.004   4.825   6.755
   71MYC    C7912066   0.913   4.640   6.826
   71MYC   H10212067   0.914   4.534   6.798
   71MYC   H10312068   0.811   4.677   6.812
   71MYC    C7812069   0.953   4.654   6.974
   71MYC   HH1412070   0.956   4.761   7.000
   71MYC   H10412071   1.054   4.616   6.988
   71MYC    C7712072   0.858   4.583   7.073
   71MYC   H10612073   0.853   4.476   7.050
   71MYC   H10712074   0.756   4.623   7.062
   71MYC    C7612075   0.905   4.603   7.218
   71MYC   H10812076   0.918   4.710   7.236
   71MYC   H10912077   1.005   4.558   7.229
   71MYC    C7512078   0.813   4.545   7.327
   71MYC   H11012079   0.818   4.436   7.327
   71MYC   H11112080   0.709   4.574   7.308
   71MYC    C7412081   0.855   4.600   7.465
   71MYC   H11212082   0.835   4.708   7.467
   71MYC   H11312083   0.963   4.588   7.477
   71MYC    C7312084   0.786   4.534   7.587
   71MYC   HH1312085   0.814   4.428   7.592
   71MYC   H11412086   0.677   4.539   7.576
   71MYC    C7212087   0.829   4.606   7.717
   71MYC   H11512088   0.791   4.709   7.714
   71MYC   H11612089   0.938   4.612   7.720
   71MYC    C7112090   0.780   4.538   7.846
   71MYC   H11712091   0.821   4.437   7.852
   71MYC   H11812092   0.671   4.529   7.843
   71MYC    C7012093   0.822   4.619   7.970
   71MYC   H11912094   0.780   4.719   7.964
   71MYC   H12012095   0.932   4.630   7.970
   71MYC    C6912096   0.780   4.554   8.103
   71MYC   H12112097   0.828   4.456   8.112
   71MYC   H12212098   0.671   4.537   8.102
   71MYC    C6812099   0.816   4.641   8.224
   71MYC   HH1212100   0.758   4.735   8.219
   71MYC   H12312101   0.922   4.669   8.219
   71MYC    C6712102   0.789   4.571   8.358
   71MYC   H12412103   0.856   4.485   8.367
   71MYC   H12512104   0.686   4.533   8.360
   71MYC    C6612105   0.809   4.664   8.479
   71MYC   H12612106   0.727   4.738   8.481
   71MYC   H12712107   0.903   4.721   8.467
   71MYC    C6512108   0.813   4.588   8.612
   71MYC   H12812109   0.904   4.526   8.615
   71MYC   H12912110   0.727   4.520   8.618
   71MYC    C6412111   0.810   4.681   8.734
   71MYC   H13012112   0.717   4.739   8.731
   71MYC   H13112113   0.893   4.753   8.727
   71MYC    C6312114   0.819   4.605   8.867
   71MYC   HH1112115   0.917   4.555   8.874
   71MYC   H13212116   0.742   4.527   8.870
   71MYC    C6212117   0.800   4.699   8.987
   71MYC   H13312118   0.701   4.745   8.981
   71MYC   H13412119   0.874   4.780   8.982
   71MYC    C6112120   0.814   4.628   9.122
   71MYC   H13512121   0.914   4.583   9.130
   71MYC   H13612122   0.742   4.545   9.128
   71MYC    C6012123   0.789   4.724   9.237
   71MYC   H13712124   0.687   4.761   9.239
   71MYC    C5812125   0.856   4.702   9.370
   71MYC   H13812126   0.927   4.619   9.376
   71MYC    C5912127   0.896   4.820   9.285
   71MYC   H13912128   0.864   4.919   9.317
   71MYC   H14012129   0.993   4.816   9.236
   71MYC    C5712130   0.775   4.717   9.497
   71MYC   HH1012131   0.706   4.632   9.503
   71MYC   H14112132   0.713   4.808   9.491
   71MYC    C5612133   0.859   4.723   9.625
   71MYC   H14212134   0.917   4.816   9.626
   71MYC   H14312135   0.930   4.640   9.625
   71MYC    C5512136   0.772   4.714   9.752
   71MYC   H14412137   0.715   4.621   9.750
   71MYC   H14512138   0.700   4.796   9.753
   71MYC    C5412139   0.856   4.719   9.880
   71MYC   H14612140   0.901   4.819   9.890
   71MYC   H14712141   0.939   4.647   9.872
   71MYC    C5312142   0.776   4.686  10.008
   71MYC   H14812143   0.736   4.584  10.000
   71MYC   H14912144   0.691   4.755  10.016
   71MYC    C5212145   0.864   4.698  10.133
   71MYC    H9912146   0.892   4.803  10.147
   71MYC   H15012147   0.957   4.641  10.117
   71MYC    C5112148   0.797   4.647  10.262
   71MYC    H9712149   0.774   4.540  10.252
   71MYC    H9812150   0.702   4.699  10.278
   71MYC    C5012151   0.889   4.670  10.384
   71MYC    H9512152   0.904   4.778  10.393
   71MYC    H9612153   0.986   4.624  10.365
   71MYC    C4912154   0.833   4.617  10.517
   71MYC    H9312155   0.825   4.508  10.512
   71MYC    H9412156   0.733   4.657  10.534
   71MYC    C4812157   0.924   4.656  10.635
   71MYC    H9112158   0.932   4.765  10.640
   71MYC    H9212159   1.025   4.617  10.617
   71MYC    C4712160   0.874   4.603  10.771
   71MYC    H8912161   0.868   4.494  10.767
   71MYC    H9012162   0.772   4.640  10.789
   71MYC    C4612163   0.965   4.646  10.888
   71MYC    H8712164   0.961   4.754  10.899
   71MYC    H8812165   1.068   4.620  10.862
   71MYC    C4512166   0.926   4.578  11.021
   71MYC    H8512167   0.928   4.470  11.006
   71MYC    H8612168   0.823   4.606  11.046
   71MYC    C4412169   1.015   4.613  11.141
   71MYC    H8312170   0.979   4.556  11.228
   71MYC    H8412171   1.002   4.719  11.166
   71MYC    C1812172   1.163   4.582  11.119
   71MYC    H3112173   1.180   4.511  11.038
   71MYC    C1712174   1.267   4.689  11.144
   71MYC    H3012175   1.234   4.782  11.189
   71MYC    C1912176   1.260   4.568  11.234
   71MYC    H3212177   1.221   4.583  11.335
   71MYC    H3312178   1.337   4.493  11.225
   71MYC    C1612179   1.382   4.708  11.046
   71MYC    H2812180   1.383   4.629  10.971
   71MYC    H2912181   1.477   4.698  11.101
   71MYC    C1512182   1.381   4.846  10.975
   71MYC    H2612183   1.470   4.852  10.911
   71MYC    H2712184   1.390   4.926  11.050
   71MYC    C1412185   1.255   4.870  10.888
   71MYC    H2412186   1.166   4.869  10.951
   71MYC    H2512187   1.246   4.788  10.817
   71MYC    C1312188   1.260   5.004  10.811
   71MYC    H2212189   1.359   5.016  10.767
   71MYC    H2312190   1.245   5.087  10.880
   71MYC    C1212191   1.155   5.012  10.698
   71MYC    H2012192   1.055   5.013  10.741
   71MYC    H2112193   1.164   4.921  10.637
   71MYC    C1112194   1.175   5.135  10.607
   71MYC    H1812195   1.276   5.135  10.565
   71MYC    H1912196   1.167   5.226  10.668
   71MYC    C1012197   1.071   5.146  10.492
   71MYC    H1612198   1.087   5.240  10.439
   71MYC    H1712199   0.972   5.151  10.536
   71MYC     C912200   1.071   5.030  10.389
   71MYC    H1412201   0.989   5.047  10.318
   71MYC    H1512202   1.049   4.936  10.441
   71MYC     C812203   1.203   5.014  10.310
   71MYC    H1212204   1.283   4.985  10.378
   71MYC    H1312205   1.230   5.111  10.267
   71MYC     C712206   1.193   4.910  10.196
   71MYC    H1012207   1.110   4.935  10.130
   71MYC    H1112208   1.172   4.811  10.239
   71MYC     C612209   1.323   4.903  10.113
   71MYC     H812210   1.406   4.873  10.178
   71MYC     H912211   1.346   5.004  10.078
   71MYC     C512212   1.316   4.805   9.993
   71MYC     H612213   1.228   4.827   9.931
   71MYC     H712214   1.302   4.704  10.032
   71MYC     C412215   1.443   4.807   9.905
   71MYC     H412216   1.456   4.707   9.863
   71MYC     H512217   1.531   4.825   9.969
   71MYC     C212218   1.442   4.907   9.785
   71MYC     H212219   1.368   4.869   9.714
   71MYC     O312220   1.401   5.037   9.828
   71MYC     H312221   1.355   5.027   9.913
   71MYC     C112222   1.580   4.916   9.712
   71MYC     H112223   1.613   4.812   9.699
   71MYC    C8112224   1.687   4.987   9.798
   71MYC    O8212225   1.695   5.108   9.813
   71MYC    O8312226   1.773   4.904   9.861
   71MYC   H10512227   1.833   4.962   9.910
   71MYC    C2012228   1.571   4.982   9.572
   71MYC    H3412229   1.515   5.076   9.578
   71MYC    H3512230   1.673   5.009   9.541
   71MYC    C2112231   1.511   4.892   9.461
   71MYC    H3612232   1.568   4.799   9.456
   71MYC    H3712233   1.407   4.865   9.486
   71MYC    C2212234   1.514   4.962   9.324
   71MYC    H3812235   1.442   5.045   9.324
   71MYC    H3912236   1.613   5.007   9.310
   71MYC    C2312237   1.485   4.869   9.204
   71MYC    H4012238   1.548   4.780   9.211
   71MYC    H4112239   1.381   4.836   9.207
   71MYC    C2412240   1.514   4.940   9.070
   71MYC    H4212241   1.454   5.032   9.064
   71MYC    H4312242   1.619   4.971   9.068
   71MYC    C2512243   1.486   4.853   8.945
   71MYC    H4412244   1.538   4.758   8.954
   71MYC    H4512245   1.378   4.831   8.941
   71MYC    C2612246   1.529   4.923   8.815
   71MYC    H4612247   1.488   5.025   8.812
   71MYC    H4712248   1.639   4.933   8.814
   71MYC    C2712249   1.484   4.848   8.688
   71MYC    H4812250   1.516   4.743   8.693
   71MYC    H4912251   1.374   4.848   8.685
   71MYC    C2812252   1.538   4.911   8.558
   71MYC    H5012253   1.522   5.019   8.560
   71MYC    H5112254   1.647   4.895   8.552
   71MYC    C2912255   1.471   4.853   8.432
   71MYC    H5212256   1.479   4.744   8.433
   71MYC    H5312257   1.364   4.877   8.435
   71MYC    C3012258   1.531   4.907   8.300
   71MYC    H5412259   1.539   5.016   8.305
   71MYC    H5512260   1.632   4.867   8.288
   71MYC    C3112261   1.445   4.868   8.177
   71MYC    H5612262   1.430   4.760   8.176
   71MYC    H5712263   1.346   4.915   8.187
   71MYC    C3212264   1.507   4.913   8.043
   71MYC    H5812265   1.528   5.020   8.046
   71MYC    H5912266   1.603   4.862   8.029
   71MYC    C3312267   1.416   4.882   7.922
   71MYC    H6012268   1.393   4.774   7.921
   71MYC    H6112269   1.321   4.935   7.935
   71MYC    C3412270   1.478   4.922   7.787
   71MYC    H6212271   1.500   5.029   7.789
   71MYC    H6312272   1.574   4.870   7.775
   71MYC    C3512273   1.387   4.890   7.667
   71MYC    H6412274   1.368   4.782   7.664
   71MYC    H6512275   1.290   4.940   7.680
   71MYC    C3612276   1.449   4.935   7.533
   71MYC    H6612277   1.465   5.043   7.536
   71MYC    H6712278   1.548   4.888   7.522
   71MYC    C3712279   1.363   4.900   7.410
   71MYC    H6812280   1.350   4.791   7.405
   71MYC    H6912281   1.264   4.944   7.421
   71MYC    C3812282   1.428   4.950   7.279
   71MYC    H7012283   1.438   5.059   7.284
   71MYC    H7112284   1.529   4.909   7.270
   71MYC    C3912285   1.348   4.913   7.152
   71MYC    H7212286   1.337   4.804   7.145
   71MYC    H7312287   1.247   4.955   7.159
   71MYC    C4012288   1.417   4.965   7.024
   71MYC    H7412289   1.430   5.074   7.032
   71MYC    H7512290   1.517   4.921   7.016
   71MYC    C4112291   1.339   4.935   6.894
   71MYC    H7612292   1.325   4.826   6.884
   71MYC    H7712293   1.239   4.979   6.901
   71MYC    C4212294   1.410   4.989   6.768
   71MYC    H7812295   1.432   5.096   6.782
   71MYC    H7912296   1.506   4.938   6.756
   71MYC    C4312297   1.328   4.973   6.639
   71MYC    H8012298   1.383   5.013   6.554
   71MYC    H8112299   1.232   5.027   6.647
   71MYC    H8212300   1.306   4.867   6.620
   72MYC   HH1512301   2.220   4.754   6.659
   72MYC    C8012302   2.259   4.731   6.759
   72MYC   H10012303   2.237   4.626   6.781
   72MYC   H10112304   2.368   4.743   6.757
   72MYC    C7912305   2.196   4.824   6.864
   72MYC   H10212306   2.087   4.818   6.856
   72MYC   H10312307   2.224   4.928   6.843
   72MYC    C7812308   2.238   4.788   7.008
   72MYC   HH1412309   2.347   4.788   7.016
   72MYC   H10412310   2.205   4.685   7.029
   72MYC    C7712311   2.179   4.883   7.116
   72MYC   H10612312   2.083   4.924   7.082
   72MYC   H10712313   2.247   4.968   7.129
   72MYC    C7612314   2.158   4.812   7.251
   72MYC   H10812315   2.248   4.755   7.277
   72MYC   H10912316   2.076   4.739   7.239
   72MYC    C7512317   2.124   4.907   7.367
   72MYC   H11012318   2.045   4.977   7.337
   72MYC   H11112319   2.213   4.967   7.390
   72MYC    C7412320   2.079   4.829   7.493
   72MYC   H11212321   2.135   4.736   7.500
   72MYC   H11312322   1.973   4.801   7.482
   72MYC    C7312323   2.098   4.908   7.624
   72MYC   HH1312324   2.045   5.004   7.618
   72MYC   H11412325   2.205   4.931   7.635
   72MYC    C7212326   2.051   4.829   7.747
   72MYC   H11512327   2.088   4.726   7.742
   72MYC   H11612328   1.941   4.823   7.746
   72MYC    C7112329   2.098   4.892   7.879
   72MYC   H11712330   2.066   4.997   7.884
   72MYC   H11812331   2.208   4.892   7.881
   72MYC    C7012332   2.046   4.818   8.004
   72MYC   H11912333   2.071   4.712   7.996
   72MYC   H12012334   1.936   4.826   8.007
   72MYC    C6912335   2.105   4.875   8.134
   72MYC   H12112336   2.082   4.981   8.142
   72MYC   H12212337   2.215   4.866   8.129
   72MYC    C6812338   2.055   4.802   8.260
   72MYC   HH1212339   2.070   4.694   8.247
   72MYC   H12312340   1.948   4.819   8.272
   72MYC    C6712341   2.130   4.848   8.386
   72MYC   H12412342   2.109   4.954   8.405
   72MYC   H12512343   2.238   4.839   8.369
   72MYC    C6612344   2.093   4.765   8.511
   72MYC   H12612345   2.103   4.658   8.488
   72MYC   H12712346   1.989   4.784   8.538
   72MYC    C6512347   2.184   4.799   8.631
   72MYC   H12812348   2.172   4.905   8.657
   72MYC   H12912349   2.289   4.784   8.602
   72MYC    C6412350   2.155   4.712   8.754
   72MYC   H13012351   2.161   4.606   8.728
   72MYC   H13112352   2.051   4.731   8.786
   72MYC    C6312353   2.253   4.741   8.870
   72MYC   HH1112354   2.258   4.849   8.887
   72MYC   H13212355   2.353   4.709   8.841
   72MYC    C6212356   2.215   4.672   9.002
   72MYC   H13312357   2.294   4.693   9.075
   72MYC   H13412358   2.213   4.563   8.989
   72MYC    C6112359   2.079   4.720   9.059
   72MYC   H13512360   1.998   4.667   9.009
   72MYC   H13612361   2.066   4.826   9.036
   72MYC    C6012362   2.069   4.700   9.209
   72MYC   H13712363   2.075   4.595   9.238
   72MYC    C5812364   2.136   4.800   9.300
   72MYC   H13812365   2.182   4.885   9.250
   72MYC    C5912366   1.985   4.789   9.295
   72MYC   H13912367   1.931   4.743   9.377
   72MYC   H14012368   1.930   4.869   9.246
   72MYC    C5712369   2.222   4.749   9.414
   72MYC   HH1012370   2.308   4.817   9.426
   72MYC   H14112371   2.265   4.651   9.389
   72MYC    C5612372   2.149   4.739   9.549
   72MYC   H14212373   2.070   4.663   9.542
   72MYC   H14312374   2.101   4.835   9.571
   72MYC    C5512375   2.243   4.702   9.663
   72MYC   H14412376   2.327   4.773   9.666
   72MYC   H14512377   2.286   4.602   9.644
   72MYC    C5412378   2.172   4.702   9.799
   72MYC   H14612379   2.085   4.635   9.795
   72MYC   H14712380   2.135   4.803   9.821
   72MYC    C5312381   2.266   4.656   9.911
   72MYC   H14812382   2.358   4.717   9.908
   72MYC   H14912383   2.296   4.552   9.892
   72MYC    C5212384   2.204   4.668  10.050
   72MYC    H9912385   2.114   4.606  10.056
   72MYC   H15012386   2.175   4.772  10.070
   72MYC    C5112387   2.304   4.622  10.157
   72MYC    H9712388   2.394   4.684  10.151
   72MYC    H9812389   2.335   4.519  10.135
   72MYC    C5012390   2.249   4.629  10.300
   72MYC    H9512391   2.163   4.562  10.309
   72MYC    H9612392   2.214   4.730  10.322
   72MYC    C4912393   2.359   4.589  10.399
   72MYC    H9312394   2.436   4.667  10.401
   72MYC    H9412395   2.408   4.497  10.364
   72MYC    C4812396   2.306   4.564  10.540
   72MYC    H9112397   2.232   4.484  10.538
   72MYC    H9212398   2.253   4.653  10.577
   72MYC    C4712399   2.421   4.529  10.636
   72MYC    H8912400   2.473   4.622  10.663
   72MYC    H9012401   2.494   4.465  10.586
   72MYC    C4612402   2.371   4.457  10.762
   72MYC    H8712403   2.350   4.353  10.736
   72MYC    H8812404   2.275   4.501  10.789
   72MYC    C4512405   2.469   4.461  10.881
   72MYC    H8512406   2.537   4.545  10.871
   72MYC    H8612407   2.531   4.370  10.879
   72MYC    C4412408   2.396   4.472  11.016
   72MYC    H8312409   2.470   4.455  11.095
   72MYC    H8412410   2.323   4.390  11.024
   72MYC    C1812411   2.327   4.607  11.035
   72MYC    H3112412   2.294   4.653  10.942
   72MYC    C1712413   2.239   4.634  11.155
   72MYC    H3012414   2.232   4.556  11.229
   72MYC    C1912415   2.373   4.702  11.142
   72MYC    H3212416   2.454   4.669  11.206
   72MYC    H3312417   2.375   4.808  11.117
   72MYC    C1612418   2.111   4.716  11.141
   72MYC    H2812419   2.126   4.796  11.067
   72MYC    H2912420   2.093   4.767  11.237
   72MYC    C1512421   1.984   4.636  11.104
   72MYC    H2612422   1.898   4.703  11.118
   72MYC    H2712423   1.971   4.553  11.174
   72MYC    C1412424   1.979   4.584  10.959
   72MYC    H2412425   2.061   4.512  10.946
   72MYC    H2512426   1.999   4.666  10.889
   72MYC    C1312427   1.843   4.519  10.922
   72MYC    H2212428   1.765   4.595  10.932
   72MYC    H2312429   1.820   4.440  10.995
   72MYC    C1212430   1.837   4.457  10.780
   72MYC    H2012431   1.873   4.354  10.785
   72MYC    H2112432   1.905   4.512  10.714
   72MYC    C1112433   1.696   4.454  10.717
   72MYC    H1812434   1.655   4.556  10.714
   72MYC    H1912435   1.630   4.396  10.783
   72MYC    C1012436   1.689   4.393  10.575
   72MYC    H1612437   1.583   4.380  10.548
   72MYC    H1712438   1.733   4.292  10.576
   72MYC     C912439   1.757   4.477  10.464
   72MYC    H1412440   1.865   4.485  10.483
   72MYC    H1512441   1.718   4.579  10.468
   72MYC     C812442   1.736   4.421  10.321
   72MYC    H1212443   1.629   4.418  10.300
   72MYC    H1312444   1.773   4.318  10.316
   72MYC     C712445   1.807   4.506  10.211
   72MYC    H1012446   1.915   4.496  10.222
   72MYC    H1112447   1.784   4.612  10.228
   72MYC     C612448   1.764   4.469  10.067
   72MYC     H812449   1.656   4.487  10.058
   72MYC     H912450   1.779   4.362  10.050
   72MYC     C512451   1.840   4.550   9.958
   72MYC     H612452   1.938   4.506   9.940
   72MYC     H712453   1.858   4.651   9.997
   72MYC     C412454   1.763   4.565   9.824
   72MYC     H412455   1.799   4.657   9.775
   72MYC     H512456   1.657   4.585   9.848
   72MYC     C212457   1.773   4.452   9.717
   72MYC     H212458   1.856   4.480   9.651
   72MYC     O312459   1.803   4.327   9.778
   72MYC     H312460   1.754   4.258   9.731
   72MYC     C112461   1.644   4.440   9.632
   72MYC     H112462   1.609   4.543   9.614
   72MYC    C8112463   1.531   4.368   9.709
   72MYC    O8212464   1.526   4.247   9.726
   72MYC    O8312465   1.439   4.450   9.763
   72MYC   H10512466   1.376   4.391   9.808
   72MYC    C2012467   1.664   4.373   9.494
   72MYC    H3412468   1.725   4.283   9.504
   72MYC    H3512469   1.566   4.339   9.457
   72MYC    C2112470   1.726   4.465   9.385
   72MYC    H3612471   1.676   4.562   9.387
   72MYC    H3712472   1.832   4.482   9.407
   72MYC    C2212473   1.710   4.403   9.245
   72MYC    H3812474   1.758   4.305   9.242
   72MYC    H3912475   1.603   4.387   9.226
   72MYC    C2312476   1.767   4.490   9.131
   72MYC    H4012477   1.726   4.592   9.138
   72MYC    H4112478   1.875   4.497   9.142
   72MYC    C2412479   1.732   4.431   8.993
   72MYC    H4212480   1.772   4.329   8.986
   72MYC    H4312481   1.623   4.424   8.984
   72MYC    C2512482   1.787   4.513   8.874
   72MYC    H4412483   1.760   4.619   8.887
   72MYC    H4512484   1.896   4.507   8.873
   72MYC    C2612485   1.731   4.462   8.741
   72MYC    H4612486   1.754   4.355   8.730
   72MYC    H4712487   1.621   4.471   8.742
   72MYC    C2712488   1.785   4.538   8.618
   72MYC    H4812489   1.763   4.645   8.628
   72MYC    H4912490   1.895   4.528   8.615
   72MYC    C2812491   1.725   4.484   8.487
   72MYC    H5012492   1.746   4.377   8.479
   72MYC    H5112493   1.616   4.495   8.492
   72MYC    C2912494   1.778   4.556   8.362
   72MYC    H5212495   1.759   4.664   8.372
   72MYC    H5312496   1.886   4.542   8.355
   72MYC    C3012497   1.711   4.503   8.234
   72MYC    H5412498   1.728   4.395   8.225
   72MYC    H5512499   1.602   4.518   8.242
   72MYC    C3112500   1.762   4.573   8.107
   72MYC    H5612501   1.751   4.682   8.118
   72MYC    H5712502   1.869   4.552   8.094
   72MYC    C3212503   1.686   4.527   7.981
   72MYC    H5812504   1.693   4.418   7.972
   72MYC    H5912505   1.579   4.551   7.994
   72MYC    C3312506   1.737   4.592   7.852
   72MYC    H6012507   1.737   4.701   7.863
   72MYC    H6112508   1.841   4.561   7.835
   72MYC    C3412509   1.651   4.553   7.730
   72MYC    H6212510   1.644   4.443   7.725
   72MYC    H6312511   1.549   4.591   7.745
   72MYC    C3512512   1.706   4.606   7.596
   72MYC    H6412513   1.717   4.715   7.602
   72MYC    H6512514   1.806   4.564   7.579
   72MYC    C3612515   1.614   4.569   7.479
   72MYC    H6612516   1.600   4.460   7.476
   72MYC    H6712517   1.515   4.614   7.495
   72MYC    C3712518   1.668   4.615   7.342
   72MYC    H6812519   1.682   4.724   7.343
   72MYC    H6912520   1.766   4.570   7.325
   72MYC    C3812521   1.573   4.576   7.226
   72MYC    H7012522   1.556   4.468   7.229
   72MYC    H7112523   1.476   4.624   7.242
   72MYC    C3912524   1.628   4.614   7.087
   72MYC    H7212525   1.644   4.723   7.083
   72MYC    H7312526   1.726   4.567   7.073
   72MYC    C4012527   1.534   4.572   6.973
   72MYC    H7412528   1.516   4.464   6.979
   72MYC    H7512529   1.437   4.621   6.986
   72MYC    C4112530   1.590   4.606   6.833
   72MYC    H7612531   1.609   4.713   6.827
   72MYC    H7712532   1.687   4.555   6.821
   72MYC    C4212533   1.496   4.564   6.718
   72MYC    H7812534   1.477   4.456   6.724
   72MYC    H7912535   1.399   4.615   6.730
   72MYC    C4312536   1.553   4.596   6.579
   72MYC    H8012537   1.484   4.565   6.501
   72MYC    H8112538   1.648   4.544   6.564
   72MYC    H8212539   1.571   4.704   6.569
   73MYC   HH1512540   2.718   5.085   6.577
   73MYC    C8012541   2.689   5.034   6.669
   73MYC   H10012542   2.579   5.030   6.673
   73MYC   H10112543   2.727   4.931   6.666
   73MYC    C7912544   2.745   5.109   6.792
   73MYC   H10212545   2.714   5.214   6.787
   73MYC   H10312546   2.854   5.108   6.787
   73MYC    C7812547   2.698   5.048   6.926
   73MYC   HH1412548   2.726   4.942   6.930
   73MYC   H10412549   2.589   5.052   6.931
   73MYC    C7712550   2.758   5.121   7.048
   73MYC   H10612551   2.737   5.228   7.041
   73MYC   H10712552   2.867   5.109   7.047
   73MYC    C7612553   2.702   5.068   7.182
   73MYC   H10812554   2.722   4.960   7.189
   73MYC   H10912555   2.593   5.081   7.184
   73MYC    C7512556   2.764   5.139   7.305
   73MYC   H11012557   2.741   5.246   7.301
   73MYC   H11112558   2.873   5.128   7.301
   73MYC    C7412559   2.712   5.079   7.437
   73MYC   H11212560   2.733   4.971   7.438
   73MYC   H11312561   2.603   5.091   7.443
   73MYC    C7312562   2.776   5.142   7.563
   73MYC   HH1312563   2.735   5.243   7.577
   73MYC   H11412564   2.884   5.153   7.549
   73MYC    C7212565   2.750   5.057   7.689
   73MYC   H11512566   2.805   4.962   7.679
   73MYC   H11612567   2.643   5.032   7.694
   73MYC    C7112568   2.791   5.125   7.820
   73MYC   H11712569   2.733   5.218   7.832
   73MYC   H11812570   2.897   5.154   7.817
   73MYC    C7012571   2.766   5.033   7.942
   73MYC   H11912572   2.836   4.949   7.938
   73MYC   H12012573   2.665   4.992   7.935
   73MYC    C6912574   2.781   5.105   8.077
   73MYC   H12112575   2.720   5.197   8.076
   73MYC   H12212576   2.886   5.136   8.091
   73MYC    C6812577   2.737   5.017   8.195
   73MYC   HH1212578   2.800   4.927   8.198
   73MYC   H12312579   2.634   4.983   8.178
   73MYC    C6712580   2.744   5.089   8.330
   73MYC   H12412581   2.680   5.178   8.328
   73MYC   H12512582   2.847   5.124   8.346
   73MYC    C6612583   2.702   5.001   8.449
   73MYC   H12612584   2.762   4.909   8.447
   73MYC   H12712585   2.597   4.971   8.438
   73MYC    C6512586   2.722   5.071   8.585
   73MYC   H12812587   2.653   5.156   8.593
   73MYC   H12912588   2.824   5.112   8.588
   73MYC    C6412589   2.703   4.977   8.705
   73MYC   H13012590   2.753   4.882   8.683
   73MYC   H13112591   2.596   4.954   8.718
   73MYC    C6312592   2.761   5.034   8.836
   73MYC   HH1112593   2.704   5.123   8.867
   73MYC   H13212594   2.864   5.068   8.816
   73MYC    C6212595   2.767   4.930   8.950
   73MYC   H13312596   2.856   4.949   9.010
   73MYC   H13412597   2.782   4.831   8.906
   73MYC    C6112598   2.642   4.924   9.040
   73MYC   H13512599   2.621   4.819   9.062
   73MYC   H13612600   2.554   4.962   8.987
   73MYC    C6012601   2.661   5.000   9.171
   73MYC   H13712602   2.646   5.107   9.161
   73MYC    C5812603   2.623   4.935   9.303
   73MYC   H13812604   2.587   4.833   9.298
   73MYC    C5912605   2.769   4.956   9.269
   73MYC   H13912606   2.823   5.035   9.322
   73MYC   H14012607   2.828   4.869   9.245
   73MYC    C5712608   2.560   5.013   9.417
   73MYC   HH1012609   2.451   5.018   9.402
   73MYC   H14112610   2.596   5.117   9.417
   73MYC    C5612611   2.591   4.948   9.552
   73MYC   H14212612   2.700   4.944   9.566
   73MYC   H14312613   2.555   4.844   9.551
   73MYC    C5512614   2.528   5.020   9.672
   73MYC   H14412615   2.419   5.022   9.660
   73MYC   H14512616   2.562   5.124   9.673
   73MYC    C5412617   2.564   4.952   9.805
   73MYC   H14612618   2.673   4.946   9.814
   73MYC   H14712619   2.526   4.849   9.805
   73MYC    C5312620   2.508   5.027   9.927
   73MYC   H14812621   2.399   5.033   9.920
   73MYC   H14912622   2.546   5.131   9.925
   73MYC    C5212623   2.548   4.962  10.060
   73MYC    H9912624   2.655   4.941  10.060
   73MYC   H15012625   2.497   4.865  10.070
   73MYC    C5112626   2.514   5.050  10.182
   73MYC    H9712627   2.405   5.063  10.189
   73MYC    H9812628   2.557   5.149  10.165
   73MYC    C5012629   2.568   4.994  10.315
   73MYC    H9512630   2.673   4.967  10.301
   73MYC    H9612631   2.514   4.901  10.340
   73MYC    C4912632   2.556   5.095  10.431
   73MYC    H9312633   2.450   5.105  10.459
   73MYC    H9412634   2.590   5.193  10.396
   73MYC    C4812635   2.639   5.055  10.553
   73MYC    H9112636   2.743   5.052  10.521
   73MYC    H9212637   2.608   4.955  10.586
   73MYC    C4712638   2.631   5.151  10.674
   73MYC    H8912639   2.527   5.158  10.707
   73MYC    H9012640   2.663   5.250  10.641
   73MYC    C4612641   2.718   5.109  10.795
   73MYC    H8712642   2.820   5.087  10.761
   73MYC    H8812643   2.678   5.017  10.839
   73MYC    C4512644   2.722   5.221  10.901
   73MYC    H8512645   2.620   5.245  10.932
   73MYC    H8612646   2.761   5.312  10.854
   73MYC    C4412647   2.806   5.190  11.027
   73MYC    H8312648   2.820   5.285  11.081
   73MYC    H8412649   2.905   5.156  10.997
   73MYC    C1812650   2.740   5.090  11.122
   73MYC    H3112651   2.632   5.095  11.121
   73MYC    C1712652   2.804   4.956  11.151
   73MYC    H3012653   2.901   4.936  11.106
   73MYC    C1912654   2.803   5.064  11.257
   73MYC    H3212655   2.897   5.114  11.279
   73MYC    H3312656   2.737   5.051  11.342
   73MYC    C1612657   2.718   4.831  11.171
   73MYC    H2812658   2.619   4.848  11.127
   73MYC    H2912659   2.702   4.815  11.278
   73MYC    C1512660   2.777   4.701  11.111
   73MYC    H2612661   2.714   4.617  11.141
   73MYC    H2712662   2.876   4.684  11.154
   73MYC    C1412663   2.787   4.702  10.956
   73MYC    H2412664   2.848   4.787  10.923
   73MYC    H2512665   2.687   4.719  10.915
   73MYC    C1312666   2.845   4.571  10.897
   73MYC    H2212667   2.777   4.488  10.921
   73MYC    H2312668   2.941   4.549  10.945
   73MYC    C1212669   2.866   4.581  10.745
   73MYC    H2012670   2.943   4.656  10.727
   73MYC    H2112671   2.772   4.614  10.699
   73MYC    C1112672   2.911   4.450  10.676
   73MYC    H1812673   2.829   4.378  10.683
   73MYC    H1912674   2.996   4.409  10.732
   73MYC    C1012675   2.955   4.466  10.527
   73MYC    H1612676   2.976   4.365  10.488
   73MYC    H1712677   3.049   4.521  10.523
   73MYC     C912678   2.854   4.536  10.433
   73MYC    H1412679   2.866   4.644  10.442
   73MYC    H1512680   2.751   4.514  10.464
   73MYC     C812681   2.870   4.499  10.283
   73MYC    H1212682   2.850   4.392  10.271
   73MYC    H1312683   2.974   4.515  10.253
   73MYC     C712684   2.777   4.580  10.191
   73MYC    H1012685   2.803   4.686  10.197
   73MYC    H1112686   2.674   4.570  10.227
   73MYC     C612687   2.782   4.536  10.042
   73MYC     H812688   2.754   4.430  10.036
   73MYC     H912689   2.885   4.545  10.006
   73MYC     C512690   2.687   4.619   9.953
   73MYC     H612691   2.722   4.723   9.949
   73MYC     H712692   2.588   4.621  10.001
   73MYC     C412693   2.667   4.566   9.809
   73MYC     H412694   2.572   4.606   9.771
   73MYC     H512695   2.654   4.457   9.813
   73MYC     C212696   2.778   4.602   9.706
   73MYC     H212697   2.793   4.711   9.709
   73MYC     O312698   2.901   4.539   9.742
   73MYC     H312699   2.886   4.443   9.748
   73MYC     C112700   2.739   4.566   9.560
   73MYC     H112701   2.660   4.637   9.533
   73MYC    C8112702   2.675   4.425   9.549
   73MYC    O8212703   2.735   4.320   9.568
   73MYC    O8312704   2.544   4.427   9.514
   73MYC   H10512705   2.517   4.334   9.513
   73MYC    C2012706   2.851   4.585   9.454
   73MYC    H3412707   2.888   4.688   9.460
   73MYC    H3512708   2.936   4.520   9.477
   73MYC    C2112709   2.803   4.557   9.310
   73MYC    H3612710   2.759   4.456   9.305
   73MYC    H3712711   2.723   4.627   9.285
   73MYC    C2212712   2.913   4.565   9.203
   73MYC    H3812713   2.966   4.660   9.212
   73MYC    H3912714   2.987   4.485   9.219
   73MYC    C2312715   2.854   4.553   9.062
   73MYC    H4012716   2.787   4.466   9.056
   73MYC    H4112717   2.791   4.642   9.046
   73MYC    C2412718   2.957   4.542   8.948
   73MYC    H4212719   3.048   4.598   8.975
   73MYC    H4312720   2.988   4.438   8.937
   73MYC    C2512721   2.902   4.596   8.814
   73MYC    H4412722   2.793   4.599   8.817
   73MYC    H4512723   2.937   4.699   8.801
   73MYC    C2612724   2.942   4.514   8.689
   73MYC    H4612725   3.051   4.504   8.684
   73MYC    H4712726   2.900   4.413   8.698
   73MYC    C2712727   2.889   4.581   8.561
   73MYC    H4812728   2.780   4.595   8.570
   73MYC    H4912729   2.933   4.681   8.553
   73MYC    C2812730   2.918   4.502   8.433
   73MYC    H5012731   3.026   4.485   8.425
   73MYC    H5112732   2.870   4.403   8.439
   73MYC    C2912733   2.868   4.576   8.308
   73MYC    H5212734   2.758   4.579   8.309
   73MYC    H5312735   2.903   4.680   8.311
   73MYC    C3012736   2.916   4.512   8.176
   73MYC    H5412737   3.025   4.503   8.178
   73MYC    H5512738   2.875   4.411   8.168
   73MYC    C3112739   2.874   4.595   8.053
   73MYC    H5612740   2.765   4.599   8.048
   73MYC    H5712741   2.910   4.698   8.065
   73MYC    C3212742   2.929   4.537   7.922
   73MYC    H5812743   3.039   4.531   7.928
   73MYC    H5912744   2.892   4.435   7.909
   73MYC    C3312745   2.891   4.622   7.799
   73MYC    H6012746   2.781   4.631   7.795
   73MYC    H6112747   2.931   4.723   7.810
   73MYC    C3412748   2.942   4.561   7.667
   73MYC    H6212749   3.051   4.558   7.668
   73MYC    H6312750   2.907   4.457   7.660
   73MYC    C3512751   2.893   4.638   7.543
   73MYC    H6412752   2.783   4.641   7.544
   73MYC    H6512753   2.927   4.742   7.549
   73MYC    C3612754   2.941   4.575   7.411
   73MYC    H6612755   3.050   4.582   7.405
   73MYC    H6712756   2.916   4.468   7.411
   73MYC    C3712757   2.877   4.641   7.288
   73MYC    H6812758   2.768   4.630   7.294
   73MYC    H6912759   2.899   4.749   7.288
   73MYC    C3812760   2.927   4.580   7.155
   73MYC    H7012761   3.032   4.606   7.140
   73MYC    H7112762   2.921   4.470   7.161
   73MYC    C3912763   2.844   4.628   7.034
   73MYC    H7212764   2.740   4.595   7.047
   73MYC    H7312765   2.843   4.737   7.032
   73MYC    C4012766   2.897   4.575   6.899
   73MYC    H7412767   3.000   4.609   6.886
   73MYC    H7512768   2.899   4.466   6.901
   73MYC    C4112769   2.812   4.623   6.780
   73MYC    H7612770   2.709   4.588   6.793
   73MYC    H7712771   2.808   4.733   6.780
   73MYC    C4212772   2.865   4.574   6.644
   73MYC    H7812773   2.969   4.606   6.632
   73MYC    H7912774   2.865   4.465   6.642
   73MYC    C4312775   2.783   4.626   6.525
   73MYC    H8012776   2.820   4.583   6.431
   73MYC    H8112777   2.790   4.735   6.517
   73MYC    H8212778   2.677   4.599   6.536
   74MYC   HH1512779   3.146   4.984   6.660
   74MYC    C8012780   3.187   4.918   6.737
   74MYC   H10012781   3.152   4.816   6.718
   74MYC   H10112782   3.296   4.919   6.730
   74MYC    C7912783   3.141   4.964   6.877
   74MYC   H10212784   3.032   4.956   6.884
   74MYC   H10312785   3.166   5.070   6.889
   74MYC    C7812786   3.206   4.884   6.991
   74MYC   HH1412787   3.315   4.893   6.984
   74MYC   H10412788   3.182   4.777   6.978
   74MYC    C7712789   3.160   4.929   7.131
   74MYC   H10612790   3.052   4.914   7.141
   74MYC   H10712791   3.179   5.037   7.142
   74MYC    C7612792   3.234   4.854   7.244
   74MYC   H10812793   3.342   4.871   7.233
   74MYC   H10912794   3.216   4.747   7.233
   74MYC    C7512795   3.189   4.899   7.384
   74MYC   H11012796   3.082   4.882   7.395
   74MYC   H11112797   3.206   5.007   7.395
   74MYC    C7412798   3.265   4.824   7.495
   74MYC   H11212799   3.373   4.841   7.484
   74MYC   H11312800   3.247   4.716   7.485
   74MYC    C7312801   3.222   4.869   7.636
   74MYC   HH1312802   3.115   4.848   7.650
   74MYC   H11412803   3.234   4.978   7.644
   74MYC    C7212804   3.302   4.800   7.747
   74MYC   H11512805   3.408   4.826   7.737
   74MYC   H11612806   3.294   4.692   7.737
   74MYC    C7112807   3.253   4.842   7.886
   74MYC   H11712808   3.149   4.808   7.898
   74MYC   H11812809   3.252   4.951   7.894
   74MYC    C7012810   3.338   4.784   8.000
   74MYC   H11912811   3.438   4.829   7.998
   74MYC   H12012812   3.351   4.676   7.986
   74MYC    C6912813   3.272   4.809   8.136
   74MYC   H12112814   3.176   4.756   8.139
   74MYC   H12212815   3.250   4.916   8.147
   74MYC    C6812816   3.357   4.764   8.256
   74MYC   HH1212817   3.446   4.829   8.263
   74MYC   H12312818   3.393   4.661   8.241
   74MYC    C6712819   3.276   4.771   8.385
   74MYC   H12412820   3.200   4.692   8.385
   74MYC   H12512821   3.222   4.867   8.387
   74MYC    C6612822   3.360   4.760   8.514
   74MYC   H12612823   3.434   4.841   8.514
   74MYC   H12712824   3.413   4.665   8.517
   74MYC    C6512825   3.268   4.774   8.637
   74MYC   H12812826   3.211   4.681   8.649
   74MYC   H12912827   3.195   4.854   8.618
   74MYC    C6412828   3.342   4.806   8.767
   74MYC   H13012829   3.411   4.890   8.753
   74MYC   H13112830   3.401   4.719   8.799
   74MYC    C6312831   3.240   4.842   8.876
   74MYC   HH1112832   3.165   4.763   8.881
   74MYC   H13212833   3.187   4.934   8.847
   74MYC    C6212834   3.301   4.863   9.016
   74MYC   H13312835   3.365   4.952   9.015
   74MYC   H13412836   3.365   4.777   9.041
   74MYC    C6112837   3.190   4.877   9.122
   74MYC   H13512838   3.136   4.782   9.126
   74MYC   H13612839   3.118   4.953   9.090
   74MYC    C6012840   3.243   4.913   9.259
   74MYC   H13712841   3.259   5.020   9.270
   74MYC    C5812842   3.194   4.838   9.380
   74MYC   H13812843   3.130   4.752   9.362
   74MYC    C5912844   3.338   4.823   9.336
   74MYC   H13912845   3.415   4.871   9.395
   74MYC   H14012846   3.367   4.729   9.290
   74MYC    C5712847   3.158   4.911   9.507
   74MYC   HH1012848   3.055   4.950   9.500
   74MYC   H14112849   3.225   4.997   9.521
   74MYC    C5612850   3.169   4.820   9.630
   74MYC   H14212851   3.272   4.785   9.637
   74MYC   H14312852   3.106   4.731   9.616
   74MYC    C5512853   3.128   4.889   9.761
   74MYC   H14412854   3.021   4.909   9.760
   74MYC   H14512855   3.179   4.986   9.768
   74MYC    C5412856   3.165   4.804   9.883
   74MYC   H14612857   3.274   4.792   9.886
   74MYC   H14712858   3.123   4.703   9.873
   74MYC    C5312859   3.118   4.865  10.016
   74MYC   H14812860   3.009   4.858  10.023
   74MYC   H14912861   3.144   4.972  10.018
   74MYC    C5212862   3.183   4.796  10.137
   74MYC    H9912863   3.292   4.806  10.129
   74MYC   H15012864   3.160   4.689  10.136
   74MYC    C5112865   3.139   4.857  10.271
   74MYC    H9712866   3.033   4.834  10.287
   74MYC    H9812867   3.148   4.966  10.266
   74MYC    C5012868   3.222   4.805  10.389
   74MYC    H9512869   3.328   4.831  10.374
   74MYC    H9612870   3.215   4.696  10.393
   74MYC    C4912871   3.174   4.865  10.521
   74MYC    H9312872   3.068   4.842  10.530
   74MYC    H9412873   3.182   4.974  10.519
   74MYC    C4812874   3.246   4.811  10.644
   74MYC    H9112875   3.352   4.840  10.641
   74MYC    H9212876   3.243   4.701  10.641
   74MYC    C4712877   3.182   4.860  10.775
   74MYC    H8912878   3.074   4.842  10.771
   74MYC    H9012879   3.194   4.969  10.785
   74MYC    C4612880   3.239   4.789  10.897
   74MYC    H8712881   3.345   4.814  10.909
   74MYC    H8812882   3.233   4.681  10.878
   74MYC    C4512883   3.163   4.821  11.027
   74MYC    H8512884   3.057   4.796  11.012
   74MYC    H8612885   3.168   4.929  11.047
   74MYC    C4412886   3.214   4.743  11.148
   74MYC    H8312887   3.153   4.768  11.235
   74MYC    H8412888   3.316   4.778  11.172
   74MYC    C1812889   3.214   4.592  11.129
   74MYC    H3112890   3.115   4.553  11.104
   74MYC    C1712891   3.334   4.518  11.073
   74MYC    H3012892   3.422   4.577  11.051
   74MYC    C1912893   3.298   4.507  11.218
   74MYC    H3212894   3.361   4.559  11.288
   74MYC    H3312895   3.255   4.414  11.252
   74MYC    C1612896   3.317   4.394  10.983
   74MYC    H2812897   3.223   4.401  10.927
   74MYC    H2912898   3.308   4.305  11.046
   74MYC    C1512899   3.434   4.373  10.885
   74MYC    H2612900   3.421   4.277  10.835
   74MYC    H2712901   3.528   4.368  10.941
   74MYC    C1412902   3.442   4.483  10.777
   74MYC    H2412903   3.446   4.582  10.824
   74MYC    H2512904   3.351   4.480  10.715
   74MYC    C1312905   3.566   4.468  10.686
   74MYC    H2212906   3.565   4.369  10.639
   74MYC    H2312907   3.656   4.475  10.748
   74MYC    C1212908   3.570   4.577  10.577
   74MYC    H2012909   3.560   4.676  10.623
   74MYC    H2112910   3.484   4.563  10.510
   74MYC    C1112911   3.701   4.572  10.496
   74MYC    H1812912   3.717   4.471  10.459
   74MYC    H1912913   3.785   4.595  10.563
   74MYC    C1012914   3.706   4.670  10.377
   74MYC    H1612915   3.805   4.662  10.332
   74MYC    H1712916   3.695   4.773  10.413
   74MYC     C912917   3.599   4.642  10.269
   74MYC    H1412918   3.507   4.696  10.294
   74MYC    H1512919   3.574   4.535  10.270
   74MYC     C812920   3.646   4.680  10.128
   74MYC    H1212921   3.736   4.622  10.105
   74MYC    H1312922   3.675   4.785  10.124
   74MYC     C712923   3.540   4.651  10.019
   74MYC    H1012924   3.475   4.739  10.009
   74MYC    H1112925   3.476   4.567  10.050
   74MYC     C612926   3.602   4.618   9.883
   74MYC     H812927   3.665   4.529   9.894
   74MYC     H912928   3.669   4.700   9.854
   74MYC     C512929   3.497   4.591   9.773
   74MYC     H612930   3.444   4.684   9.749
   74MYC     H712931   3.421   4.523   9.815
   74MYC     C412932   3.554   4.526   9.645
   74MYC     H412933   3.470   4.481   9.590
   74MYC     H512934   3.617   4.441   9.674
   74MYC     C212935   3.629   4.620   9.545
   74MYC     H212936   3.558   4.640   9.464
   74MYC     O312937   3.662   4.745   9.604
   74MYC     H312938   3.732   4.728   9.670
   74MYC     C112939   3.758   4.558   9.482
   74MYC     H112940   3.727   4.468   9.428
   74MYC    C8112941   3.859   4.515   9.591
   74MYC    O8212942   3.917   4.592   9.666
   74MYC    O8312943   3.875   4.381   9.602
   74MYC   H10512944   3.939   4.368   9.674
   74MYC    C2012945   3.828   4.653   9.382
   74MYC    H3412946   3.854   4.746   9.433
   74MYC    H3512947   3.924   4.608   9.351
   74MYC    C2112948   3.747   4.684   9.254
   74MYC    H3612949   3.769   4.606   9.180
   74MYC    H3712950   3.639   4.680   9.272
   74MYC    C2212951   3.780   4.824   9.198
   74MYC    H3812952   3.743   4.900   9.268
   74MYC    H3912953   3.889   4.837   9.194
   74MYC    C2312954   3.722   4.853   9.058
   74MYC    H4012955   3.612   4.852   9.063
   74MYC    H4112956   3.752   4.955   9.030
   74MYC    C2412957   3.770   4.754   8.951
   74MYC    H4212958   3.876   4.731   8.967
   74MYC    H4312959   3.715   4.660   8.961
   74MYC    C2512960   3.753   4.807   8.808
   74MYC    H4412961   3.649   4.838   8.793
   74MYC    H4512962   3.815   4.896   8.795
   74MYC    C2612963   3.790   4.702   8.702
   74MYC    H4612964   3.892   4.666   8.719
   74MYC    H4712965   3.723   4.616   8.712
   74MYC    C2712966   3.780   4.759   8.559
   74MYC    H4812967   3.681   4.804   8.547
   74MYC    H4912968   3.854   4.839   8.547
   74MYC    C2812969   3.802   4.653   8.450
   74MYC    H5012970   3.906   4.619   8.452
   74MYC    H5112971   3.738   4.566   8.471
   74MYC    C2912972   3.767   4.708   8.311
   74MYC    H5212973   3.663   4.742   8.313
   74MYC    H5312974   3.829   4.796   8.290
   74MYC    C3012975   3.785   4.606   8.198
   74MYC    H5412976   3.892   4.592   8.179
   74MYC    H5512977   3.744   4.509   8.227
   74MYC    C3112978   3.715   4.652   8.069
   74MYC    H5612979   3.607   4.652   8.085
   74MYC    H5712980   3.744   4.756   8.047
   74MYC    C3212981   3.748   4.566   7.946
   74MYC    H5812982   3.855   4.575   7.924
   74MYC    H5912983   3.728   4.460   7.968
   74MYC    C3312984   3.666   4.609   7.822
   74MYC    H6012985   3.560   4.583   7.838
   74MYC    H6112986   3.671   4.718   7.812
   74MYC    C3412987   3.716   4.543   7.692
   74MYC    H6212988   3.822   4.566   7.680
   74MYC    H6312989   3.706   4.434   7.700
   74MYC    C3512990   3.639   4.594   7.568
   74MYC    H6412991   3.534   4.565   7.575
   74MYC    H6512992   3.643   4.703   7.566
   74MYC    C3612993   3.699   4.539   7.437
   74MYC    H6612994   3.807   4.556   7.437
   74MYC    H6712995   3.684   4.430   7.432
   74MYC    C3712996   3.638   4.605   7.311
   74MYC    H6812997   3.531   4.581   7.305
   74MYC    H6912998   3.646   4.714   7.321
   74MYC    C3812999   3.709   4.561   7.181
   74MYC    H7013000   3.817   4.573   7.194
   74MYC    H7113001   3.691   4.454   7.164
   74MYC    C3913002   3.664   4.642   7.058
   74MYC    H7213003   3.558   4.623   7.039
   74MYC    H7313004   3.675   4.749   7.080
   74MYC    C4013005   3.746   4.608   6.931
   74MYC    H7413006   3.853   4.621   6.953
   74MYC    H7513007   3.731   4.502   6.906
   74MYC    C4113008   3.708   4.696   6.811
   74MYC    H7613009   3.601   4.683   6.789
   74MYC    H7713010   3.722   4.801   6.837
   74MYC    C4213011   3.790   4.664   6.684
   74MYC    H7813012   3.897   4.676   6.706
   74MYC    H7913013   3.774   4.559   6.656
   74MYC    C4313014   3.752   4.754   6.565
   74MYC    H8013015   3.813   4.728   6.477
   74MYC    H8113016   3.770   4.860   6.589
   74MYC    H8213017   3.647   4.742   6.538
   75MYC   HH1513018   4.201   4.815   6.633
   75MYC    C8013019   4.258   4.787   6.723
   75MYC   H10013020   4.285   4.681   6.715
   75MYC   H10113021   4.351   4.846   6.724
   75MYC    C7913022   4.175   4.814   6.849
   75MYC   H10213023   4.079   4.761   6.841
   75MYC   H10313024   4.152   4.921   6.855
   75MYC    C7813025   4.246   4.770   6.979
   75MYC   HH1413026   4.345   4.817   6.983
   75MYC   H10413027   4.262   4.662   6.976
   75MYC    C7713028   4.167   4.807   7.106
   75MYC   H10613029   4.065   4.766   7.099
   75MYC   H10713030   4.158   4.916   7.113
   75MYC    C7613031   4.234   4.753   7.234
   75MYC   H10813032   4.339   4.788   7.237
   75MYC   H10913033   4.237   4.644   7.231
   75MYC    C7513034   4.163   4.799   7.363
   75MYC   H11013035   4.058   4.767   7.360
   75MYC   H11113036   4.164   4.908   7.368
   75MYC    C7413037   4.230   4.742   7.490
   75MYC   H11213038   4.336   4.773   7.491
   75MYC   H11313039   4.229   4.633   7.485
   75MYC    C7313040   4.163   4.788   7.620
   75MYC   HH1313041   4.061   4.747   7.625
   75MYC   H11413042   4.153   4.898   7.620
   75MYC    C7213043   4.242   4.746   7.745
   75MYC   H11513044   4.340   4.795   7.743
   75MYC   H11613045   4.261   4.638   7.741
   75MYC    C7113046   4.170   4.779   7.876
   75MYC   H11713047   4.083   4.713   7.888
   75MYC   H11813048   4.132   4.882   7.872
   75MYC    C7013049   4.262   4.765   7.999
   75MYC   H11913050   4.342   4.841   7.992
   75MYC   H12013051   4.311   4.667   7.998
   75MYC    C6913052   4.186   4.784   8.131
   75MYC   H12113053   4.115   4.701   8.143
   75MYC   H12213054   4.128   4.877   8.127
   75MYC    C6813055   4.279   4.789   8.253
   75MYC   HH1213056   4.348   4.875   8.243
   75MYC   H12313057   4.341   4.699   8.257
   75MYC    C6713058   4.200   4.803   8.384
   75MYC   H12413059   4.135   4.716   8.397
   75MYC   H12513060   4.134   4.891   8.377
   75MYC    C6613061   4.290   4.818   8.508
   75MYC   H12613062   4.356   4.905   8.495
   75MYC   H12713063   4.354   4.730   8.518
   75MYC    C6513064   4.207   4.837   8.636
   75MYC   H12813065   4.141   4.750   8.650
   75MYC   H12913066   4.142   4.924   8.624
   75MYC    C6413067   4.293   4.856   8.762
   75MYC   H13013068   4.363   4.938   8.746
   75MYC   H13113069   4.352   4.765   8.780
   75MYC    C6313070   4.207   4.887   8.885
   75MYC   HH1113071   4.133   4.807   8.899
   75MYC   H13213072   4.151   4.980   8.867
   75MYC    C6213073   4.290   4.902   9.014
   75MYC   H13313074   4.368   4.978   8.999
   75MYC   H13413075   4.340   4.807   9.035
   75MYC    C6113076   4.203   4.942   9.134
   75MYC   H13513077   4.114   4.877   9.136
   75MYC   H13613078   4.166   5.044   9.121
   75MYC    C6013079   4.277   4.930   9.266
   75MYC   H13713080   4.363   4.996   9.272
   75MYC    C5813081   4.202   4.901   9.393
   75MYC   H13813082   4.095   4.885   9.384
   75MYC    C5913083   4.290   4.795   9.333
   75MYC   H13913084   4.384   4.772   9.382
   75MYC   H14013085   4.240   4.711   9.287
   75MYC    C5713086   4.238   4.968   9.525
   75MYC   HH1013087   4.182   5.062   9.533
   75MYC   H14113088   4.344   4.995   9.527
   75MYC    C5613089   4.206   4.876   9.645
   75MYC   H14213090   4.293   4.812   9.665
   75MYC   H14313091   4.123   4.809   9.618
   75MYC    C5513092   4.166   4.954   9.771
   75MYC   H14413093   4.075   5.011   9.750
   75MYC   H14513094   4.244   5.026   9.797
   75MYC    C5413095   4.141   4.860   9.891
   75MYC   H14613096   4.238   4.820   9.924
   75MYC   H14713097   4.080   4.775   9.859
   75MYC    C5313098   4.070   4.930  10.009
   75MYC   H14813099   3.967   4.955   9.980
   75MYC   H14913100   4.121   5.024  10.031
   75MYC    C5213101   4.068   4.842  10.135
   75MYC    H9913102   4.173   4.816  10.159
   75MYC   H15013103   4.017   4.747  10.113
   75MYC    C5113104   4.002   4.908  10.257
   75MYC    H9713105   3.893   4.904  10.248
   75MYC    H9813106   4.031   5.014  10.261
   75MYC    C5013107   4.048   4.840  10.388
   75MYC    H9513108   4.157   4.843  10.390
   75MYC    H9613109   4.020   4.733  10.386
   75MYC    C4913110   3.994   4.904  10.518
   75MYC    H9313111   3.898   4.858  10.546
   75MYC    H9413112   3.976   5.011  10.502
   75MYC    C4813113   4.097   4.887  10.632
   75MYC    H9113114   4.187   4.942  10.602
   75MYC    H9213115   4.125   4.781  10.640
   75MYC    C4713116   4.054   4.938  10.770
   75MYC    H8913117   3.979   4.870  10.813
   75MYC    H9013118   4.005   5.036  10.761
   75MYC    C4613119   4.176   4.951  10.865
   75MYC    H8713120   4.245   5.024  10.822
   75MYC    H8813121   4.228   4.854  10.869
   75MYC    C4513122   4.140   4.994  11.009
   75MYC    H8513123   4.085   4.914  11.059
   75MYC    H8613124   4.073   5.080  11.003
   75MYC    C4413125   4.263   5.035  11.094
   75MYC    H8313126   4.227   5.079  11.188
   75MYC    H8413127   4.316   5.116  11.043
   75MYC    C1813128   4.362   4.922  11.128
   75MYC    H3113129   4.332   4.825  11.088
   75MYC    C1713130   4.510   4.951  11.138
   75MYC    H3013131   4.540   5.055  11.125
   75MYC    C1913132   4.431   4.921  11.262
   75MYC    H3213133   4.414   5.003  11.331
   75MYC    H3313134   4.446   4.824  11.310
   75MYC    C1613135   4.617   4.854  11.091
   75MYC    H2813136   4.584   4.750  11.108
   75MYC    H2913137   4.707   4.868  11.152
   75MYC    C1513138   4.655   4.870  10.943
   75MYC    H2613139   4.733   4.797  10.918
   75MYC    H2713140   4.700   4.970  10.927
   75MYC    C1413141   4.536   4.852  10.847
   75MYC    H2413142   4.474   4.943  10.851
   75MYC    H2513143   4.474   4.769  10.881
   75MYC    C1313144   4.578   4.826  10.701
   75MYC    H2213145   4.624   4.727  10.694
   75MYC    H2313146   4.653   4.900  10.670
   75MYC    C1213147   4.457   4.834  10.606
   75MYC    H2013148   4.422   4.938  10.604
   75MYC    H2113149   4.375   4.774  10.648
   75MYC    C1113150   4.482   4.786  10.462
   75MYC    H1813151   4.391   4.803  10.404
   75MYC    H1913152   4.500   4.678  10.463
   75MYC    C1013153   4.600   4.855  10.390
   75MYC    H1613154   4.695   4.824  10.437
   75MYC    H1713155   4.593   4.964  10.402
   75MYC     C913156   4.603   4.820  10.240
   75MYC    H1413157   4.515   4.864  10.192
   75MYC    H1513158   4.595   4.711  10.230
   75MYC     C813159   4.730   4.867  10.167
   75MYC    H1213160   4.817   4.817  10.212
   75MYC    H1313161   4.744   4.975  10.180
   75MYC     C713162   4.724   4.834  10.016
   75MYC    H1013163   4.683   4.920   9.962
   75MYC    H1113164   4.653   4.751  10.000
   75MYC     C613165   4.860   4.794   9.956
   75MYC     H813166   4.899   4.709  10.012
   75MYC     H913167   4.931   4.876   9.969
   75MYC     C513168   4.855   4.755   9.806
   75MYC     H613169   4.958   4.735   9.774
   75MYC     H713170   4.820   4.840   9.747
   75MYC     C413171   4.766   4.631   9.776
   75MYC     H413172   4.662   4.655   9.797
   75MYC     H513173   4.795   4.549   9.844
   75MYC     C213174   4.776   4.581   9.629
   75MYC     H213175   4.750   4.666   9.565
   75MYC     O313176   4.911   4.544   9.603
   75MYC     H313177   4.930   4.463   9.653
   75MYC     C113178   4.680   4.464   9.593
   75MYC     H113179   4.579   4.505   9.603
   75MYC    C8113180   4.689   4.346   9.693
   75MYC    O8213181   4.775   4.260   9.688
   75MYC    O8313182   4.592   4.343   9.787
   75MYC   H10513183   4.610   4.263   9.840
   75MYC    C2013184   4.698   4.410   9.449
   75MYC    H3413185   4.802   4.376   9.436
   75MYC    H3513186   4.635   4.321   9.436
   75MYC    C2113187   4.664   4.510   9.336
   75MYC    H3613188   4.557   4.532   9.340
   75MYC    H3713189   4.717   4.604   9.351
   75MYC    C2213190   4.700   4.452   9.198
   75MYC    H3813191   4.810   4.446   9.190
   75MYC    H3913192   4.662   4.350   9.190
   75MYC    C2313193   4.645   4.535   9.081
   75MYC    H4013194   4.536   4.533   9.084
   75MYC    H4113195   4.676   4.640   9.090
   75MYC    C2413196   4.694   4.479   8.945
   75MYC    H4213197   4.802   4.495   8.937
   75MYC    H4313198   4.677   4.371   8.943
   75MYC    C2513199   4.623   4.542   8.824
   75MYC    H4413200   4.515   4.527   8.833
   75MYC    H4513201   4.641   4.650   8.822
   75MYC    C2613202   4.672   4.479   8.693
   75MYC    H4613203   4.780   4.492   8.684
   75MYC    H4713204   4.653   4.371   8.696
   75MYC    C2713205   4.604   4.536   8.567
   75MYC    H4813206   4.496   4.520   8.573
   75MYC    H4913207   4.621   4.645   8.563
   75MYC    C2813208   4.659   4.471   8.439
   75MYC    H5013209   4.767   4.488   8.434
   75MYC    H5113210   4.644   4.363   8.444
   75MYC    C2913211   4.593   4.524   8.311
   75MYC    H5213212   4.488   4.494   8.309
   75MYC    H5313213   4.596   4.634   8.311
   75MYC    C3013214   4.664   4.472   8.185
   75MYC    H5413215   4.769   4.504   8.187
   75MYC    H5513216   4.664   4.362   8.185
   75MYC    C3113217   4.600   4.522   8.055
   75MYC    H5613218   4.499   4.479   8.046
   75MYC    H5713219   4.588   4.631   8.059
   75MYC    C3213220   4.683   4.484   7.931
   75MYC    H5813221   4.782   4.532   7.938
   75MYC    H5913222   4.699   4.376   7.929
   75MYC    C3313223   4.616   4.527   7.799
   75MYC    H6013224   4.520   4.475   7.789
   75MYC    H6113225   4.594   4.635   7.802
   75MYC    C3413226   4.704   4.497   7.676
   75MYC    H6213227   4.795   4.558   7.680
   75MYC    H6313228   4.736   4.392   7.679
   75MYC    C3513229   4.630   4.522   7.543
   75MYC    H6413230   4.542   4.457   7.539
   75MYC    H6513231   4.593   4.626   7.541
   75MYC    C3613232   4.717   4.497   7.419
   75MYC    H6613233   4.795   4.574   7.413
   75MYC    H6713234   4.768   4.401   7.428
   75MYC    C3713235   4.634   4.497   7.290
   75MYC    H6813236   4.564   4.412   7.293
   75MYC    H6913237   4.573   4.588   7.285
   75MYC    C3813238   4.718   4.487   7.161
   75MYC    H7013239   4.778   4.579   7.150
   75MYC    H7113240   4.789   4.403   7.169
   75MYC    C3913241   4.630   4.467   7.037
   75MYC    H7213242   4.577   4.372   7.047
   75MYC    H7313243   4.554   4.546   7.033
   75MYC    C4013244   4.708   4.467   6.904
   75MYC    H7413245   4.755   4.565   6.889
   75MYC    H7513246   4.788   4.392   6.908
   75MYC    C4113247   4.616   4.435   6.784
   75MYC    H7613248   4.568   4.338   6.801
   75MYC    H7713249   4.536   4.510   6.781
   75MYC    C4213250   4.688   4.433   6.648
   75MYC    H7813251   4.730   4.533   6.627
   75MYC    H7913252   4.772   4.363   6.652
   75MYC    C4313253   4.594   4.393   6.532
   75MYC    H8013254   4.649   4.392   6.437
   75MYC    H8113255   4.511   4.464   6.523
   75MYC    H8213256   4.553   4.293   6.549
   76MYC   HH1513257   5.191   4.464   6.648
   76MYC    C8013258   5.126   4.477   6.736
   76MYC   H10013259   5.088   4.580   6.735
   76MYC   H10113260   5.041   4.408   6.727
   76MYC    C7913261   5.205   4.449   6.865
   76MYC   H10213262   5.291   4.516   6.870
   76MYC   H10313263   5.244   4.346   6.862
   76MYC    C7813264   5.119   4.466   6.992
   76MYC   HH1413265   5.033   4.398   6.987
   76MYC   H10413266   5.080   4.568   6.996
   76MYC    C7713267   5.197   4.437   7.122
   76MYC   H10613268   5.282   4.506   7.130
   76MYC   H10713269   5.239   4.335   7.117
   76MYC    C7613270   5.109   4.449   7.248
   76MYC   H10813271   5.021   4.385   7.237
   76MYC   H10913272   5.073   4.553   7.257
   76MYC    C7513273   5.183   4.409   7.377
   76MYC   H11013274   5.273   4.470   7.389
   76MYC   H11113275   5.216   4.305   7.369
   76MYC    C7413276   5.095   4.424   7.503
   76MYC   H11213277   5.001   4.369   7.489
   76MYC   H11313278   5.068   4.530   7.515
   76MYC    C7313279   5.164   4.374   7.630
   76MYC   HH1313280   5.262   4.423   7.640
   76MYC   H11413281   5.183   4.266   7.621
   76MYC    C7213282   5.082   4.400   7.758
   76MYC   H11513283   4.986   4.347   7.751
   76MYC   H11613284   5.060   4.507   7.766
   76MYC    C7113285   5.156   4.354   7.885
   76MYC   H11713286   5.254   4.405   7.889
   76MYC   H11813287   5.176   4.247   7.879
   76MYC    C7013288   5.079   4.384   8.014
   76MYC   H11913289   4.986   4.327   8.015
   76MYC   H12013290   5.052   4.491   8.017
   76MYC    C6913291   5.163   4.350   8.139
   76MYC   H12113292   5.253   4.413   8.140
   76MYC   H12213293   5.196   4.246   8.133
   76MYC    C6813294   5.085   4.371   8.271
   76MYC   HH1213295   4.997   4.306   8.271
   76MYC   H12313296   5.049   4.474   8.276
   76MYC    C6713297   5.173   4.341   8.394
   76MYC   H12413298   5.255   4.413   8.398
   76MYC   H12513299   5.217   4.241   8.383
   76MYC    C6613300   5.093   4.347   8.525
   76MYC   H12613301   5.011   4.274   8.521
   76MYC   H12713302   5.048   4.446   8.536
   76MYC    C6513303   5.181   4.318   8.648
   76MYC   H12813304   5.261   4.393   8.654
   76MYC   H12913305   5.229   4.220   8.637
   76MYC    C6413306   5.100   4.321   8.779
   76MYC   H13013307   5.019   4.247   8.773
   76MYC   H13113308   5.054   4.419   8.790
   76MYC    C6313309   5.187   4.291   8.902
   76MYC   HH1113310   5.272   4.361   8.904
   76MYC   H13213311   5.229   4.190   8.895
   76MYC    C6213312   5.108   4.305   9.033
   76MYC   H13313313   5.023   4.235   9.033
   76MYC   H13413314   5.066   4.406   9.039
   76MYC    C6113315   5.194   4.279   9.158
   76MYC   H13513316   5.286   4.338   9.151
   76MYC   H13613317   5.223   4.174   9.162
   76MYC    C6013318   5.119   4.316   9.285
   76MYC   H13713319   5.024   4.265   9.293
   76MYC    C5813320   5.192   4.345   9.414
   76MYC   H13813321   5.301   4.345   9.412
   76MYC    C5913322   5.125   4.457   9.339
   76MYC   H13913323   5.033   4.499   9.378
   76MYC   H14013324   5.189   4.529   9.287
   76MYC    C5713325   5.137   4.290   9.544
   76MYC   HH1013326   5.168   4.185   9.557
   76MYC   H14113327   5.027   4.289   9.539
   76MYC    C5613328   5.181   4.371   9.668
   76MYC   H14213329   5.165   4.478   9.649
   76MYC   H14313330   5.288   4.357   9.685
   76MYC    C5513331   5.101   4.330   9.794
   76MYC   H14413332   5.127   4.227   9.822
   76MYC   H14513333   4.995   4.331   9.770
   76MYC    C5413334   5.123   4.423   9.913
   76MYC   H14613335   5.106   4.527   9.881
   76MYC   H14713336   5.227   4.416   9.947
   76MYC    C5313337   5.027   4.391  10.030
   76MYC   H14813338   5.038   4.286  10.060
   76MYC   H14913339   4.923   4.404   9.997
   76MYC    C5213340   5.054   4.482  10.151
   76MYC    H9913341   5.054   4.587  10.118
   76MYC   H15013342   5.156   4.461  10.187
   76MYC    C5113343   4.954   4.467  10.268
   76MYC    H9713344   4.954   4.363  10.302
   76MYC    H9813345   4.853   4.493  10.235
   76MYC    C5013346   4.998   4.560  10.383
   76MYC    H9513347   4.989   4.664  10.350
   76MYC    H9613348   5.104   4.541  10.400
   76MYC    C4913349   4.925   4.544  10.517
   76MYC    H9313350   4.902   4.439  10.537
   76MYC    H9413351   4.830   4.599  10.515
   76MYC    C4813352   5.016   4.598  10.629
   76MYC    H9113353   5.054   4.697  10.600
   76MYC    H9213354   5.104   4.532  10.637
   76MYC    C4713355   4.953   4.611  10.769
   76MYC    H8913356   4.909   4.515  10.799
   76MYC    H9013357   4.873   4.686  10.765
   76MYC    C4613358   5.061   4.654  10.871
   76MYC    H8713359   5.116   4.739  10.829
   76MYC    H8813360   5.133   4.572  10.880
   76MYC    C4513361   5.009   4.694  11.010
   76MYC    H8513362   4.950   4.612  11.054
   76MYC    H8613363   4.942   4.780  10.998
   76MYC    C4413364   5.122   4.735  11.106
   76MYC    H8313365   5.079   4.793  11.189
   76MYC    H8413366   5.190   4.803  11.054
   76MYC    C1813367   5.202   4.617  11.162
   76MYC    H3113368   5.211   4.534  11.092
   76MYC    C1713369   5.321   4.642  11.251
   76MYC    H3013370   5.341   4.745  11.278
   76MYC    C1913371   5.195   4.581  11.308
   76MYC    H3213372   5.134   4.644  11.374
   76MYC    H3313373   5.196   4.476  11.335
   76MYC    C1613374   5.449   4.559  11.239
   76MYC    H2813375   5.426   4.459  11.200
   76MYC    H2913376   5.488   4.543  11.340
   76MYC    C1513377   5.559   4.624  11.152
   76MYC    H2613378   5.651   4.566  11.162
   76MYC    H2713379   5.582   4.724  11.193
   76MYC    C1413380   5.523   4.634  11.001
   76MYC    H2413381   5.422   4.595  10.985
   76MYC    H2513382   5.589   4.568  10.944
   76MYC    C1313383   5.531   4.777  10.943
   76MYC    H2213384   5.636   4.801  10.922
   76MYC    H2313385   5.496   4.849  11.017
   76MYC    C1213386   5.447   4.793  10.815
   76MYC    H2013387   5.342   4.773  10.840
   76MYC    H2113388   5.477   4.718  10.741
   76MYC    C1113389   5.456   4.934  10.751
   76MYC    H1813390   5.556   4.947  10.709
   76MYC    H1913391   5.445   5.010  10.830
   76MYC    C1013392   5.351   4.962  10.641
   76MYC    H1613393   5.370   5.062  10.600
   76MYC    H1713394   5.251   4.966  10.686
   76MYC     C913395   5.350   4.860  10.526
   76MYC    H1413396   5.303   4.767  10.561
   76MYC    H1513397   5.454   4.835  10.501
   76MYC     C813398   5.278   4.908  10.398
   76MYC    H1213399   5.321   5.005  10.368
   76MYC    H1313400   5.172   4.925  10.418
   76MYC     C713401   5.293   4.808  10.281
   76MYC    H1013402   5.222   4.726  10.294
   76MYC    H1113403   5.393   4.764  10.285
   76MYC     C613404   5.275   4.870  10.140
   76MYC     H813405   5.340   4.957  10.132
   76MYC     H913406   5.172   4.906  10.127
   76MYC     C513407   5.310   4.769  10.027
   76MYC     H613408   5.222   4.708  10.004
   76MYC     H713409   5.386   4.699  10.065
   76MYC     C413410   5.367   4.831   9.897
   76MYC     H413411   5.450   4.767   9.864
   76MYC     H513412   5.413   4.929   9.919
   76MYC     C213413   5.267   4.844   9.780
   76MYC     H213414   5.221   4.745   9.766
   76MYC     O313415   5.166   4.939   9.813
   76MYC     H313416   5.181   4.968   9.904
   76MYC     C113417   5.338   4.882   9.646
   76MYC     H113418   5.414   4.804   9.632
   76MYC    C8113419   5.411   5.018   9.655
   76MYC    O8213420   5.356   5.125   9.663
   76MYC    O8313421   5.546   5.008   9.659
   76MYC   H10513422   5.577   5.100   9.671
   76MYC    C2013423   5.243   4.878   9.523
   76MYC    H3413424   5.165   4.803   9.542
   76MYC    H3513425   5.190   4.973   9.513
   76MYC    C2113426   5.313   4.839   9.390
   76MYC    H3613427   5.417   4.810   9.408
   76MYC    H3713428   5.264   4.749   9.352
   76MYC    C2213429   5.312   4.947   9.278
   76MYC    H3813430   5.215   4.998   9.277
   76MYC    H3913431   5.389   5.022   9.299
   76MYC    C2313432   5.335   4.882   9.140
   76MYC    H4013433   5.422   4.815   9.145
   76MYC    H4113434   5.249   4.819   9.117
   76MYC    C2413435   5.358   4.981   9.023
   76MYC    H4213436   5.292   5.068   9.035
   76MYC    H4313437   5.461   5.018   9.027
   76MYC    C2513438   5.330   4.916   8.886
   76MYC    H4413439   5.382   4.819   8.881
   76MYC    H4513440   5.223   4.894   8.879
   76MYC    C2613441   5.373   5.000   8.764
   76MYC    H4613442   5.333   5.102   8.773
   76MYC    H4713443   5.482   5.007   8.762
   76MYC    C2713444   5.323   4.938   8.631
   76MYC    H4813445   5.353   4.832   8.629
   76MYC    H4913446   5.214   4.940   8.630
   76MYC    C2813447   5.376   5.008   8.504
   76MYC    H5013448   5.347   5.114   8.505
   76MYC    H5113449   5.486   5.004   8.504
   76MYC    C2913450   5.322   4.941   8.376
   76MYC    H5213451   5.346   4.834   8.380
   76MYC    H5313452   5.213   4.948   8.376
   76MYC    C3013453   5.377   5.000   8.245
   76MYC    H5413454   5.351   5.106   8.238
   76MYC    H5513455   5.487   4.994   8.245
   76MYC    C3113456   5.323   4.925   8.122
   76MYC    H5613457   5.346   4.818   8.131
   76MYC    H5713458   5.213   4.933   8.121
   76MYC    C3213459   5.377   4.977   7.987
   76MYC    H5813460   5.348   5.083   7.975
   76MYC    H5913461   5.487   4.974   7.988
   76MYC    C3313462   5.324   4.896   7.867
   76MYC    H6013463   5.359   4.792   7.875
   76MYC    H6113464   5.214   4.893   7.871
   76MYC    C3413465   5.367   4.954   7.731
   76MYC    H6213466   5.326   5.055   7.722
   76MYC    H6313467   5.476   4.964   7.728
   76MYC    C3513468   5.320   4.869   7.611
   76MYC    H6413469   5.372   4.772   7.613
   76MYC    H6513470   5.213   4.848   7.621
   76MYC    C3613471   5.345   4.939   7.476
   76MYC    H6613472   5.284   5.031   7.472
   76MYC    H6713473   5.450   4.970   7.470
   76MYC    C3713474   5.312   4.851   7.354
   76MYC    H6813475   5.378   4.764   7.354
   76MYC    H6913476   5.209   4.814   7.362
   76MYC    C3813477   5.329   4.928   7.221
   76MYC    H7013478   5.255   5.009   7.217
   76MYC    H7113479   5.428   4.974   7.219
   76MYC    C3913480   5.312   4.838   7.097
   76MYC    H7213481   5.382   4.753   7.105
   76MYC    H7313482   5.211   4.796   7.096
   76MYC    C4013483   5.338   4.913   6.965
   76MYC    H7413484   5.263   4.992   6.952
   76MYC    H7513485   5.436   4.962   6.970
   76MYC    C4113486   5.336   4.819   6.842
   76MYC    H7613487   5.411   4.740   6.857
   76MYC    H7713488   5.238   4.770   6.837
   76MYC    C4213489   5.365   4.891   6.709
   76MYC    H7813490   5.287   4.967   6.692
   76MYC    H7913491   5.460   4.944   6.716
   76MYC    C4313492   5.369   4.795   6.589
   76MYC    H8013493   5.387   4.851   6.497
   76MYC    H8113494   5.274   4.741   6.579
   76MYC    H8213495   5.449   4.721   6.602
   77MYC   HH1513496   6.163   5.220   6.643
   77MYC    C8013497   6.157   5.166   6.738
   77MYC   H10013498   6.057   5.122   6.746
   77MYC   H10113499   6.230   5.084   6.736
   77MYC    C7913500   6.185   5.261   6.856
   77MYC   H10213501   6.108   5.340   6.857
   77MYC   H10313502   6.282   5.310   6.841
   77MYC    C7813503   6.186   5.188   6.992
   77MYC   HH1413504   6.269   5.116   6.993
   77MYC   H10413505   6.093   5.130   7.002
   77MYC    C7713506   6.199   5.283   7.113
   77MYC   H10613507   6.115   5.354   7.113
   77MYC   H10713508   6.291   5.342   7.104
   77MYC    C7613509   6.201   5.206   7.246
   77MYC   H10813510   6.290   5.143   7.248
   77MYC   H10913511   6.114   5.139   7.249
   77MYC    C7513512   6.198   5.296   7.371
   77MYC   H11013513   6.106   5.355   7.372
   77MYC   H11113514   6.283   5.366   7.368
   77MYC    C7413515   6.206   5.211   7.499
   77MYC   H11213516   6.301   5.156   7.499
   77MYC   H11313517   6.126   5.136   7.497
   77MYC    C7313518   6.195   5.291   7.630
   77MYC   HH1313519   6.096   5.339   7.635
   77MYC   H11413520   6.271   5.371   7.632
   77MYC    C7213521   6.214   5.199   7.752
   77MYC   H11513522   6.314   5.154   7.748
   77MYC   H11613523   6.142   5.117   7.746
   77MYC    C7113524   6.197   5.270   7.888
   77MYC   H11713525   6.095   5.310   7.894
   77MYC   H11813526   6.266   5.354   7.895
   77MYC    C7013527   6.221   5.172   8.005
   77MYC   H11913528   6.328   5.148   8.010
   77MYC   H12013529   6.168   5.079   7.985
   77MYC    C6913530   6.174   5.228   8.140
   77MYC   H12113531   6.067   5.251   8.132
   77MYC   H12213532   6.226   5.322   8.162
   77MYC    C6813533   6.197   5.129   8.256
   77MYC   HH1213534   6.302   5.134   8.287
   77MYC   H12313535   6.179   5.026   8.222
   77MYC    C6713536   6.104   5.157   8.376
   77MYC   H12413537   6.002   5.125   8.350
   77MYC   H12513538   6.101   5.265   8.395
   77MYC    C6613539   6.149   5.086   8.505
   77MYC   H12613540   6.250   5.119   8.529
   77MYC   H12713541   6.154   4.977   8.488
   77MYC    C6513542   6.055   5.115   8.624
   77MYC   H12813543   5.960   5.062   8.611
   77MYC   H12913544   6.033   5.222   8.627
   77MYC    C6413545   6.120   5.075   8.758
   77MYC   H13013546   6.218   5.123   8.764
   77MYC   H13113547   6.138   4.966   8.759
   77MYC    C6313548   6.038   5.115   8.881
   77MYC   HH1113549   5.948   5.052   8.889
   77MYC   H13213550   6.004   5.219   8.871
   77MYC    C6213551   6.122   5.102   9.009
   77MYC   H13313552   6.214   5.160   8.996
   77MYC   H13413553   6.153   4.997   9.022
   77MYC    C6113554   6.053   5.150   9.138
   77MYC   H13513555   5.967   5.085   9.160
   77MYC   H13613556   6.013   5.251   9.123
   77MYC    C6013557   6.152   5.151   9.252
   77MYC   H13713558   6.238   5.216   9.232
   77MYC    C5813559   6.112   5.139   9.397
   77MYC   H13813560   6.006   5.125   9.419
   77MYC    C5913561   6.182   5.024   9.327
   77MYC   H13913562   6.285   5.004   9.352
   77MYC   H14013563   6.122   4.936   9.305
   77MYC    C5713564   6.185   5.218   9.504
   77MYC   HH1013565   6.125   5.304   9.535
   77MYC   H14113566   6.279   5.258   9.465
   77MYC    C5613567   6.216   5.130   9.626
   77MYC   H14213568   6.279   5.046   9.594
   77MYC   H14313569   6.123   5.087   9.664
   77MYC    C5513570   6.287   5.204   9.740
   77MYC   H14413571   6.216   5.275   9.785
   77MYC   H14513572   6.371   5.263   9.700
   77MYC    C5413573   6.340   5.106   9.846
   77MYC   H14613574   6.435   5.063   9.811
   77MYC   H14713575   6.270   5.022   9.853
   77MYC    C5313576   6.360   5.168   9.986
   77MYC   H14813577   6.306   5.263   9.993
   77MYC   H14913578   0.017   5.192  10.001
   77MYC    C5213579   6.310   5.074  10.096
   77MYC    H9913580   6.372   4.983  10.099
   77MYC   H15013581   6.208   5.042  10.072
   77MYC    C5113582   6.309   5.140  10.235
   77MYC    H9713583   6.250   5.232  10.230
   77MYC    H9813584   6.411   5.167  10.262
   77MYC    C5013585   6.249   5.048  10.343
   77MYC    H9513586   6.312   4.958  10.353
   77MYC    H9613587   6.150   5.014  10.311
   77MYC    C4913588   6.238   5.118  10.479
   77MYC    H9313589   6.168   5.203  10.470
   77MYC    H9413590   6.335   5.161  10.505
   77MYC    C4813591   6.190   5.025  10.591
   77MYC    H9113592   6.256   4.937  10.595
   77MYC    H9213593   6.089   4.989  10.569
   77MYC    C4713594   6.191   5.095  10.728
   77MYC    H8913595   6.121   5.179  10.725
   77MYC    H9013596   6.291   5.136  10.745
   77MYC    C4613597   6.156   5.001  10.845
   77MYC    H8713598   6.226   4.918  10.846
   77MYC    H8813599   6.056   4.959  10.828
   77MYC    C4513600   6.158   5.073  10.982
   77MYC    H8513601   6.075   5.144  10.986
   77MYC    H8613602   6.250   5.131  10.990
   77MYC    C4413603   6.150   4.978  11.103
   77MYC    H8313604   6.142   5.040  11.193
   77MYC    H8413605   6.244   4.923  11.112
   77MYC    C1813606   6.032   4.881  11.102
   77MYC    H3113607   5.946   4.919  11.046
   77MYC    C1713608   6.054   4.731  11.100
   77MYC    H3013609   6.156   4.696  11.106
   77MYC    C1913610   5.999   4.798  11.224
   77MYC    H3213611   6.064   4.808  11.310
   77MYC    H3313612   5.894   4.782  11.247
   77MYC    C1613613   5.965   4.641  11.016
   77MYC    H2813614   5.862   4.680  11.017
   77MYC    H2913615   5.960   4.541  11.060
   77MYC    C1513616   6.013   4.628  10.870
   77MYC    H2613617   6.099   4.560  10.865
   77MYC    H2713618   6.049   4.726  10.835
   77MYC    C1413619   5.901   4.581  10.775
   77MYC    H2413620   5.820   4.655  10.776
   77MYC    H2513621   5.859   4.486  10.812
   77MYC    C1313622   5.950   4.561  10.630
   77MYC    H2213623   6.014   4.471  10.626
   77MYC    H2313624   6.013   4.646  10.603
   77MYC    C1213625   5.835   4.548  10.527
   77MYC    H2013626   5.786   4.646  10.518
   77MYC    H2113627   5.760   4.479  10.566
   77MYC    C1113628   5.879   4.500  10.387
   77MYC    H1813629   5.797   4.519  10.316
   77MYC    H1913630   5.889   4.391  10.390
   77MYC    C1013631   6.011   4.561  10.332
   77MYC    H1613632   6.042   4.504  10.243
   77MYC    H1713633   6.092   4.548  10.404
   77MYC     C913634   6.000   4.710  10.293
   77MYC    H1413635   6.098   4.757  10.302
   77MYC    H1513636   5.934   4.762  10.363
   77MYC     C813637   5.948   4.728  10.149
   77MYC    H1213638   5.860   4.665  10.133
   77MYC    H1313639   6.026   4.693  10.080
   77MYC     C713640   5.913   4.873  10.114
   77MYC    H1013641   6.005   4.933  10.111
   77MYC    H1113642   5.851   4.915  10.195
   77MYC     C613643   5.835   4.888   9.982
   77MYC     H813644   5.807   4.992   9.969
   77MYC     H913645   5.741   4.832   9.990
   77MYC     C513646   5.911   4.839   9.856
   77MYC     H613647   5.929   4.732   9.864
   77MYC     H713648   6.009   4.889   9.850
   77MYC     C413649   5.831   4.870   9.727
   77MYC     H413650   5.837   4.978   9.708
   77MYC     H513651   5.726   4.849   9.748
   77MYC     C213652   5.872   4.796   9.596
   77MYC     H213653   5.872   4.871   9.517
   77MYC     O313654   6.003   4.740   9.607
   77MYC     H313655   5.999   4.664   9.667
   77MYC     C113656   5.768   4.686   9.555
   77MYC     H113657   5.672   4.737   9.544
   77MYC    C8113658   5.747   4.579   9.665
   77MYC    O8213659   5.835   4.506   9.707
   77MYC    O8313660   5.619   4.567   9.706
   77MYC   H10513661   5.618   4.494   9.770
   77MYC    C2013662   5.796   4.621   9.417
   77MYC    H3413663   5.901   4.591   9.410
   77MYC    H3513664   5.737   4.528   9.409
   77MYC    C2113665   5.759   4.712   9.298
   77MYC    H3613666   5.652   4.735   9.303
   77MYC    H3713667   5.813   4.807   9.306
   77MYC    C2213668   5.790   4.648   9.161
   77MYC    H3813669   5.898   4.634   9.152
   77MYC    H3913670   5.743   4.549   9.156
   77MYC    C2313671   5.739   4.734   9.043
   77MYC    H4013672   5.631   4.748   9.052
   77MYC    H4113673   5.786   4.833   9.046
   77MYC    C2413674   5.769   4.668   8.907
   77MYC    H4213675   5.878   4.658   8.894
   77MYC    H4313676   5.728   4.566   8.907
   77MYC    C2513677   5.711   4.745   8.786
   77MYC    H4413678   5.604   4.762   8.802
   77MYC    H4513679   5.760   4.843   8.779
   77MYC    C2613680   5.731   4.667   8.655
   77MYC    H4613681   5.838   4.646   8.642
   77MYC    H4713682   5.681   4.570   8.664
   77MYC    C2713683   5.678   4.739   8.530
   77MYC    H4813684   5.571   4.761   8.542
   77MYC    H4913685   5.730   4.834   8.518
   77MYC    C2813686   5.697   4.653   8.403
   77MYC    H5013687   5.802   4.620   8.398
   77MYC    H5113688   5.635   4.562   8.412
   77MYC    C2913689   5.661   4.725   8.272
   77MYC    H5213690   5.554   4.750   8.272
   77MYC    H5313691   5.717   4.819   8.266
   77MYC    C3013692   5.693   4.639   8.148
   77MYC    H5413693   5.800   4.613   8.149
   77MYC    H5513694   5.637   4.545   8.154
   77MYC    C3113695   5.660   4.710   8.016
   77MYC    H5613696   5.552   4.732   8.014
   77MYC    H5713697   5.713   4.806   8.011
   77MYC    C3213698   5.695   4.626   7.891
   77MYC    H5813699   5.801   4.597   7.896
   77MYC    H5913700   5.636   4.534   7.891
   77MYC    C3313701   5.670   4.703   7.760
   77MYC    H6013702   5.565   4.736   7.758
   77MYC    H6113703   5.731   4.794   7.761
   77MYC    C3413704   5.698   4.622   7.633
   77MYC    H6213705   5.797   4.575   7.641
   77MYC    H6313706   5.625   4.541   7.623
   77MYC    C3513707   5.695   4.711   7.507
   77MYC    H6413708   5.600   4.764   7.501
   77MYC    H6513709   5.773   4.788   7.517
   77MYC    C3613710   5.718   4.634   7.375
   77MYC    H6613711   5.807   4.571   7.385
   77MYC    H6713712   5.633   4.566   7.357
   77MYC    C3713713   5.735   4.728   7.254
   77MYC    H6813714   5.644   4.786   7.239
   77MYC    H6913715   5.815   4.800   7.278
   77MYC    C3813716   5.772   4.654   7.124
   77MYC    H7013717   5.857   4.588   7.144
   77MYC    H7113718   5.688   4.590   7.094
   77MYC    C3913719   5.808   4.750   7.009
   77MYC    H7213720   5.720   4.808   6.981
   77MYC    H7313721   5.883   4.822   7.045
   77MYC    C4013722   5.866   4.678   6.885
   77MYC    H7413723   5.954   4.620   6.916
   77MYC    H7513724   5.792   4.607   6.847
   77MYC    C4113725   5.906   4.776   6.773
   77MYC    H7613726   5.816   4.827   6.735
   77MYC    H7713727   5.972   4.854   6.814
   77MYC    C4213728   5.979   4.708   6.655
   77MYC    H7813729   6.070   4.660   6.692
   77MYC    H7913730   5.915   4.628   6.614
   77MYC    C4313731   6.015   4.806   6.542
   77MYC    H8013732   6.073   4.755   6.464
   77MYC    H8113733   6.076   4.889   6.581
   77MYC    H8213734   5.925   4.847   6.496
   78MYC   HH1513735   0.225   5.346   6.651
   78MYC    C8013736   0.209   5.406   6.741
   78MYC   H10013737   0.295   5.472   6.754
   78MYC   H10113738   0.119   5.468   6.725
   78MYC    C7913739   0.191   5.315   6.864
   78MYC   H10213740   0.279   5.250   6.872
   78MYC   H10313741   0.104   5.249   6.848
   78MYC    C7813742   0.172   5.393   6.995
   78MYC   HH1413743   0.080   5.452   6.990
   78MYC   H10413744   0.255   5.464   7.007
   78MYC    C7713745   0.166   5.302   7.120
   78MYC   H10613746   0.254   5.236   7.120
   78MYC   H10713747   0.078   5.237   7.113
   78MYC    C7613748   0.162   5.380   7.252
   78MYC   H10813749   0.074   5.445   7.254
   78MYC   H10913750   0.250   5.446   7.257
   78MYC    C7513751   0.161   5.289   7.377
   78MYC   H11013752   0.244   5.218   7.370
   78MYC   H11113753   0.068   5.230   7.377
   78MYC    C7413754   0.172   5.367   7.509
   78MYC   H11213755   0.092   5.443   7.514
   78MYC   H11313756   0.268   5.421   7.511
   78MYC    C7313757   0.164   5.276   7.633
   78MYC   HH1313758   0.244   5.201   7.628
   78MYC   H11413759   0.069   5.222   7.631
   78MYC    C7213760   0.174   5.354   7.766
   78MYC   H11513761   0.092   5.425   7.773
   78MYC   H11613762   0.268   5.412   7.767
   78MYC    C7113763   0.171   5.261   7.889
   78MYC   H11713764   0.257   5.193   7.884
   78MYC   H11813765   0.081   5.198   7.885
   78MYC    C7013766   0.174   5.336   8.023
   78MYC   H11913767   0.084   5.399   8.032
   78MYC   H12013768   0.261   5.404   8.025
   78MYC    C6913769   0.183   5.241   8.144
   78MYC   H12113770   0.270   5.176   8.131
   78MYC   H12213771   0.094   5.177   8.146
   78MYC    C6813772   0.195   5.314   8.279
   78MYC   HH1213773   0.104   5.372   8.298
   78MYC   H12313774   0.278   5.385   8.273
   78MYC    C6713775   0.220   5.217   8.397
   78MYC   H12413776   0.307   5.154   8.373
   78MYC   H12513777   0.134   5.150   8.408
   78MYC    C6613778   0.247   5.290   8.529
   78MYC   H12613779   0.157   5.345   8.559
   78MYC   H12713780   0.326   5.364   8.514
   78MYC    C6513781   0.290   5.195   8.643
   78MYC   H12813782   0.380   5.141   8.613
   78MYC   H12913783   0.211   5.121   8.661
   78MYC    C6413784   0.318   5.272   8.774
   78MYC   H13013785   0.225   5.322   8.806
   78MYC   H13113786   0.392   5.351   8.755
   78MYC    C6313787   0.369   5.183   8.889
   78MYC   HH1113788   0.466   5.141   8.862
   78MYC   H13213789   0.300   5.099   8.903
   78MYC    C6213790   0.381   5.262   9.021
   78MYC   H13313791   0.282   5.302   9.047
   78MYC   H13413792   0.448   5.347   9.006
   78MYC    C6113793   0.432   5.176   9.138
   78MYC   H13513794   0.536   5.147   9.118
   78MYC   H13613795   0.374   5.084   9.144
   78MYC    C6013796   0.422   5.250   9.271
   78MYC   H13713797   0.320   5.275   9.297
   78MYC    C5813798   0.513   5.212   9.385
   78MYC   H13813799   0.590   5.138   9.364
   78MYC    C5913800   0.529   5.347   9.317
   78MYC   H13913801   0.496   5.436   9.371
   78MYC   H14013802   0.615   5.361   9.254
   78MYC    C5713803   0.458   5.199   9.527
   78MYC   HH1013804   0.406   5.104   9.536
   78MYC   H14113805   0.385   5.278   9.546
   78MYC    C5613806   0.570   5.207   9.632
   78MYC   H14213807   0.616   5.306   9.629
   78MYC   H14313808   0.648   5.134   9.607
   78MYC    C5513809   0.520   5.179   9.776
   78MYC   H14413810   0.483   5.076   9.782
   78MYC   H14513811   0.436   5.245   9.799
   78MYC    C5413812   0.632   5.200   9.880
   78MYC   H14613813   0.665   5.304   9.875
   78MYC   H14713814   0.718   5.137   9.855
   78MYC    C5313815   0.587   5.168  10.024
   78MYC   H14813816   0.579   5.060  10.036
   78MYC   H14913817   0.488   5.211  10.042
   78MYC    C5213818   0.686   5.224  10.129
   78MYC    H9913819   0.688   5.334  10.120
   78MYC   H15013820   0.787   5.188  10.108
   78MYC    C5113821   0.647   5.186  10.273
   78MYC    H9713822   0.668   5.079  10.288
   78MYC    H9813823   0.539   5.200  10.287
   78MYC    C5013824   0.722   5.268  10.380
   78MYC    H9513825   0.693   5.374  10.370
   78MYC    H9613826   0.830   5.263  10.364
   78MYC    C4913827   0.688   5.219  10.522
   78MYC    H9313828   0.728   5.118  10.535
   78MYC    H9413829   0.579   5.210  10.531
   78MYC    C4813830   0.739   5.310  10.637
   78MYC    H9113831   0.706   5.413  10.620
   78MYC    H9213832   0.849   5.310  10.639
   78MYC    C4713833   0.685   5.261  10.772
   78MYC    H8913834   0.711   5.155  10.784
   78MYC    H9013835   0.576   5.267  10.767
   78MYC    C4613836   0.734   5.338  10.896
   78MYC    H8713837   0.727   5.446  10.878
   78MYC    H8813838   0.841   5.315  10.910
   78MYC    C4513839   0.657   5.300  11.026
   78MYC    H8513840   0.710   5.343  11.112
   78MYC    H8613841   0.661   5.192  11.039
   78MYC    C4413842   0.509   5.345  11.032
   78MYC    H8313843   0.463   5.300  11.120
   78MYC    H8413844   0.454   5.306  10.946
   78MYC    C1813845   0.491   5.497  11.038
   78MYC    H3113846   0.539   5.548  10.956
   78MYC    C1713847   0.363   5.560  11.087
   78MYC    H3013848   0.285   5.494  11.123
   78MYC    C1913849   0.488   5.566  11.172
   78MYC    H3213850   0.491   5.506  11.262
   78MYC    H3313851   0.539   5.662  11.180
   78MYC    C1613852   0.309   5.690  11.027
   78MYC    H2813853   0.388   5.740  10.968
   78MYC    H2913854   0.285   5.759  11.109
   78MYC    C1513855   0.183   5.674  10.940
   78MYC    H2613856   0.148   5.775  10.913
   78MYC    H2713857   0.104   5.627  10.998
   78MYC    C1413858   0.205   5.594  10.810
   78MYC    H2413859   0.230   5.490  10.835
   78MYC    H2513860   0.292   5.634  10.757
   78MYC    C1313861   0.082   5.598  10.717
   78MYC    H2213862   0.060   5.703  10.691
   78MYC    H2313863   6.445   5.560  10.770
   78MYC    C1213864   0.101   5.519  10.586
   78MYC    H2013865   0.115   5.414  10.610
   78MYC    H2113866   0.192   5.555  10.536
   78MYC    C1113867   6.430   5.531  10.490
   78MYC    H1813868   6.410   5.637  10.469
   78MYC    H1913869   6.341   5.491  10.539
   78MYC    C1013870   0.001   5.457  10.356
   78MYC    H1613871   6.356   5.459  10.300
   78MYC    H1713872   0.021   5.351  10.377
   78MYC     C913873   0.113   5.516  10.267
   78MYC    H1413874   0.145   5.613  10.307
   78MYC    H1513875   0.071   5.537  10.168
   78MYC     C813876   0.237   5.424  10.250
   78MYC    H1213877   0.210   5.340  10.186
   78MYC    H1313878   0.264   5.381  10.347
   78MYC     C713879   0.362   5.495  10.193
   78MYC    H1013880   0.437   5.420  10.166
   78MYC    H1113881   0.407   5.556  10.273
   78MYC     C613882   0.337   5.588  10.071
   78MYC     H813883   0.433   5.632  10.041
   78MYC     H913884   0.274   5.672  10.102
   78MYC     C513885   0.274   5.519   9.948
   78MYC     H613886   0.185   5.463   9.977
   78MYC     H713887   0.346   5.446   9.907
   78MYC     C413888   0.237   5.621   9.839
   78MYC     H413889   0.327   5.679   9.814
   78MYC     H513890   0.164   5.692   9.879
   78MYC     C213891   0.182   5.558   9.710
   78MYC     H213892   0.252   5.479   9.680
   78MYC     O313893   0.054   5.498   9.735
   78MYC     H313894   6.436   5.566   9.720
   78MYC     C113895   0.172   5.660   9.594
   78MYC     H113896   0.270   5.709   9.589
   78MYC    C8113897   0.066   5.770   9.619
   78MYC    O8213898   6.396   5.750   9.624
   78MYC    O8313899   0.118   5.895   9.634
   78MYC   H10513900   0.041   5.953   9.647
   78MYC    C2013901   0.150   5.591   9.457
   78MYC    H3413902   0.208   5.499   9.453
   78MYC    H3513903   0.044   5.563   9.446
   78MYC    C2113904   0.192   5.681   9.339
   78MYC    H3613905   0.138   5.776   9.343
   78MYC    H3713906   0.299   5.704   9.348
   78MYC    C2213907   0.167   5.614   9.203
   78MYC    H3813908   0.214   5.515   9.202
   78MYC    H3913909   0.059   5.599   9.190
   78MYC    C2313910   0.222   5.697   9.086
   78MYC    H4013911   0.178   5.797   9.089
   78MYC    H4113912   0.331   5.708   9.097
   78MYC    C2413913   0.190   5.631   8.951
   78MYC    H4213914   0.238   5.532   8.947
   78MYC    H4313915   0.082   5.615   8.945
   78MYC    C2513916   0.236   5.715   8.831
   78MYC    H4413917   0.190   5.814   8.837
   78MYC    H4513918   0.345   5.728   8.834
   78MYC    C2613919   0.195   5.648   8.699
   78MYC    H4613920   0.253   5.556   8.685
   78MYC    H4713921   0.089   5.619   8.704
   78MYC    C2713922   0.214   5.739   8.577
   78MYC    H4813923   0.161   5.834   8.594
   78MYC    H4913924   0.321   5.763   8.565
   78MYC    C2813925   0.161   5.674   8.449
   78MYC    H5013926   0.220   5.584   8.426
   78MYC    H5113927   0.057   5.641   8.466
   78MYC    C2913928   0.163   5.768   8.328
   78MYC    H5213929   0.106   5.859   8.352
   78MYC    H5313930   0.266   5.799   8.308
   78MYC    C3013931   0.103   5.702   8.203
   78MYC    H5413932   0.157   5.610   8.182
   78MYC    H5513933   6.448   5.675   8.224
   78MYC    C3113934   0.107   5.793   8.079
   78MYC    H5613935   0.057   5.888   8.102
   78MYC    H5713936   0.212   5.816   8.055
   78MYC    C3213937   0.039   5.727   7.959
   78MYC    H5813938   0.087   5.629   7.941
   78MYC    H5913939   6.384   5.707   7.983
   78MYC    C3313940   0.048   5.810   7.830
   78MYC    H6013941   0.007   5.910   7.848
   78MYC    H6113942   0.153   5.823   7.803
   78MYC    C3413943   6.421   5.743   7.715
   78MYC    H6213944   0.001   5.637   7.710
   78MYC    H6313945   6.314   5.745   7.737
   78MYC    C3513946   6.447   5.807   7.578
   78MYC    H6413947   6.417   5.913   7.580
   78MYC    H6513948   0.105   5.805   7.557
   78MYC    C3613949   6.371   5.734   7.466
   78MYC    H6613950   6.390   5.626   7.474
   78MYC    H6713951   6.263   5.749   7.480
   78MYC    C3713952   6.412   5.780   7.325
   78MYC    H6813953   6.398   5.889   7.317
   78MYC    H6913954   0.069   5.761   7.311
   78MYC    C3813955   6.331   5.709   7.215
   78MYC    H7013956   6.335   5.601   7.232
   78MYC    H7113957   6.226   5.739   7.224
   78MYC    C3913958   6.383   5.740   7.074
   78MYC    H7213959   6.386   5.849   7.060
   78MYC    H7313960   0.036   5.703   7.064
   78MYC    C4013961   6.295   5.677   6.964
   78MYC    H7413962   6.287   5.569   6.982
   78MYC    H7513963   6.194   5.719   6.971
   78MYC    C4113964   6.351   5.701   6.822
   78MYC    H7613965   6.360   5.809   6.805
   78MYC    H7713966   0.002   5.659   6.816
   78MYC    C4213967   6.263   5.640   6.712
   78MYC    H7813968   6.252   5.532   6.730
   78MYC    H7913969   6.162   5.684   6.717
   78MYC    C4313970   6.320   5.660   6.571
   78MYC    H8013971   6.255   5.614   6.496
   78MYC    H8113972   6.419   5.614   6.562
   78MYC    H8213973   6.329   5.767   6.548
   79MYC   HH1513974   1.210   5.583   6.637
   79MYC    C8013975   1.165   5.589   6.737
   79MYC   H10013976   1.166   5.693   6.769
   79MYC   H10113977   1.062   5.554   6.730
   79MYC    C7913978   1.245   5.501   6.835
   79MYC   H10213979   1.351   5.532   6.832
   79MYC   H10313980   1.242   5.397   6.801
   79MYC    C7813981   1.194   5.509   6.980
   79MYC   HH1413982   1.094   5.465   6.986
   79MYC   H10413983   1.185   5.614   7.010
   79MYC    C7713984   1.289   5.437   7.078
   79MYC   H10613985   1.386   5.488   7.077
   79MYC   H10713986   1.306   5.334   7.044
   79MYC    C7613987   1.237   5.432   7.223
   79MYC   H10813988   1.160   5.354   7.231
   79MYC   H10913989   1.189   5.527   7.249
   79MYC    C7513990   1.350   5.404   7.325
   79MYC   H11013991   1.411   5.495   7.334
   79MYC   H11113992   1.415   5.325   7.288
   79MYC    C7413993   1.296   5.365   7.464
   79MYC   H11213994   1.258   5.262   7.459
   79MYC   H11313995   1.212   5.430   7.489
   79MYC    C7313996   1.402   5.376   7.575
   79MYC   HH1313997   1.437   5.480   7.580
   79MYC   H11413998   1.490   5.314   7.551
   79MYC    C7213999   1.345   5.334   7.712
   79MYC   H11514000   1.344   5.225   7.718
   79MYC   H11614001   1.241   5.367   7.718
   79MYC    C7114002   1.422   5.392   7.831
   79MYC   H11714003   1.436   5.500   7.817
   79MYC   H11814004   1.522   5.347   7.837
   79MYC    C7014005   1.346   5.369   7.963
   79MYC   H11914006   1.328   5.262   7.976
   79MYC   H12014007   1.247   5.417   7.956
   79MYC    C6914008   1.419   5.424   8.086
   79MYC   H12114009   1.441   5.530   8.073
   79MYC   H12214010   1.515   5.371   8.096
   79MYC    C6814011   1.336   5.405   8.214
   79MYC   HH1214012   1.302   5.300   8.220
   79MYC   H12314013   1.246   5.467   8.209
   79MYC    C6714014   1.415   5.438   8.341
   79MYC   H12414015   1.442   5.545   8.341
   79MYC   H12514016   1.509   5.382   8.341
   79MYC    C6614017   1.337   5.405   8.469
   79MYC   H12614018   1.304   5.300   8.465
   79MYC   H12714019   1.247   5.467   8.474
   79MYC    C6514020   1.422   5.425   8.595
   79MYC   H12814021   1.456   5.529   8.600
   79MYC   H12914022   1.512   5.362   8.589
   79MYC    C6414023   1.346   5.390   8.723
   79MYC   H13014024   1.312   5.285   8.720
   79MYC   H13114025   1.256   5.452   8.730
   79MYC    C6314026   1.432   5.412   8.849
   79MYC   HH1114027   1.469   5.515   8.849
   79MYC   H13214028   1.519   5.345   8.845
   79MYC    C6214029   1.354   5.386   8.978
   79MYC   H13314030   1.323   5.281   8.983
   79MYC   H13414031   1.262   5.447   8.978
   79MYC    C6114032   1.437   5.421   9.102
   79MYC   H13514033   1.469   5.525   9.096
   79MYC   H13614034   1.528   5.360   9.103
   79MYC    C6014035   1.360   5.398   9.230
   79MYC   H13714036   1.336   5.293   9.247
   79MYC    C5814037   1.391   5.481   9.352
   79MYC   H13814038   1.462   5.562   9.339
   79MYC    C5914039   1.258   5.497   9.282
   79MYC   H13914040   1.169   5.459   9.331
   79MYC   H14014041   1.242   5.588   9.225
   79MYC    C5714042   1.403   5.415   9.488
   79MYC   HH1014043   1.508   5.390   9.506
   79MYC   H14114044   1.346   5.321   9.491
   79MYC    C5614045   1.352   5.508   9.598
   79MYC   H14214046   1.243   5.518   9.591
   79MYC   H14314047   1.394   5.609   9.583
   79MYC    C5514048   1.391   5.460   9.738
   79MYC   H14414049   1.500   5.448   9.742
   79MYC   H14514050   1.347   5.362   9.758
   79MYC    C5414051   1.347   5.559   9.847
   79MYC   H14614052   1.237   5.557   9.856
   79MYC   H14714053   1.374   5.661   9.817
   79MYC    C5314054   1.411   5.529   9.983
   79MYC   H14814055   1.520   5.527   9.973
   79MYC   H14914056   1.381   5.428  10.015
   79MYC    C5214057   1.372   5.631  10.090
   79MYC    H9914058   1.264   5.622  10.110
   79MYC   H15014059   1.390   5.733  10.054
   79MYC    C5114060   1.451   5.609  10.220
   79MYC    H9714061   1.553   5.649  10.208
   79MYC    H9814062   1.461   5.501  10.237
   79MYC    C5014063   1.383   5.672  10.342
   79MYC    H9514064   1.278   5.640  10.344
   79MYC    H9614065   1.382   5.781  10.332
   79MYC    C4914066   1.453   5.630  10.474
   79MYC    H9314067   1.533   5.701  10.498
   79MYC    H9414068   1.501   5.533  10.458
   79MYC    C4814069   1.355   5.618  10.592
   79MYC    H9114070   1.260   5.576  10.558
   79MYC    H9214071   1.333   5.717  10.633
   79MYC    C4714072   1.411   5.526  10.703
   79MYC    H8914073   1.499   5.573  10.748
   79MYC    H9014074   1.444   5.431  10.658
   79MYC    C4614075   1.307   5.494  10.811
   79MYC    H8714076   1.220   5.444  10.766
   79MYC    H8814077   1.272   5.588  10.854
   79MYC    C4514078   1.364   5.406  10.923
   79MYC    H8514079   1.459   5.449  10.956
   79MYC    H8614080   1.386   5.307  10.882
   79MYC    C4414081   1.271   5.391  11.045
   79MYC    H8314082   1.303   5.302  11.100
   79MYC    H8414083   1.169   5.372  11.012
   79MYC    C1814084   1.277   5.511  11.141
   79MYC    H3114085   1.377   5.526  11.180
   79MYC    C1714086   1.193   5.634  11.119
   79MYC    H3014087   1.122   5.631  11.036
   79MYC    C1914088   1.164   5.542  11.235
   79MYC    H3214089   1.075   5.479  11.229
   79MYC    H3314090   1.190   5.575  11.335
   79MYC    C1614091   1.255   5.773  11.140
   79MYC    H2814092   1.358   5.773  11.102
   79MYC    H2914093   1.262   5.795  11.247
   79MYC    C1514094   1.177   5.888  11.071
   79MYC    H2614095   1.212   5.984  11.109
   79MYC    H2714096   1.071   5.880  11.099
   79MYC    C1414097   1.192   5.887  10.917
   79MYC    H2414098   1.199   5.784  10.883
   79MYC    H2514099   1.287   5.935  10.889
   79MYC    C1314100   1.077   5.953  10.840
   79MYC    H2214101   1.087   6.063  10.844
   79MYC    H2314102   0.982   5.927  10.888
   79MYC    C1214103   1.071   5.905  10.693
   79MYC    H2014104   1.071   5.796  10.691
   79MYC    H2114105   1.162   5.938  10.640
   79MYC    C1114106   0.946   5.955  10.618
   79MYC    H1814107   0.952   6.064  10.606
   79MYC    H1914108   0.858   5.933  10.679
   79MYC    C1014109   0.926   5.888  10.480
   79MYC    H1614110   0.824   5.907  10.445
   79MYC    H1714111   0.934   5.779  10.491
   79MYC     C914112   1.024   5.935  10.371
   79MYC    H1414113   1.127   5.914  10.402
   79MYC    H1514114   1.015   6.044  10.358
   79MYC     C814115   0.998   5.866  10.235
   79MYC    H1214116   0.896   5.891  10.203
   79MYC    H1314117   1.002   5.757  10.249
   79MYC     C714118   1.099   5.907  10.126
   79MYC    H1014119   1.200   5.882  10.160
   79MYC    H1114120   1.096   6.015  10.113
   79MYC     C614121   1.074   5.839   9.989
   79MYC     H814122   1.064   5.731  10.003
   79MYC     H914123   1.163   5.854   9.927
   79MYC     C514124   0.950   5.894   9.916
   79MYC     H614125   0.957   6.003   9.908
   79MYC     H714126   0.861   5.873   9.977
   79MYC     C414127   0.924   5.836   9.775
   79MYC     H414128   0.824   5.870   9.745
   79MYC     H514129   0.919   5.727   9.781
   79MYC     C214130   1.026   5.879   9.666
   79MYC     H214131   1.058   5.982   9.686
   79MYC     O314132   1.141   5.793   9.671
   79MYC     H314133   1.113   5.705   9.640
   79MYC     C114134   0.964   5.876   9.523
   79MYC     H114135   0.891   5.958   9.521
   79MYC    C8114136   0.885   5.746   9.497
   79MYC    O8214137   0.935   5.635   9.494
   79MYC    O8314138   0.753   5.764   9.473
   79MYC   H10514139   0.717   5.676   9.455
   79MYC    C2014140   1.064   5.906   9.409
   79MYC    H3414141   1.110   6.005   9.426
   79MYC    H3514142   1.145   5.833   9.411
   79MYC    C2114143   0.999   5.903   9.268
   79MYC    H3614144   0.959   5.803   9.249
   79MYC    H3714145   0.915   5.973   9.265
   79MYC    C2214146   1.097   5.938   9.155
   79MYC    H3814147   1.129   6.042   9.166
   79MYC    H3914148   1.187   5.875   9.165
   79MYC    C2314149   1.036   5.916   9.015
   79MYC    H4014150   1.001   5.813   9.006
   79MYC    H4114151   0.949   5.981   9.002
   79MYC    C2414152   1.139   5.943   8.904
   79MYC    H4214153   1.171   6.048   8.910
   79MYC    H4314154   1.228   5.882   8.922
   79MYC    C2514155   1.088   5.915   8.761
   79MYC    H4414156   1.046   5.813   8.756
   79MYC    H4514157   1.006   5.984   8.736
   79MYC    C2614158   1.202   5.928   8.659
   79MYC    H4614159   1.254   6.023   8.675
   79MYC    H4714160   1.276   5.848   8.679
   79MYC    C2714161   1.160   5.922   8.511
   79MYC    H4814162   1.090   5.839   8.496
   79MYC    H4914163   1.106   6.015   8.487
   79MYC    C2814164   1.282   5.905   8.418
   79MYC    H5014165   1.364   5.967   8.455
   79MYC    H5114166   1.317   5.801   8.424
   79MYC    C2914167   1.256   5.943   8.272
   79MYC    H5214168   1.219   6.047   8.268
   79MYC    H5314169   1.352   5.942   8.218
   79MYC    C3014170   1.157   5.851   8.198
   79MYC    H5414171   1.198   5.749   8.194
   79MYC    H5514172   1.062   5.846   8.253
   79MYC    C3114173   1.129   5.902   8.055
   79MYC    H5614174   1.084   6.002   8.061
   79MYC    H5714175   1.225   5.914   8.003
   79MYC    C3214176   1.038   5.810   7.972
   79MYC    H5814177   1.083   5.710   7.966
   79MYC    H5914178   0.941   5.799   8.022
   79MYC    C3314179   1.018   5.866   7.830
   79MYC    H6014180   0.977   5.968   7.837
   79MYC    H6114181   1.116   5.875   7.782
   79MYC    C3414182   0.926   5.781   7.740
   79MYC    H6214183   0.955   5.675   7.747
   79MYC    H6314184   0.822   5.789   7.775
   79MYC    C3514185   0.936   5.826   7.593
   79MYC    H6414186   0.921   5.934   7.587
   79MYC    H6514187   1.039   5.807   7.559
   79MYC    C3614188   0.838   5.756   7.497
   79MYC    H6614189   0.828   5.650   7.524
   79MYC    H6714190   0.738   5.801   7.508
   79MYC    C3714191   0.886   5.768   7.351
   79MYC    H6814192   0.919   5.870   7.332
   79MYC    H6914193   0.974   5.703   7.339
   79MYC    C3814194   0.780   5.730   7.246
   79MYC    H7014195   0.729   5.638   7.276
   79MYC    H7114196   0.705   5.809   7.241
   79MYC    C3914197   0.844   5.708   7.107
   79MYC    H7214198   0.915   5.789   7.087
   79MYC    H7314199   0.902   5.615   7.110
   79MYC    C4014200   0.742   5.702   6.992
   79MYC    H7414201   0.654   5.645   7.023
   79MYC    H7514202   0.708   5.804   6.969
   79MYC    C4114203   0.802   5.638   6.865
   79MYC    H7614204   0.899   5.684   6.843
   79MYC    H7714205   0.821   5.532   6.886
   79MYC    C4214206   0.711   5.650   6.741
   79MYC    H7814207   0.608   5.627   6.768
   79MYC    H7914208   0.713   5.754   6.706
   79MYC    C4314209   0.755   5.558   6.625
   79MYC    H8014210   0.693   5.576   6.537
   79MYC    H8114211   0.744   5.453   6.654
   79MYC    H8214212   0.859   5.576   6.598
   80MYC   HH1514213   2.389   5.253   6.635
   80MYC    C8014214   2.338   5.218   6.726
   80MYC   H10014215   2.230   5.225   6.710
   80MYC   H10114216   2.363   5.112   6.741
   80MYC    C7914217   2.380   5.302   6.848
   80MYC   H10214218   2.352   5.406   6.831
   80MYC   H10314219   2.490   5.299   6.857
   80MYC    C7814220   2.317   5.251   6.979
   80MYC   HH1414221   2.344   5.146   6.993
   80MYC   H10414222   2.207   5.255   6.969
   80MYC    C7714223   2.359   5.331   7.103
   80MYC   H10614224   2.329   5.436   7.091
   80MYC   H10714225   2.468   5.329   7.112
   80MYC    C7614226   2.296   5.274   7.231
   80MYC   H10814227   2.326   5.170   7.243
   80MYC   H10914228   2.187   5.275   7.221
   80MYC    C7514229   2.335   5.351   7.359
   80MYC   H11014230   2.305   5.456   7.349
   80MYC   H11114231   2.444   5.349   7.370
   80MYC    C7414232   2.270   5.290   7.484
   80MYC   H11214233   2.300   5.185   7.493
   80MYC   H11314234   2.161   5.291   7.471
   80MYC    C7314235   2.306   5.364   7.613
   80MYC   HH1314236   2.277   5.470   7.605
   80MYC   H11414237   2.415   5.362   7.627
   80MYC    C7214238   2.238   5.302   7.736
   80MYC   H11514239   2.269   5.197   7.745
   80MYC   H11614240   2.130   5.303   7.722
   80MYC    C7114241   2.274   5.375   7.866
   80MYC   H11714242   2.247   5.481   7.857
   80MYC   H11814243   2.382   5.371   7.881
   80MYC    C7014244   2.203   5.315   7.988
   80MYC   H11914245   2.225   5.207   7.992
   80MYC   H12014246   2.095   5.325   7.977
   80MYC    C6914247   2.248   5.379   8.120
   80MYC   H12114248   2.226   5.487   8.118
   80MYC   H12214249   2.357   5.369   8.129
   80MYC    C6814250   2.180   5.315   8.241
   80MYC   HH1214251   2.190   5.206   8.234
   80MYC   H12314252   2.073   5.338   8.239
   80MYC    C6714253   2.241   5.362   8.374
   80MYC   H12414254   2.231   5.471   8.383
   80MYC   H12514255   2.348   5.338   8.376
   80MYC    C6614256   2.171   5.294   8.492
   80MYC   H12614257   2.172   5.185   8.477
   80MYC   H12714258   2.066   5.325   8.495
   80MYC    C6514259   2.237   5.325   8.627
   80MYC   H12814260   2.246   5.433   8.641
   80MYC   H12914261   2.339   5.284   8.628
   80MYC    C6414262   2.155   5.264   8.741
   80MYC   H13014263   2.139   5.157   8.721
   80MYC   H13114264   2.057   5.312   8.743
   80MYC    C6314265   2.221   5.278   8.879
   80MYC   HH1114266   2.245   5.383   8.898
   80MYC   H13214267   2.316   5.222   8.880
   80MYC    C6214268   2.128   5.225   8.988
   80MYC   H13314269   2.097   5.122   8.963
   80MYC   H13414270   2.037   5.286   8.990
   80MYC    C6114271   2.192   5.224   9.126
   80MYC   H13514272   2.225   5.326   9.151
   80MYC   H13614273   2.282   5.161   9.125
   80MYC    C6014274   2.095   5.173   9.231
   80MYC   H13714275   2.064   5.071   9.213
   80MYC    C5814276   2.110   5.219   9.373
   80MYC   H13814277   2.185   5.295   9.391
   80MYC    C5914278   1.990   5.262   9.292
   80MYC   H13914279   1.893   5.217   9.315
   80MYC   H14014280   1.986   5.365   9.259
   80MYC    C5714281   2.099   5.119   9.486
   80MYC   HH1014282   2.189   5.058   9.490
   80MYC   H14114283   2.014   5.051   9.470
   80MYC    C5614284   2.081   5.192   9.620
   80MYC   H14214285   1.988   5.251   9.617
   80MYC   H14314286   2.164   5.263   9.632
   80MYC    C5514287   2.079   5.099   9.741
   80MYC   H14414288   2.173   5.043   9.747
   80MYC   H14514289   1.998   5.026   9.730
   80MYC    C5414290   2.058   5.180   9.870
   80MYC   H14614291   1.961   5.230   9.866
   80MYC   H14714292   2.134   5.259   9.874
   80MYC    C5314293   2.068   5.096   9.998
   80MYC   H14814294   2.168   5.053  10.006
   80MYC   H14914295   1.997   5.012   9.994
   80MYC    C5214296   2.038   5.182  10.122
   80MYC    H9914297   1.931   5.208  10.123
   80MYC   H15014298   2.093   5.277  10.113
   80MYC    C5114299   2.077   5.114  10.254
   80MYC    H9714300   2.184   5.090  10.249
   80MYC    H9814301   2.024   5.019  10.265
   80MYC    C5014302   2.050   5.205  10.376
   80MYC    H9514303   1.948   5.187  10.412
   80MYC    H9614304   2.055   5.310  10.346
   80MYC    C4914305   2.151   5.181  10.489
   80MYC    H9314306   2.251   5.202  10.450
   80MYC    H9414307   2.148   5.075  10.518
   80MYC    C4814308   2.127   5.270  10.611
   80MYC    H9114309   2.024   5.255  10.647
   80MYC    H9214310   2.137   5.375  10.581
   80MYC    C4714311   2.225   5.241  10.726
   80MYC    H8914312   2.327   5.247  10.688
   80MYC    H9014313   2.212   5.138  10.760
   80MYC    C4614314   2.212   5.336  10.846
   80MYC    H8714315   2.110   5.331  10.884
   80MYC    H8814316   2.232   5.439  10.814
   80MYC    C4514317   2.309   5.298  10.960
   80MYC    H8514318   2.412   5.308  10.924
   80MYC    H8614319   2.294   5.192  10.985
   80MYC    C4414320   2.289   5.382  11.087
   80MYC    H8314321   2.323   5.323  11.173
   80MYC    H8414322   2.182   5.400  11.103
   80MYC    C1814323   2.363   5.515  11.084
   80MYC    H3114324   2.395   5.546  10.984
   80MYC    C1714325   2.322   5.626  11.177
   80MYC    H3014326   2.242   5.604  11.248
   80MYC    C1914327   2.452   5.554  11.200
   80MYC    H3214328   2.457   5.487  11.286
   80MYC    H3314329   2.544   5.607  11.179
   80MYC    C1614330   2.322   5.772  11.134
   80MYC    H2814331   2.407   5.793  11.068
   80MYC    H2914332   2.338   5.832  11.224
   80MYC    C1514333   2.191   5.821  11.068
   80MYC    H2614334   2.190   5.930  11.077
   80MYC    H2714335   2.105   5.786  11.126
   80MYC    C1414336   2.174   5.782  10.919
   80MYC    H2414337   2.142   5.677  10.913
   80MYC    H2514338   2.270   5.790  10.868
   80MYC    C1314339   2.071   5.873  10.847
   80MYC    H2214340   2.115   5.972  10.833
   80MYC    H2314341   1.983   5.887  10.912
   80MYC    C1214342   2.020   5.823  10.710
   80MYC    H2014343   1.944   5.893  10.673
   80MYC    H2114344   1.967   5.729  10.726
   80MYC    C1114345   2.126   5.805  10.598
   80MYC    H1814346   2.218   5.763  10.640
   80MYC    H1914347   2.151   5.903  10.557
   80MYC    C1014348   2.077   5.711  10.485
   80MYC    H1614349   1.973   5.737  10.459
   80MYC    H1714350   2.075   5.609  10.524
   80MYC     C914351   2.161   5.715  10.356
   80MYC    H1414352   2.268   5.722  10.382
   80MYC    H1514353   2.137   5.807  10.301
   80MYC     C814354   2.140   5.591  10.265
   80MYC    H1214355   2.034   5.565  10.263
   80MYC    H1314356   2.192   5.506  10.311
   80MYC     C714357   2.192   5.609  10.121
   80MYC    H1014358   2.232   5.514  10.084
   80MYC    H1114359   2.276   5.680  10.120
   80MYC     C614360   2.082   5.657  10.023
   80MYC     H814361   2.026   5.739  10.069
   80MYC     H914362   2.011   5.575  10.008
   80MYC     C514363   2.135   5.704   9.886
   80MYC     H614364   2.192   5.623   9.838
   80MYC     H714365   2.206   5.786   9.902
   80MYC     C414366   2.023   5.752   9.790
   80MYC     H414367   2.061   5.839   9.735
   80MYC     H514368   1.940   5.789   9.851
   80MYC     C214369   1.972   5.649   9.685
   80MYC     H214370   2.043   5.651   9.602
   80MYC     O314371   1.970   5.516   9.739
   80MYC     H314372   1.895   5.510   9.800
   80MYC     C114373   1.832   5.687   9.630
   80MYC     H114374   1.837   5.790   9.593
   80MYC    C8114375   1.721   5.685   9.737
   80MYC    O8214376   1.708   5.596   9.820
   80MYC    O8314377   1.622   5.776   9.716
   80MYC   H10514378   1.553   5.754   9.781
   80MYC    C2014379   1.787   5.605   9.506
   80MYC    H3414380   1.794   5.497   9.527
   80MYC    H3514381   1.681   5.626   9.488
   80MYC    C2114382   1.866   5.639   9.378
   80MYC    H3614383   1.878   5.748   9.370
   80MYC    H3714384   1.966   5.596   9.385
   80MYC    C2214385   1.795   5.589   9.252
   80MYC    H3814386   1.778   5.481   9.259
   80MYC    H3914387   1.696   5.636   9.245
   80MYC    C2314388   1.874   5.620   9.124
   80MYC    H4014389   1.889   5.728   9.116
   80MYC    H4114390   1.973   5.574   9.129
   80MYC    C2414391   1.800   5.570   8.999
   80MYC    H4214392   1.789   5.461   9.005
   80MYC    H4314393   1.699   5.613   8.997
   80MYC    C2514394   1.872   5.607   8.869
   80MYC    H4414395   1.883   5.716   8.863
   80MYC    H4514396   1.973   5.564   8.870
   80MYC    C2614397   1.796   5.557   8.746
   80MYC    H4614398   1.787   5.447   8.750
   80MYC    H4714399   1.695   5.598   8.746
   80MYC    C2714400   1.866   5.597   8.615
   80MYC    H4814401   1.870   5.706   8.608
   80MYC    H4914402   1.969   5.560   8.616
   80MYC    C2814403   1.794   5.540   8.492
   80MYC    H5014404   1.796   5.431   8.496
   80MYC    H5114405   1.689   5.572   8.492
   80MYC    C2914406   1.861   5.588   8.362
   80MYC    H5214407   1.851   5.697   8.354
   80MYC    H5314408   1.969   5.566   8.367
   80MYC    C3014409   1.803   5.521   8.237
   80MYC    H5414410   1.815   5.413   8.244
   80MYC    H5514411   1.695   5.542   8.231
   80MYC    C3114412   1.871   5.573   8.110
   80MYC    H5614413   1.850   5.680   8.099
   80MYC    H5714414   1.980   5.563   8.121
   80MYC    C3214415   1.827   5.499   7.984
   80MYC    H5814416   1.853   5.393   7.993
   80MYC    H5914417   1.717   5.504   7.975
   80MYC    C3314418   1.892   5.558   7.858
   80MYC    H6014419   1.859   5.662   7.847
   80MYC    H6114420   2.001   5.559   7.870
   80MYC    C3414421   1.855   5.478   7.732
   80MYC    H6214422   1.901   5.378   7.738
   80MYC    H6314423   1.747   5.465   7.728
   80MYC    C3514424   1.902   5.550   7.604
   80MYC    H6414425   1.857   5.650   7.602
   80MYC    H6514426   2.011   5.563   7.606
   80MYC    C3614427   1.861   5.473   7.478
   80MYC    H6614428   1.920   5.380   7.471
   80MYC    H6714429   1.756   5.444   7.485
   80MYC    C3714430   1.881   5.556   7.351
   80MYC    H6814431   1.823   5.649   7.359
   80MYC    H6914432   1.987   5.585   7.342
   80MYC    C3814433   1.837   5.481   7.224
   80MYC    H7014434   1.901   5.392   7.212
   80MYC    H7114435   1.734   5.446   7.236
   80MYC    C3914436   1.848   5.568   7.099
   80MYC    H7214437   1.776   5.651   7.106
   80MYC    H7314438   1.948   5.613   7.094
   80MYC    C4014439   1.822   5.490   6.969
   80MYC    H7414440   1.891   5.404   6.965
   80MYC    H7514441   1.720   5.449   6.971
   80MYC    C4114442   1.841   5.576   6.844
   80MYC    H7614443   1.765   5.656   6.843
   80MYC    H7714444   1.939   5.626   6.849
   80MYC    C4214445   1.833   5.496   6.713
   80MYC    H7814446   1.901   5.410   6.718
   80MYC    H7914447   1.731   5.455   6.702
   80MYC    C4314448   1.868   5.581   6.591
   80MYC    H8014449   1.853   5.525   6.498
   80MYC    H8114450   1.972   5.615   6.596
   80MYC    H8214451   1.804   5.670   6.589
   81MYC   HH1514452   3.100   5.449   6.629
   81MYC    C8014453   3.061   5.490   6.723
   81MYC   H10014454   3.088   5.596   6.729
   81MYC   H10114455   2.952   5.482   6.721
   81MYC    C7914456   3.119   5.413   6.843
   81MYC   H10214457   3.228   5.420   6.841
   81MYC   H10314458   3.094   5.307   6.833
   81MYC    C7814459   3.067   5.465   6.979
   81MYC   HH1414460   2.958   5.452   6.983
   81MYC   H10414461   3.086   5.572   6.987
   81MYC    C7714462   3.132   5.393   7.099
   81MYC   H10614463   3.240   5.410   7.097
   81MYC   H10714464   3.116   5.285   7.090
   81MYC    C7614465   3.075   5.440   7.235
   81MYC   H10814466   2.969   5.414   7.241
   81MYC   H10914467   3.082   5.550   7.241
   81MYC    C7514468   3.150   5.379   7.355
   81MYC   H11014469   3.255   5.409   7.351
   81MYC   H11114470   3.146   5.270   7.349
   81MYC    C7414471   3.090   5.423   7.490
   81MYC   H11214472   2.985   5.390   7.496
   81MYC   H11314473   3.088   5.533   7.495
   81MYC    C7314474   3.167   5.369   7.612
   81MYC   HH1314475   3.270   5.405   7.609
   81MYC   H11414476   3.170   5.259   7.607
   81MYC    C7214477   3.102   5.412   7.745
   81MYC   H11514478   2.998   5.379   7.747
   81MYC   H11614479   3.100   5.522   7.750
   81MYC    C7114480   3.174   5.358   7.870
   81MYC   H11714481   3.276   5.398   7.873
   81MYC   H11814482   3.182   5.249   7.863
   81MYC    C7014483   3.100   5.396   7.999
   81MYC   H11914484   2.998   5.354   7.996
   81MYC   H12014485   3.088   5.505   8.004
   81MYC    C6914486   3.170   5.349   8.128
   81MYC   H12114487   3.266   5.402   8.138
   81MYC   H12214488   3.193   5.242   8.121
   81MYC    C6814489   3.083   5.373   8.253
   81MYC   HH1214490   2.997   5.305   8.250
   81MYC   H12314491   3.043   5.475   8.250
   81MYC    C6714492   3.160   5.355   8.385
   81MYC   H12414493   3.235   5.435   8.394
   81MYC   H12514494   3.214   5.260   8.384
   81MYC    C6614495   3.067   5.357   8.508
   81MYC   H12614496   3.013   5.262   8.514
   81MYC   H12714497   2.990   5.435   8.495
   81MYC    C6514498   3.142   5.384   8.640
   81MYC   H12814499   3.171   5.490   8.643
   81MYC   H12914500   3.234   5.325   8.642
   81MYC    C6414501   3.058   5.349   8.764
   81MYC   H13014502   3.052   5.239   8.772
   81MYC   H13114503   2.956   5.386   8.752
   81MYC    C6314504   3.118   5.407   8.894
   81MYC   HH1114505   3.100   5.515   8.896
   81MYC   H13214506   3.227   5.392   8.894
   81MYC    C6214507   3.060   5.342   9.021
   81MYC   H13314508   3.083   5.234   9.019
   81MYC   H13414509   2.950   5.350   9.020
   81MYC    C6114510   3.115   5.403   9.151
   81MYC   H13514511   3.081   5.507   9.158
   81MYC   H13614512   3.224   5.405   9.147
   81MYC    C6014513   3.070   5.324   9.273
   81MYC   H13714514   3.098   5.219   9.265
   81MYC    C5814515   3.072   5.384   9.411
   81MYC   H13814516   3.098   5.489   9.419
   81MYC    C5914517   2.940   5.354   9.343
   81MYC   H13914518   2.881   5.270   9.377
   81MYC   H14014519   2.883   5.440   9.308
   81MYC    C5714520   3.125   5.302   9.527
   81MYC   HH1014521   3.233   5.322   9.536
   81MYC   H14114522   3.116   5.195   9.504
   81MYC    C5614523   3.059   5.330   9.663
   81MYC   H14214524   3.044   5.438   9.675
   81MYC   H14314525   3.130   5.299   9.740
   81MYC    C5514526   2.925   5.255   9.686
   81MYC   H14414527   2.940   5.147   9.674
   81MYC   H14514528   2.853   5.285   9.608
   81MYC    C5414529   2.860   5.282   9.823
   81MYC   H14614530   2.760   5.238   9.825
   81MYC   H14714531   2.847   5.391   9.835
   81MYC    C5314532   2.940   5.227   9.943
   81MYC   H14814533   3.045   5.258   9.936
   81MYC   H14914534   2.939   5.117   9.940
   81MYC    C5214535   2.886   5.275  10.079
   81MYC    H9914536   2.784   5.235  10.095
   81MYC   H15014537   2.878   5.384  10.078
   81MYC    C5114538   2.976   5.233  10.197
   81MYC    H9714539   3.080   5.263  10.174
   81MYC    H9814540   2.976   5.124  10.206
   81MYC    C5014541   2.935   5.296  10.331
   81MYC    H9514542   2.835   5.261  10.359
   81MYC    H9614543   2.928   5.405  10.319
   81MYC    C4914544   3.035   5.264  10.444
   81MYC    H9314545   3.136   5.294  10.412
   81MYC    H9414546   3.037   5.156  10.461
   81MYC    C4814547   3.001   5.337  10.576
   81MYC    H9114548   2.905   5.301  10.613
   81MYC    H9214549   2.990   5.444  10.556
   81MYC    C4714550   3.109   5.316  10.684
   81MYC    H8914551   3.206   5.351  10.645
   81MYC    H9014552   3.120   5.209  10.705
   81MYC    C4614553   3.077   5.391  10.814
   81MYC    H8714554   2.985   5.350  10.857
   81MYC    H8814555   3.057   5.496  10.790
   81MYC    C4514556   3.190   5.382  10.919
   81MYC    H8514557   3.280   5.428  10.878
   81MYC    H8614558   3.212   5.276  10.937
   81MYC    C4414559   3.156   5.448  11.054
   81MYC    H8314560   3.230   5.417  11.128
   81MYC    H8414561   3.060   5.408  11.089
   81MYC    C1814562   3.149   5.601  11.049
   81MYC    H3114563   3.125   5.640  10.951
   81MYC    C1714564   3.093   5.675  11.168
   81MYC    H3014565   3.068   5.615  11.255
   81MYC    C1914566   3.240   5.687  11.134
   81MYC    H3214567   3.311   5.638  11.199
   81MYC    H3314568   3.275   5.780  11.090
   81MYC    C1614569   2.998   5.793  11.149
   81MYC    H2814570   3.039   5.863  11.076
   81MYC    H2914571   2.993   5.848  11.244
   81MYC    C1514572   2.854   5.754  11.107
   81MYC    H2614573   2.791   5.843  11.121
   81MYC    H2714574   2.815   5.677  11.174
   81MYC    C1414575   2.841   5.707  10.960
   81MYC    H2414576   2.873   5.603  10.951
   81MYC    H2514577   2.907   5.767  10.896
   81MYC    C1314578   2.697   5.722  10.906
   81MYC    H2214579   2.668   5.828  10.916
   81MYC    H2314580   2.628   5.665  10.969
   81MYC    C1214581   2.677   5.678  10.759
   81MYC    H2014582   2.645   5.573  10.757
   81MYC    H2114583   2.773   5.683  10.706
   81MYC    C1114584   2.575   5.768  10.686
   81MYC    H1814585   2.624   5.862  10.662
   81MYC    H1914586   2.492   5.792  10.754
   81MYC    C1014587   2.513   5.709  10.557
   81MYC    H1614588   2.457   5.789  10.508
   81MYC    H1714589   2.440   5.633  10.585
   81MYC     C914590   2.614   5.651  10.456
   81MYC    H1414591   2.666   5.565  10.500
   81MYC    H1514592   2.691   5.726  10.433
   81MYC     C814593   2.546   5.609  10.324
   81MYC    H1214594   2.512   5.700  10.274
   81MYC    H1314595   2.455   5.551  10.344
   81MYC     C714596   2.637   5.526  10.230
   81MYC    H1014597   2.650   5.425  10.273
   81MYC    H1114598   2.737   5.571  10.225
   81MYC     C614599   2.581   5.512  10.087
   81MYC     H814600   2.477   5.476  10.092
   81MYC     H914601   2.637   5.434  10.034
   81MYC     C514602   2.588   5.644  10.007
   81MYC     H614603   2.693   5.668   9.987
   81MYC     H714604   2.549   5.726  10.066
   81MYC     C414605   2.510   5.644   9.874
   81MYC     H414606   2.506   5.748   9.840
   81MYC     H514607   2.407   5.613   9.894
   81MYC     C214608   2.570   5.557   9.762
   81MYC     H214609   2.680   5.566   9.767
   81MYC     O314610   2.534   5.420   9.782
   81MYC     H314611   2.443   5.409   9.749
   81MYC     C114612   2.527   5.606   9.621
   81MYC     H114613   2.563   5.709   9.610
   81MYC    C8114614   2.373   5.611   9.605
   81MYC    O8214615   2.311   5.715   9.588
   81MYC    O8314616   2.311   5.491   9.600
   81MYC   H10514617   2.216   5.510   9.587
   81MYC    C2014618   2.593   5.523   9.508
   81MYC    H3414619   2.700   5.512   9.529
   81MYC    H3514620   2.551   5.421   9.508
   81MYC    C2114621   2.578   5.585   9.368
   81MYC    H3614622   2.483   5.640   9.359
   81MYC    H3714623   2.657   5.659   9.353
   81MYC    C2214624   2.583   5.479   9.256
   81MYC    H3814625   2.659   5.404   9.281
   81MYC    H3914626   2.487   5.426   9.253
   81MYC    C2314627   2.615   5.537   9.118
   81MYC    H4014628   2.539   5.612   9.092
   81MYC    H4114629   2.711   5.590   9.122
   81MYC    C2414630   2.621   5.428   9.009
   81MYC    H4214631   2.682   5.344   9.046
   81MYC    H4314632   2.520   5.388   8.992
   81MYC    C2514633   2.681   5.475   8.875
   81MYC    H4414634   2.786   5.504   8.892
   81MYC    H4514635   2.682   5.390   8.806
   81MYC    C2614636   2.607   5.594   8.811
   81MYC    H4614637   2.499   5.573   8.804
   81MYC    H4714638   2.617   5.682   8.875
   81MYC    C2714639   2.662   5.631   8.671
   81MYC    H4814640   2.634   5.735   8.649
   81MYC    H4914641   2.771   5.628   8.674
   81MYC    C2814642   2.609   5.541   8.557
   81MYC    H5014643   2.627   5.435   8.580
   81MYC    H5114644   2.501   5.555   8.547
   81MYC    C2914645   2.678   5.575   8.423
   81MYC    H5214646   2.683   5.684   8.412
   81MYC    H5314647   2.781   5.539   8.426
   81MYC    C3014648   2.608   5.517   8.299
   81MYC    H5414649   2.602   5.407   8.306
   81MYC    H5514650   2.505   5.555   8.294
   81MYC    C3114651   2.682   5.556   8.169
   81MYC    H5614652   2.696   5.665   8.169
   81MYC    H5714653   2.782   5.511   8.171
   81MYC    C3214654   2.610   5.515   8.039
   81MYC    H5814655   2.598   5.406   8.036
   81MYC    H5914656   2.510   5.559   8.038
   81MYC    C3314657   2.688   5.562   7.915
   81MYC    H6014658   2.701   5.671   7.920
   81MYC    H6114659   2.789   5.518   7.916
   81MYC    C3414660   2.620   5.527   7.782
   81MYC    H6214661   2.610   5.418   7.773
   81MYC    H6314662   2.518   5.568   7.781
   81MYC    C3514663   2.698   5.581   7.660
   81MYC    H6414664   2.707   5.690   7.670
   81MYC    H6514665   2.799   5.539   7.661
   81MYC    C3614666   2.631   5.548   7.525
   81MYC    H6614667   2.624   5.439   7.513
   81MYC    H6714668   2.528   5.587   7.525
   81MYC    C3714669   2.708   5.608   7.406
   81MYC    H6814670   2.715   5.716   7.420
   81MYC    H6914671   2.811   5.569   7.406
   81MYC    C3814672   2.643   5.578   7.269
   81MYC    H7014673   2.643   5.470   7.251
   81MYC    H7114674   2.538   5.611   7.271
   81MYC    C3914675   2.716   5.651   7.154
   81MYC    H7214676   2.714   5.758   7.175
   81MYC    H7314677   2.821   5.620   7.153
   81MYC    C4014678   2.654   5.626   7.015
   81MYC    H7414679   2.667   5.520   6.988
   81MYC    H7514680   2.546   5.644   7.019
   81MYC    C4114681   2.716   5.717   6.907
   81MYC    H7614682   2.693   5.821   6.932
   81MYC    H7714683   2.826   5.707   6.910
   81MYC    C4214684   2.667   5.686   6.764
   81MYC    H7814685   2.703   5.587   6.734
   81MYC    H7914686   2.557   5.682   6.763
   81MYC    C4314687   2.714   5.790   6.661
   81MYC    H8014688   2.686   5.760   6.560
   81MYC    H8114689   2.823   5.802   6.665
   81MYC    H8214690   2.669   5.888   6.682
   82MYC   HH1514691   3.501   5.145   6.652
   82MYC    C8014692   3.467   5.195   6.744
   82MYC   H10014693   3.499   5.300   6.739
   82MYC   H10114694   3.357   5.193   6.745
   82MYC    C7914695   3.525   5.126   6.868
   82MYC   H10214696   3.635   5.134   6.865
   82MYC   H10314697   3.500   5.019   6.865
   82MYC    C7814698   3.473   5.186   7.000
   82MYC   HH1414699   3.364   5.172   7.006
   82MYC   H10414700   3.491   5.295   7.000
   82MYC    C7714701   3.539   5.125   7.125
   82MYC   H10614702   3.647   5.146   7.122
   82MYC   H10714703   3.528   5.016   7.122
   82MYC    C7614704   3.480   5.179   7.256
   82MYC   H10814705   3.375   5.148   7.264
   82MYC   H10914706   3.480   5.288   7.255
   82MYC    C7514707   3.556   5.130   7.381
   82MYC   H11014708   3.658   5.170   7.378
   82MYC   H11114709   3.564   5.021   7.379
   82MYC    C7414710   3.488   5.174   7.512
   82MYC   H11214711   3.389   5.126   7.518
   82MYC   H11314712   3.472   5.282   7.511
   82MYC    C7314713   3.570   5.137   7.638
   82MYC   HH1314714   3.663   5.194   7.638
   82MYC   H11414715   3.597   5.031   7.635
   82MYC    C7214716   3.492   5.166   7.768
   82MYC   H11514717   3.400   5.107   7.768
   82MYC   H11614718   3.463   5.271   7.769
   82MYC    C7114719   3.572   5.133   7.895
   82MYC   H11714720   3.663   5.194   7.897
   82MYC   H11814721   3.604   5.028   7.893
   82MYC    C7014722   3.490   5.159   8.022
   82MYC   H11914723   3.399   5.098   8.020
   82MYC   H12014724   3.457   5.264   8.023
   82MYC    C6914725   3.568   5.130   8.152
   82MYC   H12114726   3.658   5.192   8.154
   82MYC   H12214727   3.599   5.025   8.153
   82MYC    C6814728   3.483   5.160   8.277
   82MYC   HH1214729   3.395   5.094   8.278
   82MYC   H12314730   3.446   5.263   8.271
   82MYC    C6714731   3.561   5.142   8.408
   82MYC   H12414732   3.650   5.205   8.406
   82MYC   H12514733   3.595   5.038   8.417
   82MYC    C6614734   3.476   5.179   8.531
   82MYC   H12614735   3.389   5.112   8.537
   82MYC   H12714736   3.438   5.281   8.519
   82MYC    C6514737   3.556   5.171   8.662
   82MYC   H12814738   3.644   5.236   8.655
   82MYC   H12914739   3.593   5.069   8.675
   82MYC    C6414740   3.473   5.212   8.786
   82MYC   H13014741   3.381   5.153   8.790
   82MYC   H13114742   3.445   5.318   8.778
   82MYC    C6314743   3.553   5.189   8.916
   82MYC   HH1114744   3.647   5.246   8.911
   82MYC   H13214745   3.580   5.083   8.921
   82MYC    C6214746   3.477   5.229   9.044
   82MYC   H13314747   3.378   5.184   9.045
   82MYC   H13414748   3.463   5.338   9.045
   82MYC    C6114749   3.556   5.186   9.169
   82MYC   H13514750   3.659   5.223   9.161
   82MYC   H13614751   3.562   5.076   9.171
   82MYC    C6014752   3.494   5.234   9.299
   82MYC   H13714753   3.397   5.190   9.318
   82MYC    C5814754   3.583   5.259   9.417
   82MYC   H13814755   3.691   5.254   9.401
   82MYC    C5914756   3.514   5.374   9.349
   82MYC   H13914757   3.431   5.422   9.400
   82MYC   H14014758   3.577   5.440   9.290
   82MYC    C5714759   3.542   5.213   9.555
   82MYC   HH1014760   3.435   5.192   9.558
   82MYC   H14114761   3.561   5.294   9.626
   82MYC    C5614762   3.620   5.087   9.599
   82MYC   H14214763   3.726   5.112   9.612
   82MYC   H14314764   3.616   5.012   9.519
   82MYC    C5514765   3.566   5.023   9.729
   82MYC   H14414766   3.636   4.944   9.760
   82MYC   H14514767   3.469   4.976   9.709
   82MYC    C5414768   3.553   5.122   9.845
   82MYC   H14614769   3.478   5.198   9.821
   82MYC   H14714770   3.649   5.174   9.859
   82MYC    C5314771   3.512   5.054   9.976
   82MYC   H14814772   3.582   4.972   9.997
   82MYC   H14914773   3.412   5.010   9.965
   82MYC    C5214774   3.514   5.153  10.093
   82MYC    H9914775   3.447   5.237  10.072
   82MYC   H15014776   3.616   5.193  10.103
   82MYC    C5114777   3.473   5.087  10.225
   82MYC    H9714778   3.523   4.990  10.236
   82MYC    H9814779   3.365   5.068  10.224
   82MYC    C5014780   3.510   5.175  10.346
   82MYC    H9514781   3.462   5.273  10.336
   82MYC    H9614782   3.618   5.190  10.347
   82MYC    C4914783   3.468   5.110  10.478
   82MYC    H9314784   3.511   5.009  10.484
   82MYC    H9414785   3.359   5.100  10.479
   82MYC    C4814786   3.512   5.191  10.601
   82MYC    H9114787   3.464   5.290  10.600
   82MYC    H9214788   3.621   5.207  10.598
   82MYC    C4714789   3.476   5.117  10.730
   82MYC    H8914790   3.526   5.019  10.730
   82MYC    H9014791   3.368   5.098  10.730
   82MYC    C4614792   3.512   5.193  10.858
   82MYC    H8714793   3.455   5.286  10.862
   82MYC    H8814794   3.618   5.220  10.855
   82MYC    C4514795   3.484   5.107  10.983
   82MYC    H8514796   3.556   5.025  10.985
   82MYC    H8614797   3.385   5.061  10.973
   82MYC    C4414798   3.489   5.183  11.117
   82MYC    H8314799   3.480   5.108  11.197
   82MYC    H8414800   3.399   5.246  11.124
   82MYC    C1814801   3.614   5.267  11.139
   82MYC    H3114802   3.699   5.234  11.080
   82MYC    C1714803   3.601   5.415  11.170
   82MYC    H3014804   3.501   5.455  11.185
   82MYC    C1914805   3.648   5.319  11.276
   82MYC    H3214806   3.579   5.299  11.358
   82MYC    H3314807   3.752   5.321  11.304
   82MYC    C1614808   3.699   5.517  11.115
   82MYC    H2814809   3.771   5.467  11.048
   82MYC    H2914810   3.757   5.560  11.197
   82MYC    C1514811   3.632   5.633  11.039
   82MYC    H2614812   3.706   5.711  11.020
   82MYC    H2714813   3.556   5.678  11.104
   82MYC    C1414814   3.566   5.591  10.906
   82MYC    H2414815   3.480   5.526  10.928
   82MYC    H2514816   3.636   5.533  10.846
   82MYC    C1314817   3.518   5.713  10.824
   82MYC    H2214818   3.606   5.772  10.794
   82MYC    H2314819   3.456   5.777  10.887
   82MYC    C1214820   3.439   5.673  10.698
   82MYC    H2014821   3.348   5.620  10.729
   82MYC    H2114822   3.499   5.603  10.639
   82MYC    C1114823   3.400   5.795  10.612
   82MYC    H1814824   3.491   5.844  10.575
   82MYC    H1914825   3.348   5.867  10.675
   82MYC    C1014826   3.309   5.759  10.493
   82MYC    H1614827   3.267   5.852  10.453
   82MYC    H1714828   3.224   5.700  10.530
   82MYC     C914829   3.379   5.684  10.378
   82MYC    H1414830   3.428   5.594  10.415
   82MYC    H1514831   3.457   5.749  10.337
   82MYC     C814832   3.279   5.645  10.267
   82MYC    H1214833   3.205   5.726  10.256
   82MYC    H1314834   3.224   5.556  10.298
   82MYC     C714835   3.345   5.621  10.130
   82MYC    H1014836   3.423   5.545  10.139
   82MYC    H1114837   3.394   5.714  10.099
   82MYC     C614838   3.241   5.578  10.024
   82MYC     H814839   3.148   5.633  10.040
   82MYC     H914840   3.217   5.472  10.040
   82MYC     C514841   3.285   5.598   9.878
   82MYC     H614842   3.210   5.552   9.814
   82MYC     H714843   3.379   5.544   9.860
   82MYC     C414844   3.303   5.747   9.838
   82MYC     H414845   3.400   5.783   9.875
   82MYC     H514846   3.226   5.809   9.886
   82MYC     C214847   3.297   5.768   9.685
   82MYC     H214848   3.360   5.690   9.641
   82MYC     O314849   3.162   5.748   9.641
   82MYC     H314850   3.109   5.824   9.672
   82MYC     C114851   3.350   5.907   9.636
   82MYC     H114852   3.456   5.914   9.663
   82MYC    C8114853   3.279   6.028   9.700
   82MYC    O8214854   3.158   6.042   9.704
   82MYC    O8314855   3.362   6.133   9.722
   82MYC   H10514856   3.304   6.209   9.741
   82MYC    C2014857   3.345   5.921   9.481
   82MYC    H3414858   3.242   5.908   9.446
   82MYC    H3514859   3.374   6.023   9.453
   82MYC    C2114860   3.438   5.822   9.406
   82MYC    H3614861   3.542   5.847   9.427
   82MYC    H3714862   3.422   5.720   9.441
   82MYC    C2214863   3.412   5.824   9.255
   82MYC    H3814864   3.310   5.788   9.236
   82MYC    H3914865   3.417   5.927   9.217
   82MYC    C2314866   3.512   5.737   9.177
   82MYC    H4014867   3.612   5.783   9.180
   82MYC    H4114868   3.520   5.639   9.224
   82MYC    C2414869   3.468   5.718   9.031
   82MYC    H4214870   3.376   5.659   9.029
   82MYC    H4314871   3.445   5.816   8.988
   82MYC    C2514872   3.574   5.649   8.943
   82MYC    H4414873   3.666   5.709   8.944
   82MYC    H4514874   3.599   5.550   8.983
   82MYC    C2614875   3.522   5.636   8.799
   82MYC    H4614876   3.438   5.566   8.798
   82MYC    H4714877   3.483   5.734   8.767
   82MYC    C2714878   3.628   5.591   8.698
   82MYC    H4814879   3.712   5.662   8.699
   82MYC    H4914880   3.667   5.492   8.725
   82MYC    C2814881   3.567   5.587   8.557
   82MYC    H5014882   3.492   5.506   8.553
   82MYC    H5114883   3.512   5.680   8.540
   82MYC    C2914884   3.668   5.568   8.444
   82MYC    H5214885   3.742   5.649   8.447
   82MYC    H5314886   3.722   5.473   8.456
   82MYC    C3014887   3.596   5.570   8.308
   82MYC    H5414888   3.529   5.484   8.302
   82MYC    H5514889   3.534   5.660   8.303
   82MYC    C3114890   3.690   5.570   8.187
   82MYC    H5614891   3.756   5.658   8.191
   82MYC    H5714892   3.754   5.481   8.189
   82MYC    C3214893   3.609   5.573   8.056
   82MYC    H5814894   3.549   5.481   8.049
   82MYC    H5914895   3.538   5.656   8.060
   82MYC    C3314896   3.695   5.587   7.929
   82MYC    H6014897   3.751   5.681   7.935
   82MYC    H6114898   3.767   5.505   7.923
   82MYC    C3414899   3.606   5.587   7.804
   82MYC    H6214900   3.557   5.489   7.795
   82MYC    H6314901   3.525   5.661   7.818
   82MYC    C3514902   3.680   5.620   7.674
   82MYC    H6414903   3.731   5.716   7.684
   82MYC    H6514904   3.757   5.544   7.655
   82MYC    C3614905   3.583   5.625   7.555
   82MYC    H6614906   3.531   5.529   7.547
   82MYC    H6714907   3.506   5.701   7.576
   82MYC    C3714908   3.649   5.658   7.421
   82MYC    H6814909   3.700   5.755   7.427
   82MYC    H6914910   3.726   5.582   7.399
   82MYC    C3814911   3.545   5.661   7.307
   82MYC    H7014912   3.492   5.565   7.305
   82MYC    H7114913   3.471   5.738   7.328
   82MYC    C3914914   3.606   5.686   7.168
   82MYC    H7214915   3.652   5.786   7.166
   82MYC    H7314916   3.686   5.614   7.149
   82MYC    C4014917   3.500   5.675   7.057
   82MYC    H7414918   3.456   5.575   7.061
   82MYC    H7514919   3.419   5.747   7.076
   82MYC    C4114920   3.557   5.699   6.916
   82MYC    H7614921   3.592   5.803   6.908
   82MYC    H7714922   3.645   5.635   6.901
   82MYC    C4214923   3.454   5.670   6.805
   82MYC    H7814924   3.420   5.566   6.814
   82MYC    H7914925   3.367   5.734   6.819
   82MYC    C4314926   3.511   5.691   6.664
   82MYC    H8014927   3.436   5.664   6.589
   82MYC    H8114928   3.600   5.628   6.648
   82MYC    H8214929   3.540   5.795   6.649
   83MYC   HH1514930   3.991   5.843   6.613
   83MYC    C8014931   4.062   5.819   6.694
   83MYC   H10014932   4.072   5.710   6.699
   83MYC   H10114933   4.160   5.862   6.667
   83MYC    C7914934   4.012   5.877   6.827
   83MYC   H10214935   3.912   5.837   6.849
   83MYC   H10314936   4.002   5.986   6.818
   83MYC    C7814937   4.106   5.844   6.946
   83MYC   HH1414938   4.207   5.878   6.923
   83MYC   H10414939   4.110   5.735   6.958
   83MYC    C7714940   4.059   5.908   7.078
   83MYC   H10614941   3.954   5.882   7.095
   83MYC   H10714942   4.065   6.017   7.070
   83MYC    C7614943   4.142   5.862   7.200
   83MYC   H10814944   4.247   5.893   7.188
   83MYC   H10914945   4.141   5.752   7.202
   83MYC    C7514946   4.086   5.916   7.333
   83MYC   H11014947   3.978   5.901   7.334
   83MYC   H11114948   4.104   6.024   7.340
   83MYC    C7414949   4.148   5.846   7.456
   83MYC   H11214950   4.252   5.878   7.469
   83MYC   H11314951   4.150   5.738   7.436
   83MYC    C7314952   4.069   5.870   7.586
   83MYC   HH1314953   3.962   5.858   7.565
   83MYC   H11414954   4.084   5.973   7.620
   83MYC    C7214955   4.109   5.771   7.696
   83MYC   H11514956   4.215   5.784   7.722
   83MYC   H11614957   4.100   5.669   7.656
   83MYC    C7114958   4.021   5.779   7.823
   83MYC   H11714959   3.996   5.676   7.852
   83MYC   H11814960   3.926   5.829   7.801
   83MYC    C7014961   4.089   5.848   7.943
   83MYC   H11914962   4.101   5.955   7.923
   83MYC   H12014963   4.190   5.806   7.956
   83MYC    C6914964   4.009   5.827   8.072
   83MYC   H12114965   3.990   5.719   8.083
   83MYC   H12214966   3.911   5.875   8.063
   83MYC    C6814967   4.080   5.877   8.199
   83MYC   HH1214968   4.081   5.987   8.200
   83MYC   H12314969   4.184   5.842   8.200
   83MYC    C6714970   4.009   5.824   8.325
   83MYC   H12414971   4.008   5.714   8.320
   83MYC   H12514972   3.904   5.856   8.324
   83MYC    C6614973   4.074   5.866   8.458
   83MYC   H12614974   4.070   5.975   8.469
   83MYC   H12714975   4.180   5.836   8.457
   83MYC    C6514976   4.002   5.799   8.576
   83MYC   H12814977   3.996   5.691   8.556
   83MYC   H12914978   3.899   5.836   8.581
   83MYC    C6414979   4.071   5.818   8.712
   83MYC   H13014980   4.075   5.925   8.738
   83MYC   H13114981   4.174   5.782   8.706
   83MYC    C6314982   3.995   5.741   8.821
   83MYC   HH1114983   3.972   5.640   8.784
   83MYC   H13214984   3.898   5.790   8.838
   83MYC    C6214985   4.070   5.728   8.955
   83MYC   H13314986   4.083   5.827   8.999
   83MYC   H13414987   4.169   5.685   8.938
   83MYC    C6114988   3.991   5.637   9.051
   83MYC   H13514989   3.991   5.534   9.012
   83MYC   H13614990   3.886   5.670   9.051
   83MYC    C6014991   4.041   5.639   9.193
   83MYC   H13714992   4.068   5.739   9.227
   83MYC    C5814993   3.967   5.553   9.292
   83MYC   H13814994   3.894   5.483   9.252
   83MYC    C5914995   4.112   5.523   9.260
   83MYC   H13914996   4.186   5.546   9.336
   83MYC   H14014997   4.133   5.435   9.200
   83MYC    C5714998   3.921   5.615   9.422
   83MYC   HH1014999   3.830   5.674   9.404
   83MYC   H14115000   3.997   5.685   9.459
   83MYC    C5615001   3.893   5.510   9.531
   83MYC   H14215002   3.984   5.451   9.547
   83MYC   H14315003   3.816   5.441   9.496
   83MYC    C5515004   3.848   5.574   9.663
   83MYC   H14415005   3.746   5.613   9.653
   83MYC   H14515006   3.913   5.660   9.685
   83MYC    C5415007   3.855   5.476   9.781
   83MYC   H14615008   3.956   5.432   9.784
   83MYC   H14715009   3.785   5.393   9.764
   83MYC    C5315010   3.826   5.542   9.917
   83MYC   H14815011   3.722   5.578   9.919
   83MYC   H14915012   3.891   5.630   9.929
   83MYC    C5215013   3.850   5.446  10.034
   83MYC    H9915014   3.953   5.408  10.029
   83MYC   H15015015   3.784   5.359  10.021
   83MYC    C5115016   3.827   5.509  10.172
   83MYC    H9715017   3.726   5.552  10.175
   83MYC    H9815018   3.898   5.591  10.187
   83MYC    C5015019   3.843   5.405  10.285
   83MYC    H9515020   3.945   5.366  10.285
   83MYC    H9615021   3.778   5.320  10.261
   83MYC    C4915022   3.806   5.457  10.425
   83MYC    H9315023   3.788   5.369  10.489
   83MYC    H9415024   3.711   5.512  10.421
   83MYC    C4815025   3.914   5.545  10.492
   83MYC    H9115026   3.930   5.636  10.432
   83MYC    H9215027   4.009   5.491  10.492
   83MYC    C4715028   3.875   5.584  10.636
   83MYC    H8915029   3.834   5.497  10.687
   83MYC    H9015030   3.795   5.659  10.631
   83MYC    C4615031   3.992   5.640  10.721
   83MYC    H8715032   4.035   5.728  10.670
   83MYC    H8815033   4.071   5.565  10.728
   83MYC    C4515034   3.944   5.680  10.862
   83MYC    H8515035   3.900   5.593  10.911
   83MYC    H8615036   3.865   5.754  10.852
   83MYC    C4415037   4.054   5.740  10.953
   83MYC    H8315038   4.005   5.806  11.026
   83MYC    H8415039   4.119   5.804  10.893
   83MYC    C1815040   4.138   5.636  11.027
   83MYC    H3115041   4.134   5.538  10.981
   83MYC    C1715042   4.270   5.677  11.089
   83MYC    H3015043   4.297   5.782  11.087
   83MYC    C1915044   4.154   5.642  11.178
   83MYC    H3215045   4.107   5.724  11.232
   83MYC    H3315046   4.164   5.550  11.235
   83MYC    C1615047   4.389   5.584  11.077
   83MYC    H2815048   4.357   5.483  11.051
   83MYC    H2915049   4.438   5.576  11.175
   83MYC    C1515050   4.494   5.632  10.975
   83MYC    H2615051   4.575   5.560  10.974
   83MYC    H2715052   4.537   5.726  11.010
   83MYC    C1415053   4.443   5.650  10.831
   83MYC    H2415054   4.365   5.727  10.828
   83MYC    H2515055   4.396   5.557  10.796
   83MYC    C1315056   4.558   5.689  10.735
   83MYC    H2215057   4.628   5.605  10.727
   83MYC    H2315058   4.613   5.774  10.777
   83MYC    C1215059   4.509   5.728  10.594
   83MYC    H2015060   4.444   5.815  10.601
   83MYC    H2115061   4.448   5.646  10.554
   83MYC    C1115062   4.625   5.759  10.496
   83MYC    H1815063   4.685   5.668  10.480
   83MYC    H1915064   4.692   5.832  10.543
   83MYC    C1015065   4.580   5.815  10.360
   83MYC    H1615066   4.669   5.839  10.300
   83MYC    H1715067   4.528   5.911  10.377
   83MYC     C915068   4.487   5.722  10.277
   83MYC    H1415069   4.400   5.694  10.337
   83MYC    H1515070   4.541   5.630  10.251
   83MYC     C815071   4.437   5.791  10.148
   83MYC    H1215072   4.521   5.809  10.080
   83MYC    H1315073   4.399   5.891  10.175
   83MYC     C715074   4.323   5.717  10.073
   83MYC    H1015075   4.270   5.792  10.013
   83MYC    H1115076   4.251   5.678  10.146
   83MYC     C615077   4.369   5.603   9.980
   83MYC     H815078   4.404   5.518  10.039
   83MYC     H915079   4.454   5.638   9.921
   83MYC     C515080   4.254   5.559   9.884
   83MYC     H615081   4.216   5.647   9.830
   83MYC     H715082   4.171   5.523   9.946
   83MYC     C415083   4.290   5.448   9.782
   83MYC     H415084   4.196   5.418   9.734
   83MYC     H515085   4.324   5.360   9.836
   83MYC     C215086   4.389   5.483   9.666
   83MYC     H215087   4.334   5.463   9.573
   83MYC     O315088   4.426   5.621   9.665
   83MYC     H315089   4.498   5.633   9.601
   83MYC     C115090   4.515   5.391   9.662
   83MYC     H115091   4.476   5.288   9.654
   83MYC    C8115092   4.597   5.398   9.793
   83MYC    O8215093   4.663   5.495   9.828
   83MYC    O8315094   4.597   5.283   9.865
   83MYC   H10515095   4.655   5.301   9.941
   83MYC    C2015096   4.608   5.413   9.540
   83MYC    H3415097   4.659   5.510   9.550
   83MYC    H3515098   4.687   5.336   9.543
   83MYC    C2115099   4.538   5.408   9.403
   83MYC    H3615100   4.474   5.318   9.397
   83MYC    H3715101   4.473   5.495   9.392
   83MYC    C2215102   4.639   5.406   9.287
   83MYC    H3815103   4.711   5.488   9.300
   83MYC    H3915104   4.696   5.312   9.289
   83MYC    C2315105   4.572   5.421   9.149
   83MYC    H4015106   4.504   5.337   9.131
   83MYC    H4115107   4.512   5.513   9.147
   83MYC    C2415108   4.676   5.427   9.036
   83MYC    H4215109   4.750   5.505   9.059
   83MYC    H4315110   4.731   5.332   9.031
   83MYC    C2515111   4.615   5.457   8.898
   83MYC    H4415112   4.542   5.379   8.873
   83MYC    H4515113   4.559   5.552   8.903
   83MYC    C2615114   4.721   5.466   8.788
   83MYC    H4615115   4.797   5.540   8.815
   83MYC    H4715116   4.773   5.369   8.781
   83MYC    C2715117   4.663   5.502   8.650
   83MYC    H4815118   4.579   5.435   8.628
   83MYC    H4915119   4.623   5.604   8.653
   83MYC    C2815120   4.767   5.491   8.538
   83MYC    H5015121   4.851   5.559   8.559
   83MYC    H5115122   4.808   5.389   8.538
   83MYC    C2915123   4.709   5.522   8.399
   83MYC    H5215124   4.615   5.467   8.386
   83MYC    H5315125   4.685   5.629   8.393
   83MYC    C3015126   4.806   5.485   8.286
   83MYC    H5415127   4.900   5.540   8.299
   83MYC    H5515128   4.829   5.378   8.292
   83MYC    C3115129   4.748   5.516   8.147
   83MYC    H5615130   4.649   5.471   8.137
   83MYC    H5715131   4.735   5.625   8.138
   83MYC    C3215132   4.837   5.466   8.031
   83MYC    H5815133   4.938   5.505   8.042
   83MYC    H5915134   4.844   5.356   8.035
   83MYC    C3315135   4.781   5.509   7.895
   83MYC    H6015136   4.677   5.477   7.887
   83MYC    H6115137   4.780   5.619   7.891
   83MYC    C3415138   4.858   5.455   7.773
   83MYC    H6215139   4.965   5.478   7.783
   83MYC    H6315140   4.849   5.345   7.771
   83MYC    C3515141   4.803   5.516   7.643
   83MYC    H6415142   4.694   5.513   7.647
   83MYC    H6515143   4.832   5.622   7.639
   83MYC    C3615144   4.849   5.446   7.514
   83MYC    H6615145   4.958   5.452   7.505
   83MYC    H6715146   4.823   5.339   7.519
   83MYC    C3715147   4.781   5.510   7.391
   83MYC    H6815148   4.672   5.509   7.406
   83MYC    H6915149   4.811   5.615   7.385
   83MYC    C3815150   4.813   5.441   7.257
   83MYC    H7015151   4.921   5.444   7.240
   83MYC    H7115152   4.784   5.335   7.263
   83MYC    C3915153   4.740   5.508   7.140
   83MYC    H7215154   4.631   5.503   7.157
   83MYC    H7315155   4.766   5.615   7.138
   83MYC    C4015156   4.772   5.446   7.003
   83MYC    H7415157   4.881   5.445   6.989
   83MYC    H7515158   4.738   5.341   7.001
   83MYC    C4115159   4.706   5.522   6.886
   83MYC    H7615160   4.597   5.518   6.896
   83MYC    H7715161   4.735   5.628   6.892
   83MYC    C4215162   4.747   5.468   6.747
   83MYC    H7815163   4.856   5.464   6.740
   83MYC    H7915164   4.710   5.365   6.737
   83MYC    C4315165   4.692   5.553   6.631
   83MYC    H8015166   4.727   5.512   6.535
   83MYC    H8115167   4.728   5.656   6.639
   83MYC    H8215168   4.583   5.553   6.631
   84MYC   HH1515169   5.347   5.388   6.602
   84MYC    C8015170   5.308   5.435   6.692
   84MYC   H10015171   5.350   5.536   6.699
   84MYC   H10115172   5.199   5.445   6.682
   84MYC    C7915173   5.344   5.353   6.817
   84MYC   H10215174   5.453   5.346   6.824
   84MYC   H10315175   5.305   5.251   6.805
   84MYC    C7815176   5.288   5.414   6.947
   84MYC   HH1415177   5.178   5.411   6.944
   84MYC   H10415178   5.317   5.520   6.952
   84MYC    C7715179   5.338   5.343   7.074
   84MYC   H10615180   5.448   5.343   7.075
   84MYC   H10715181   5.306   5.238   7.073
   84MYC    C7615182   5.286   5.412   7.202
   84MYC   H10815183   5.177   5.406   7.204
   84MYC   H10915184   5.312   5.518   7.198
   84MYC    C7515185   5.343   5.351   7.331
   84MYC   H11015186   5.452   5.344   7.325
   84MYC   H11115187   5.304   5.249   7.343
   84MYC    C7415188   5.305   5.436   7.454
   84MYC   H11215189   5.198   5.458   7.451
   84MYC   H11315190   5.358   5.532   7.449
   84MYC    C7315191   5.337   5.367   7.587
   84MYC   HH1315192   5.443   5.339   7.590
   84MYC   H11415193   5.279   5.275   7.595
   84MYC    C7215194   5.306   5.459   7.707
   84MYC   H11515195   5.216   5.518   7.686
   84MYC   H11615196   5.388   5.529   7.721
   84MYC    C7115197   5.285   5.380   7.837
   84MYC   H11715198   5.374   5.320   7.858
   84MYC   H11815199   5.201   5.311   7.824
   84MYC    C7015200   5.256   5.472   7.956
   84MYC   H11915201   5.165   5.531   7.937
   84MYC   H12015202   5.338   5.543   7.968
   84MYC    C6915203   5.240   5.393   8.086
   84MYC   H12115204   5.331   5.335   8.104
   84MYC   H12215205   5.157   5.321   8.075
   84MYC    C6815206   5.212   5.483   8.207
   84MYC   HH1215207   5.109   5.522   8.200
   84MYC   H12315208   5.278   5.570   8.205
   84MYC    C6715209   5.232   5.409   8.339
   84MYC   H12415210   5.339   5.390   8.352
   84MYC   H12515211   5.182   5.311   8.335
   84MYC    C6615212   5.178   5.487   8.459
   84MYC   H12615213   5.069   5.481   8.458
   84MYC   H12715214   5.204   5.593   8.450
   84MYC    C6515215   5.232   5.433   8.592
   84MYC   H12815216   5.334   5.470   8.607
   84MYC   H12915217   5.237   5.323   8.588
   84MYC    C6415218   5.144   5.473   8.711
   84MYC   H13015219   5.045   5.428   8.698
   84MYC   H13115220   5.130   5.582   8.713
   84MYC    C6315221   5.203   5.426   8.845
   84MYC   HH1115222   5.293   5.485   8.867
   84MYC   H13215223   5.234   5.321   8.836
   84MYC    C6215224   5.102   5.439   8.959
   84MYC   H13315225   5.012   5.381   8.934
   84MYC   H13415226   5.071   5.544   8.970
   84MYC    C6115227   5.159   5.387   9.092
   84MYC   H13515228   5.249   5.445   9.118
   84MYC   H13615229   5.191   5.283   9.080
   84MYC    C6015230   5.057   5.395   9.204
   84MYC   H13715231   4.963   5.348   9.179
   84MYC    C5815232   5.103   5.382   9.346
   84MYC   H13815233   5.211   5.375   9.361
   84MYC    C5915234   5.051   5.515   9.297
   84MYC   H13915235   4.953   5.547   9.331
   84MYC   H14015236   5.122   5.595   9.281
   84MYC    C5715237   5.025   5.297   9.444
   84MYC   HH1015238   5.044   5.191   9.424
   84MYC   H14115239   4.917   5.313   9.431
   84MYC    C5615240   5.065   5.330   9.588
   84MYC   H14215241   5.048   5.437   9.606
   84MYC   H14315242   5.172   5.311   9.599
   84MYC    C5515243   4.990   5.249   9.695
   84MYC   H14415244   5.006   5.141   9.679
   84MYC   H14515245   4.882   5.268   9.687
   84MYC    C5415246   5.039   5.289   9.835
   84MYC   H14615247   5.023   5.397   9.848
   84MYC   H14715248   5.147   5.272   9.841
   84MYC    C5315249   4.971   5.214   9.951
   84MYC   H14815250   4.999   5.108   9.947
   84MYC   H14915251   4.862   5.219   9.941
   84MYC    C5215252   5.013   5.275  10.085
   84MYC    H9915253   4.976   5.378  10.090
   84MYC   H15015254   5.123   5.281  10.089
   84MYC    C5115255   4.964   5.198  10.209
   84MYC    H9715256   5.002   5.095  10.206
   84MYC    H9815257   4.855   5.194  10.209
   84MYC    C5015258   5.014   5.267  10.338
   84MYC    H9515259   4.973   5.369  10.342
   84MYC    H9615260   5.123   5.276  10.333
   84MYC    C4915261   4.977   5.194  10.468
   84MYC    H9315262   5.010   5.090  10.463
   84MYC    H9415263   4.868   5.192  10.479
   84MYC    C4815264   5.041   5.263  10.591
   84MYC    H9115265   5.008   5.367  10.594
   84MYC    H9215266   5.150   5.264  10.578
   84MYC    C4715267   5.007   5.195  10.724
   84MYC    H8915268   5.045   5.092  10.724
   84MYC    H9015269   4.899   5.189  10.736
   84MYC    C4615270   5.066   5.271  10.845
   84MYC    H8715271   5.026   5.372  10.846
   84MYC    H8815272   5.175   5.280  10.832
   84MYC    C4515273   5.038   5.200  10.980
   84MYC    H8515274   5.107   5.116  10.990
   84MYC    H8615275   4.937   5.157  10.977
   84MYC    C4415276   5.047   5.289  11.106
   84MYC    H8315277   5.048   5.223  11.194
   84MYC    H8415278   4.954   5.347  11.116
   84MYC    C1815279   5.166   5.386  11.115
   84MYC    H3115280   5.244   5.367  11.042
   84MYC    C1715281   5.144   5.529  11.160
   84MYC    H3015282   5.043   5.557  11.189
   84MYC    C1915283   5.213   5.432  11.251
   84MYC    H3215284   5.157   5.399  11.339
   84MYC    H3315285   5.320   5.442  11.266
   84MYC    C1615286   5.222   5.648  11.105
   84MYC    H2815287   5.321   5.616  11.069
   84MYC    H2915288   5.241   5.716  11.188
   84MYC    C1515289   5.147   5.726  10.995
   84MYC    H2615290   5.167   5.833  11.007
   84MYC    H2715291   5.039   5.714  11.008
   84MYC    C1415292   5.183   5.688  10.850
   84MYC    H2415293   5.110   5.737  10.784
   84MYC    H2515294   5.171   5.580  10.835
   84MYC    C1315295   5.325   5.732  10.807
   84MYC    H2215296   5.400   5.668  10.855
   84MYC    H2315297   5.344   5.835  10.841
   84MYC    C1215298   5.343   5.726  10.654
   84MYC    H2015299   5.266   5.788  10.607
   84MYC    H2115300   5.326   5.623  10.622
   84MYC    C1115301   5.482   5.774  10.606
   84MYC    H1815302   5.559   5.703  10.640
   84MYC    H1915303   5.505   5.870  10.653
   84MYC    C1015304   5.491   5.791  10.453
   84MYC    H1615305   5.591   5.827  10.427
   84MYC    H1715306   5.420   5.869  10.421
   84MYC     C915307   5.462   5.661  10.374
   84MYC    H1415308   5.359   5.627  10.395
   84MYC    H1515309   5.530   5.582  10.408
   84MYC     C815310   5.476   5.679  10.222
   84MYC    H1215311   5.578   5.712  10.199
   84MYC    H1315312   5.408   5.758  10.189
   84MYC     C715313   5.444   5.550  10.145
   84MYC    H1015314   5.340   5.520  10.166
   84MYC    H1115315   5.509   5.469  10.179
   84MYC     C615316   5.461   5.569   9.993
   84MYC     H815317   5.566   5.592   9.972
   84MYC     H915318   5.401   5.655   9.962
   84MYC     C515319   5.419   5.444   9.913
   84MYC     H615320   5.316   5.417   9.937
   84MYC     H715321   5.482   5.360   9.945
   84MYC     C415322   5.436   5.462   9.761
   84MYC     H415323   5.427   5.363   9.715
   84MYC     H515324   5.538   5.494   9.741
   84MYC     C215325   5.338   5.557   9.685
   84MYC     H215326   5.300   5.497   9.602
   84MYC     O315327   5.226   5.595   9.767
   84MYC     H315328   5.151   5.614   9.708
   84MYC     C115329   5.407   5.682   9.621
   84MYC     H115330   5.506   5.648   9.590
   84MYC    C8115331   5.425   5.800   9.718
   84MYC    O8215332   5.336   5.877   9.752
   84MYC    O8315333   5.551   5.815   9.766
   84MYC   H10515334   5.548   5.893   9.824
   84MYC    C2015335   5.333   5.724   9.491
   84MYC    H3415336   5.313   5.635   9.431
   84MYC    H3515337   5.236   5.768   9.516
   84MYC    C2115338   5.414   5.822   9.403
   84MYC    H3615339   5.438   5.913   9.459
   84MYC    H3715340   5.510   5.774   9.379
   84MYC    C2215341   5.339   5.858   9.274
   84MYC    H3815342   5.253   5.791   9.260
   84MYC    H3915343   5.297   5.959   9.283
   84MYC    C2315344   5.428   5.849   9.148
   84MYC    H4015345   5.508   5.923   9.155
   84MYC    H4115346   5.475   5.750   9.145
   84MYC    C2415347   5.348   5.869   9.018
   84MYC    H4215348   5.263   5.800   9.016
   84MYC    H4315349   5.308   5.971   9.015
   84MYC    C2515350   5.436   5.845   8.894
   84MYC    H4415351   5.520   5.914   8.895
   84MYC    H4515352   5.477   5.743   8.899
   84MYC    C2615353   5.358   5.861   8.762
   84MYC    H4615354   5.272   5.793   8.762
   84MYC    H4715355   5.320   5.963   8.755
   84MYC    C2715356   5.447   5.830   8.640
   84MYC    H4815357   5.540   5.887   8.647
   84MYC    H4915358   5.474   5.724   8.641
   84MYC    C2815359   5.377   5.864   8.508
   84MYC    H5015360   5.279   5.816   8.504
   84MYC    H5115361   5.360   5.973   8.504
   84MYC    C2915362   5.461   5.821   8.386
   84MYC    H5215363   5.563   5.859   8.396
   84MYC    H5315364   5.467   5.712   8.384
   84MYC    C3015365   5.401   5.873   8.254
   84MYC    H5415366   5.295   5.846   8.250
   84MYC    H5515367   5.406   5.982   8.253
   84MYC    C3115368   5.473   5.817   8.130
   84MYC    H5615369   5.578   5.846   8.133
   84MYC    H5715370   5.470   5.707   8.133
   84MYC    C3215371   5.409   5.867   8.000
   84MYC    H5815372   5.303   5.837   7.999
   84MYC    H5915373   5.411   5.976   7.999
   84MYC    C3315374   5.477   5.813   7.874
   84MYC    H6015375   5.579   5.853   7.868
   84MYC    H6115376   5.486   5.704   7.878
   84MYC    C3415377   5.399   5.854   7.748
   84MYC    H6215378   5.300   5.806   7.751
   84MYC    H6315379   5.383   5.962   7.749
   84MYC    C3515380   5.468   5.816   7.616
   84MYC    H6415381   5.568   5.862   7.612
   84MYC    H6515382   5.483   5.707   7.610
   84MYC    C3615383   5.385   5.864   7.496
   84MYC    H6615384   5.285   5.821   7.502
   84MYC    H6715385   5.374   5.973   7.502
   84MYC    C3715386   5.445   5.827   7.359
   84MYC    H6815387   5.550   5.859   7.354
   84MYC    H6915388   5.444   5.718   7.346
   84MYC    C3815389   5.367   5.894   7.244
   84MYC    H7015390   5.259   5.881   7.260
   84MYC    H7115391   5.386   6.002   7.248
   84MYC    C3915392   5.404   5.840   7.105
   84MYC    H7215393   5.513   5.840   7.093
   84MYC    H7315394   5.370   5.736   7.098
   84MYC    C4015395   5.339   5.923   6.992
   84MYC    H7415396   5.231   5.928   7.008
   84MYC    H7515397   5.378   6.026   6.998
   84MYC    C4115398   5.367   5.865   6.852
   84MYC    H7615399   5.475   5.848   6.841
   84MYC    H7715400   5.318   5.767   6.843
   84MYC    C4215401   5.318   5.958   6.739
   84MYC    H7815402   5.210   5.973   6.749
   84MYC    H7915403   5.366   6.056   6.750
   84MYC    C4315404   5.350   5.902   6.599
   84MYC    H8015405   5.316   5.973   6.522
   84MYC    H8115406   5.299   5.806   6.583
   84MYC    H8215407   5.458   5.887   6.587
   85MYC   HH1515408   5.737   5.141   6.629
   85MYC    C8015409   5.747   5.206   6.716
   85MYC   H10015410   5.841   5.262   6.707
   85MYC   H10115411   5.664   5.278   6.715
   85MYC    C7915412   5.746   5.123   6.846
   85MYC   H10215413   5.828   5.051   6.843
   85MYC   H10315414   5.652   5.066   6.851
   85MYC    C7815415   5.760   5.209   6.973
   85MYC   HH1415416   5.678   5.282   6.977
   85MYC   H10415417   5.853   5.267   6.967
   85MYC    C7715418   5.761   5.126   7.103
   85MYC   H10615419   5.849   5.060   7.103
   85MYC   H10715420   5.672   5.062   7.106
   85MYC    C7615421   5.764   5.214   7.230
   85MYC   H10815422   5.673   5.274   7.233
   85MYC   H10915423   5.848   5.284   7.223
   85MYC    C7515424   5.777   5.134   7.361
   85MYC   H11015425   5.877   5.087   7.365
   85MYC   H11115426   5.703   5.053   7.363
   85MYC    C7415427   5.756   5.224   7.485
   85MYC   H11215428   5.652   5.259   7.484
   85MYC   H11315429   5.820   5.312   7.476
   85MYC    C7315430   5.785   5.154   7.619
   85MYC   HH1315431   5.893   5.134   7.627
   85MYC   H11415432   5.733   5.057   7.623
   85MYC    C7215433   5.740   5.240   7.738
   85MYC   H11515434   5.631   5.256   7.731
   85MYC   H11615435   5.787   5.339   7.731
   85MYC    C7115436   5.771   5.179   7.876
   85MYC   H11715437   5.880   5.174   7.890
   85MYC   H11815438   5.733   5.077   7.881
   85MYC    C7015439   5.709   5.263   7.991
   85MYC   H11915440   5.601   5.268   7.976
   85MYC   H12015441   5.748   5.365   7.985
   85MYC    C6915442   5.738   5.206   8.131
   85MYC   H12115443   5.846   5.206   8.149
   85MYC   H12215444   5.705   5.101   8.135
   85MYC    C6815445   5.668   5.286   8.242
   85MYC   HH1215446   5.559   5.278   8.229
   85MYC   H12315447   5.694   5.392   8.233
   85MYC    C6715448   5.706   5.237   8.383
   85MYC   H12415449   5.813   5.253   8.398
   85MYC   H12515450   5.687   5.130   8.390
   85MYC    C6615451   5.629   5.310   8.496
   85MYC   H12615452   5.522   5.297   8.481
   85MYC   H12715453   5.650   5.418   8.491
   85MYC    C6515454   5.668   5.256   8.635
   85MYC   H12815455   5.777   5.266   8.647
   85MYC   H12915456   5.646   5.149   8.639
   85MYC    C6415457   5.598   5.329   8.751
   85MYC   H13015458   5.489   5.322   8.738
   85MYC   H13115459   5.625   5.435   8.750
   85MYC    C6315460   5.637   5.267   8.887
   85MYC   HH1115461   5.746   5.259   8.892
   85MYC   H13215462   5.598   5.164   8.892
   85MYC    C6215463   5.587   5.346   9.009
   85MYC   H13315464   5.479   5.360   9.004
   85MYC   H13415465   5.633   5.446   9.006
   85MYC    C6115466   5.625   5.276   9.141
   85MYC   H13515467   5.721   5.224   9.128
   85MYC   H13615468   5.551   5.198   9.163
   85MYC    C6015469   5.636   5.371   9.259
   85MYC   H13715470   5.540   5.410   9.291
   85MYC    C5815471   5.738   5.343   9.367
   85MYC   H13815472   5.805   5.258   9.349
   85MYC    C5915473   5.755   5.462   9.276
   85MYC   H13915474   5.735   5.561   9.316
   85MYC   H14015475   5.833   5.459   9.200
   85MYC    C5715476   5.700   5.359   9.513
   85MYC   HH1015477   5.600   5.317   9.530
   85MYC   H14115478   5.694   5.466   9.538
   85MYC    C5615479   5.800   5.291   9.610
   85MYC   H14215480   5.900   5.332   9.593
   85MYC   H14315481   5.805   5.184   9.589
   85MYC    C5515482   5.760   5.312   9.758
   85MYC   H14415483   5.666   5.258   9.777
   85MYC   H14515484   5.740   5.418   9.775
   85MYC    C5415485   5.866   5.268   9.860
   85MYC   H14615486   5.956   5.329   9.848
   85MYC   H14715487   5.895   5.165   9.841
   85MYC    C5315488   5.814   5.282  10.006
   85MYC   H14815489   5.726   5.217  10.018
   85MYC   H14915490   5.781   5.385  10.024
   85MYC    C5215491   5.921   5.243  10.110
   85MYC    H9915492   5.997   5.322  10.116
   85MYC   H15015493   5.973   5.154  10.076
   85MYC    C5115494   5.864   5.215  10.251
   85MYC    H9715495   5.939   5.158  10.307
   85MYC    H9815496   5.776   5.150  10.243
   85MYC    C5015497   5.828   5.341  10.333
   85MYC    H9515498   5.754   5.401  10.279
   85MYC    H9615499   5.919   5.402  10.341
   85MYC    C4915500   5.777   5.309  10.475
   85MYC    H9315501   5.828   5.220  10.513
   85MYC    H9415502   5.670   5.284  10.470
   85MYC    C4815503   5.799   5.424  10.575
   85MYC    H9115504   5.756   5.517  10.536
   85MYC    H9215505   5.907   5.441  10.586
   85MYC    C4715506   5.740   5.395  10.715
   85MYC    H8915507   5.769   5.294  10.746
   85MYC    H9015508   5.630   5.395  10.707
   85MYC    C4615509   5.784   5.495  10.823
   85MYC    H8715510   5.763   5.597  10.790
   85MYC    H8815511   5.893   5.488  10.836
   85MYC    C4515512   5.714   5.470  10.959
   85MYC    H8515513   5.735   5.367  10.992
   85MYC    H8615514   5.606   5.476  10.943
   85MYC    C4415515   5.752   5.569  11.071
   85MYC    H8315516   5.678   5.557  11.150
   85MYC    H8415517   5.742   5.671  11.033
   85MYC    C1815518   5.891   5.548  11.132
   85MYC    H3115519   5.945   5.464  11.090
   85MYC    C1715520   5.973   5.666  11.180
   85MYC    H3015521   5.927   5.764  11.171
   85MYC    C1915522   5.909   5.574  11.280
   85MYC    H3215523   5.826   5.613  11.337
   85MYC    H3315524   5.975   5.506  11.335
   85MYC    C1615525   6.125   5.672  11.168
   85MYC    H2815526   6.166   5.571  11.156
   85MYC    H2915527   6.166   5.710  11.263
   85MYC    C1515528   6.175   5.763  11.054
   85MYC    H2615529   6.283   5.778  11.066
   85MYC    H2715530   6.129   5.861  11.065
   85MYC    C1415531   6.149   5.707  10.912
   85MYC    H2415532   6.077   5.625  10.916
   85MYC    H2515533   6.242   5.664  10.874
   85MYC    C1315534   6.098   5.814  10.814
   85MYC    H2215535   6.163   5.902  10.818
   85MYC    H2315536   5.998   5.847  10.846
   85MYC    C1215537   6.090   5.764  10.668
   85MYC    H2015538   6.027   5.675  10.664
   85MYC    H2115539   6.191   5.734  10.636
   85MYC    C1115540   6.036   5.871  10.570
   85MYC    H1815541   6.086   5.966  10.590
   85MYC    H1915542   5.929   5.887  10.589
   85MYC    C1015543   6.057   5.836  10.421
   85MYC    H1615544   6.165   5.817  10.406
   85MYC    H1715545   6.032   5.923  10.360
   85MYC     C915546   5.977   5.714  10.370
   85MYC    H1415547   5.870   5.739  10.368
   85MYC    H1515548   5.987   5.631  10.441
   85MYC     C815549   6.023   5.664  10.232
   85MYC    H1215550   6.041   5.556  10.237
   85MYC    H1315551   6.120   5.709  10.207
   85MYC     C715552   5.925   5.692  10.116
   85MYC    H1015553   5.905   5.800  10.110
   85MYC    H1115554   5.829   5.642  10.136
   85MYC     C615555   5.982   5.642   9.982
   85MYC     H815556   5.995   5.533   9.986
   85MYC     H915557   6.082   5.685   9.969
   85MYC     C515558   5.896   5.678   9.860
   85MYC     H615559   5.878   5.786   9.861
   85MYC     H715560   5.798   5.630   9.867
   85MYC     C415561   5.965   5.634   9.728
   85MYC     H415562   5.947   5.527   9.714
   85MYC     H515563   6.073   5.644   9.738
   85MYC     C215564   5.922   5.707   9.598
   85MYC     H215565   5.950   5.638   9.517
   85MYC     O315566   5.780   5.725   9.594
   85MYC     H315567   5.754   5.780   9.670
   85MYC     C115568   5.998   5.841   9.572
   85MYC     H115569   6.104   5.814   9.569
   85MYC    C8115570   5.982   5.945   9.685
   85MYC    O8215571   5.878   6.004   9.708
   85MYC    O8315572   6.091   5.961   9.762
   85MYC   H10515573   6.064   6.024   9.831
   85MYC    C2015574   5.966   5.906   9.435
   85MYC    H3415575   5.864   5.947   9.436
   85MYC    H3515576   6.034   5.991   9.420
   85MYC    C2115577   5.980   5.807   9.318
   85MYC    H3615578   6.068   5.744   9.332
   85MYC    H3715579   5.892   5.741   9.318
   85MYC    C2215580   5.990   5.875   9.181
   85MYC    H3815581   5.910   5.949   9.171
   85MYC    H3915582   6.085   5.927   9.173
   85MYC    C2315583   5.977   5.771   9.068
   85MYC    H4015584   6.056   5.695   9.078
   85MYC    H4115585   5.881   5.719   9.079
   85MYC    C2415586   5.985   5.834   8.929
   85MYC    H4215587   5.925   5.926   8.927
   85MYC    H4315588   6.088   5.863   8.907
   85MYC    C2515589   5.933   5.739   8.820
   85MYC    H4415590   5.991   5.646   8.822
   85MYC    H4515591   5.828   5.713   8.842
   85MYC    C2615592   5.940   5.802   8.681
   85MYC    H4615593   5.891   5.900   8.683
   85MYC    H4715594   6.046   5.820   8.656
   85MYC    C2715595   5.876   5.715   8.573
   85MYC    H4815596   5.923   5.616   8.573
   85MYC    H4915597   5.769   5.700   8.596
   85MYC    C2815598   5.890   5.780   8.435
   85MYC    H5015599   5.832   5.873   8.433
   85MYC    H5115600   5.995   5.807   8.419
   85MYC    C2915601   5.845   5.688   8.321
   85MYC    H5215602   5.900   5.594   8.326
   85MYC    H5315603   5.738   5.664   8.331
   85MYC    C3015604   5.870   5.755   8.185
   85MYC    H5415605   5.806   5.843   8.176
   85MYC    H5515606   5.974   5.790   8.180
   85MYC    C3115607   5.845   5.660   8.067
   85MYC    H5615608   5.913   5.574   8.075
   85MYC    H5715609   5.743   5.622   8.071
   85MYC    C3215610   5.868   5.731   7.933
   85MYC    H5815611   5.801   5.817   7.926
   85MYC    H5915612   5.971   5.770   7.929
   85MYC    C3315613   5.845   5.638   7.813
   85MYC    H6015614   5.918   5.556   7.816
   85MYC    H6115615   5.745   5.593   7.820
   85MYC    C3415616   5.858   5.713   7.680
   85MYC    H6215617   5.790   5.799   7.681
   85MYC    H6315618   5.960   5.753   7.670
   85MYC    C3515619   5.825   5.624   7.559
   85MYC    H6415620   5.896   5.540   7.556
   85MYC    H6515621   5.725   5.581   7.572
   85MYC    C3615622   5.831   5.702   7.427
   85MYC    H6615623   5.766   5.790   7.434
   85MYC    H6715624   5.933   5.738   7.411
   85MYC    C3715625   5.787   5.616   7.307
   85MYC    H6815626   5.849   5.526   7.303
   85MYC    H6915627   5.683   5.583   7.322
   85MYC    C3815628   5.799   5.692   7.174
   85MYC    H7015629   5.739   5.784   7.179
   85MYC    H7115630   5.903   5.722   7.159
   85MYC    C3915631   5.752   5.608   7.054
   85MYC    H7215632   5.808   5.513   7.053
   85MYC    H7315633   5.646   5.583   7.066
   85MYC    C4015634   5.774   5.680   6.920
   85MYC    H7415635   5.717   5.773   6.919
   85MYC    H7515636   5.880   5.706   6.910
   85MYC    C4115637   5.733   5.593   6.799
   85MYC    H7615638   5.786   5.497   6.805
   85MYC    H7715639   5.625   5.571   6.806
   85MYC    C4215640   5.763   5.660   6.664
   85MYC    H7815641   5.709   5.755   6.657
   85MYC    H7915642   5.870   5.682   6.658
   85MYC    C4315643   5.725   5.571   6.545
   85MYC    H8015644   5.751   5.620   6.450
   85MYC    H8115645   5.617   5.551   6.544
   85MYC    H8215646   5.778   5.476   6.551
   86MYC   HH1515647   6.225   0.373   6.198
   86MYC    C8015648   6.195   0.319   6.108
   86MYC   H10015649   6.280   0.257   6.075
   86MYC   H10115650   6.112   0.252   6.133
   86MYC    C7915651   6.155   0.418   5.997
   86MYC   H10215652   6.241   0.483   5.976
   86MYC   H10315653   6.074   0.481   6.033
   86MYC    C7815654   6.110   0.348   5.866
   86MYC   HH1415655   6.012   0.302   5.882
   86MYC   H10415656   6.181   0.268   5.842
   86MYC    C7715657   6.102   0.445   5.747
   86MYC   H10615658   6.200   0.493   5.734
   86MYC   H10715659   6.030   0.525   5.769
   86MYC    C7615660   6.061   0.376   5.615
   86MYC   H10815661   5.955   0.351   5.619
   86MYC   H10915662   6.117   0.282   5.605
   86MYC    C7515663   6.089   0.465   5.492
   86MYC   H11015664   6.195   0.492   5.491
   86MYC   H11115665   6.032   0.558   5.500
   86MYC    C7415666   6.055   0.395   5.359
   86MYC   H11215667   5.948   0.372   5.356
   86MYC   H11315668   6.109   0.299   5.354
   86MYC    C7315669   6.093   0.480   5.236
   86MYC   HH1315670   6.196   0.516   5.247
   86MYC   H11415671   6.028   0.569   5.233
   86MYC    C7215672   6.082   0.402   5.104
   86MYC   H11515673   5.983   0.355   5.098
   86MYC   H11615674   6.156   0.321   5.105
   86MYC    C7115675   6.103   0.490   4.980
   86MYC   H11715676   6.194   0.551   4.993
   86MYC   H11815677   6.019   0.560   4.972
   86MYC    C7015678   6.115   0.407   4.851
   86MYC   H11915679   6.034   0.333   4.847
   86MYC   H12015680   6.209   0.352   4.854
   86MYC    C6915681   6.110   0.494   4.724
   86MYC   H12115682   6.179   0.578   4.734
   86MYC   H12215683   6.009   0.535   4.713
   86MYC    C6815684   6.147   0.413   4.599
   86MYC   HH1215685   6.085   0.323   4.593
   86MYC   H12315686   6.251   0.379   4.609
   86MYC    C6715687   6.132   0.494   4.469
   86MYC   H12415688   6.182   0.591   4.480
   86MYC   H12515689   6.026   0.513   4.451
   86MYC    C6615690   6.192   0.420   4.349
   86MYC   H12615691   6.146   0.321   4.340
   86MYC   H12715692   6.300   0.404   4.366
   86MYC    C6515693   6.173   0.496   4.217
   86MYC   H12815694   6.216   0.596   4.225
   86MYC   H12915695   6.065   0.508   4.199
   86MYC    C6415696   6.237   0.422   4.098
   86MYC   H13015697   6.205   0.318   4.099
   86MYC   H13115698   6.346   0.423   4.108
   86MYC    C6315699   6.197   0.486   3.964
   86MYC   HH1115700   6.239   0.587   3.957
   86MYC   H13215701   6.088   0.496   3.962
   86MYC    C6215702   6.241   0.402   3.843
   86MYC   H13315703   6.207   0.299   3.856
   86MYC   H13415704   6.351   0.400   3.837
   86MYC    C6115705   6.183   0.460   3.714
   86MYC   H13515706   6.226   0.559   3.697
   86MYC   H13615707   6.075   0.474   3.726
   86MYC    C6015708   6.206   0.371   3.594
   86MYC   H13715709   6.155   0.275   3.602
   86MYC    C5815710   6.208   0.436   3.459
   86MYC   H13815711   6.207   0.545   3.458
   86MYC    C5915712   6.333   0.372   3.513
   86MYC   H13915713   6.366   0.279   3.468
   86MYC   H14015714   6.413   0.438   3.546
   86MYC    C5715715   6.130   0.378   3.343
   86MYC   HH1015716   6.028   0.419   3.345
   86MYC   H14115717   6.122   0.269   3.351
   86MYC    C5615718   6.198   0.415   3.211
   86MYC   H14215719   6.286   0.351   3.198
   86MYC   H14315720   6.233   0.519   3.217
   86MYC    C5515721   6.106   0.403   3.089
   86MYC   H14415722   6.020   0.469   3.101
   86MYC   H14515723   6.069   0.300   3.080
   86MYC    C5415724   6.183   0.440   2.962
   86MYC   H14615725   6.263   0.366   2.947
   86MYC   H14715726   6.233   0.537   2.977
   86MYC    C5315727   6.097   0.449   2.836
   86MYC   H14815728   6.026   0.532   2.845
   86MYC   H14915729   6.038   0.357   2.824
   86MYC    C5215730   6.186   0.469   2.713
   86MYC    H9915731   6.252   0.381   2.705
   86MYC   H15015732   6.252   0.556   2.728
   86MYC    C5115733   6.110   0.486   2.581
   86MYC    H9715734   6.064   0.586   2.578
   86MYC    H9815735   6.029   0.412   2.575
   86MYC    C5015736   6.205   0.468   2.462
   86MYC    H9515737   6.247   0.367   2.467
   86MYC    H9615738   6.289   0.538   2.470
   86MYC    C4915739   6.137   0.485   2.326
   86MYC    H9315740   6.118   0.592   2.307
   86MYC    H9415741   6.040   0.434   2.327
   86MYC    C4815742   6.223   0.425   2.213
   86MYC    H9115743   6.232   0.317   2.231
   86MYC    H9215744   6.324   0.468   2.218
   86MYC    C4715745   6.165   0.449   2.074
   86MYC    H8915746   6.183   0.553   2.046
   86MYC    H9015747   6.056   0.435   2.076
   86MYC    C4615748   6.226   0.358   1.968
   86MYC    H8715749   6.213   0.253   1.998
   86MYC    H8815750   6.333   0.378   1.962
   86MYC    C4515751   6.162   0.379   1.830
   86MYC    H8515752   6.177   0.483   1.799
   86MYC    H8615753   6.054   0.363   1.839
   86MYC    C4415754   6.216   0.286   1.720
   86MYC    H8315755   6.160   0.306   1.628
   86MYC    H8415756   6.194   0.182   1.747
   86MYC    C1815757   6.365   0.305   1.694
   86MYC    H3115758   6.405   0.398   1.733
   86MYC    C1715759   0.009   0.186   1.692
   86MYC    H3015760   6.414   0.087   1.705
   86MYC    C1915761   6.424   0.258   1.564
   86MYC    H3215762   6.358   0.209   1.493
   86MYC    H3315763   0.050   0.321   1.518
   86MYC    C1615764   0.151   0.193   1.746
   86MYC    H2815765   0.186   0.297   1.749
   86MYC    H2915766   0.218   0.143   1.675
   86MYC    C1515767   0.174   0.128   1.884
   86MYC    H2615768   0.282   0.117   1.899
   86MYC    H2715769   0.132   0.026   1.885
   86MYC    C1415770   0.115   0.209   2.001
   86MYC    H2415771   0.006   0.197   2.001
   86MYC    H2515772   0.136   0.315   1.986
   86MYC    C1315773   0.168   0.167   2.140
   86MYC    H2215774   0.277   0.159   2.137
   86MYC    H2315775   0.129   0.067   2.166
   86MYC    C1215776   0.129   0.268   2.249
   86MYC    H2015777   0.021   0.285   2.247
   86MYC    H2115778   0.176   0.365   2.225
   86MYC    C1115779   0.171   0.229   2.393
   86MYC    H1815780   0.166   0.320   2.453
   86MYC    H1915781   0.275   0.197   2.393
   86MYC    C1015782   0.085   0.118   2.458
   86MYC    H1615783   0.145   0.028   2.471
   86MYC    H1715784   0.002   0.091   2.392
   86MYC     C915785   0.027   0.161   2.595
   86MYC    H1415786   6.404   0.086   2.629
   86MYC    H1515787   6.420   0.254   2.580
   86MYC     C815788   0.133   0.183   2.705
   86MYC    H1215789   0.220   0.237   2.665
   86MYC    H1315790   0.170   0.086   2.740
   86MYC     C715791   0.077   0.263   2.825
   86MYC    H1015792   6.443   0.208   2.869
   86MYC    H1115793   0.037   0.358   2.788
   86MYC     C615794   0.182   0.294   2.933
   86MYC     H815795   0.262   0.356   2.890
   86MYC     H915796   0.229   0.200   2.965
   86MYC     C515797   0.121   0.365   3.055
   86MYC     H615798   0.044   0.301   3.100
   86MYC     H715799   0.068   0.455   3.019
   86MYC     C415800   0.222   0.410   3.163
   86MYC     H415801   0.168   0.477   3.231
   86MYC     H515802   0.299   0.473   3.117
   86MYC     C215803   0.289   0.301   3.252
   86MYC     H215804   0.268   0.332   3.355
   86MYC     O315805   0.230   0.172   3.233
   86MYC     H315806   0.261   0.137   3.148
   86MYC     C115807   0.445   0.292   3.239
   86MYC     H115808   0.482   0.394   3.257
   86MYC    C8115809   0.490   0.251   3.097
   86MYC    O8215810   0.470   0.141   3.048
   86MYC    O8315811   0.564   0.344   3.032
   86MYC   H10515812   0.588   0.304   2.948
   86MYC    C2015813   0.514   0.201   3.345
   86MYC    H3415814   0.497   0.096   3.320
   86MYC    H3515815   0.622   0.218   3.339
   86MYC    C2115816   0.467   0.227   3.490
   86MYC    H3615817   0.462   0.335   3.508
   86MYC    H3715818   0.365   0.188   3.501
   86MYC    C2215819   0.556   0.162   3.598
   86MYC    H3815820   0.573   0.056   3.573
   86MYC    H3915821   0.653   0.212   3.599
   86MYC    C2315822   0.490   0.172   3.736
   86MYC    H4015823   0.464   0.277   3.756
   86MYC    H4115824   0.396   0.116   3.735
   86MYC    C2415825   0.577   0.120   3.852
   86MYC    H4215826   0.608   0.017   3.832
   86MYC    H4315827   0.668   0.181   3.859
   86MYC    C2515828   0.501   0.125   3.986
   86MYC    H4415829   0.460   0.226   4.000
   86MYC    H4515830   0.415   0.057   3.980
   86MYC    C2615831   0.585   0.087   4.108
   86MYC    H4615832   0.620   6.433   4.099
   86MYC    H4715833   0.674   0.151   4.113
   86MYC    C2715834   0.504   0.103   4.238
   86MYC    H4815835   0.470   0.207   4.246
   86MYC    H4915836   0.415   0.040   4.233
   86MYC    C2815837   0.582   0.067   4.366
   86MYC    H5015838   0.606   6.410   4.365
   86MYC    H5115839   0.676   0.122   4.369
   86MYC    C2915840   0.499   0.100   4.491
   86MYC    H5215841   0.483   0.208   4.495
   86MYC    H5315842   0.400   0.053   4.482
   86MYC    C3015843   0.562   0.054   4.623
   86MYC    H5415844   0.573   6.395   4.623
   86MYC    H5515845   0.663   0.096   4.633
   86MYC    C3115846   0.477   0.097   4.743
   86MYC    H5615847   0.472   0.207   4.745
   86MYC    H5715848   0.374   0.061   4.730
   86MYC    C3215849   0.529   0.047   4.879
   86MYC    H5815850   0.529   6.387   4.880
   86MYC    H5915851   0.633   0.080   4.892
   86MYC    C3315852   0.444   0.100   4.995
   86MYC    H6015853   0.445   0.210   4.993
   86MYC    H6115854   0.340   0.069   4.981
   86MYC    C3415855   0.493   0.053   5.132
   86MYC    H6215856   0.487   6.393   5.137
   86MYC    H6315857   0.599   0.079   5.144
   86MYC    C3515858   0.413   0.115   5.248
   86MYC    H6415859   0.417   0.224   5.240
   86MYC    H6515860   0.308   0.086   5.239
   86MYC    C3615861   0.466   0.072   5.386
   86MYC    H6615862   0.456   6.413   5.395
   86MYC    H6715863   0.572   0.096   5.393
   86MYC    C3715864   0.391   0.140   5.502
   86MYC    H6815865   0.405   0.249   5.496
   86MYC    H6915866   0.284   0.120   5.493
   86MYC    C3815867   0.440   0.090   5.639
   86MYC    H7015868   0.424   6.432   5.645
   86MYC    H7115869   0.548   0.107   5.648
   86MYC    C3915870   0.369   0.158   5.758
   86MYC    H7215871   0.396   0.265   5.761
   86MYC    H7315872   0.260   0.152   5.743
   86MYC    C4015873   0.405   0.092   5.892
   86MYC    H7415874   0.375   6.436   5.888
   86MYC    H7515875   0.514   0.095   5.906
   86MYC    C4115876   0.337   0.158   6.014
   86MYC    H7615877   0.380   0.258   6.030
   86MYC    H7715878   0.230   0.172   5.993
   86MYC    C4215879   0.352   0.074   6.143
   86MYC    H7815880   0.303   6.426   6.127
   86MYC    H7915881   0.458   0.054   6.162
   86MYC    C4315882   0.289   0.141   6.266
   86MYC    H8015883   0.294   0.074   6.353
   86MYC    H8115884   0.184   0.166   6.248
   86MYC    H8215885   0.343   0.233   6.291
   87MYC   HH1515886   0.035   0.835   6.202
   87MYC    C8015887   0.039   0.911   6.124
   87MYC   H10015888   6.430   0.998   6.157
   87MYC   H10115889   0.143   0.942   6.111
   87MYC    C7915890   6.432   0.856   5.992
   87MYC   H10215891   6.328   0.823   6.009
   87MYC   H10315892   0.039   0.767   5.963
   87MYC    C7815893   6.435   0.958   5.876
   87MYC   HH1415894   0.090   0.984   5.855
   87MYC   H10415895   6.384   1.050   5.908
   87MYC    C7715896   6.368   0.905   5.748
   87MYC   H10615897   6.262   0.885   5.768
   87MYC   H10715898   6.415   0.809   5.721
   87MYC    C7615899   6.381   1.001   5.628
   87MYC   H10815900   0.037   1.018   5.608
   87MYC   H10915901   6.337   1.098   5.653
   87MYC    C7515902   6.313   0.944   5.502
   87MYC   H11015903   6.204   0.944   5.516
   87MYC   H11115904   6.344   0.840   5.489
   87MYC    C7415905   6.348   1.023   5.374
   87MYC   H11215906   0.007   1.034   5.368
   87MYC   H11315907   6.305   1.124   5.379
   87MYC    C7315908   6.298   0.951   5.247
   87MYC   HH1315909   6.188   0.952   5.244
   87MYC   H11415910   6.329   0.846   5.252
   87MYC    C7215911   6.354   1.013   5.117
   87MYC   H11515912   0.012   1.031   5.130
   87MYC   H11615913   6.308   1.111   5.100
   87MYC    C7115914   6.332   0.923   4.995
   87MYC   H11715915   6.227   0.925   4.965
   87MYC   H11815916   6.356   0.819   5.021
   87MYC    C7015917   6.421   0.964   4.875
   87MYC   H11915918   0.077   0.957   4.905
   87MYC   H12015919   6.402   1.069   4.850
   87MYC    C6915920   6.397   0.876   4.752
   87MYC   H12115921   6.296   0.896   4.713
   87MYC   H12215922   6.399   0.770   4.781
   87MYC    C6815923   0.051   0.899   4.641
   87MYC   HH1215924   0.149   0.864   4.675
   87MYC   H12315925   0.060   1.007   4.621
   87MYC    C6715926   0.011   0.827   4.511
   87MYC   H12415927   6.365   0.867   4.477
   87MYC   H12515928   6.446   0.720   4.531
   87MYC    C6615929   0.115   0.843   4.399
   87MYC   H12615930   0.206   0.787   4.424
   87MYC   H12715931   0.143   0.949   4.389
   87MYC    C6515932   0.059   0.794   4.264
   87MYC   H12815933   6.414   0.846   4.245
   87MYC   H12915934   0.035   0.686   4.271
   87MYC    C6415935   0.153   0.817   4.146
   87MYC   H13015936   0.241   0.752   4.154
   87MYC   H13115937   0.189   0.921   4.147
   87MYC    C6315938   0.081   0.791   4.013
   87MYC   HH1115939   6.443   0.858   4.006
   87MYC   H13215940   0.043   0.688   4.011
   87MYC    C6215941   0.169   0.814   3.889
   87MYC   H13315942   0.251   0.740   3.889
   87MYC   H13415943   0.215   0.914   3.893
   87MYC    C6115944   0.087   0.801   3.760
   87MYC   H13515945   0.012   0.881   3.758
   87MYC   H13615946   0.031   0.706   3.762
   87MYC    C6015947   0.171   0.805   3.634
   87MYC   H13715948   0.242   0.722   3.629
   87MYC    C5815949   0.104   0.846   3.506
   87MYC   H13815950   0.002   0.884   3.515
   87MYC    C5915951   0.213   0.933   3.566
   87MYC   H13915952   0.309   0.935   3.517
   87MYC   H14015953   0.183   1.027   3.611
   87MYC    C5715954   0.126   0.766   3.380
   87MYC   HH1015955   0.071   0.671   3.388
   87MYC   H14115956   0.232   0.740   3.369
   87MYC    C5615957   0.078   0.842   3.256
   87MYC   H14215958   0.131   0.939   3.251
   87MYC   H14315959   6.421   0.864   3.265
   87MYC    C5515960   0.104   0.763   3.127
   87MYC   H14415961   0.049   0.668   3.132
   87MYC   H14515962   0.211   0.740   3.121
   87MYC    C5415963   0.060   0.840   3.002
   87MYC   H14615964   0.104   0.941   3.005
   87MYC   H14715965   6.401   0.853   3.003
   87MYC    C5315966   0.103   0.769   2.874
   87MYC   H14815967   0.048   0.675   2.864
   87MYC   H14915968   0.210   0.743   2.881
   87MYC    C5215969   0.082   0.855   2.749
   87MYC    H9915970   0.131   0.952   2.762
   87MYC   H15015971   6.424   0.874   2.735
   87MYC    C5115972   0.138   0.788   2.623
   87MYC    H9715973   0.090   0.690   2.612
   87MYC    H9815974   0.245   0.769   2.638
   87MYC    C5015975   0.117   0.870   2.495
   87MYC    H9515976   0.161   0.970   2.507
   87MYC    H9615977   0.009   0.883   2.479
   87MYC    C4915978   0.180   0.798   2.375
   87MYC    H9315979   0.158   0.691   2.382
   87MYC    H9415980   0.288   0.810   2.382
   87MYC    C4815981   0.133   0.851   2.238
   87MYC    H9115982   0.195   0.935   2.207
   87MYC    H9215983   0.030   0.888   2.248
   87MYC    C4715984   0.135   0.741   2.130
   87MYC    H8915985   0.083   0.652   2.168
   87MYC    H9015986   0.239   0.711   2.110
   87MYC    C4615987   0.067   0.785   2.000
   87MYC    H8715988   0.132   0.856   1.947
   87MYC    H8815989   6.425   0.840   2.025
   87MYC    C4515990   0.027   0.667   1.908
   87MYC    H8515991   6.397   0.610   1.957
   87MYC    H8615992   0.111   0.598   1.897
   87MYC    C4415993   6.429   0.713   1.769
   87MYC    H8315994   6.407   0.624   1.708
   87MYC    H8415995   0.061   0.764   1.719
   87MYC    C1815996   6.306   0.803   1.773
   87MYC    H3115997   6.226   0.759   1.832
   87MYC    C1715998   6.315   0.954   1.772
   87MYC    H3015999   6.414   0.998   1.762
   87MYC    C1916000   6.264   0.879   1.651
   87MYC    H3216001   6.328   0.877   1.563
   87MYC    H3316002   6.158   0.882   1.629
   87MYC    C1616003   6.217   1.041   1.850
   87MYC    H2816004   6.160   0.981   1.921
   87MYC    H2916005   6.143   1.081   1.780
   87MYC    C1516006   6.280   1.161   1.924
   87MYC    H2616007   6.198   1.225   1.958
   87MYC    H2716008   6.339   1.221   1.854
   87MYC    C1416009   6.367   1.125   2.047
   87MYC    H2416010   0.008   1.074   2.014
   87MYC    H2516011   6.313   1.057   2.112
   87MYC    C1316012   6.408   1.251   2.128
   87MYC    H2216013   6.317   1.307   2.152
   87MYC    H2316014   0.020   1.315   2.065
   87MYC    C1216015   0.031   1.222   2.261
   87MYC    H2016016   0.117   1.157   2.242
   87MYC    H2116017   6.413   1.168   2.328
   87MYC    C1116018   0.081   1.352   2.328
   87MYC    H1816019   0.007   1.431   2.316
   87MYC    H1916020   0.171   1.386   2.275
   87MYC    C1016021   0.116   1.338   2.479
   87MYC    H1616022   0.185   1.420   2.504
   87MYC    H1716023   0.171   1.245   2.497
   87MYC     C916024   6.444   1.349   2.575
   87MYC    H1416025   6.360   1.398   2.525
   87MYC    H1516026   0.023   1.417   2.657
   87MYC     C816027   6.397   1.216   2.638
   87MYC    H1216028   0.033   1.166   2.685
   87MYC    H1316029   6.358   1.149   2.560
   87MYC     C716030   6.287   1.239   2.745
   87MYC    H1016031   6.197   1.278   2.696
   87MYC    H1116032   6.323   1.317   2.813
   87MYC     C616033   6.250   1.114   2.828
   87MYC     H816034   6.340   1.077   2.879
   87MYC     H916035   6.221   1.033   2.759
   87MYC     C516036   6.135   1.134   2.931
   87MYC     H616037   6.128   1.044   2.993
   87MYC     H716038   6.041   1.139   2.874
   87MYC     C416039   6.141   1.259   3.023
   87MYC     H416040   6.041   1.274   3.066
   87MYC     H516041   6.157   1.348   2.961
   87MYC     C216042   6.241   1.257   3.143
   87MYC     H216043   6.193   1.201   3.224
   87MYC     O316044   6.362   1.187   3.108
   87MYC     H316045   6.409   1.243   3.043
   87MYC     C116046   6.275   1.400   3.198
   87MYC     H116047   6.181   1.444   3.234
   87MYC    C8116048   6.326   1.496   3.088
   87MYC    O8216049   6.271   1.600   3.057
   87MYC    O8316050   6.438   1.454   3.024
   87MYC   H10516051   0.012   1.526   2.963
   87MYC    C2016052   6.375   1.401   3.318
   87MYC    H3416053   0.009   1.333   3.296
   87MYC    H3516054   6.419   1.501   3.327
   87MYC    C2116055   6.315   1.364   3.455
   87MYC    H3616056   6.248   1.445   3.488
   87MYC    H3716057   6.254   1.273   3.446
   87MYC    C2216058   6.425   1.342   3.561
   87MYC    H3816059   0.035   1.256   3.529
   87MYC    H3916060   0.043   1.428   3.564
   87MYC    C2316061   6.372   1.314   3.704
   87MYC    H4016062   6.335   1.408   3.748
   87MYC    H4116063   6.287   1.245   3.699
   87MYC    C2416064   0.032   1.253   3.794
   87MYC    H4216065   0.068   1.162   3.746
   87MYC    H4316066   0.117   1.321   3.800
   87MYC    C2516067   6.435   1.214   3.936
   87MYC    H4416068   6.327   1.193   3.936
   87MYC    H4516069   0.035   1.120   3.964
   87MYC    C2616070   0.018   1.319   4.044
   87MYC    H4616071   0.127   1.332   4.048
   87MYC    H4716072   6.424   1.416   4.017
   87MYC    C2716073   6.416   1.277   4.184
   87MYC    H4816074   6.309   1.300   4.190
   87MYC    H4916075   6.426   1.169   4.196
   87MYC    C2816076   0.042   1.346   4.299
   87MYC    H5016077   0.145   1.307   4.302
   87MYC    H5116078   0.049   1.454   4.281
   87MYC    C2916079   6.424   1.322   4.436
   87MYC    H5216080   6.329   1.375   4.437
   87MYC    H5316081   6.402   1.215   4.448
   87MYC    C3016082   0.061   1.369   4.554
   87MYC    H5416083   0.148   1.303   4.563
   87MYC    H5516084   0.100   1.470   4.534
   87MYC    C3116085   6.433   1.371   4.687
   87MYC    H5616086   6.350   1.442   4.680
   87MYC    H5716087   6.389   1.272   4.705
   87MYC    C3216088   0.073   1.409   4.806
   87MYC    H5816089   0.156   1.338   4.813
   87MYC    H5916090   0.116   1.509   4.789
   87MYC    C3316091   6.447   1.410   4.941
   87MYC    H6016092   6.362   1.480   4.936
   87MYC    H6116093   6.405   1.310   4.959
   87MYC    C3416094   0.089   1.449   5.058
   87MYC    H6216095   0.183   1.393   5.050
   87MYC    H6316096   0.115   1.556   5.048
   87MYC    C3516097   0.028   1.424   5.197
   87MYC    H6416098   6.382   1.476   5.206
   87MYC    H6516099   0.008   1.316   5.208
   87MYC    C3616100   0.123   1.471   5.309
   87MYC    H6616101   0.224   1.435   5.288
   87MYC    H6716102   0.127   1.580   5.307
   87MYC    C3716103   0.082   1.424   5.450
   87MYC    H6816104   6.429   1.454   5.471
   87MYC    H6916105   0.087   1.315   5.455
   87MYC    C3816106   0.176   1.485   5.557
   87MYC    H7016107   0.279   1.456   5.534
   87MYC    H7116108   0.171   1.594   5.549
   87MYC    C3916109   0.143   1.443   5.701
   87MYC    H7216110   0.038   1.469   5.724
   87MYC    H7316111   0.152   1.334   5.712
   87MYC    C4016112   0.236   1.513   5.802
   87MYC    H7416113   0.340   1.484   5.782
   87MYC    H7516114   0.231   1.622   5.786
   87MYC    C4116115   0.203   1.484   5.950
   87MYC    H7616116   0.099   1.515   5.970
   87MYC    H7716117   0.209   1.376   5.968
   87MYC    C4216118   0.298   1.558   6.046
   87MYC    H7816119   0.401   1.525   6.028
   87MYC    H7916120   0.295   1.666   6.025
   87MYC    C4316121   0.264   1.536   6.195
   87MYC    H8016122   0.266   1.429   6.220
   87MYC    H8116123   0.164   1.576   6.218
   87MYC    H8216124   0.337   1.587   6.258
   88MYC   HH1516125   6.241   2.003   6.239
   88MYC    C8016126   6.311   2.013   6.155
   88MYC   H10016127   6.329   2.120   6.138
   88MYC   H10116128   6.406   1.967   6.184
   88MYC    C7916129   6.254   1.946   6.029
   88MYC   H10216130   6.156   1.991   6.006
   88MYC   H10316131   6.237   1.840   6.049
   88MYC    C7816132   6.347   1.961   5.906
   88MYC   HH1416133   6.442   1.912   5.926
   88MYC   H10416134   6.369   2.067   5.890
   88MYC    C7716135   6.285   1.903   5.777
   88MYC   H10616136   6.184   1.943   5.764
   88MYC   H10716137   6.275   1.794   5.788
   88MYC    C7616138   6.369   1.935   5.652
   88MYC   H10816139   0.019   1.891   5.662
   88MYC   H10916140   6.382   2.044   5.644
   88MYC    C7516141   6.304   1.884   5.522
   88MYC   H11016142   6.203   1.928   5.512
   88MYC   H11116143   6.290   1.775   5.529
   88MYC    C7416144   6.386   1.917   5.397
   88MYC   H11216145   0.035   1.870   5.405
   88MYC   H11316146   6.402   2.025   5.391
   88MYC    C7316147   6.317   1.869   5.268
   88MYC   HH1316148   6.223   1.924   5.255
   88MYC   H11416149   6.291   1.762   5.278
   88MYC    C7216150   6.404   1.886   5.142
   88MYC   H11516151   0.045   1.825   5.152
   88MYC   H11616152   6.435   1.991   5.134
   88MYC    C7116153   6.328   1.846   5.015
   88MYC   H11716154   6.243   1.914   5.002
   88MYC   H11816155   6.287   1.745   5.027
   88MYC    C7016156   6.414   1.848   4.887
   88MYC   H11916157   0.036   1.765   4.891
   88MYC   H12016158   0.022   1.941   4.883
   88MYC    C6916159   6.327   1.838   4.761
   88MYC   H12116160   6.269   1.930   4.753
   88MYC   H12216161   6.255   1.756   4.773
   88MYC    C6816162   6.407   1.815   4.632
   88MYC   HH1216163   6.436   1.710   4.625
   88MYC   H12316164   0.049   1.874   4.633
   88MYC    C6716165   6.324   1.855   4.508
   88MYC   H12416166   6.319   1.965   4.505
   88MYC   H12516167   6.221   1.819   4.519
   88MYC    C6616168   6.381   1.803   4.375
   88MYC   H12616169   6.357   1.697   4.365
   88MYC   H12716170   0.041   1.811   4.376
   88MYC    C6516171   6.325   1.881   4.256
   88MYC   H12816172   6.359   1.986   4.262
   88MYC   H12916173   6.215   1.883   4.263
   88MYC    C6416174   6.364   1.824   4.119
   88MYC   H13016175   6.323   1.722   4.110
   88MYC   H13116176   0.023   1.816   4.111
   88MYC    C6316177   6.310   1.911   4.004
   88MYC   HH1116178   6.362   2.008   4.005
   88MYC   H13216179   6.204   1.932   4.023
   88MYC    C6216180   6.324   1.847   3.865
   88MYC   H13316181   6.271   1.751   3.865
   88MYC   H13416182   6.429   1.827   3.844
   88MYC    C6116183   6.264   1.938   3.756
   88MYC   H13516184   6.326   2.029   3.748
   88MYC   H13616185   6.164   1.970   3.786
   88MYC    C6016186   6.254   1.869   3.621
   88MYC   H13716187   6.189   1.782   3.623
   88MYC    C5816188   6.251   1.954   3.497
   88MYC   H13816189   6.267   2.060   3.509
   88MYC    C5916190   6.370   1.864   3.524
   88MYC   H13916191   6.381   1.774   3.465
   88MYC   H14016192   0.013   1.911   3.555
   88MYC    C5716193   6.153   1.923   3.385
   88MYC   HH1016194   6.054   1.964   3.410
   88MYC   H14116195   6.141   1.815   3.374
   88MYC    C5616196   6.200   1.983   3.252
   88MYC   H14216197   6.303   1.948   3.233
   88MYC   H14316198   6.204   2.092   3.260
   88MYC    C5516199   6.112   1.943   3.132
   88MYC   H14416200   6.013   1.989   3.141
   88MYC   H14516201   6.098   1.834   3.132
   88MYC    C5416202   6.177   1.985   3.000
   88MYC   H14616203   6.280   1.945   2.999
   88MYC   H14716204   6.186   2.094   2.995
   88MYC    C5316205   6.104   1.935   2.875
   88MYC   H14816206   6.013   1.994   2.858
   88MYC   H14916207   6.072   1.831   2.891
   88MYC    C5216208   6.195   1.940   2.751
   88MYC    H9916209   6.289   1.890   2.775
   88MYC   H15016210   6.220   2.044   2.727
   88MYC    C5116211   6.134   1.872   2.627
   88MYC    H9716212   6.048   1.931   2.591
   88MYC    H9816213   6.096   1.773   2.657
   88MYC    C5016214   6.237   1.855   2.515
   88MYC    H9516215   6.332   1.820   2.556
   88MYC    H9616216   6.257   1.953   2.469
   88MYC    C4916217   6.191   1.755   2.408
   88MYC    H9316218   6.094   1.788   2.368
   88MYC    H9416219   6.175   1.657   2.454
   88MYC    C4816220   6.291   1.741   2.292
   88MYC    H9116221   6.388   1.707   2.332
   88MYC    H9216222   6.308   1.840   2.247
   88MYC    C4716223   6.242   1.642   2.185
   88MYC    H8916224   6.139   1.668   2.158
   88MYC    H9016225   6.240   1.541   2.226
   88MYC    C4616226   6.330   1.645   2.058
   88MYC    H8716227   6.431   1.610   2.083
   88MYC    H8816228   6.338   1.749   2.024
   88MYC    C4516229   6.270   1.560   1.945
   88MYC    H8516230   6.169   1.594   1.923
   88MYC    H8616231   6.261   1.456   1.979
   88MYC    C4416232   6.354   1.561   1.815
   88MYC    H8316233   6.303   1.498   1.742
   88MYC    H8416234   0.001   1.515   1.834
   88MYC    C1816235   6.372   1.701   1.756
   88MYC    H3116236   6.282   1.762   1.763
   88MYC    C1716237   0.055   1.773   1.757
   88MYC    H3016238   0.141   1.720   1.799
   88MYC    C1916239   0.001   1.716   1.629
   88MYC    H3216240   0.049   1.627   1.588
   88MYC    H3316241   6.411   1.785   1.555
   88MYC    C1616242   0.063   1.925   1.775
   88MYC    H2816243   6.414   1.964   1.802
   88MYC    H2916244   0.090   1.971   1.680
   88MYC    C1516245   0.165   1.970   1.881
   88MYC    H2616246   0.168   2.080   1.882
   88MYC    H2716247   0.265   1.937   1.850
   88MYC    C1416248   0.136   1.919   2.023
   88MYC    H2416249   0.136   1.809   2.024
   88MYC    H2516250   0.035   1.951   2.054
   88MYC    C1316251   0.238   1.969   2.126
   88MYC    H2216252   0.239   2.079   2.125
   88MYC    H2316253   0.338   1.936   2.096
   88MYC    C1216254   0.209   1.921   2.270
   88MYC    H2016255   0.199   1.812   2.271
   88MYC    H2116256   0.114   1.963   2.303
   88MYC    C1116257   0.322   1.963   2.365
   88MYC    H1816258   0.345   2.068   2.348
   88MYC    H1916259   0.413   1.907   2.340
   88MYC    C1016260   0.292   1.947   2.515
   88MYC    H1616261   0.387   1.953   2.569
   88MYC    H1716262   0.250   1.847   2.535
   88MYC     C916263   0.196   2.056   2.567
   88MYC    H1416264   0.094   2.037   2.531
   88MYC    H1516265   0.227   2.153   2.528
   88MYC     C816266   0.197   2.064   2.720
   88MYC    H1216267   0.300   2.084   2.753
   88MYC    H1316268   0.168   1.967   2.763
   88MYC     C716269   0.104   2.174   2.775
   88MYC    H1016270  -0.000   2.141   2.766
   88MYC    H1116271   0.115   2.266   2.716
   88MYC     C616272   0.139   2.205   2.921
   88MYC     H816273   0.233   2.260   2.924
   88MYC     H916274   0.155   2.110   2.973
   88MYC     C516275   0.030   2.284   2.996
   88MYC     H616276   6.393   2.218   3.006
   88MYC     H716277  -0.001   2.370   2.936
   88MYC     C416278   0.072   2.333   3.136
   88MYC     H416279   6.433   2.374   3.185
   88MYC     H516280   0.142   2.417   3.125
   88MYC     C216281   0.136   2.225   3.228
   88MYC     H216282   0.078   2.132   3.216
   88MYC     O316283   0.271   2.201   3.187
   88MYC     H316284   0.313   2.288   3.171
   88MYC     C116285   0.132   2.261   3.379
   88MYC     H116286   0.027   2.251   3.410
   88MYC    C8116287   0.171   2.408   3.406
   88MYC    O8216288   0.092   2.491   3.446
   88MYC    O8316289   0.303   2.437   3.392
   88MYC   H10516290   0.311   2.531   3.415
   88MYC    C2016291   0.214   2.160   3.464
   88MYC    H3416292   0.178   2.059   3.442
   88MYC    H3516293   0.320   2.163   3.435
   88MYC    C2116294   0.206   2.185   3.615
   88MYC    H3616295   0.244   2.285   3.638
   88MYC    H3716296   0.101   2.182   3.646
   88MYC    C2216297   0.287   2.082   3.695
   88MYC    H3816298   0.249   1.981   3.672
   88MYC    H3916299   0.392   2.085   3.664
   88MYC    C2316300   0.276   2.108   3.845
   88MYC    H4016301   0.318   2.207   3.869
   88MYC    H4116302   0.170   2.110   3.873
   88MYC    C2416303   0.348   2.002   3.930
   88MYC    H4216304   0.321   1.901   3.895
   88MYC    H4316305   0.456   2.012   3.920
   88MYC    C2516306   0.307   2.015   4.078
   88MYC    H4416307   0.336   2.115   4.114
   88MYC    H4516308   0.198   2.009   4.085
   88MYC    C2616309   0.369   1.907   4.168
   88MYC    H4616310   0.342   1.808   4.127
   88MYC    H4716311   0.478   1.915   4.166
   88MYC    C2716312   0.317   1.915   4.312
   88MYC    H4816313   0.209   1.933   4.309
   88MYC    H4916314   0.332   1.819   4.362
   88MYC    C2816315   0.383   2.026   4.397
   88MYC    H5016316   0.488   1.998   4.417
   88MYC    H5116317   0.384   2.121   4.343
   88MYC    C2916318   0.307   2.044   4.529
   88MYC    H5216319   0.208   2.086   4.507
   88MYC    H5316320   0.291   1.945   4.574
   88MYC    C3016321   0.379   2.133   4.631
   88MYC    H5416322   0.477   2.088   4.654
   88MYC    H5516323   0.399   2.232   4.588
   88MYC    C3116324   0.296   2.148   4.759
   88MYC    H5616325   0.250   2.248   4.761
   88MYC    H5716326   0.213   2.077   4.758
   88MYC    C3216327   0.376   2.127   4.888
   88MYC    H5816328   0.436   2.035   4.880
   88MYC    H5916329   0.446   2.210   4.902
   88MYC    C3316330   0.284   2.116   5.011
   88MYC    H6016331   0.219   2.204   5.014
   88MYC    H6116332   0.220   2.028   5.000
   88MYC    C3416333   0.361   2.106   5.143
   88MYC    H6216334   0.428   2.019   5.142
   88MYC    H6316335   0.423   2.195   5.154
   88MYC    C3516336   0.265   2.095   5.264
   88MYC    H6416337   0.180   2.163   5.249
   88MYC    H6516338   0.224   1.994   5.270
   88MYC    C3616339   0.334   2.132   5.396
   88MYC    H6616340   0.415   2.061   5.417
   88MYC    H6716341   0.380   2.231   5.386
   88MYC    C3716342   0.236   2.135   5.515
   88MYC    H6816343   0.146   2.192   5.488
   88MYC    H6916344   0.204   2.033   5.538
   88MYC    C3816345   0.300   2.199   5.639
   88MYC    H7016346   0.394   2.146   5.663
   88MYC    H7116347   0.327   2.303   5.616
   88MYC    C3916348   0.209   2.197   5.763
   88MYC    H7216349   0.115   2.250   5.741
   88MYC    H7316350   0.182   2.093   5.787
   88MYC    C4016351   0.278   2.261   5.885
   88MYC    H7416352   0.375   2.212   5.901
   88MYC    H7516353   0.298   2.367   5.863
   88MYC    C4116354   0.195   2.251   6.015
   88MYC    H7616355   0.102   2.307   6.003
   88MYC    H7716356   0.168   2.146   6.032
   88MYC    C4216357   0.273   2.304   6.137
   88MYC    H7816358   0.366   2.246   6.147
   88MYC    H7916359   0.301   2.408   6.120
   88MYC    C4316360   0.194   2.293   6.268
   88MYC    H8016361   0.256   2.326   6.352
   88MYC    H8116362   0.163   2.189   6.287
   88MYC    H8216363   0.104   2.356   6.264
   89MYC   HH1516364   6.163   2.337   6.147
   89MYC    C8016365   6.139   2.398   6.058
   89MYC   H10016366   6.043   2.448   6.075
   89MYC   H10116367   6.217   2.474   6.048
   89MYC    C7916368   6.133   2.309   5.933
   89MYC   H10216369   6.052   2.236   5.943
   89MYC   H10316370   6.227   2.253   5.925
   89MYC    C7816371   6.113   2.390   5.803
   89MYC   HH1416372   6.191   2.467   5.798
   89MYC   H10416373   6.017   2.443   5.806
   89MYC    C7716374   6.120   2.304   5.675
   89MYC   H10616375   6.029   2.242   5.668
   89MYC   H10716376   6.205   2.235   5.682
   89MYC    C7616377   6.135   2.389   5.548
   89MYC   H10816378   6.221   2.455   5.560
   89MYC   H10916379   6.047   2.454   5.537
   89MYC    C7516380   6.153   2.307   5.419
   89MYC   H11016381   6.061   2.250   5.399
   89MYC   H11116382   6.234   2.233   5.433
   89MYC    C7416383   6.188   2.396   5.299
   89MYC   H11216384   6.285   2.445   5.316
   89MYC   H11316385   6.113   2.476   5.292
   89MYC    C7316386   6.192   2.321   5.165
   89MYC   HH1316387   6.094   2.276   5.147
   89MYC   H11416388   6.265   2.239   5.170
   89MYC    C7216389   6.229   2.414   5.047
   89MYC   H11516390   6.336   2.438   5.051
   89MYC   H11616391   6.174   2.508   5.058
   89MYC    C7116392   6.193   2.353   4.911
   89MYC   H11716393   6.085   2.334   4.908
   89MYC   H11816394   6.243   2.256   4.899
   89MYC    C7016395   6.232   2.445   4.792
   89MYC   H11916396   6.336   2.424   4.764
   89MYC   H12016397   6.228   2.550   4.823
   89MYC    C6916398   6.139   2.426   4.672
   89MYC   H12116399   6.040   2.468   4.696
   89MYC   H12216400   6.124   2.318   4.653
   89MYC    C6816401   6.192   2.491   4.543
   89MYC   HH1216402   6.281   2.436   4.511
   89MYC   H12316403   6.224   2.594   4.564
   89MYC    C6716404   6.088   2.493   4.430
   89MYC   H12416405   6.013   2.570   4.450
   89MYC   H12516406   6.035   2.397   4.428
   89MYC    C6616407   6.153   2.517   4.294
   89MYC   H12616408   6.223   2.435   4.274
   89MYC   H12716409   6.212   2.609   4.297
   89MYC    C6516410   6.052   2.525   4.178
   89MYC   H12816411   5.991   2.616   4.187
   89MYC   H12916412   5.983   2.440   4.182
   89MYC    C6416413   6.126   2.525   4.043
   89MYC   H13016414   6.183   2.431   4.036
   89MYC   H13116415   6.199   2.607   4.042
   89MYC    C6316416   6.035   2.537   3.920
   89MYC   HH1116417   5.986   2.635   3.920
   89MYC   H13216418   5.957   2.461   3.923
   89MYC    C6216419   6.119   2.521   3.793
   89MYC   H13316420   6.162   2.420   3.793
   89MYC   H13416421   6.204   2.591   3.795
   89MYC    C6116422   6.042   2.541   3.662
   89MYC   H13516423   5.999   2.642   3.659
   89MYC   H13616424   5.959   2.471   3.658
   89MYC    C6016425   6.134   2.519   3.543
   89MYC   H13716426   6.202   2.435   3.558
   89MYC    C5816427   6.083   2.538   3.404
   89MYC   H13816428   5.982   2.578   3.394
   89MYC    C5916429   6.187   2.633   3.459
   89MYC   H13916430   6.288   2.625   3.421
   89MYC   H14016431   6.155   2.734   3.483
   89MYC    C5716432   6.116   2.432   3.301
   89MYC   HH1016433   6.046   2.348   3.313
   89MYC   H14116434   6.216   2.392   3.318
   89MYC    C5616435   6.107   2.486   3.158
   89MYC   H14216436   6.188   2.558   3.142
   89MYC   H14316437   6.013   2.541   3.146
   89MYC    C5516438   6.114   2.375   3.053
   89MYC   H14416439   6.028   2.308   3.065
   89MYC   H14516440   6.204   2.316   3.070
   89MYC    C5416441   6.115   2.432   2.911
   89MYC   H14616442   6.202   2.499   2.900
   89MYC   H14716443   6.025   2.493   2.895
   89MYC    C5316444   6.122   2.323   2.802
   89MYC   H14816445   6.037   2.255   2.813
   89MYC   H14916446   6.214   2.265   2.815
   89MYC    C5216447   6.120   2.387   2.662
   89MYC    H9916448   6.209   2.450   2.651
   89MYC   H15016449   6.033   2.452   2.655
   89MYC    C5116450   6.116   2.285   2.547
   89MYC    H9716451   6.026   2.223   2.555
   89MYC    H9816452   6.203   2.219   2.552
   89MYC    C5016453   6.116   2.360   2.412
   89MYC    H9516454   6.212   2.411   2.401
   89MYC    H9616455   6.038   2.437   2.415
   89MYC    C4916456   6.091   2.271   2.289
   89MYC    H9316457   5.990   2.228   2.296
   89MYC    H9416458   6.163   2.188   2.288
   89MYC    C4816459   6.105   2.353   2.160
   89MYC    H9116460   6.209   2.385   2.150
   89MYC    H9216461   6.045   2.444   2.168
   89MYC    C4716462   6.062   2.277   2.034
   89MYC    H8916463   5.954   2.259   2.038
   89MYC    H9016464   6.111   2.179   2.032
   89MYC    C4616465   6.098   2.354   1.906
   89MYC    H8716466   6.207   2.365   1.899
   89MYC    H8816467   6.055   2.455   1.911
   89MYC    C4516468   6.046   2.285   1.778
   89MYC    H8516469   5.936   2.293   1.775
   89MYC    H8616470   6.069   2.178   1.784
   89MYC    C4416471   6.105   2.340   1.648
   89MYC    H8316472   6.061   2.285   1.564
   89MYC    H8416473   6.213   2.319   1.645
   89MYC    C1816474   6.081   2.489   1.626
   89MYC    H3116475   5.994   2.527   1.680
   89MYC    C1716476   6.195   2.586   1.601
   89MYC    H3016477   6.295   2.544   1.598
   89MYC    C1916478   6.103   2.546   1.489
   89MYC    H3216479   6.142   2.480   1.412
   89MYC    H3316480   6.029   2.617   1.454
   89MYC    C1616481   6.191   2.730   1.652
   89MYC    H2816482   6.109   2.742   1.724
   89MYC    H2916483   6.167   2.797   1.569
   89MYC    C1516484   6.322   2.778   1.717
   89MYC    H2616485   6.313   2.886   1.736
   89MYC    H2716486   6.405   2.765   1.646
   89MYC    C1416487   6.356   2.708   1.850
   89MYC    H2416488   6.365   2.599   1.835
   89MYC    H2516489   6.275   2.724   1.921
   89MYC    C1316490   0.038   2.761   1.910
   89MYC    H2216491   0.035   2.870   1.910
   89MYC    H2316492   0.122   2.733   1.845
   89MYC    C1216493   0.067   2.712   2.054
   89MYC    H2016494   0.097   2.606   2.052
   89MYC    H2116495   6.425   2.719   2.114
   89MYC    C1116496   0.178   2.797   2.120
   89MYC    H1816497   0.146   2.902   2.120
   89MYC    H1916498   0.268   2.791   2.057
   89MYC    C1016499   0.217   2.759   2.264
   89MYC    H1616500   0.294   2.830   2.298
   89MYC    H1716501   0.265   2.660   2.264
   89MYC     C916502   0.101   2.760   2.365
   89MYC    H1416503   0.040   2.669   2.350
   89MYC    H1516504   0.036   2.846   2.346
   89MYC     C816505   0.149   2.766   2.512
   89MYC    H1216506   0.190   2.865   2.532
   89MYC    H1316507   0.231   2.694   2.527
   89MYC     C716508   0.037   2.735   2.614
   89MYC    H1016509   0.011   2.628   2.607
   89MYC    H1116510   6.397   2.792   2.588
   89MYC     C616511   0.076   2.769   2.760
   89MYC     H816512   0.089   2.877   2.768
   89MYC     H916513   0.174   2.724   2.780
   89MYC     C516514   6.423   2.718   2.864
   89MYC     H616515   0.009   2.622   2.904
   89MYC     H716516   6.330   2.695   2.812
   89MYC     C416517   6.388   2.816   2.980
   89MYC     H416518   6.279   2.812   2.992
   89MYC     H516519   6.408   2.920   2.950
   89MYC     C216520   6.448   2.791   3.121
   89MYC     H216521   6.385   2.849   3.190
   89MYC     O316522   6.436   2.653   3.157
   89MYC     H316523   0.017   2.643   3.248
   89MYC     C116524   0.144   2.842   3.145
   89MYC     H116525   0.138   2.951   3.132
   89MYC    C8116526   0.245   2.790   3.040
   89MYC    O8216527   0.283   2.674   3.033
   89MYC    O8316528   0.298   2.887   2.962
   89MYC   H10516529   0.363   2.841   2.905
   89MYC    C2016530   0.199   2.814   3.287
   89MYC    H3416531   0.200   2.705   3.304
   89MYC    H3516532   0.304   2.846   3.292
   89MYC    C2116533   0.124   2.883   3.404
   89MYC    H3616534   0.143   2.991   3.399
   89MYC    H3716535   0.016   2.868   3.394
   89MYC    C2216536   0.168   2.829   3.541
   89MYC    H3816537   0.140   2.723   3.547
   89MYC    H3916538   0.277   2.833   3.549
   89MYC    C2316539   0.107   2.903   3.662
   89MYC    H4016540   0.152   3.002   3.670
   89MYC    H4116541   6.449   2.917   3.646
   89MYC    C2416542   0.129   2.823   3.792
   89MYC    H4216543   0.079   2.726   3.782
   89MYC    H4316544   0.236   2.803   3.803
   89MYC    C2516545   0.077   2.893   3.919
   89MYC    H4416546   0.130   2.988   3.933
   89MYC    H4516547   6.420   2.916   3.908
   89MYC    C2616548   0.098   2.803   4.043
   89MYC    H4616549   0.049   2.707   4.026
   89MYC    H4716550   0.205   2.783   4.054
   89MYC    C2716551   0.044   2.864   4.174
   89MYC    H4816552   0.088   2.963   4.189
   89MYC    H4916553   6.385   2.877   4.166
   89MYC    C2816554   0.077   2.775   4.295
   89MYC    H5016555   0.037   2.674   4.279
   89MYC    H5116556   0.186   2.765   4.303
   89MYC    C2916557   0.021   2.830   4.427
   89MYC    H5216558   0.047   2.936   4.436
   89MYC    H5316559   6.361   2.823   4.426
   89MYC    C3016560   0.076   2.755   4.550
   89MYC    H5416561   0.053   2.648   4.542
   89MYC    H5516562   0.186   2.765   4.551
   89MYC    C3116563   0.020   2.810   4.682
   89MYC    H5616564   0.035   2.918   4.685
   89MYC    H5716565   6.361   2.793   4.685
   89MYC    C3216566   0.085   2.746   4.806
   89MYC    H5816567   0.065   2.639   4.807
   89MYC    H5916568   0.193   2.760   4.800
   89MYC    C3316569   0.033   2.810   4.937
   89MYC    H6016570   0.045   2.918   4.931
   89MYC    H6116571   6.375   2.790   4.946
   89MYC    C3416572   0.106   2.759   5.062
   89MYC    H6216573   0.092   2.650   5.071
   89MYC    H6316574   0.214   2.777   5.051
   89MYC    C3516575   0.056   2.827   5.190
   89MYC    H6416576   0.057   2.936   5.176
   89MYC    H6516577   6.401   2.799   5.208
   89MYC    C3616578   0.141   2.793   5.314
   89MYC    H6616579   0.144   2.684   5.327
   89MYC    H6716580   0.244   2.827   5.297
   89MYC    C3716581   0.087   2.858   5.443
   89MYC    H6816582   0.073   2.965   5.427
   89MYC    H6916583   6.438   2.815   5.465
   89MYC    C3816584   0.181   2.836   5.563
   89MYC    H7016585   0.203   2.729   5.572
   89MYC    H7116586   0.276   2.888   5.544
   89MYC    C3916587   0.121   2.886   5.696
   89MYC    H7216588   0.098   2.993   5.688
   89MYC    H7316589   0.026   2.834   5.714
   89MYC    C4016590   0.216   2.863   5.816
   89MYC    H7416591   0.251   2.759   5.813
   89MYC    H7516592   0.304   2.926   5.805
   89MYC    C4116593   0.149   2.889   5.952
   89MYC    H7616594   0.114   2.993   5.956
   89MYC    H7716595   0.061   2.825   5.961
   89MYC    C4216596   0.244   2.862   6.071
   89MYC    H7816597   0.287   2.762   6.061
   89MYC    H7916598   0.327   2.933   6.067
   89MYC    C4316599   0.174   2.872   6.208
   89MYC    H8016600   0.247   2.858   6.288
   89MYC    H8116601   0.097   2.794   6.217
   89MYC    H8216602   0.127   2.970   6.220
   90MYC   HH1516603   6.305   3.432   6.230
   90MYC    C8016604   6.323   3.387   6.132
   90MYC   H10016605   6.431   3.366   6.123
   90MYC   H10116606   6.269   3.291   6.127
   90MYC    C7916607   6.277   3.481   6.020
   90MYC   H10216608   6.325   3.579   6.033
   90MYC   H10316609   6.168   3.498   6.029
   90MYC    C7816610   6.309   3.429   5.878
   90MYC   HH1416611   6.264   3.329   5.865
   90MYC   H10416612   6.417   3.417   5.868
   90MYC    C7716613   6.257   3.522   5.767
   90MYC   H10616614   6.289   3.624   5.787
   90MYC   H10716615   6.147   3.522   5.768
   90MYC    C7616616   6.306   3.481   5.626
   90MYC   H10816617   6.279   3.377   5.606
   90MYC   H10916618   6.416   3.487   5.624
   90MYC    C7516619   6.248   3.571   5.515
   90MYC   H11016620   6.267   3.676   5.539
   90MYC   H11116621   6.139   3.557   5.512
   90MYC    C7416622   6.306   3.540   5.375
   90MYC   H11216623   6.296   3.432   5.355
   90MYC   H11316624   6.414   3.562   5.375
   90MYC    C7316625   6.237   3.619   5.263
   90MYC   HH1316626   6.250   3.727   5.281
   90MYC   H11416627   6.130   3.599   5.265
   90MYC    C7216628   6.292   3.584   5.123
   90MYC   H11516629   6.287   3.475   5.109
   90MYC   H11616630   6.398   3.613   5.117
   90MYC    C7116631   6.213   3.652   5.009
   90MYC   H11716632   6.225   3.761   5.016
   90MYC   H11816633   6.106   3.631   5.021
   90MYC    C7016634   6.259   3.604   4.870
   90MYC   H11916635   6.246   3.496   4.864
   90MYC   H12016636   6.366   3.625   4.857
   90MYC    C6916637   6.180   3.670   4.754
   90MYC   H12116638   6.195   3.779   4.757
   90MYC   H12216639   6.073   3.652   4.768
   90MYC    C6816640   6.223   3.616   4.617
   90MYC   HH1216641   6.205   3.507   4.614
   90MYC   H12316642   6.331   3.631   4.605
   90MYC    C6716643   6.150   3.681   4.499
   90MYC   H12416644   6.167   3.790   4.501
   90MYC   H12516645   6.042   3.665   4.509
   90MYC    C6616646   6.198   3.625   4.364
   90MYC   H12616647   6.179   3.517   4.361
   90MYC   H12716648   6.306   3.640   4.356
   90MYC    C6516649   6.129   3.690   4.242
   90MYC   H12816650   6.141   3.799   4.247
   90MYC   H12916651   6.022   3.669   4.245
   90MYC    C6416652   6.189   3.639   4.109
   90MYC   H13016653   6.175   3.530   4.104
   90MYC   H13116654   6.297   3.658   4.109
   90MYC    C6316655   6.125   3.703   3.985
   90MYC   HH1116656   6.130   3.813   3.994
   90MYC   H13216657   6.019   3.676   3.982
   90MYC    C6216658   6.193   3.660   3.854
   90MYC   H13316659   6.182   3.551   3.843
   90MYC   H13416660   6.301   3.680   3.861
   90MYC    C6116661   6.136   3.730   3.731
   90MYC   H13516662   6.149   3.839   3.741
   90MYC   H13616663   6.028   3.712   3.726
   90MYC    C6016664   6.199   3.682   3.601
   90MYC   H13716665   6.189   3.575   3.588
   90MYC    C5816666   6.191   3.767   3.477
   90MYC   H13816667   6.150   3.867   3.487
   90MYC    C5916668   6.325   3.742   3.543
   90MYC   H13916669   6.395   3.675   3.494
   90MYC   H14016670   6.370   3.825   3.597
   90MYC    C5716671   6.150   3.702   3.345
   90MYC   HH1016672   6.041   3.693   3.343
   90MYC   H14116673   6.190   3.599   3.341
   90MYC    C5616674   6.198   3.778   3.220
   90MYC   H14216675   6.307   3.787   3.222
   90MYC   H14316676   6.156   3.880   3.222
   90MYC    C5516677   6.154   3.707   3.090
   90MYC   H14416678   6.045   3.700   3.088
   90MYC   H14516679   6.193   3.605   3.091
   90MYC    C5416680   6.203   3.777   2.962
   90MYC   H14616681   6.312   3.779   2.962
   90MYC   H14716682   6.169   3.881   2.962
   90MYC    C5316683   6.152   3.706   2.834
   90MYC   H14816684   6.043   3.716   2.830
   90MYC   H14916685   6.174   3.599   2.840
   90MYC    C5216686   6.214   3.764   2.705
   90MYC    H9916687   6.320   3.738   2.702
   90MYC   H15016688   6.207   3.873   2.708
   90MYC    C5116689   6.145   3.714   2.576
   90MYC    H9716690   6.039   3.743   2.580
   90MYC    H9816691   6.148   3.605   2.571
   90MYC    C5016692   6.210   3.773   2.449
   90MYC    H9516693   6.304   3.721   2.429
   90MYC    H9616694   6.235   3.878   2.467
   90MYC    C4916695   6.120   3.766   2.323
   90MYC    H9316696   6.024   3.813   2.345
   90MYC    H9416697   6.100   3.662   2.296
   90MYC    C4816698   6.184   3.841   2.203
   90MYC    H9116699   6.282   3.796   2.181
   90MYC    H9216700   6.203   3.944   2.233
   90MYC    C4716701   6.098   3.843   2.075
   90MYC    H8916702   6.112   3.940   2.026
   90MYC    H9016703   5.992   3.838   2.102
   90MYC    C4616704   6.129   3.732   1.973
   90MYC    H8716705   6.107   3.635   2.017
   90MYC    H8816706   6.237   3.734   1.950
   90MYC    C4516707   6.050   3.751   1.841
   90MYC    H8516708   6.087   3.839   1.788
   90MYC    H8616709   5.945   3.771   1.867
   90MYC    C4416710   6.052   3.629   1.747
   90MYC    H8316711   5.983   3.648   1.664
   90MYC    H8416712   6.012   3.542   1.802
   90MYC    C1816713   6.187   3.594   1.688
   90MYC    H3116714   6.229   3.674   1.628
   90MYC    C1716715   6.285   3.505   1.762
   90MYC    H3016716   6.252   3.467   1.858
   90MYC    C1916717   6.213   3.453   1.640
   90MYC    H3216718   6.136   3.378   1.657
   90MYC    H3316719   6.269   3.441   1.548
   90MYC    C1616720   6.434   3.532   1.756
   90MYC    H2816721   0.011   3.605   1.834
   90MYC    H2916722   0.009   3.579   1.660
   90MYC    C1516723   0.070   3.404   1.769
   90MYC    H2616724   0.172   3.427   1.736
   90MYC    H2716725   0.031   3.330   1.699
   90MYC    C1416726   0.075   3.343   1.910
   90MYC    H2416727   0.116   3.241   1.903
   90MYC    H2516728   6.423   3.331   1.950
   90MYC    C1316729   0.161   3.424   2.009
   90MYC    H2216730   0.122   3.526   2.017
   90MYC    H2316731   0.263   3.431   1.969
   90MYC    C1216732   0.167   3.363   2.151
   90MYC    H2016733   0.194   3.257   2.143
   90MYC    H2116734   0.067   3.368   2.196
   90MYC    C1116735   0.270   3.435   2.240
   90MYC    H1816736   0.248   3.542   2.242
   90MYC    H1916737   0.369   3.424   2.193
   90MYC    C1016738   0.279   3.381   2.384
   90MYC    H1616739   0.374   3.414   2.427
   90MYC    H1716740   0.281   3.272   2.383
   90MYC     C916741   0.165   3.430   2.477
   90MYC    H1416742   0.069   3.390   2.442
   90MYC    H1516743   0.159   3.539   2.471
   90MYC     C816744   0.187   3.389   2.624
   90MYC    H1216745   0.290   3.415   2.653
   90MYC    H1316746   0.178   3.280   2.634
   90MYC     C716747   0.089   3.457   2.722
   90MYC    H1016748   6.437   3.421   2.704
   90MYC    H1116749   0.089   3.565   2.702
   90MYC     C616750   0.127   3.435   2.870
   90MYC     H816751   0.232   3.463   2.884
   90MYC     H916752   0.118   3.329   2.895
   90MYC     C516753   0.040   3.519   2.967
   90MYC     H616754   6.386   3.485   2.966
   90MYC     H716755   0.039   3.623   2.930
   90MYC     C416756   0.094   3.524   3.113
   90MYC     H416757   0.054   3.614   3.160
   90MYC     H516758   0.202   3.540   3.108
   90MYC     C216759   0.062   3.404   3.208
   90MYC     H216760   6.436   3.441   3.277
   90MYC     O316761   0.007   3.293   3.137
   90MYC     H316762   0.056   3.284   3.053
   90MYC     C116763   0.186   3.361   3.293
   90MYC     H116764   0.239   3.453   3.318
   90MYC    C8116765   0.285   3.273   3.212
   90MYC    O8216766   0.275   3.152   3.199
   90MYC    O8316767   0.379   3.342   3.143
   90MYC   H10516768   0.427   3.275   3.093
   90MYC    C2016769   0.147   3.289   3.425
   90MYC    H3416770   0.080   3.205   3.403
   90MYC    H3516771   0.239   3.246   3.467
   90MYC    C2116772   0.080   3.379   3.531
   90MYC    H3616773   0.125   3.479   3.531
   90MYC    H3716774   6.423   3.392   3.508
   90MYC    C2216775   0.096   3.316   3.671
   90MYC    H3816776   0.050   3.217   3.670
   90MYC    H3916777   0.203   3.302   3.690
   90MYC    C2316778   0.036   3.397   3.788
   90MYC    H4016779   0.072   3.500   3.785
   90MYC    H4116780   6.377   3.399   3.780
   90MYC    C2416781   0.078   3.331   3.921
   90MYC    H4216782   0.048   3.226   3.919
   90MYC    H4316783   0.188   3.331   3.927
   90MYC    C2516784   0.022   3.396   4.048
   90MYC    H4416785   0.052   3.501   4.053
   90MYC    H4516786   6.362   3.392   4.046
   90MYC    C2616787   0.074   3.321   4.173
   90MYC    H4616788   0.045   3.215   4.164
   90MYC    H4716789   0.183   3.324   4.173
   90MYC    C2716790   0.022   3.375   4.307
   90MYC    H4816791   0.046   3.481   4.316
   90MYC    H4916792   6.362   3.365   4.310
   90MYC    C2816793   0.084   3.297   4.424
   90MYC    H5016794   0.064   3.190   4.411
   90MYC    H5116795   0.193   3.310   4.420
   90MYC    C2916796   0.034   3.341   4.562
   90MYC    H5216797   0.049   3.449   4.574
   90MYC    H5316798   6.376   3.322   4.570
   90MYC    C3016799   0.108   3.266   4.674
   90MYC    H5416800   0.091   3.158   4.663
   90MYC    H5516801   0.215   3.282   4.662
   90MYC    C3116802   0.066   3.309   4.815
   90MYC    H5616803   0.072   3.418   4.823
   90MYC    H5716804   6.410   3.282   4.832
   90MYC    C3216805   0.154   3.245   4.924
   90MYC    H5816806   0.146   3.136   4.918
   90MYC    H5916807   0.258   3.271   4.905
   90MYC    C3316808   0.115   3.290   5.066
   90MYC    H6016809   0.116   3.400   5.070
   90MYC    H6116810   0.012   3.259   5.087
   90MYC    C3416811   0.208   3.234   5.174
   90MYC    H6216812   0.207   3.124   5.171
   90MYC    H6316813   0.311   3.265   5.153
   90MYC    C3516814   0.169   3.282   5.315
   90MYC    H6416815   0.166   3.391   5.316
   90MYC    H6516816   0.067   3.247   5.338
   90MYC    C3616817   0.266   3.233   5.425
   90MYC    H6616818   0.266   3.124   5.428
   90MYC    H6716819   0.368   3.265   5.399
   90MYC    C3716820   0.229   3.289   5.563
   90MYC    H6816821   0.222   3.399   5.556
   90MYC    H6916822   0.130   3.252   5.593
   90MYC    C3816823   0.332   3.253   5.672
   90MYC    H7016824   0.333   3.144   5.686
   90MYC    H7116825   0.432   3.282   5.638
   90MYC    C3916826   0.303   3.322   5.806
   90MYC    H7216827   0.295   3.431   5.789
   90MYC    H7316828   0.206   3.289   5.845
   90MYC    C4016829   0.412   3.297   5.911
   90MYC    H7416830   0.415   3.190   5.935
   90MYC    H7516831   0.510   3.324   5.869
   90MYC    C4116832   0.389   3.376   6.042
   90MYC    H7616833   0.372   3.482   6.017
   90MYC    H7716834   0.298   3.339   6.091
   90MYC    C4216835   0.508   3.367   6.139
   90MYC    H7816836   0.530   3.261   6.161
   90MYC    H7916837   0.598   3.408   6.092
   90MYC    C4316838   0.482   3.442   6.271
   90MYC    H8016839   0.571   3.439   6.335
   90MYC    H8116840   0.399   3.395   6.324
   90MYC    H8216841   0.456   3.546   6.252
   91MYC   HH1516842   0.007   4.605   6.230
   91MYC    C8016843   6.398   4.571   6.143
   91MYC   H10016844   6.386   4.462   6.150
   91MYC   H10116845   6.299   4.617   6.149
   91MYC    C7916846   0.019   4.610   6.012
   91MYC   H10216847   0.120   4.567   6.011
   91MYC   H10316848   0.031   4.719   6.009
   91MYC    C7816849   6.393   4.563   5.887
   91MYC   HH1416850   6.289   4.599   5.892
   91MYC   H10416851   6.388   4.453   5.886
   91MYC    C7716852   0.007   4.613   5.756
   91MYC   H10616853   0.111   4.578   5.750
   91MYC   H10716854   0.010   4.723   5.757
   91MYC    C7616855   6.381   4.566   5.631
   91MYC   H10816856   6.275   4.594   5.640
   91MYC   H10916857   6.385   4.457   5.624
   91MYC    C7516858   6.437   4.628   5.501
   91MYC   H11016859   0.093   4.601   5.491
   91MYC   H11116860   6.431   4.737   5.509
   91MYC    C7416861   6.360   4.582   5.376
   91MYC   H11216862   6.254   4.604   5.389
   91MYC   H11316863   6.370   4.473   5.365
   91MYC    C7316864   6.411   4.652   5.248
   91MYC   HH1316865   0.066   4.627   5.232
   91MYC   H11416866   6.405   4.760   5.262
   91MYC    C7216867   6.329   4.612   5.124
   91MYC   H11516868   6.222   4.629   5.144
   91MYC   H11616869   6.341   4.505   5.105
   91MYC    C7116870   6.369   4.692   4.999
   91MYC   H11716871   0.025   4.674   4.977
   91MYC   H11816872   6.359   4.800   5.019
   91MYC    C7016873   6.284   4.655   4.878
   91MYC   H11916874   6.177   4.668   4.902
   91MYC   H12016875   6.298   4.548   4.856
   91MYC    C6916876   6.317   4.738   4.752
   91MYC   H12116877   6.426   4.736   4.736
   91MYC   H12216878   6.287   4.842   4.767
   91MYC    C6816879   6.247   4.680   4.628
   91MYC   HH1216880   6.139   4.679   4.644
   91MYC   H12316881   6.278   4.575   4.617
   91MYC    C6716882   6.278   4.756   4.498
   91MYC   H12416883   6.383   4.789   4.497
   91MYC   H12516884   6.215   4.846   4.492
   91MYC    C6616885   6.253   4.665   4.377
   91MYC   H12616886   6.154   4.619   4.386
   91MYC   H12716887   6.327   4.584   4.379
   91MYC    C6516888   6.261   4.737   4.241
   91MYC   H12816889   6.352   4.797   4.235
   91MYC   H12916890   6.175   4.805   4.231
   91MYC    C6416891   6.261   4.634   4.126
   91MYC   H13016892   6.185   4.557   4.146
   91MYC   H13116893   6.358   4.583   4.125
   91MYC    C6316894   6.232   4.695   3.989
   91MYC   HH1116895   6.298   4.781   3.972
   91MYC   H13216896   6.129   4.732   3.986
   91MYC    C6216897   6.254   4.592   3.877
   91MYC   H13316898   6.200   4.499   3.899
   91MYC   H13416899   6.360   4.567   3.873
   91MYC    C6116900   6.209   4.644   3.739
   91MYC   H13516901   6.229   4.751   3.732
   91MYC   H13616902   6.100   4.631   3.729
   91MYC    C6016903   6.280   4.571   3.627
   91MYC   H13716904   6.263   4.463   3.628
   91MYC    C5816905   6.299   4.636   3.492
   91MYC   H13816906   6.262   4.737   3.481
   91MYC    C5916907   6.418   4.617   3.584
   91MYC   H13916908   0.041   4.541   3.558
   91MYC   H14016909   0.009   4.706   3.631
   91MYC    C5716910   6.289   4.556   3.364
   91MYC   HH1016911   6.185   4.559   3.327
   91MYC   H14116912   6.313   4.450   3.381
   91MYC    C5616913   6.384   4.613   3.257
   91MYC   H14216914   0.038   4.598   3.289
   91MYC   H14316915   6.368   4.721   3.251
   91MYC    C5516916   6.364   4.552   3.117
   91MYC   H14416917   6.257   4.555   3.092
   91MYC   H14516918   6.393   4.446   3.117
   91MYC    C5416919   6.445   4.629   3.011
   91MYC   H14616920   0.099   4.594   3.013
   91MYC   H14716921   6.446   4.735   3.036
   91MYC    C5316922   6.387   4.614   2.869
   91MYC   H14816923   6.283   4.650   2.870
   91MYC   H14916924   6.385   4.508   2.841
   91MYC    C5216925   0.017   4.696   2.766
   91MYC    H9916926   0.117   4.653   2.753
   91MYC   H15016927   0.030   4.797   2.805
   91MYC    C5116928   6.397   4.709   2.629
   91MYC    H9716929   0.004   4.780   2.567
   91MYC    H9816930   6.298   4.753   2.644
   91MYC    C5016931   6.384   4.576   2.552
   91MYC    H9516932   6.343   4.498   2.617
   91MYC    H9616933   0.034   4.542   2.521
   91MYC    C4916934   6.294   4.589   2.429
   91MYC    H9316935   6.332   4.668   2.363
   91MYC    H9416936   6.193   4.619   2.461
   91MYC    C4816937   6.283   4.457   2.349
   91MYC    H9116938   6.246   4.377   2.414
   91MYC    H9216939   6.383   4.427   2.315
   91MYC    C4716940   6.189   4.470   2.228
   91MYC    H8916941   6.216   4.560   2.170
   91MYC    H9016942   6.086   4.484   2.263
   91MYC    C4616943   6.196   4.348   2.134
   91MYC    H8716944   6.178   4.257   2.192
   91MYC    H8816945   6.297   4.341   2.093
   91MYC    C4516946   6.092   4.356   2.020
   91MYC    H8516947   6.095   4.454   1.972
   91MYC    H8616948   5.992   4.344   2.064
   91MYC    C4416949   6.111   4.246   1.914
   91MYC    H8316950   6.017   4.231   1.861
   91MYC    H8416951   6.134   4.152   1.964
   91MYC    C1816952   6.220   4.278   1.813
   91MYC    H3116953   6.311   4.316   1.859
   91MYC    C1716954   6.238   4.190   1.692
   91MYC    H3016955   6.165   4.111   1.678
   91MYC    C1916956   6.188   4.332   1.675
   91MYC    H3216957   6.083   4.346   1.649
   91MYC    H3316958   6.256   4.405   1.632
   91MYC    C1616959   6.377   4.151   1.645
   91MYC    H2816960   6.446   4.236   1.655
   91MYC    H2916961   6.371   4.129   1.538
   91MYC    C1516962   6.437   4.029   1.719
   91MYC    H2616963   0.082   4.004   1.671
   91MYC    H2716964   6.370   3.943   1.707
   91MYC    C1416965   0.012   4.053   1.869
   91MYC    H2416966   6.366   4.063   1.921
   91MYC    H2516967   0.066   4.147   1.882
   91MYC    C1316968   0.093   3.940   1.935
   91MYC    H2216969   0.193   3.939   1.891
   91MYC    H2316970   0.045   3.844   1.914
   91MYC    C1216971   0.106   3.957   2.088
   91MYC    H2016972   0.006   3.959   2.132
   91MYC    H2116973   0.152   4.055   2.109
   91MYC    C1116974   0.189   3.845   2.154
   91MYC    H1816975   0.293   3.851   2.118
   91MYC    H1916976   0.150   3.748   2.122
   91MYC    C1016977   0.187   3.850   2.308
   91MYC    H1616978   0.227   3.756   2.347
   91MYC    H1716979   0.083   3.855   2.342
   91MYC     C916980   0.267   3.966   2.369
   91MYC    H1416981   0.238   4.062   2.324
   91MYC    H1516982   0.374   3.951   2.348
   91MYC     C816983   0.246   3.976   2.521
   91MYC    H1216984   0.256   3.876   2.566
   91MYC    H1316985   0.143   4.009   2.541
   91MYC     C716986   0.345   4.071   2.592
   91MYC    H1016987   0.338   4.171   2.549
   91MYC    H1116988   0.447   4.035   2.573
   91MYC     C616989   0.320   4.077   2.743
   91MYC     H816990   0.316   3.974   2.782
   91MYC     H916991   0.221   4.120   2.761
   91MYC     C516992   0.427   4.157   2.820
   91MYC     H616993   0.402   4.264   2.817
   91MYC     H716994   0.523   4.145   2.770
   91MYC     C416995   0.445   4.110   2.966
   91MYC     H416996   0.541   4.149   3.002
   91MYC     H516997   0.459   4.001   2.964
   91MYC     C216998   0.337   4.148   3.072
   91MYC     H216999   0.384   4.223   3.136
   91MYC     O317000   0.221   4.207   3.013
   91MYC     H317001   0.191   4.148   2.942
   91MYC     C117002   0.300   4.028   3.165
   91MYC     H117003   0.394   3.976   3.186
   91MYC    C8117004   0.204   3.927   3.097
   91MYC    O8217005   0.086   3.947   3.075
   91MYC    O8317006   0.263   3.813   3.057
   91MYC   H10517007   0.193   3.761   3.014
   91MYC    C2017008   0.244   4.075   3.302
   91MYC    H3417009   0.300   4.162   3.336
   91MYC    H3517010   0.139   4.108   3.290
   91MYC    C2117011   0.252   3.966   3.411
   91MYC    H3617012   0.199   3.876   3.379
   91MYC    H3717013   0.358   3.938   3.425
   91MYC    C2217014   0.195   4.015   3.545
   91MYC    H3817015   0.243   4.110   3.572
   91MYC    H3917016   0.088   4.034   3.533
   91MYC    C2317017   0.216   3.915   3.660
   91MYC    H4017018   0.175   3.817   3.633
   91MYC    H4117019   0.324   3.901   3.678
   91MYC    C2417020   0.149   3.965   3.790
   91MYC    H4217021   0.190   4.063   3.815
   91MYC    H4317022   0.042   3.977   3.772
   91MYC    C2517023   0.170   3.870   3.909
   91MYC    H4417024   0.127   3.772   3.886
   91MYC    H4517025   0.277   3.857   3.926
   91MYC    C2617026   0.105   3.925   4.038
   91MYC    H4617027   0.142   4.027   4.055
   91MYC    H4717028   6.447   3.931   4.024
   91MYC    C2717029   0.138   3.839   4.161
   91MYC    H4817030   0.095   3.739   4.150
   91MYC    H4917031   0.246   3.827   4.170
   91MYC    C2817032   0.084   3.903   4.290
   91MYC    H5017033   0.119   4.008   4.295
   91MYC    H5117034   6.425   3.906   4.287
   91MYC    C2917035   0.131   3.831   4.417
   91MYC    H5217036   0.098   3.726   4.415
   91MYC    H5317037   0.241   3.831   4.420
   91MYC    C3017038   0.077   3.899   4.544
   91MYC    H5417039   0.094   4.007   4.536
   91MYC    H5517040   6.418   3.884   4.549
   91MYC    C3117041   0.143   3.849   4.673
   91MYC    H5617042   0.134   3.740   4.680
   91MYC    H5717043   0.250   3.873   4.670
   91MYC    C3217044   0.079   3.914   4.797
   91MYC    H5817045   0.067   4.022   4.780
   91MYC    H5917046   6.428   3.873   4.810
   91MYC    C3317047   0.161   3.894   4.925
   91MYC    H6017048   0.184   3.788   4.938
   91MYC    H6117049   0.256   3.948   4.917
   91MYC    C3417050   0.084   3.944   5.048
   91MYC    H6217051   0.049   4.047   5.031
   91MYC    H6317052   6.444   3.882   5.060
   91MYC    C3517053   0.166   3.940   5.178
   91MYC    H6417054   0.220   3.845   5.184
   91MYC    H6517055   0.240   4.021   5.177
   91MYC    C3617056   0.075   3.953   5.302
   91MYC    H6617057   0.012   4.043   5.292
   91MYC    H6717058   0.007   3.867   5.303
   91MYC    C3717059   0.152   3.961   5.435
   91MYC    H6817060   0.244   3.902   5.428
   91MYC    H6917061   0.182   4.065   5.453
   91MYC    C3817062   0.068   3.908   5.552
   91MYC    H7017063   6.417   3.951   5.548
   91MYC    H7117064   0.058   3.799   5.542
   91MYC    C3917065   0.131   3.940   5.689
   91MYC    H7217066   0.237   3.914   5.688
   91MYC    H7317067   0.125   4.049   5.706
   91MYC    C4017068   0.061   3.867   5.806
   91MYC    H7417069   6.403   3.884   5.800
   91MYC    H7517070   0.077   3.759   5.794
   91MYC    C4117071   0.114   3.912   5.943
   91MYC    H7617072   0.222   3.899   5.946
   91MYC    H7717073   0.094   4.020   5.954
   91MYC    C4217074   0.050   3.837   6.061
   91MYC    H7817075   6.390   3.847   6.056
   91MYC    H7917076   0.073   3.730   6.052
   91MYC    C4317077   0.098   3.888   6.198
   91MYC    H8017078   0.046   3.836   6.279
   91MYC    H8117079   0.079   3.995   6.208
   91MYC    H8217080   0.206   3.871   6.210
   92MYC   HH1517081   0.320   5.740   6.203
   92MYC    C8017082   0.266   5.661   6.148
   92MYC   H10017083   0.274   5.568   6.206
   92MYC   H10117084   0.161   5.690   6.142
   92MYC    C7917085   0.326   5.643   6.007
   92MYC   H10217086   0.433   5.624   6.017
   92MYC   H10317087   0.314   5.736   5.951
   92MYC    C7817088   0.261   5.526   5.930
   92MYC   HH1417089   0.153   5.542   5.923
   92MYC   H10417090   0.277   5.433   5.986
   92MYC    C7717091   0.318   5.510   5.787
   92MYC   H10617092   0.427   5.512   5.792
   92MYC   H10717093   0.287   5.595   5.726
   92MYC    C7617094   0.275   5.378   5.720
   92MYC   H10817095   0.165   5.369   5.721
   92MYC   H10917096   0.314   5.294   5.779
   92MYC    C7517097   0.327   5.364   5.575
   92MYC   H11017098   0.333   5.258   5.550
   92MYC   H11117099   0.429   5.404   5.569
   92MYC    C7417100   0.238   5.434   5.469
   92MYC   H11217101   0.213   5.536   5.501
   92MYC   H11317102   0.144   5.379   5.460
   92MYC    C7317103   0.308   5.440   5.332
   92MYC   HH1317104   0.353   5.343   5.310
   92MYC   H11417105   0.390   5.513   5.337
   92MYC    C7217106   0.215   5.478   5.215
   92MYC   H11517107   0.165   5.574   5.236
   92MYC   H11617108   0.137   5.402   5.205
   92MYC    C7117109   0.294   5.488   5.083
   92MYC   H11717110   0.355   5.398   5.071
   92MYC   H11817111   0.363   5.573   5.089
   92MYC    C7017112   0.205   5.505   4.957
   92MYC   H11917113   0.152   5.600   4.962
   92MYC   H12017114   0.130   5.425   4.955
   92MYC    C6917115   0.290   5.498   4.829
   92MYC   H12117116   0.341   5.402   4.825
   92MYC   H12217117   0.367   5.576   4.832
   92MYC    C6817118   0.207   5.516   4.700
   92MYC   HH1217119   0.161   5.615   4.700
   92MYC   H12317120   0.126   5.442   4.698
   92MYC    C6717121   0.293   5.498   4.574
   92MYC   H12417122   0.339   5.399   4.575
   92MYC   H12517123   0.376   5.571   4.576
   92MYC    C6617124   0.214   5.517   4.444
   92MYC   H12617125   0.173   5.619   4.440
   92MYC   H12717126   0.128   5.448   4.442
   92MYC    C6517127   0.301   5.492   4.319
   92MYC   H12817128   0.336   5.388   4.320
   92MYC   H12917129   0.389   5.557   4.324
   92MYC    C6417130   0.226   5.519   4.187
   92MYC   H13017131   0.193   5.623   4.185
   92MYC   H13117132   0.136   5.456   4.182
   92MYC    C6317133   0.315   5.490   4.065
   92MYC   HH1117134   0.337   5.383   4.061
   92MYC   H13217135   0.411   5.542   4.078
   92MYC    C6217136   0.253   5.535   3.932
   92MYC   H13317137   0.228   5.642   3.938
   92MYC   H13417138   0.158   5.481   3.916
   92MYC    C6117139   0.348   5.510   3.814
   92MYC   H13517140   0.373   5.403   3.811
   92MYC   H13617141   0.442   5.564   3.832
   92MYC    C6017142   0.289   5.554   3.682
   92MYC   H13717143   0.271   5.661   3.677
   92MYC    C5817144   0.333   5.486   3.555
   92MYC   H13817145   0.401   5.401   3.566
   92MYC    C5917146   0.193   5.466   3.606
   92MYC   H13917147   0.112   5.514   3.552
   92MYC   H14017148   0.167   5.369   3.649
   92MYC    C5717149   0.359   5.565   3.428
   92MYC   HH1017150   0.466   5.592   3.422
   92MYC   H14117151   0.303   5.658   3.428
   92MYC    C5617152   0.320   5.482   3.305
   92MYC   H14217153   0.214   5.456   3.312
   92MYC   H14317154   0.376   5.387   3.305
   92MYC    C5517155   0.345   5.555   3.172
   92MYC   H14417156   0.453   5.574   3.161
   92MYC   H14517157   0.295   5.652   3.174
   92MYC    C5417158   0.294   5.472   3.053
   92MYC   H14617159   0.186   5.456   3.065
   92MYC   H14717160   0.342   5.374   3.054
   92MYC    C5317161   0.320   5.541   2.919
   92MYC   H14817162   0.428   5.555   2.906
   92MYC   H14917163   0.275   5.641   2.920
   92MYC    C5217164   0.264   5.461   2.800
   92MYC    H9917165   0.155   5.449   2.813
   92MYC   H15017166   0.308   5.361   2.799
   92MYC    C5117167   0.293   5.531   2.667
   92MYC    H9717168   0.401   5.541   2.656
   92MYC    H9817169   0.251   5.632   2.670
   92MYC    C5017170   0.236   5.457   2.545
   92MYC    H9517171   0.126   5.455   2.550
   92MYC    H9617172   0.271   5.353   2.545
   92MYC    C4917173   0.281   5.526   2.416
   92MYC    H9317174   0.391   5.527   2.412
   92MYC    H9417175   0.248   5.631   2.418
   92MYC    C4817176   0.228   5.461   2.287
   92MYC    H9117177   0.119   5.465   2.287
   92MYC    H9217178   0.257   5.355   2.284
   92MYC    C4717179   0.284   5.534   2.164
   92MYC    H8917180   0.393   5.520   2.161
   92MYC    H9017181   0.266   5.641   2.175
   92MYC    C4617182   0.224   5.487   2.031
   92MYC    H8717183   0.116   5.506   2.032
   92MYC    H8817184   0.240   5.379   2.020
   92MYC    C4517185   0.288   5.562   1.912
   92MYC    H8517186   0.393   5.533   1.903
   92MYC    H8617187   0.287   5.668   1.936
   92MYC    C4417188   0.217   5.543   1.777
   92MYC    H8317189   0.272   5.599   1.700
   92MYC    H8417190   0.117   5.588   1.783
   92MYC    C1817191   0.207   5.398   1.734
   92MYC    H3117192   0.304   5.352   1.719
   92MYC    C1717193   0.097   5.310   1.787
   92MYC    H3017194   0.026   5.359   1.852
   92MYC    C1917195   0.096   5.352   1.643
   92MYC    H3217196   0.020   5.424   1.615
   92MYC    H3317197   0.118   5.276   1.568
   92MYC    C1617198   0.121   5.164   1.823
   92MYC    H2817199   0.189   5.159   1.909
   92MYC    H2917200   0.172   5.113   1.741
   92MYC    C1517201   6.441   5.087   1.857
   92MYC    H2617202   0.017   4.982   1.871
   92MYC    H2717203   6.371   5.093   1.774
   92MYC    C1417204   6.373   5.140   1.985
   92MYC    H2417205   6.328   5.238   1.966
   92MYC    H2517206   6.449   5.154   2.063
   92MYC    C1317207   6.263   5.047   2.039
   92MYC    H2217208   6.304   4.946   2.050
   92MYC    H2317209   6.179   5.042   1.969
   92MYC    C1217210   6.213   5.094   2.177
   92MYC    H2017211   6.164   5.192   2.166
   92MYC    H2117212   6.302   5.109   2.240
   92MYC    C1117213   6.116   4.998   2.246
   92MYC    H1817214   6.162   4.899   2.257
   92MYC    H1917215   6.027   4.985   2.183
   92MYC    C1017216   6.071   5.049   2.385
   92MYC    H1617217   5.995   4.981   2.425
   92MYC    H1717218   6.022   5.147   2.373
   92MYC     C917219   6.186   5.063   2.487
   92MYC    H1417220   6.263   5.132   2.451
   92MYC    H1517221   6.234   4.965   2.501
   92MYC     C817222   6.137   5.115   2.623
   92MYC    H1217223   6.063   5.044   2.662
   92MYC    H1317224   6.086   5.210   2.608
   92MYC     C717225   6.250   5.136   2.726
   92MYC    H1017226   6.305   5.228   2.702
   92MYC    H1117227   6.321   5.053   2.722
   92MYC     C617228   6.191   5.145   2.867
   92MYC     H817229   6.144   5.047   2.887
   92MYC     H917230   6.111   5.219   2.869
   92MYC     C517231   6.290   5.178   2.981
   92MYC     H617232   6.275   5.281   3.014
   92MYC     H717233   6.393   5.173   2.942
   92MYC     C417234   6.280   5.081   3.101
   92MYC     H417235   6.364   5.102   3.167
   92MYC     H517236   6.295   4.979   3.063
   92MYC     C217237   6.151   5.087   3.189
   92MYC     H217238   6.165   5.172   3.257
   92MYC     O317239   6.033   5.110   3.112
   92MYC     H317240   6.014   5.205   3.117
   92MYC     C117241   6.132   4.957   3.274
   92MYC     H117242   6.233   4.917   3.290
   92MYC    C8117243   6.052   4.848   3.198
   92MYC    O8217244   5.931   4.837   3.200
   92MYC    O8317245   6.126   4.779   3.108
   92MYC   H10517246   6.062   4.724   3.059
   92MYC    C2017247   6.067   4.984   3.412
   92MYC    H3417248   5.971   5.035   3.399
   92MYC    H3517249   6.046   4.887   3.459
   92MYC    C2117250   6.156   5.066   3.509
   92MYC    H3617251   6.257   5.025   3.510
   92MYC    H3717252   6.163   5.170   3.474
   92MYC    C2217253   6.099   5.065   3.651
   92MYC    H3817254   5.995   5.099   3.650
   92MYC    H3917255   6.099   4.961   3.687
   92MYC    C2317256   6.180   5.152   3.750
   92MYC    H4017257   6.287   5.137   3.733
   92MYC    H4117258   6.159   5.258   3.731
   92MYC    C2417259   6.147   5.117   3.895
   92MYC    H4217260   6.039   5.125   3.911
   92MYC    H4317261   6.174   5.011   3.911
   92MYC    C2517262   6.220   5.204   3.999
   92MYC    H4417263   6.325   5.217   3.970
   92MYC    H4517264   6.174   5.303   4.001
   92MYC    C2617265   6.213   5.139   4.138
   92MYC    H4617266   6.109   5.115   4.161
   92MYC    H4717267   6.268   5.044   4.135
   92MYC    C2717268   6.270   5.226   4.251
   92MYC    H4817269   6.373   5.256   4.227
   92MYC    H4917270   6.210   5.317   4.260
   92MYC    C2817271   6.268   5.149   4.384
   92MYC    H5017272   6.167   5.109   4.400
   92MYC    H5117273   6.334   5.062   4.376
   92MYC    C2917274   6.308   5.232   4.506
   92MYC    H5217275   6.410   5.272   4.493
   92MYC    H5317276   6.241   5.318   4.514
   92MYC    C3017277   6.300   5.148   4.634
   92MYC    H5417278   6.202   5.100   4.639
   92MYC    H5517279   6.373   5.067   4.628
   92MYC    C3117280   6.323   5.228   4.763
   92MYC    H5617281   6.426   5.266   4.766
   92MYC    H5717282   6.256   5.315   4.765
   92MYC    C3217283   6.297   5.141   4.887
   92MYC    H5817284   6.193   5.105   4.884
   92MYC    H5917285   6.361   5.052   4.882
   92MYC    C3317286   6.320   5.213   5.020
   92MYC    H6017287   6.424   5.249   5.025
   92MYC    H6117288   6.255   5.300   5.027
   92MYC    C3417289   6.294   5.119   5.140
   92MYC    H6217290   6.190   5.084   5.136
   92MYC    H6317291   6.358   5.031   5.131
   92MYC    C3517292   6.319   5.187   5.275
   92MYC    H6417293   6.423   5.224   5.279
   92MYC    H6517294   6.253   5.274   5.285
   92MYC    C3617295   6.295   5.092   5.394
   92MYC    H6617296   6.192   5.054   5.390
   92MYC    H6717297   6.362   5.005   5.386
   92MYC    C3717298   6.319   5.162   5.529
   92MYC    H6817299   6.424   5.194   5.535
   92MYC    H6917300   6.258   5.253   5.532
   92MYC    C3817301   6.285   5.075   5.651
   92MYC    H7017302   6.182   5.038   5.642
   92MYC    H7117303   6.351   4.987   5.654
   92MYC    C3917304   6.299   5.156   5.782
   92MYC    H7217305   6.404   5.186   5.794
   92MYC    H7317306   6.241   5.248   5.772
   92MYC    C4017307   6.252   5.081   5.908
   92MYC    H7417308   6.151   5.042   5.892
   92MYC    H7517309   6.318   4.995   5.927
   92MYC    C4117310   6.251   5.175   6.031
   92MYC    H7617311   6.353   5.213   6.048
   92MYC    H7717312   6.188   5.261   6.009
   92MYC    C4217313   6.200   5.108   6.160
   92MYC    H7817314   6.101   5.064   6.142
   92MYC    H7917315   6.267   5.026   6.188
   92MYC    C4317316   6.190   5.208   6.277
   92MYC    H8017317   6.152   5.158   6.367
   92MYC    H8117318   6.122   5.290   6.252
   92MYC    H8217319   6.289   5.250   6.300
   93MYC   HH1517320   6.176   5.659   6.217
   93MYC    C8017321   6.235   5.704   6.136
   93MYC   H10017322   6.201   5.807   6.122
   93MYC   H10117323   6.340   5.706   6.167
   93MYC    C7917324   6.218   5.623   6.006
   93MYC   H10217325   6.111   5.613   5.985
   93MYC   H10317326   6.259   5.522   6.020
   93MYC    C7817327   6.286   5.690   5.884
   93MYC   HH1417328   6.391   5.712   5.907
   93MYC   H10417329   6.236   5.786   5.866
   93MYC    C7717330   6.280   5.603   5.756
   93MYC   H10617331   6.194   5.535   5.762
   93MYC   H10717332   6.370   5.540   5.751
   93MYC    C7617333   6.267   5.687   5.627
   93MYC   H10817334   6.347   5.762   5.624
   93MYC   H10917335   6.172   5.741   5.632
   93MYC    C7517336   6.271   5.602   5.498
   93MYC   H11017337   6.212   5.511   5.512
   93MYC   H11117338   6.375   5.572   5.479
   93MYC    C7417339   6.216   5.679   5.377
   93MYC   H11217340   6.266   5.777   5.370
   93MYC   H11317341   6.109   5.699   5.393
   93MYC    C7317342   6.234   5.604   5.244
   93MYC   HH1317343   6.183   5.507   5.250
   93MYC   H11417344   6.340   5.584   5.228
   93MYC    C7217345   6.179   5.683   5.123
   93MYC   H11517346   6.229   5.781   5.119
   93MYC   H11617347   6.072   5.701   5.137
   93MYC    C7117348   6.202   5.609   4.990
   93MYC   H11717349   6.141   5.517   4.990
   93MYC   H11817350   6.307   5.578   4.984
   93MYC    C7017351   6.168   5.693   4.866
   93MYC   H11917352   6.232   5.782   4.865
   93MYC   H12017353   6.064   5.729   4.873
   93MYC    C6917354   6.187   5.613   4.736
   93MYC   H12117355   6.110   5.535   4.731
   93MYC   H12217356   6.284   5.563   4.740
   93MYC    C6817357   6.181   5.700   4.609
   93MYC   HH1217358   6.261   5.775   4.614
   93MYC   H12317359   6.086   5.753   4.605
   93MYC    C6717360   6.199   5.615   4.482
   93MYC   H12417361   6.115   5.545   4.474
   93MYC   H12517362   6.291   5.555   4.492
   93MYC    C6617363   6.208   5.699   4.354
   93MYC   H12617364   6.294   5.766   4.361
   93MYC   H12717365   6.118   5.761   4.345
   93MYC    C6517366   6.223   5.611   4.228
   93MYC   H12817367   6.135   5.546   4.219
   93MYC   H12917368   6.311   5.546   4.239
   93MYC    C6417369   6.238   5.695   4.100
   93MYC   H13017370   6.325   5.761   4.111
   93MYC   H13117371   6.149   5.759   4.089
   93MYC    C6317372   6.255   5.609   3.973
   93MYC   HH1117373   6.167   5.545   3.959
   93MYC   H13217374   6.342   5.543   3.986
   93MYC    C6217375   6.275   5.697   3.849
   93MYC   H13317376   6.360   5.764   3.867
   93MYC   H13417377   6.187   5.761   3.835
   93MYC    C6117378   6.301   5.618   3.719
   93MYC   H13517379   6.210   5.563   3.692
   93MYC   H13617380   6.380   5.544   3.737
   93MYC    C6017381   6.345   5.711   3.607
   93MYC   H13717382   6.441   5.757   3.628
   93MYC    C5817383   6.313   5.682   3.462
   93MYC   H13817384   6.253   5.594   3.441
   93MYC    C5917385   6.244   5.796   3.533
   93MYC   H13917386   6.274   5.898   3.508
   93MYC   H14017387   6.139   5.785   3.559
   93MYC    C5717388   6.419   5.709   3.356
   93MYC   HH1017389   0.032   5.621   3.342
   93MYC   H14117390   0.036   5.789   3.391
   93MYC    C5617391   6.362   5.754   3.220
   93MYC   H14217392   6.442   5.807   3.168
   93MYC   H14317393   6.280   5.826   3.235
   93MYC    C5517394   6.314   5.639   3.128
   93MYC   H14417395   6.223   5.593   3.169
   93MYC   H14517396   6.392   5.562   3.124
   93MYC    C5417397   6.288   5.692   2.986
   93MYC   H14617398   6.376   5.748   2.953
   93MYC   H14717399   6.204   5.763   2.988
   93MYC    C5317400   6.260   5.583   2.880
   93MYC   H14817401   6.165   5.533   2.902
   93MYC   H14917402   6.339   5.507   2.885
   93MYC    C5217403   6.257   5.644   2.738
   93MYC    H9917404   6.352   5.695   2.720
   93MYC   H15017405   6.179   5.721   2.734
   93MYC    C5117406   6.233   5.542   2.626
   93MYC    H9717407   6.131   5.503   2.633
   93MYC    H9817408   6.302   5.457   2.639
   93MYC    C5017409   6.256   5.604   2.487
   93MYC    H9517410   6.362   5.634   2.478
   93MYC    H9617411   6.197   5.696   2.478
   93MYC    C4917412   6.220   5.510   2.370
   93MYC    H9317413   6.112   5.493   2.373
   93MYC    H9417414   6.269   5.413   2.384
   93MYC    C4817415   6.260   5.569   2.233
   93MYC    H9117416   6.368   5.558   2.218
   93MYC    H9217417   6.240   5.677   2.232
   93MYC    C4717418   6.185   5.503   2.117
   93MYC    H8917419   6.078   5.506   2.138
   93MYC    H9017420   6.214   5.397   2.112
   93MYC    C4617421   6.211   5.567   1.979
   93MYC    H8717422   6.316   5.555   1.953
   93MYC    H8817423   6.190   5.674   1.985
   93MYC    C4517424   6.122   5.504   1.870
   93MYC    H8517425   6.018   5.531   1.889
   93MYC    H8617426   6.129   5.395   1.876
   93MYC    C4417427   6.157   5.547   1.726
   93MYC    H8317428   6.095   5.489   1.657
   93MYC    H8417429   6.261   5.519   1.706
   93MYC    C1817430   6.135   5.696   1.700
   93MYC    H3117431   6.036   5.730   1.730
   93MYC    C1717432   6.248   5.795   1.713
   93MYC    H3017433   6.344   5.755   1.743
   93MYC    C1917434   6.195   5.759   1.577
   93MYC    H3217435   6.252   5.694   1.512
   93MYC    H3317436   6.140   5.837   1.526
   93MYC    C1617437   6.220   5.935   1.767
   93MYC    H2817438   6.188   5.927   1.871
   93MYC    H2917439   6.135   5.978   1.714
   93MYC    C1517440   6.338   6.034   1.753
   93MYC    H2617441   6.298   6.135   1.744
   93MYC    H2717442   6.390   6.015   1.659
   93MYC    C1417443   6.438   6.032   1.872
   93MYC    H2417444   0.077   6.091   1.846
   93MYC    H2517445   0.021   5.929   1.892
   93MYC    C1317446   6.373   6.091   1.999
   93MYC    H2217447   6.291   6.027   2.031
   93MYC    H2317448   6.330   6.189   1.974
   93MYC    C1217449   0.017   6.109   2.119
   93MYC    H2017450   0.093   6.185   2.098
   93MYC    H2117451   0.069   6.015   2.141
   93MYC    C1117452   6.384   6.151   2.242
   93MYC    H1817453   6.306   6.074   2.257
   93MYC    H1917454   6.331   6.244   2.221
   93MYC    C1017455   0.013   6.167   2.373
   93MYC    H1617456   0.062   6.265   2.374
   93MYC    H1717457   0.092   6.091   2.379
   93MYC     C917458   6.369   6.152   2.493
   93MYC    H1417459   6.327   6.051   2.492
   93MYC    H1517460   6.284   6.221   2.483
   93MYC     C817461   6.436   6.176   2.630
   93MYC    H1217462   6.447   6.284   2.646
   93MYC    H1317463   0.087   6.133   2.631
   93MYC     C717464   6.352   6.114   2.743
   93MYC    H1017465   6.360   6.005   2.736
   93MYC    H1117466   6.246   6.139   2.727
   93MYC     C617467   6.393   6.160   2.883
   93MYC     H817468   6.375   6.268   2.891
   93MYC     H917469   0.051   6.142   2.898
   93MYC     C517470   6.312   6.087   2.992
   93MYC     H617471   6.343   5.982   2.995
   93MYC     H717472   6.207   6.086   2.960
   93MYC     C417473   6.318   6.148   3.133
   93MYC     H417474   6.247   6.091   3.195
   93MYC     H517475   6.277   6.250   3.129
   93MYC     C217476   0.003   6.148   3.210
   93MYC     H217477   6.426   6.122   3.313
   93MYC     O317478   0.091   6.046   3.162
   93MYC     H317479   0.111   6.066   3.069
   93MYC     C117480   0.076   6.286   3.217
   93MYC     H117481   6.448   6.362   3.224
   93MYC    C8117482   0.158   6.319   3.091
   93MYC    O8217483   0.262   6.264   3.059
   93MYC    O8317484   0.106   6.418   3.015
   93MYC   H10517485   0.168   6.429   2.941
   93MYC    C2017486   0.162   6.298   3.346
   93MYC    H3417487   0.216   6.205   3.363
   93MYC    H3517488   0.238   6.376   3.332
   93MYC    C2117489   0.076   6.335   3.469
   93MYC    H3617490   0.029   6.433   3.453
   93MYC    H3717491   6.444   6.262   3.480
   93MYC    C2217492   0.156   6.338   3.600
   93MYC    H3817493   0.199   6.239   3.618
   93MYC    H3917494   0.239   6.408   3.590
   93MYC    C2317495   0.068   6.378   3.720
   93MYC    H4017496   0.030   0.030   3.706
   93MYC    H4117497   6.431   6.312   3.725
   93MYC    C2417498   0.145   6.371   3.853
   93MYC    H4217499   0.192   6.271   3.861
   93MYC    H4317500   0.227   6.444   3.852
   93MYC    C2517501   0.057   6.394   3.977
   93MYC    H4417502   0.010   0.043   3.971
   93MYC    H4517503   6.426   6.319   3.978
   93MYC    C2617504   0.138   6.383   4.107
   93MYC    H4617505   0.205   6.297   4.101
   93MYC    H4717506   0.202   0.023   4.116
   93MYC    C2717507   0.051   6.368   4.232
   93MYC    H4817508   6.429   0.002   4.238
   93MYC    H4917509   6.443   6.276   4.225
   93MYC    C2817510   0.136   6.365   4.361
   93MYC    H5017511   0.222   6.298   4.346
   93MYC    H5117512   0.177   0.016   4.379
   93MYC    C2917513   0.058   6.318   4.484
   93MYC    H5217514   6.414   6.374   4.492
   93MYC    H5317515   0.031   6.212   4.471
   93MYC    C3017516   0.138   6.335   4.614
   93MYC    H5417517   0.240   6.298   4.600
   93MYC    H5517518   0.146   6.442   4.636
   93MYC    C3117519   0.074   6.262   4.733
   93MYC    H5617520   6.417   6.286   4.737
   93MYC    H5717521   0.083   6.154   4.718
   93MYC    C3217522   0.139   6.301   4.867
   93MYC    H5817523   0.247   6.287   4.862
   93MYC    H5917524   0.121   6.408   4.885
   93MYC    C3317525   0.082   6.220   4.985
   93MYC    H6017526   6.422   6.217   4.977
   93MYC    H6117527   0.118   6.116   4.979
   93MYC    C3417528   0.121   6.280   5.122
   93MYC    H6217529   0.229   6.276   5.134
   93MYC    H6317530   0.091   6.385   5.123
   93MYC    C3517531   0.052   6.207   5.239
   93MYC    H6417532   6.394   6.204   5.221
   93MYC    H6517533   0.088   6.104   5.244
   93MYC    C3617534   0.079   6.278   5.373
   93MYC    H6617535   0.186   6.277   5.394
   93MYC    H6717536   0.048   6.383   5.365
   93MYC    C3717537   0.003   6.214   5.491
   93MYC    H6817538   6.345   6.216   5.472
   93MYC    H6917539   0.032   6.108   5.499
   93MYC    C3817540   0.033   6.285   5.624
   93MYC    H7017541   0.142   6.290   5.638
   93MYC    H7117542   6.446   6.388   5.619
   93MYC    C3917543   6.421   6.214   5.746
   93MYC    H7217544   6.312   6.220   5.740
   93MYC    H7317545   6.448   6.108   5.743
   93MYC    C4017546   0.019   6.275   5.879
   93MYC    H7417547   0.128   6.276   5.881
   93MYC    H7517548   6.435   6.379   5.885
   93MYC    C4117549   6.417   6.198   6.002
   93MYC    H7617550   6.307   6.200   6.002
   93MYC    H7717551   6.447   6.093   5.994
   93MYC    C4217552   0.019   6.256   6.135
   93MYC    H7817553   0.128   6.244   6.139
   93MYC    H7917554   6.448   6.363   6.139
   93MYC    C4317555   6.405   6.188   6.257
   93MYC    H8017556   6.427   6.081   6.258
   93MYC    H8117557   6.297   6.202   6.255
   93MYC    H8217558   6.444   6.232   6.350
   94MYC   HH1517559   0.805   6.422   6.297
   94MYC    C8017560   0.825   0.023   6.202
   94MYC   H10017561   0.767   0.116   6.200
   94MYC   H10117562   0.932   0.049   6.198
   94MYC    C7917563   0.787   6.382   6.083
   94MYC   H10217564   0.680   6.358   6.090
   94MYC   H10317565   0.842   6.288   6.091
   94MYC    C7817566   0.817   6.447   5.946
   94MYC   HH1417567   0.923   0.023   5.942
   94MYC   H10417568   0.761   0.092   5.938
   94MYC    C7717569   0.781   6.357   5.826
   94MYC   H10617570   0.673   6.343   5.822
   94MYC   H10717571   0.827   6.259   5.839
   94MYC    C7617572   0.830   6.418   5.693
   94MYC   H10817573   0.939   6.429   5.698
   94MYC   H10917574   0.789   0.070   5.683
   94MYC    C7517575   0.793   6.336   5.569
   94MYC   H11017576   0.684   6.330   5.559
   94MYC   H11117577   0.831   6.234   5.580
   94MYC    C7417578   0.853   6.399   5.441
   94MYC   H11217579   0.963   6.399   5.450
   94MYC   H11317580   0.822   0.054   5.435
   94MYC    C7317581   0.814   6.327   5.311
   94MYC   HH1317582   0.705   6.328   5.299
   94MYC   H11417583   0.846   6.222   5.316
   94MYC    C7217584   0.880   6.394   5.189
   94MYC   H11517585   0.989   6.392   5.202
   94MYC   H11617586   0.851   0.050   5.185
   94MYC    C7117587   0.845   6.327   5.056
   94MYC   H11717588   0.736   6.332   5.040
   94MYC   H11817589   0.871   6.220   5.060
   94MYC    C7017590   0.918   6.392   4.937
   94MYC   H11917591   1.026   6.385   4.953
   94MYC   H12017592   0.893   0.049   4.933
   94MYC    C6917593   0.882   6.327   4.803
   94MYC   H12117594   0.775   6.340   4.784
   94MYC   H12217595   0.900   6.219   4.809
   94MYC    C6817596   0.962   6.385   4.685
   94MYC   HH1217597   1.069   6.363   4.699
   94MYC   H12317598   0.951   0.044   4.682
   94MYC    C6717599   0.915   6.325   4.552
   94MYC   H12417600   0.809   6.349   4.538
   94MYC   H12517601   0.922   6.216   4.557
   94MYC    C6617602   0.995   6.374   4.430
   94MYC   H12617603   1.098   6.338   4.436
   94MYC   H12717604   0.999   0.034   4.430
   94MYC    C6517605   0.930   6.325   4.301
   94MYC   H12817606   0.832   6.373   4.290
   94MYC   H12917607   0.912   6.217   4.308
   94MYC    C6417608   1.012   6.353   4.174
   94MYC   H13017609   1.104   6.293   4.177
   94MYC   H13117610   1.041   0.009   4.171
   94MYC    C6317611   0.931   6.318   4.049
   94MYC   HH1117612   0.847   6.387   4.042
   94MYC   H13217613   0.890   6.217   4.060
   94MYC    C6217614   1.013   6.324   3.920
   94MYC   H13317615   1.091   6.248   3.922
   94MYC   H13417616   1.062   6.422   3.912
   94MYC    C6117617   0.922   6.302   3.798
   94MYC   H13517618   0.841   6.376   3.802
   94MYC   H13617619   0.876   6.203   3.804
   94MYC    C6017620   0.997   6.316   3.667
   94MYC   H13717621   1.070   6.237   3.652
   94MYC    C5817622   0.923   6.367   3.547
   94MYC   H13817623   0.821   6.401   3.563
   94MYC    C5917624   1.031   0.001   3.610
   94MYC   H13917625   1.125   0.011   3.556
   94MYC   H14017626   1.000   0.090   3.664
   94MYC    C5717627   0.941   6.303   3.412
   94MYC   HH1017628   0.867   6.223   3.399
   94MYC   H14117629   1.040   6.257   3.404
   94MYC    C5617630   0.924   6.407   3.301
   94MYC   H14217631   1.005   0.031   3.307
   94MYC   H14317632   0.830   0.011   3.316
   94MYC    C5517633   0.924   6.344   3.161
   94MYC   H14417634   0.843   6.271   3.154
   94MYC   H14517635   1.018   6.291   3.145
   94MYC    C5417636   0.905   0.001   3.053
   94MYC   H14617637   0.989   0.072   3.056
   94MYC   H14717638   0.814   0.059   3.073
   94MYC    C5317639   0.896   6.390   2.913
   94MYC   H14817640   0.811   6.320   2.909
   94MYC   H14917641   0.987   6.332   2.892
   94MYC    C5217642   0.879   0.047   2.804
   94MYC    H9917643   0.964   0.117   2.808
   94MYC   H15017644   0.788   0.106   2.823
   94MYC    C5117645   0.871   6.434   2.664
   94MYC    H9717646   0.783   6.369   2.660
   94MYC    H9817647   0.959   6.370   2.649
   94MYC    C5017648   0.864   0.088   2.551
   94MYC    H9517649   0.951   0.154   2.556
   94MYC    H9617650   0.774   0.150   2.563
   94MYC    C4917651   0.860   0.017   2.414
   94MYC    H9317652   0.770   6.406   2.409
   94MYC    H9417653   0.946   6.398   2.408
   94MYC    C4817654   0.864   0.112   2.294
   94MYC    H9117655   0.958   0.169   2.296
   94MYC    H9217656   0.782   0.185   2.300
   94MYC    C4717657   0.855   0.033   2.163
   94MYC    H8917658   0.762   6.425   2.163
   94MYC    H9017659   0.937   6.410   2.160
   94MYC    C4617660   0.860   0.119   2.036
   94MYC    H8717661   0.943   0.190   2.045
   94MYC    H8817662   0.767   0.177   2.028
   94MYC    C4517663   0.882   0.035   1.908
   94MYC    H8517664   0.802   6.409   1.900
   94MYC    H8617665   0.976   6.430   1.921
   94MYC    C4417666   0.891   0.116   1.777
   94MYC    H8317667   0.934   0.051   1.700
   94MYC    H8417668   0.961   0.199   1.791
   94MYC    C1817669   0.755   0.166   1.728
   94MYC    H3117670   0.685   0.085   1.713
   94MYC    C1717671   0.697   0.295   1.778
   94MYC    H3017672   0.761   0.352   1.845
   94MYC    C1917673   0.743   0.284   1.635
   94MYC    H3217674   0.834   0.337   1.607
   94MYC    H3317675   0.667   0.280   1.557
   94MYC    C1617676   0.549   0.298   1.817
   94MYC    H2817677   0.531   0.220   1.893
   94MYC    H2917678   0.487   0.271   1.731
   94MYC    C1517679   0.499   0.433   1.875
   94MYC    H2617680   0.395   0.420   1.907
   94MYC    H2717681   0.500   0.508   1.796
   94MYC    C1417682   0.584   0.483   1.994
   94MYC    H2417683   0.675   0.528   1.953
   94MYC    H2517684   0.614   0.397   2.056
   94MYC    C1317685   0.516   0.586   2.083
   94MYC    H2217686   0.426   0.542   2.127
   94MYC    H2317687   0.485   0.672   2.023
   94MYC    C1217688   0.609   0.636   2.196
   94MYC    H2017689   0.697   0.686   2.152
   94MYC    H2117690   0.646   0.550   2.253
   94MYC    C1117691   0.536   0.733   2.290
   94MYC    H1817692   0.454   0.678   2.338
   94MYC    H1917693   0.491   0.813   2.230
   94MYC    C1017694   0.623   0.797   2.400
   94MYC    H1617695   0.560   0.867   2.456
   94MYC    H1717696   0.701   0.855   2.352
   94MYC     C917697   0.686   0.697   2.499
   94MYC    H1417698   0.766   0.642   2.448
   94MYC    H1517699   0.611   0.623   2.530
   94MYC     C817700   0.743   0.765   2.625
   94MYC    H1217701   0.662   0.815   2.678
   94MYC    H1317702   0.815   0.842   2.595
   94MYC     C717703   0.812   0.665   2.720
   94MYC    H1017704   0.895   0.618   2.666
   94MYC    H1117705   0.741   0.584   2.745
   94MYC     C617706   0.865   0.729   2.850
   94MYC     H817707   0.781   0.770   2.908
   94MYC     H917708   0.930   0.813   2.824
   94MYC     C517709   0.945   0.629   2.936
   94MYC     H617710   1.037   0.677   2.972
   94MYC     H717711   0.980   0.547   2.871
   94MYC     C417712   0.867   0.565   3.054
   94MYC     H417713   0.910   0.467   3.074
   94MYC     H517714   0.764   0.545   3.021
   94MYC     C217715   0.866   0.642   3.190
   94MYC     H217716   0.922   0.580   3.260
   94MYC     O317717   0.933   0.769   3.181
   94MYC     H317718   0.870   0.833   3.143
   94MYC     C117719   0.722   0.662   3.248
   94MYC     H117720   0.672   0.564   3.244
   94MYC    C8117721   0.638   0.760   3.164
   94MYC    O8217722   0.666   0.877   3.147
   94MYC    O8317723   0.526   0.706   3.111
   94MYC   H10517724   0.483   0.779   3.062
   94MYC    C2017725   0.721   0.705   3.397
   94MYC    H3417726   0.788   0.791   3.412
   94MYC    H3517727   0.620   0.739   3.423
   94MYC    C2117728   0.761   0.592   3.496
   94MYC    H3617729   0.696   0.505   3.479
   94MYC    H3717730   0.864   0.560   3.476
   94MYC    C2217731   0.749   0.636   3.642
   94MYC    H3817732   0.813   0.723   3.659
   94MYC    H3917733   0.646   0.669   3.662
   94MYC    C2317734   0.787   0.526   3.743
   94MYC    H4017735   0.730   0.435   3.722
   94MYC    H4117736   0.893   0.502   3.732
   94MYC    C2417737   0.758   0.571   3.888
   94MYC    H4217738   0.802   0.670   3.904
   94MYC    H4317739   0.649   0.582   3.900
   94MYC    C2517740   0.811   0.475   3.996
   94MYC    H4417741   0.774   0.373   3.977
   94MYC    H4517742   0.920   0.472   3.991
   94MYC    C2617743   0.766   0.521   4.135
   94MYC    H4617744   0.795   0.626   4.150
   94MYC    H4717745   0.656   0.517   4.139
   94MYC    C2717746   0.823   0.438   4.251
   94MYC    H4817747   0.799   0.332   4.236
   94MYC    H4917748   0.932   0.447   4.253
   94MYC    C2817749   0.764   0.485   4.385
   94MYC    H5017750   0.789   0.591   4.400
   94MYC    H5117751   0.655   0.478   4.380
   94MYC    C2917752   0.813   0.406   4.507
   94MYC    H5217753   0.796   0.299   4.491
   94MYC    H5317754   0.921   0.420   4.519
   94MYC    C3017755   0.740   0.451   4.635
   94MYC    H5417756   0.754   0.559   4.648
   94MYC    H5517757   0.633   0.433   4.623
   94MYC    C3117758   0.789   0.379   4.762
   94MYC    H5617759   0.774   0.271   4.751
   94MYC    H5717760   0.897   0.396   4.773
   94MYC    C3217761   0.716   0.429   4.887
   94MYC    H5817762   0.727   0.538   4.894
   94MYC    H5917763   0.608   0.409   4.877
   94MYC    C3317764   0.768   0.365   5.016
   94MYC    H6017765   0.752   0.256   5.012
   94MYC    H6117766   0.876   0.381   5.024
   94MYC    C3417767   0.699   0.422   5.141
   94MYC    H6217768   0.716   0.531   5.144
   94MYC    H6317769   0.591   0.406   5.134
   94MYC    C3517770   0.752   0.360   5.271
   94MYC    H6417771   0.726   0.254   5.274
   94MYC    H6517772   0.861   0.366   5.273
   94MYC    C3617773   0.695   0.430   5.396
   94MYC    H6617774   0.726   0.536   5.394
   94MYC    H6717775   0.586   0.429   5.392
   94MYC    C3717776   0.742   0.366   5.527
   94MYC    H6817777   0.700   0.265   5.535
   94MYC    H6917778   0.852   0.356   5.527
   94MYC    C3817779   0.700   0.448   5.650
   94MYC    H7017780   0.751   0.546   5.647
   94MYC    H7117781   0.593   0.468   5.646
   94MYC    C3917782   0.733   0.379   5.784
   94MYC    H7217783   0.675   0.286   5.790
   94MYC    H7317784   0.839   0.351   5.786
   94MYC    C4017785   0.701   0.468   5.905
   94MYC    H7417786   0.766   0.556   5.903
   94MYC    H7517787   0.598   0.504   5.898
   94MYC    C4117788   0.719   0.395   6.040
   94MYC    H7617789   0.646   0.313   6.046
   94MYC    H7717790   0.818   0.349   6.044
   94MYC    C4217791   0.702   0.489   6.161
   94MYC    H7817792   0.780   0.566   6.158
   94MYC    H7917793   0.605   0.541   6.154
   94MYC    C4317794   0.709   0.415   6.296
   94MYC    H8017795   0.804   0.361   6.305
   94MYC    H8117796   0.627   0.343   6.305
   94MYC    H8217797   0.702   0.486   6.379
   95MYC   HH1517798   0.968   0.803   6.250
   95MYC    C8017799   0.943   0.863   6.162
   95MYC   H10017800   0.834   0.877   6.159
   95MYC   H10117801   0.990   0.962   6.172
   95MYC    C7917802   0.991   0.793   6.033
   95MYC   H10217803   0.940   0.696   6.024
   95MYC   H10317804   1.098   0.773   6.041
   95MYC    C7817805   0.964   0.877   5.906
   95MYC   HH1417806   1.026   0.968   5.910
   95MYC   H10417807   0.859   0.909   5.905
   95MYC    C7717808   0.994   0.800   5.776
   95MYC   H10617809   0.927   0.714   5.769
   95MYC   H10717810   1.097   0.762   5.778
   95MYC    C7617811   0.976   0.890   5.652
   95MYC   H10817812   1.052   0.969   5.654
   95MYC   H10917813   0.878   0.939   5.657
   95MYC    C7517814   0.986   0.813   5.519
   95MYC   H11017815   0.910   0.734   5.516
   95MYC   H11117816   1.084   0.764   5.511
   95MYC    C7417817   0.966   0.907   5.399
   95MYC   H11217818   1.042   0.986   5.401
   95MYC   H11317819   0.869   0.957   5.409
   95MYC    C7317820   0.972   0.836   5.263
   95MYC   HH1317821   0.899   0.754   5.260
   95MYC   H11417822   1.072   0.792   5.248
   95MYC    C7217823   0.942   0.934   5.148
   95MYC   H11517824   1.012   1.018   5.153
   95MYC   H11617825   0.841   0.975   5.162
   95MYC    C7117826   0.951   0.870   5.009
   95MYC   H11717827   0.881   0.786   5.001
   95MYC   H11817828   1.052   0.831   4.993
   95MYC    C7017829   0.918   0.973   4.899
   95MYC   H11917830   0.984   1.060   4.912
   95MYC   H12017831   0.815   1.009   4.912
   95MYC    C6917832   0.935   0.918   4.757
   95MYC   H12117833   0.867   0.834   4.742
   95MYC   H12217834   1.037   0.881   4.744
   95MYC    C6817835   0.907   1.027   4.652
   95MYC   HH1217836   0.974   1.112   4.670
   95MYC   H12317837   0.804   1.064   4.664
   95MYC    C6717838   0.926   0.977   4.509
   95MYC   H12417839   0.856   0.896   4.488
   95MYC   H12517840   1.028   0.937   4.497
   95MYC    C6617841   0.906   1.090   4.407
   95MYC   H12617842   0.981   1.168   4.424
   95MYC   H12717843   0.808   1.137   4.423
   95MYC    C6517844   0.915   1.041   4.262
   95MYC   H12817845   0.830   0.975   4.241
   95MYC   H12917846   1.007   0.982   4.250
   95MYC    C6417847   0.917   1.157   4.162
   95MYC   H13017848   1.008   1.217   4.179
   95MYC   H13117849   0.831   1.223   4.179
   95MYC    C6317850   0.915   1.108   4.017
   95MYC   HH1117851   0.816   1.065   3.995
   95MYC   H13217852   0.988   1.027   4.005
   95MYC    C6217853   0.946   1.219   3.917
   95MYC   H13317854   1.048   1.257   3.935
   95MYC   H13417855   0.877   1.303   3.931
   95MYC    C6117856   0.936   1.169   3.773
   95MYC   H13517857   0.832   1.144   3.751
   95MYC   H13617858   0.993   1.076   3.763
   95MYC    C6017859   0.989   1.269   3.672
   95MYC   H13717860   1.095   1.289   3.685
   95MYC    C5817861   0.938   1.260   3.531
   95MYC   H13817862   0.856   1.191   3.514
   95MYC    C5917863   0.907   1.382   3.615
   95MYC   H13917864   0.959   1.475   3.592
   95MYC   H14017865   0.805   1.394   3.651
   95MYC    C5717866   1.039   1.259   3.419
   95MYC   HH1017867   1.094   1.164   3.423
   95MYC   H14117868   1.113   1.339   3.431
   95MYC    C5617869   0.972   1.271   3.282
   95MYC   H14217870   0.934   1.373   3.269
   95MYC   H14317871   0.886   1.204   3.277
   95MYC    C5517872   1.068   1.235   3.167
   95MYC   H14417873   1.100   1.131   3.179
   95MYC   H14517874   1.158   1.297   3.173
   95MYC    C5417875   1.000   1.253   3.031
   95MYC   H14617876   0.975   1.358   3.016
   95MYC   H14717877   0.905   1.197   3.031
   95MYC    C5317878   1.085   1.203   2.913
   95MYC   H14817879   1.114   1.098   2.931
   95MYC   H14917880   1.178   1.261   2.906
   95MYC    C5217881   1.008   1.212   2.781
   95MYC    H9917882   0.985   1.317   2.759
   95MYC   H15017883   0.912   1.160   2.793
   95MYC    C5117884   1.083   1.149   2.663
   95MYC    H9717885   1.118   1.049   2.692
   95MYC    H9817886   1.172   1.209   2.639
   95MYC    C5017887   0.993   1.137   2.538
   95MYC    H9517888   0.973   1.237   2.497
   95MYC    H9617889   0.896   1.095   2.568
   95MYC    C4917890   1.054   1.047   2.430
   95MYC    H9317891   1.079   0.949   2.474
   95MYC    H9417892   1.148   1.091   2.394
   95MYC    C4817893   0.958   1.026   2.312
   95MYC    H9117894   0.942   1.122   2.261
   95MYC    H9217895   0.861   0.995   2.350
   95MYC    C4717896   1.010   0.922   2.211
   95MYC    H8917897   1.005   0.822   2.257
   95MYC    H9017898   1.115   0.943   2.189
   95MYC    C4617899   0.930   0.921   2.079
   95MYC    H8717900   0.929   1.023   2.038
   95MYC    H8817901   0.826   0.892   2.098
   95MYC    C4517902   0.993   0.826   1.974
   95MYC    H8517903   0.968   0.723   2.002
   95MYC    H8617904   1.102   0.836   1.978
   95MYC    C4417905   0.948   0.851   1.829
   95MYC    H8317906   1.024   0.810   1.762
   95MYC    H8417907   0.946   0.959   1.810
   95MYC    C1817908   0.812   0.790   1.796
   95MYC    H3117909   0.753   0.765   1.883
   95MYC    C1717910   0.739   0.842   1.675
   95MYC    H3017911   0.791   0.915   1.613
   95MYC    C1917912   0.794   0.701   1.675
   95MYC    H3217913   0.881   0.680   1.614
   95MYC    H3317914   0.723   0.619   1.684
   95MYC    C1617915   0.589   0.869   1.680
   95MYC    H2817916   0.541   0.782   1.724
   95MYC    H2917917   0.551   0.875   1.577
   95MYC    C1517918   0.546   0.997   1.756
   95MYC    H2617919   0.439   1.013   1.739
   95MYC    H2717920   0.598   1.083   1.714
   95MYC    C1417921   0.571   0.992   1.909
   95MYC    H2417922   0.678   0.980   1.928
   95MYC    H2517923   0.521   0.903   1.951
   95MYC    C1317924   0.524   1.117   1.986
   95MYC    H2217925   0.418   1.136   1.967
   95MYC    H2317926   0.579   1.204   1.948
   95MYC    C1217927   0.548   1.105   2.139
   95MYC    H2017928   0.646   1.058   2.156
   95MYC    H2117929   0.472   1.037   2.181
   95MYC    C1117930   0.543   1.239   2.215
   95MYC    H1817931   0.442   1.282   2.211
   95MYC    H1917932   0.609   1.310   2.163
   95MYC    C1017933   0.591   1.229   2.362
   95MYC    H1617934   0.616   1.330   2.397
   95MYC    H1717935   0.684   1.171   2.366
   95MYC     C917936   0.488   1.169   2.461
   95MYC    H1417937   0.447   1.076   2.421
   95MYC    H1517938   0.404   1.239   2.471
   95MYC     C817939   0.549   1.142   2.601
   95MYC    H1217940   0.599   1.233   2.636
   95MYC    H1317941   0.626   1.065   2.592
   95MYC     C717942   0.444   1.099   2.706
   95MYC    H1017943   0.388   1.013   2.669
   95MYC    H1117944   0.372   1.180   2.719
   95MYC     C617945   0.507   1.063   2.843
   95MYC     H817946   0.576   1.142   2.875
   95MYC     H917947   0.568   0.972   2.831
   95MYC     C517948   0.403   1.038   2.955
   95MYC     H617949   0.449   0.982   3.036
   95MYC     H717950   0.324   0.973   2.915
   95MYC     C417951   0.339   1.168   3.012
   95MYC     H417952   0.230   1.153   3.018
   95MYC     H517953   0.354   1.250   2.941
   95MYC     C217954   0.390   1.209   3.153
   95MYC     H217955   0.357   1.131   3.222
   95MYC     O317956   0.534   1.212   3.154
   95MYC     H317957   0.562   1.294   3.110
   95MYC     C117958   0.332   1.346   3.202
   95MYC     H117959   0.224   1.333   3.209
   95MYC    C8117960   0.356   1.461   3.101
   95MYC    O8217961   0.266   1.526   3.050
   95MYC    O8317962   0.485   1.482   3.067
   95MYC   H10517963   0.483   1.556   3.004
   95MYC    C2017964   0.382   1.390   3.342
   95MYC    H3417965   0.487   1.420   3.335
   95MYC    H3517966   0.326   1.480   3.371
   95MYC    C2117967   0.368   1.286   3.455
   95MYC    H3617968   0.264   1.252   3.463
   95MYC    H3717969   0.429   1.197   3.432
   95MYC    C2217970   0.414   1.342   3.591
   95MYC    H3817971   0.516   1.382   3.581
   95MYC    H3917972   0.350   1.427   3.619
   95MYC    C2317973   0.413   1.239   3.706
   95MYC    H4017974   0.311   1.202   3.720
   95MYC    H4117975   0.475   1.153   3.678
   95MYC    C2417976   0.466   1.299   3.838
   95MYC    H4217977   0.572   1.322   3.827
   95MYC    H4317978   0.414   1.394   3.857
   95MYC    C2517979   0.446   1.206   3.959
   95MYC    H4417980   0.340   1.181   3.969
   95MYC    H4517981   0.500   1.112   3.943
   95MYC    C2617982   0.494   1.272   4.090
   95MYC    H4617983   0.602   1.291   4.084
   95MYC    H4717984   0.445   1.369   4.102
   95MYC    C2717985   0.465   1.186   4.215
   95MYC    H4817986   0.360   1.156   4.215
   95MYC    H4917987   0.525   1.094   4.211
   95MYC    C2817988   0.495   1.262   4.346
   95MYC    H5017989   0.600   1.294   4.347
   95MYC    H5117990   0.434   1.353   4.350
   95MYC    C2917991   0.467   1.178   4.472
   95MYC    H5217992   0.364   1.138   4.467
   95MYC    H5317993   0.535   1.092   4.474
   95MYC    C3017994   0.483   1.259   4.602
   95MYC    H5417995   0.584   1.302   4.606
   95MYC    H5517996   0.412   1.343   4.602
   95MYC    C3117997   0.459   1.174   4.729
   95MYC    H5617998   0.358   1.132   4.726
   95MYC    H5717999   0.529   1.089   4.728
   95MYC    C3218000   0.479   1.255   4.858
   95MYC    H5818001   0.579   1.299   4.858
   95MYC    H5918002   0.407   1.337   4.861
   95MYC    C3318003   0.463   1.169   4.985
   95MYC    H6018004   0.362   1.125   4.987
   95MYC    H6118005   0.534   1.086   4.982
   95MYC    C3418006   0.484   1.250   5.115
   95MYC    H6218007   0.581   1.301   5.109
   95MYC    H6318008   0.407   1.327   5.122
   95MYC    C3518009   0.482   1.162   5.242
   95MYC    H6418010   0.390   1.102   5.243
   95MYC    H6518011   0.567   1.092   5.238
   95MYC    C3618012   0.489   1.246   5.371
   95MYC    H6618013   0.569   1.320   5.362
   95MYC    H6718014   0.395   1.301   5.382
   95MYC    C3718015   0.514   1.161   5.497
   95MYC    H6818016   0.447   1.074   5.497
   95MYC    H6918017   0.617   1.123   5.494
   95MYC    C3818018   0.492   1.241   5.627
   95MYC    H7018019   0.539   1.340   5.619
   95MYC    H7118020   0.384   1.258   5.640
   95MYC    C3918021   0.547   1.170   5.753
   95MYC    H7218022   0.516   1.065   5.752
   95MYC    H7318023   0.657   1.171   5.749
   95MYC    C4018024   0.500   1.236   5.884
   95MYC    H7418025   0.517   1.344   5.879
   95MYC    H7518026   0.391   1.222   5.893
   95MYC    C4118027   0.569   1.180   6.009
   95MYC    H7618028   0.572   1.070   6.004
   95MYC    H7718029   0.674   1.214   6.010
   95MYC    C4218030   0.500   1.222   6.140
   95MYC    H7818031   0.488   1.331   6.142
   95MYC    H7918032   0.399   1.179   6.143
   95MYC    C4318033   0.576   1.179   6.267
   95MYC    H8018034   0.518   1.203   6.356
   95MYC    H8118035   0.672   1.232   6.273
   95MYC    H8218036   0.596   1.072   6.266
   96MYC   HH1518037   0.637   1.811   6.308
   96MYC    C8018038   0.640   1.862   6.211
   96MYC   H10018039   0.548   1.920   6.200
   96MYC   H10118040   0.725   1.931   6.211
   96MYC    C7918041   0.654   1.759   6.097
   96MYC   H10218042   0.571   1.688   6.103
   96MYC   H10318043   0.746   1.703   6.111
   96MYC    C7818044   0.654   1.825   5.957
   96MYC   HH1418045   0.741   1.892   5.949
   96MYC   H10418046   0.565   1.887   5.946
   96MYC    C7718047   0.658   1.722   5.842
   96MYC   H10618048   0.568   1.660   5.847
   96MYC   H10718049   0.744   1.655   5.856
   96MYC    C7618050   0.668   1.789   5.704
   96MYC   H10818051   0.761   1.846   5.698
   96MYC   H10918052   0.586   1.862   5.694
   96MYC    C7518053   0.661   1.689   5.587
   96MYC   H11018054   0.563   1.639   5.588
   96MYC   H11118055   0.738   1.612   5.599
   96MYC    C7418056   0.681   1.759   5.451
   96MYC   H11218057   0.783   1.801   5.447
   96MYC   H11318058   0.612   1.844   5.444
   96MYC    C7318059   0.659   1.668   5.330
   96MYC   HH1318060   0.555   1.631   5.330
   96MYC   H11418061   0.724   1.579   5.337
   96MYC    C7218062   0.687   1.742   5.198
   96MYC   H11518063   0.794   1.768   5.194
   96MYC   H11618064   0.631   1.836   5.197
   96MYC    C7118065   0.650   1.661   5.072
   96MYC   H11718066   0.543   1.636   5.075
   96MYC   H11818067   0.705   1.567   5.071
   96MYC    C7018068   0.680   1.740   4.944
   96MYC   H11918069   0.787   1.762   4.939
   96MYC   H12018070   0.628   1.837   4.947
   96MYC    C6918071   0.638   1.666   4.816
   96MYC   H12118072   0.529   1.652   4.816
   96MYC   H12218073   0.683   1.566   4.815
   96MYC    C6818074   0.680   1.742   4.689
   96MYC   HH1218075   0.789   1.750   4.687
   96MYC   H12318076   0.640   1.844   4.692
   96MYC    C6718077   0.631   1.673   4.560
   96MYC   H12418078   0.522   1.681   4.555
   96MYC   H12518079   0.656   1.566   4.564
   96MYC    C6618080   0.694   1.734   4.434
   96MYC   H12618081   0.803   1.719   4.437
   96MYC   H12718082   0.677   1.842   4.433
   96MYC    C6518083   0.638   1.672   4.305
   96MYC   H12818084   0.530   1.690   4.301
   96MYC   H12918085   0.651   1.563   4.308
   96MYC    C6418086   0.704   1.728   4.178
   96MYC   H13018087   0.811   1.704   4.180
   96MYC   H13118088   0.695   1.837   4.178
   96MYC    C6318089   0.640   1.670   4.051
   96MYC   HH1118090   0.532   1.688   4.053
   96MYC   H13218091   0.654   1.561   4.050
   96MYC    C6218092   0.698   1.731   3.923
   96MYC   H13318093   0.807   1.713   3.921
   96MYC   H13418094   0.684   1.839   3.923
   96MYC    C6118095   0.634   1.671   3.797
   96MYC   H13518096   0.529   1.700   3.792
   96MYC   H13618097   0.636   1.561   3.804
   96MYC    C6018098   0.707   1.712   3.671
   96MYC   H13718099   0.813   1.688   3.676
   96MYC    C5818100   0.640   1.694   3.538
   96MYC   H13818101   0.535   1.666   3.537
   96MYC    C5918102   0.670   1.833   3.590
   96MYC   H13918103   0.751   1.889   3.542
   96MYC   H14018104   0.587   1.894   3.624
   96MYC    C5718105   0.719   1.629   3.426
   96MYC   HH1018106   0.697   1.522   3.425
   96MYC   H14118107   0.826   1.638   3.445
   96MYC    C5618108   0.689   1.689   3.288
   96MYC   H14218109   0.715   1.795   3.288
   96MYC   H14318110   0.581   1.682   3.268
   96MYC    C5518111   0.766   1.616   3.177
   96MYC   H14418112   0.731   1.512   3.172
   96MYC   H14518113   0.872   1.612   3.202
   96MYC    C5418114   0.751   1.682   3.040
   96MYC   H14618115   0.803   1.779   3.040
   96MYC   H14718116   0.645   1.703   3.020
   96MYC    C5318117   0.807   1.595   2.926
   96MYC   H14818118   0.754   1.499   2.925
   96MYC   H14918119   0.913   1.574   2.945
   96MYC    C5218120   0.792   1.663   2.789
   96MYC    H9918121   0.852   1.754   2.789
   96MYC   H15018122   0.687   1.692   2.775
   96MYC    C5118123   0.836   1.574   2.672
   96MYC    H9718124   0.781   1.479   2.675
   96MYC    H9818125   0.943   1.551   2.681
   96MYC    C5018126   0.809   1.643   2.537
   96MYC    H9518127   0.858   1.741   2.536
   96MYC    H9618128   0.701   1.662   2.530
   96MYC    C4918129   0.854   1.562   2.415
   96MYC    H9318130   0.813   1.461   2.420
   96MYC    H9418131   0.964   1.553   2.416
   96MYC    C4818132   0.808   1.630   2.285
   96MYC    H9118133   0.849   1.732   2.281
   96MYC    H9218134   0.699   1.639   2.287
   96MYC    C4718135   0.849   1.555   2.157
   96MYC    H8918136   0.805   1.454   2.159
   96MYC    H9018137   0.958   1.542   2.155
   96MYC    C4618138   0.804   1.630   2.031
   96MYC    H8718139   0.870   1.716   2.015
   96MYC    H8818140   0.703   1.670   2.048
   96MYC    C4518141   0.803   1.543   1.904
   96MYC    H8518142   0.727   1.464   1.916
   96MYC    H8618143   0.900   1.493   1.893
   96MYC    C4418144   0.773   1.622   1.775
   96MYC    H8318145   0.762   1.552   1.691
   96MYC    H8418146   0.860   1.683   1.751
   96MYC    C1818147   0.648   1.710   1.782
   96MYC    H3118148   0.576   1.678   1.856
   96MYC    C1718149   0.662   1.858   1.752
   96MYC    H3018150   0.758   1.893   1.717
   96MYC    C1918151   0.587   1.767   1.656
   96MYC    H3218152   0.635   1.743   1.562
   96MYC    H3318153   0.479   1.775   1.652
   96MYC    C1618154   0.586   1.964   1.832
   96MYC    H2818155   0.522   1.917   1.908
   96MYC    H2918156   0.518   2.016   1.764
   96MYC    C1518157   0.677   2.070   1.898
   96MYC    H2618158   0.617   2.159   1.917
   96MYC    H2718159   0.755   2.101   1.826
   96MYC    C1418160   0.745   2.030   2.031
   96MYC    H2418161   0.815   1.948   2.014
   96MYC    H2518162   0.668   1.993   2.100
   96MYC    C1318163   0.819   2.150   2.095
   96MYC    H2218164   0.753   2.238   2.094
   96MYC    H2318165   0.904   2.177   2.031
   96MYC    C1218166   0.869   2.128   2.239
   96MYC    H2018167   0.941   2.045   2.242
   96MYC    H2118168   0.785   2.098   2.302
   96MYC    C1118169   0.934   2.255   2.299
   96MYC    H1818170   0.857   2.332   2.309
   96MYC    H1918171   1.007   2.295   2.227
   96MYC    C1018172   1.007   2.239   2.435
   96MYC    H1618173   1.006   2.337   2.485
   96MYC    H1718174   1.112   2.215   2.418
   96MYC     C918175   0.947   2.137   2.534
   96MYC    H1418176   0.944   2.037   2.488
   96MYC    H1518177   0.844   2.164   2.556
   96MYC     C818178   1.030   2.125   2.665
   96MYC    H1218179   1.065   2.224   2.697
   96MYC    H1318180   1.119   2.065   2.645
   96MYC     C718181   0.952   2.060   2.782
   96MYC    H1018182   1.024   2.023   2.856
   96MYC    H1118183   0.897   1.973   2.744
   96MYC     C618184   0.854   2.157   2.852
   96MYC     H818185   0.791   2.207   2.777
   96MYC     H918186   0.913   2.236   2.900
   96MYC     C518187   0.763   2.089   2.956
   96MYC     H618188   0.824   2.033   3.027
   96MYC     H718189   0.701   2.015   2.903
   96MYC     C418190   0.669   2.187   3.031
   96MYC     H418191   0.573   2.136   3.047
   96MYC     H518192   0.647   2.273   2.967
   96MYC     C218193   0.721   2.235   3.169
   96MYC     H218194   0.740   2.144   3.229
   96MYC     O318195   0.845   2.304   3.153
   96MYC     H318196   0.830   2.379   3.093
   96MYC     C118197   0.618   2.321   3.249
   96MYC     H118198   0.530   2.257   3.262
   96MYC    C8118199   0.571   2.445   3.169
   96MYC    O8218200   0.636   2.547   3.155
   96MYC    O8318201   0.450   2.430   3.110
   96MYC   H10518202   0.431   2.516   3.066
   96MYC    C2018203   0.667   2.363   3.390
   96MYC    H3418204   0.764   2.414   3.382
   96MYC    H3518205   0.597   2.437   3.430
   96MYC    C2118206   0.677   2.248   3.493
   96MYC    H3618207   0.577   2.207   3.511
   96MYC    H3718208   0.738   2.166   3.453
   96MYC    C2218209   0.739   2.295   3.626
   96MYC    H3818210   0.845   2.317   3.610
   96MYC    H3918211   0.691   2.389   3.656
   96MYC    C2318212   0.724   2.195   3.742
   96MYC    H4018213   0.617   2.180   3.762
   96MYC    H4118214   0.766   2.097   3.714
   96MYC    C2418215   0.794   2.245   3.871
   96MYC    H4218216   0.902   2.229   3.861
   96MYC    H4318217   0.780   2.353   3.880
   96MYC    C2518218   0.743   2.178   3.999
   96MYC    H4418219   0.635   2.195   4.008
   96MYC    H4518220   0.759   2.069   3.994
   96MYC    C2618221   0.813   2.233   4.126
   96MYC    H4618222   0.920   2.211   4.121
   96MYC    H4718223   0.803   2.342   4.127
   96MYC    C2718224   0.755   2.176   4.256
   96MYC    H4818225   0.647   2.199   4.261
   96MYC    H4918226   0.764   2.066   4.255
   96MYC    C2818227   0.824   2.231   4.382
   96MYC    H5018228   0.931   2.208   4.378
   96MYC    H5118229   0.814   2.341   4.383
   96MYC    C2918230   0.764   2.173   4.511
   96MYC    H5218231   0.657   2.198   4.515
   96MYC    H5318232   0.772   2.064   4.509
   96MYC    C3018233   0.833   2.226   4.639
   96MYC    H5418234   0.939   2.201   4.636
   96MYC    H5518235   0.826   2.336   4.641
   96MYC    C3118236   0.770   2.168   4.767
   96MYC    H5618237   0.663   2.192   4.767
   96MYC    H5718238   0.778   2.059   4.765
   96MYC    C3218239   0.833   2.221   4.896
   96MYC    H5818240   0.939   2.193   4.899
   96MYC    H5918241   0.829   2.331   4.896
   96MYC    C3318242   0.762   2.168   5.022
   96MYC    H6018243   0.656   2.193   5.016
   96MYC    H6118244   0.769   2.058   5.024
   96MYC    C3418245   0.819   2.224   5.153
   96MYC    H6218246   0.924   2.193   5.164
   96MYC    H6318247   0.818   2.334   5.149
   96MYC    C3518248   0.739   2.177   5.276
   96MYC    H6418249   0.635   2.210   5.266
   96MYC    H6518250   0.738   2.067   5.279
   96MYC    C3618251   0.795   2.231   5.409
   96MYC    H6618252   0.898   2.194   5.422
   96MYC    H6718253   0.801   2.341   5.404
   96MYC    C3718254   0.709   2.191   5.531
   96MYC    H6818255   0.610   2.236   5.520
   96MYC    H6918256   0.696   2.083   5.532
   96MYC    C3818257   0.772   2.236   5.664
   96MYC    H7018258   0.867   2.183   5.678
   96MYC    H7118259   0.796   2.343   5.658
   96MYC    C3918260   0.680   2.212   5.786
   96MYC    H7218261   0.593   2.278   5.777
   96MYC    H7318262   0.643   2.109   5.785
   96MYC    C4018263   0.752   2.239   5.919
   96MYC    H7418264   0.831   2.164   5.933
   96MYC    H7518265   0.802   2.337   5.914
   96MYC    C4118266   0.658   2.238   6.041
   96MYC    H7618267   0.588   2.322   6.032
   96MYC    H7718268   0.599   2.146   6.041
   96MYC    C4218269   0.734   2.249   6.175
   96MYC    H7818270   0.798   2.161   6.187
   96MYC    H7918271   0.800   2.337   6.173
   96MYC    C4318272   0.641   2.261   6.297
   96MYC    H8018273   0.699   2.260   6.390
   96MYC    H8118274   0.570   2.177   6.300
   96MYC    H8218275   0.584   2.355   6.293
   97MYC   HH1518276   0.729   2.994   6.154
   97MYC    C8018277   0.778   3.020   6.059
   97MYC   H10018278   0.795   3.128   6.059
   97MYC   H10118279   0.875   2.970   6.054
   97MYC    C7918280   0.689   2.979   5.940
   97MYC   H10218281   0.594   3.033   5.947
   97MYC   H10318282   0.665   2.872   5.948
   97MYC    C7818283   0.755   3.006   5.803
   97MYC   HH1418284   0.843   2.942   5.793
   97MYC   H10418285   0.790   3.110   5.800
   97MYC    C7718286   0.658   2.982   5.685
   97MYC   H10618287   0.576   3.055   5.692
   97MYC   H10718288   0.613   2.882   5.694
   97MYC    C7618289   0.727   2.995   5.548
   97MYC   H10818290   0.792   2.908   5.532
   97MYC   H10918291   0.791   3.084   5.547
   97MYC    C7518292   0.625   3.006   5.433
   97MYC   H11018293   0.568   3.098   5.446
   97MYC   H11118294   0.553   2.923   5.439
   97MYC    C7418295   0.690   3.005   5.293
   97MYC   H11218296   0.721   2.902   5.269
   97MYC   H11318297   0.782   3.066   5.294
   97MYC    C7318298   0.595   3.059   5.184
   97MYC   HH1318299   0.581   3.166   5.199
   97MYC   H11418300   0.497   3.011   5.196
   97MYC    C7218301   0.646   3.033   5.042
   97MYC   H11518302   0.649   2.924   5.025
   97MYC   H11618303   0.749   3.070   5.031
   97MYC    C7118304   0.557   3.099   4.934
   97MYC   H11718305   0.579   3.206   4.931
   97MYC   H11818306   0.452   3.088   4.962
   97MYC    C7018307   0.579   3.036   4.796
   97MYC   H11918308   0.555   2.929   4.802
   97MYC   H12018309   0.684   3.045   4.768
   97MYC    C6918310   0.492   3.100   4.686
   97MYC   H12118311   0.533   3.199   4.662
   97MYC   H12218312   0.390   3.115   4.722
   97MYC    C6818313   0.489   3.013   4.559
   97MYC   HH1218314   0.429   2.923   4.578
   97MYC   H12318315   0.591   2.979   4.537
   97MYC    C6718316   0.435   3.085   4.435
   97MYC   H12418317   0.496   3.175   4.418
   97MYC   H12518318   0.332   3.119   4.453
   97MYC    C6618319   0.439   2.996   4.309
   97MYC   H12618320   0.347   2.937   4.303
   97MYC   H12718321   0.522   2.925   4.319
   97MYC    C6518322   0.458   3.076   4.179
   97MYC   H12818323   0.540   3.148   4.193
   97MYC   H12918324   0.368   3.133   4.157
   97MYC    C6418325   0.494   2.985   4.060
   97MYC   H13018326   0.414   2.911   4.045
   97MYC   H13118327   0.585   2.929   4.084
   97MYC    C6318328   0.515   3.064   3.930
   97MYC   HH1118329   0.583   3.148   3.949
   97MYC   H13218330   0.419   3.106   3.898
   97MYC    C6218331   0.574   2.978   3.817
   97MYC   H13318332   0.510   2.889   3.801
   97MYC   H13418333   0.673   2.942   3.846
   97MYC    C6118334   0.584   3.057   3.686
   97MYC   H13518335   0.644   3.148   3.703
   97MYC   H13618336   0.484   3.091   3.657
   97MYC    C6018337   0.644   2.977   3.571
   97MYC   H13718338   0.599   2.879   3.560
   97MYC    C5818339   0.676   3.051   3.444
   97MYC   H13818340   0.664   3.159   3.448
   97MYC    C5918341   0.788   2.992   3.527
   97MYC   H13918342   0.838   2.903   3.489
   97MYC   H14018343   0.851   3.061   3.582
   97MYC    C5718344   0.631   2.992   3.311
   97MYC   HH1018345   0.522   2.976   3.315
   97MYC   H14118346   0.676   2.893   3.295
   97MYC    C5618347   0.664   3.084   3.192
   97MYC   H14218348   0.773   3.091   3.180
   97MYC   H14318349   0.627   3.185   3.215
   97MYC    C5518350   0.600   3.037   3.061
   97MYC   H14418351   0.492   3.026   3.076
   97MYC   H14518352   0.639   2.938   3.034
   97MYC    C5418353   0.625   3.135   2.945
   97MYC   H14618354   0.733   3.144   2.930
   97MYC   H14718355   0.589   3.235   2.973
   97MYC    C5318356   0.558   3.094   2.813
   97MYC   H14818357   0.449   3.096   2.823
   97MYC   H14918358   0.586   2.990   2.789
   97MYC    C5218359   0.601   3.186   2.697
   97MYC    H9918360   0.711   3.188   2.696
   97MYC   H15018361   0.568   3.288   2.717
   97MYC    C5118362   0.550   3.143   2.557
   97MYC    H9718363   0.446   3.173   2.545
   97MYC    H9818364   0.554   3.034   2.548
   97MYC    C5018365   0.638   3.206   2.447
   97MYC    H9518366   0.740   3.168   2.461
   97MYC    H9618367   0.641   3.314   2.461
   97MYC    C4918368   0.598   3.175   2.302
   97MYC    H9318369   0.497   3.212   2.283
   97MYC    H9418370   0.596   3.066   2.287
   97MYC    C4818371   0.697   3.241   2.203
   97MYC    H9118372   0.798   3.204   2.225
   97MYC    H9218373   0.699   3.348   2.222
   97MYC    C4718374   0.665   3.216   2.055
   97MYC    H8918375   0.718   3.291   1.994
   97MYC    H9018376   0.558   3.232   2.037
   97MYC    C4618377   0.707   3.076   2.005
   97MYC    H8718378   0.664   2.999   2.071
   97MYC    H8818379   0.816   3.067   2.011
   97MYC    C4518380   0.661   3.048   1.861
   97MYC    H8518381   0.693   3.129   1.795
   97MYC    H8618382   0.551   3.050   1.859
   97MYC    C4418383   0.710   2.912   1.804
   97MYC    H8318384   0.644   2.885   1.720
   97MYC    H8418385   0.697   2.834   1.879
   97MYC    C1818386   0.854   2.918   1.757
   97MYC    H3118387   0.926   2.927   1.839
   97MYC    C1718388   0.901   2.846   1.632
   97MYC    H3018389   0.826   2.790   1.576
   97MYC    C1918390   0.886   2.996   1.632
   97MYC    H3218391   0.801   3.038   1.578
   97MYC    H3318392   0.975   3.057   1.632
   97MYC    C1618393   1.041   2.786   1.618
   97MYC    H2818394   1.111   2.833   1.689
   97MYC    H2918395   1.078   2.810   1.518
   97MYC    C1518396   1.045   2.632   1.635
   97MYC    H2618397   1.136   2.593   1.589
   97MYC    H2718398   0.961   2.588   1.579
   97MYC    C1418399   1.037   2.580   1.780
   97MYC    H2418400   1.004   2.476   1.777
   97MYC    H2518401   0.961   2.636   1.835
   97MYC    C1318402   1.172   2.585   1.854
   97MYC    H2218403   1.209   2.688   1.858
   97MYC    H2318404   1.247   2.526   1.799
   97MYC    C1218405   1.160   2.531   1.998
   97MYC    H2018406   1.120   2.428   1.996
   97MYC    H2118407   1.088   2.593   2.051
   97MYC    C1118408   1.295   2.530   2.073
   97MYC    H1818409   1.341   2.629   2.063
   97MYC    H1918410   1.364   2.460   2.025
   97MYC    C1018411   1.287   2.496   2.223
   97MYC    H1618412   1.387   2.509   2.266
   97MYC    H1718413   1.260   2.391   2.236
   97MYC     C918414   1.188   2.584   2.303
   97MYC    H1418415   1.085   2.553   2.279
   97MYC    H1518416   1.198   2.689   2.270
   97MYC     C818417   1.208   2.578   2.455
   97MYC    H1218418   1.307   2.618   2.479
   97MYC    H1318419   1.207   2.473   2.488
   97MYC     C718420   1.101   2.657   2.532
   97MYC    H1018421   1.003   2.608   2.519
   97MYC    H1118422   1.092   2.758   2.490
   97MYC     C618423   1.131   2.668   2.683
   97MYC     H818424   1.224   2.725   2.695
   97MYC     H918425   1.150   2.568   2.720
   97MYC     C518426   1.017   2.735   2.763
   97MYC     H618427   0.937   2.661   2.778
   97MYC     H718428   0.973   2.813   2.700
   97MYC     C418429   1.057   2.802   2.898
   97MYC     H418430   1.001   2.897   2.903
   97MYC     H518431   1.162   2.832   2.894
   97MYC     C218432   1.031   2.728   3.032
   97MYC     H218433   1.028   2.806   3.109
   97MYC     O318434   0.902   2.665   3.028
   97MYC     H318435   0.835   2.734   3.029
   97MYC     C118436   1.141   2.628   3.079
   97MYC     H118437   1.232   2.688   3.094
   97MYC    C8118438   1.177   2.521   2.975
   97MYC    O8218439   1.103   2.431   2.940
   97MYC    O8318440   1.305   2.528   2.931
   97MYC   H10518441   1.319   2.446   2.879
   97MYC    C2018442   1.110   2.559   3.215
   97MYC    H3418443   1.008   2.518   3.213
   97MYC    H3518444   1.177   2.473   3.227
   97MYC    C2118445   1.127   2.649   3.340
   97MYC    H3618446   1.233   2.674   3.352
   97MYC    H3718447   1.073   2.744   3.327
   97MYC    C2218448   1.075   2.579   3.468
   97MYC    H3818449   0.965   2.578   3.466
   97MYC    H3918450   1.107   2.475   3.468
   97MYC    C2318451   1.123   2.645   3.599
   97MYC    H4018452   1.232   2.641   3.602
   97MYC    H4118453   1.094   2.751   3.600
   97MYC    C2418454   1.066   2.576   3.724
   97MYC    H4218455   0.957   2.591   3.727
   97MYC    H4318456   1.083   2.468   3.716
   97MYC    C2518457   1.129   2.627   3.856
   97MYC    H4418458   1.237   2.610   3.852
   97MYC    H4518459   1.113   2.735   3.865
   97MYC    C2618460   1.071   2.555   3.980
   97MYC    H4618461   0.963   2.576   3.986
   97MYC    H4718462   1.082   2.447   3.968
   97MYC    C2718463   1.139   2.599   4.111
   97MYC    H4818464   1.247   2.581   4.104
   97MYC    H4918465   1.124   2.707   4.126
   97MYC    C2818466   1.083   2.524   4.234
   97MYC    H5018467   0.975   2.541   4.241
   97MYC    H5118468   1.097   2.416   4.220
   97MYC    C2918469   1.150   2.566   4.366
   97MYC    H5218470   1.258   2.547   4.360
   97MYC    H5318471   1.138   2.675   4.379
   97MYC    C3018472   1.093   2.494   4.490
   97MYC    H5418473   0.986   2.517   4.498
   97MYC    H5518474   1.102   2.386   4.476
   97MYC    C3118475   1.164   2.535   4.621
   97MYC    H5618476   1.269   2.504   4.615
   97MYC    H5718477   1.163   2.644   4.630
   97MYC    C3218478   1.100   2.473   4.747
   97MYC    H5818479   0.995   2.506   4.753
   97MYC    H5918480   1.099   2.364   4.738
   97MYC    C3318481   1.173   2.512   4.876
   97MYC    H6018482   1.275   2.472   4.874
   97MYC    H6118483   1.182   2.622   4.881
   97MYC    C3418484   1.102   2.463   5.004
   97MYC    H6218485   0.998   2.498   5.003
   97MYC    H6318486   1.098   2.353   5.003
   97MYC    C3518487   1.169   2.511   5.133
   97MYC    H6418488   1.273   2.474   5.136
   97MYC    H6518489   1.174   2.621   5.133
   97MYC    C3618490   1.096   2.464   5.261
   97MYC    H6618491   0.990   2.491   5.253
   97MYC    H6718492   1.100   2.354   5.266
   97MYC    C3718493   1.154   2.524   5.390
   97MYC    H6818494   1.263   2.509   5.392
   97MYC    H6918495   1.137   2.633   5.389
   97MYC    C3818496   1.092   2.463   5.517
   97MYC    H7018497   0.983   2.469   5.511
   97MYC    H7118498   1.118   2.357   5.522
   97MYC    C3918499   1.138   2.533   5.647
   97MYC    H7218500   1.248   2.543   5.646
   97MYC    H7318501   1.097   2.635   5.649
   97MYC    C4018502   1.095   2.458   5.774
   97MYC    H7418503   0.987   2.442   5.772
   97MYC    H7518504   1.142   2.359   5.774
   97MYC    C4118505   1.132   2.533   5.904
   97MYC    H7618506   1.239   2.557   5.903
   97MYC    H7718507   1.077   2.628   5.907
   97MYC    C4218508   1.100   2.451   6.031
   97MYC    H7818509   0.993   2.426   6.033
   97MYC    H7918510   1.155   2.356   6.028
   97MYC    C4318511   1.135   2.526   6.161
   97MYC    H8018512   1.117   2.461   6.248
   97MYC    H8118513   1.074   2.616   6.172
   97MYC    H8218514   1.241   2.555   6.162
   98MYC   HH1518515   0.523   3.883   6.291
   98MYC    C8018516   0.575   3.834   6.208
   98MYC   H10018517   0.660   3.897   6.178
   98MYC   H10118518   0.615   3.738   6.244
   98MYC    C7918519   0.479   3.813   6.090
   98MYC   H10218520   0.440   3.911   6.059
   98MYC   H10318521   0.393   3.754   6.124
   98MYC    C7818522   0.544   3.742   5.970
   98MYC   HH1418523   0.574   3.641   5.999
   98MYC   H10418524   0.636   3.796   5.942
   98MYC    C7718525   0.451   3.736   5.847
   98MYC   H10618526   0.423   3.838   5.819
   98MYC   H10718527   0.358   3.684   5.874
   98MYC    C7618528   0.514   3.666   5.726
   98MYC   H10818529   0.537   3.562   5.750
   98MYC   H10918530   0.609   3.715   5.702
   98MYC    C7518531   0.423   3.671   5.601
   98MYC   H11018532   0.402   3.775   5.577
   98MYC   H11118533   0.327   3.623   5.624
   98MYC    C7418534   0.485   3.603   5.478
   98MYC   H11218535   0.498   3.496   5.497
   98MYC   H11318536   0.585   3.645   5.461
   98MYC    C7318537   0.400   3.624   5.351
   98MYC   HH1318538   0.392   3.731   5.331
   98MYC   H11418539   0.299   3.586   5.369
   98MYC    C7218540   0.460   3.555   5.228
   98MYC   H11518541   0.458   3.446   5.242
   98MYC   H11618542   0.565   3.584   5.217
   98MYC    C7118543   0.385   3.591   5.099
   98MYC   H11718544   0.391   3.700   5.083
   98MYC   H11818545   0.279   3.566   5.109
   98MYC    C7018546   0.443   3.521   4.975
   98MYC   H11918547   0.430   3.412   4.986
   98MYC   H12018548   0.551   3.539   4.970
   98MYC    C6918549   0.378   3.569   4.845
   98MYC   H12118550   0.392   3.677   4.835
   98MYC   H12218551   0.270   3.551   4.848
   98MYC    C6818552   0.437   3.499   4.721
   98MYC   HH1218553   0.414   3.392   4.725
   98MYC   H12318554   0.547   3.508   4.724
   98MYC    C6718555   0.385   3.559   4.590
   98MYC   H12418556   0.405   3.666   4.589
   98MYC   H12518557   0.276   3.546   4.585
   98MYC    C6618558   0.450   3.494   4.466
   98MYC   H12618559   0.423   3.388   4.463
   98MYC   H12718560   0.559   3.500   4.474
   98MYC    C6518561   0.404   3.563   4.337
   98MYC   H12818562   0.433   3.669   4.340
   98MYC   H12918563   0.295   3.560   4.332
   98MYC    C6418564   0.462   3.499   4.209
   98MYC   H13018565   0.432   3.394   4.204
   98MYC   H13118566   0.571   3.502   4.212
   98MYC    C6318567   0.411   3.573   4.085
   98MYC   HH1118568   0.445   3.678   4.090
   98MYC   H13218569   0.301   3.576   4.089
   98MYC    C6218570   0.454   3.513   3.951
   98MYC   H13318571   0.423   3.408   3.946
   98MYC   H13418572   0.564   3.515   3.943
   98MYC    C6118573   0.391   3.592   3.836
   98MYC   H13518574   0.429   3.695   3.839
   98MYC   H13618575   0.283   3.600   3.856
   98MYC    C6018576   0.408   3.536   3.696
   98MYC   H13718577   0.312   3.527   3.646
   98MYC    C5818578   0.523   3.586   3.613
   98MYC   H13818579   0.602   3.642   3.664
   98MYC    C5918580   0.515   3.440   3.650
   98MYC   H13918581   0.489   3.369   3.572
   98MYC   H14018582   0.586   3.402   3.723
   98MYC    C5718583   0.489   3.644   3.477
   98MYC   HH1018584   0.497   3.753   3.483
   98MYC   H14118585   0.384   3.623   3.453
   98MYC    C5618586   0.577   3.595   3.361
   98MYC   H14218587   0.576   3.485   3.358
   98MYC   H14318588   0.681   3.627   3.378
   98MYC    C5518589   0.524   3.651   3.229
   98MYC   H14418590   0.517   3.760   3.236
   98MYC   H14518591   0.422   3.615   3.213
   98MYC    C5418592   0.608   3.615   3.105
   98MYC   H14618593   0.615   3.506   3.095
   98MYC   H14718594   0.710   3.653   3.118
   98MYC    C5318595   0.545   3.676   2.978
   98MYC   H14818596   0.535   3.784   2.992
   98MYC   H14918597   0.444   3.635   2.966
   98MYC    C5218598   0.624   3.650   2.850
   98MYC    H9918599   0.636   3.542   2.837
   98MYC   H15018600   0.724   3.693   2.859
   98MYC    C5118601   0.557   3.711   2.726
   98MYC    H9718602   0.555   3.820   2.735
   98MYC    H9818603   0.453   3.676   2.720
   98MYC    C5018604   0.631   3.671   2.597
   98MYC    H9518605   0.636   3.561   2.592
   98MYC    H9618606   0.735   3.707   2.602
   98MYC    C4918607   0.566   3.724   2.470
   98MYC    H9318608   0.579   3.833   2.464
   98MYC    H9418609   0.458   3.704   2.473
   98MYC    C4818610   0.625   3.658   2.344
   98MYC    H9118611   0.614   3.550   2.353
   98MYC    H9218612   0.732   3.680   2.338
   98MYC    C4718613   0.556   3.703   2.215
   98MYC    H8918614   0.573   3.810   2.198
   98MYC    H9018615   0.447   3.690   2.226
   98MYC    C4618616   0.603   3.623   2.092
   98MYC    H8718617   0.592   3.516   2.113
   98MYC    H8818618   0.710   3.642   2.075
   98MYC    C4518619   0.522   3.656   1.965
   98MYC    H8518620   0.532   3.762   1.942
   98MYC    H8618621   0.416   3.638   1.987
   98MYC    C4418622   0.562   3.570   1.843
   98MYC    H8318623   0.485   3.582   1.766
   98MYC    H8418624   0.559   3.464   1.871
   98MYC    C1818625   0.698   3.605   1.782
   98MYC    H3118626   0.756   3.675   1.841
   98MYC    C1718627   0.774   3.499   1.705
   98MYC    H3018628   0.725   3.403   1.693
   98MYC    C1918629   0.712   3.615   1.632
   98MYC    H3218630   0.625   3.594   1.570
   98MYC    H3318631   0.780   3.690   1.593
   98MYC    C1618632   0.926   3.488   1.710
   98MYC    H2818633   0.971   3.586   1.726
   98MYC    H2918634   0.961   3.454   1.611
   98MYC    C1518635   0.978   3.389   1.816
   98MYC    H2618636   1.081   3.362   1.789
   98MYC    H2718637   0.920   3.296   1.812
   98MYC    C1418638   0.979   3.446   1.959
   98MYC    H2418639   0.876   3.466   1.993
   98MYC    H2518640   1.030   3.542   1.958
   98MYC    C1318641   1.048   3.352   2.061
   98MYC    H2218642   1.129   3.298   2.011
   98MYC    H2318643   0.977   3.276   2.095
   98MYC    C1218644   1.108   3.427   2.182
   98MYC    H2018645   1.029   3.484   2.231
   98MYC    H2118646   1.180   3.500   2.144
   98MYC    C1118647   1.182   3.337   2.284
   98MYC    H1818648   1.265   3.393   2.327
   98MYC    H1918649   1.227   3.252   2.231
   98MYC    C1018650   1.092   3.284   2.398
   98MYC    H1618651   1.144   3.200   2.447
   98MYC    H1718652   0.999   3.244   2.356
   98MYC     C918653   1.060   3.391   2.505
   98MYC    H1418654   1.019   3.481   2.457
   98MYC    H1518655   1.154   3.422   2.553
   98MYC     C818656   0.960   3.342   2.611
   98MYC    H1218657   0.999   3.252   2.660
   98MYC    H1318658   0.869   3.314   2.560
   98MYC     C718659   0.923   3.447   2.718
   98MYC    H1018660   0.833   3.412   2.770
   98MYC    H1118661   0.897   3.541   2.668
   98MYC     C618662   1.033   3.472   2.823
   98MYC     H818663   1.125   3.505   2.774
   98MYC     H918664   1.056   3.377   2.873
   98MYC     C518665   0.992   3.580   2.927
   98MYC     H618666   0.885   3.571   2.949
   98MYC     H718667   1.008   3.678   2.882
   98MYC     C418668   1.070   3.571   3.060
   98MYC     H418669   1.082   3.672   3.100
   98MYC     H518670   1.171   3.534   3.039
   98MYC     C218671   1.001   3.484   3.169
   98MYC     H218672   0.915   3.541   3.207
   98MYC     O318673   0.952   3.362   3.114
   98MYC     H318674   0.936   3.377   3.019
   98MYC     C118675   1.095   3.454   3.289
   98MYC     H118676   1.129   3.551   3.327
   98MYC    C8118677   1.223   3.378   3.248
   98MYC    O8218678   1.224   3.269   3.193
   98MYC    O8318679   1.338   3.436   3.290
   98MYC   H10518680   1.409   3.375   3.265
   98MYC    C2018681   1.027   3.382   3.409
   98MYC    H3418682   0.947   3.315   3.374
   98MYC    H3518683   1.101   3.318   3.457
   98MYC    C2118684   0.970   3.478   3.516
   98MYC    H3618685   1.044   3.556   3.537
   98MYC    H3718686   0.880   3.528   3.478
   98MYC    C2218687   0.938   3.406   3.649
   98MYC    H3818688   0.852   3.338   3.635
   98MYC    H3918689   1.024   3.344   3.676
   98MYC    C2318690   0.909   3.503   3.766
   98MYC    H4018691   0.985   3.582   3.767
   98MYC    H4118692   0.812   3.551   3.750
   98MYC    C2418693   0.910   3.431   3.902
   98MYC    H4218694   0.833   3.353   3.904
   98MYC    H4318695   1.007   3.381   3.915
   98MYC    C2518696   0.889   3.527   4.021
   98MYC    H4418697   0.965   3.606   4.019
   98MYC    H4518698   0.791   3.576   4.012
   98MYC    C2618699   0.896   3.454   4.157
   98MYC    H4618700   0.820   3.376   4.161
   98MYC    H4718701   0.994   3.405   4.166
   98MYC    C2718702   0.877   3.549   4.277
   98MYC    H4818703   0.955   3.626   4.275
   98MYC    H4918704   0.781   3.600   4.269
   98MYC    C2818705   0.885   3.476   4.413
   98MYC    H5018706   0.809   3.396   4.415
   98MYC    H5118707   0.983   3.427   4.422
   98MYC    C2918708   0.862   3.569   4.533
   98MYC    H5218709   0.935   3.652   4.529
   98MYC    H5318710   0.763   3.614   4.526
   98MYC    C3018711   0.877   3.497   4.668
   98MYC    H5418712   0.808   3.412   4.671
   98MYC    H5518713   0.979   3.456   4.676
   98MYC    C3118714   0.850   3.589   4.789
   98MYC    H5618715   0.916   3.676   4.783
   98MYC    H5718716   0.747   3.627   4.783
   98MYC    C3218717   0.872   3.518   4.923
   98MYC    H5818718   0.803   3.432   4.931
   98MYC    H5918719   0.974   3.478   4.927
   98MYC    C3318720   0.850   3.612   5.043
   98MYC    H6018721   0.919   3.697   5.035
   98MYC    H6118722   0.748   3.652   5.040
   98MYC    C3418723   0.873   3.543   5.179
   98MYC    H6218724   0.798   3.463   5.193
   98MYC    H6318725   0.971   3.495   5.179
   98MYC    C3518726   0.865   3.642   5.297
   98MYC    H6418727   0.938   3.722   5.281
   98MYC    H6518728   0.766   3.689   5.299
   98MYC    C3618729   0.892   3.575   5.433
   98MYC    H6618730   0.814   3.500   5.452
   98MYC    H6718731   0.988   3.521   5.428
   98MYC    C3718732   0.896   3.675   5.550
   98MYC    H6818733   0.968   3.754   5.527
   98MYC    H6918734   0.798   3.723   5.561
   98MYC    C3818735   0.937   3.607   5.682
   98MYC    H7018736   0.871   3.520   5.699
   98MYC    H7118737   1.039   3.568   5.672
   98MYC    C3918738   0.930   3.699   5.805
   98MYC    H7218739   0.982   3.793   5.785
   98MYC    H7318740   0.825   3.724   5.824
   98MYC    C4018741   0.991   3.632   5.930
   98MYC    H7418742   0.972   3.524   5.926
   98MYC    H7518743   1.100   3.645   5.928
   98MYC    C4118744   0.936   3.686   6.064
   98MYC    H7618745   0.948   3.794   6.069
   98MYC    H7718746   0.828   3.665   6.067
   98MYC    C4218747   1.004   3.620   6.186
   98MYC    H7818748   1.028   3.515   6.163
   98MYC    H7918749   1.099   3.671   6.206
   98MYC    C4318750   0.916   3.623   6.313
   98MYC    H8018751   0.970   3.578   6.397
   98MYC    H8118752   0.824   3.565   6.297
   98MYC    H8218753   0.889   3.725   6.340
   99MYC   HH1518754   0.790   4.326   6.216
   99MYC    C8018755   0.844   4.292   6.128
   99MYC   H10018756   0.888   4.380   6.078
   99MYC   H10118757   0.926   4.227   6.160
   99MYC    C7918758   0.749   4.218   6.032
   99MYC   H10218759   0.670   4.287   6.000
   99MYC   H10318760   0.701   4.136   6.086
   99MYC    C7818761   0.822   4.161   5.908
   99MYC   HH1418762   0.901   4.093   5.942
   99MYC   H10418763   0.873   4.243   5.855
   99MYC    C7718764   0.731   4.086   5.809
   99MYC   H10618765   0.677   4.006   5.862
   99MYC   H10718766   0.796   4.036   5.736
   99MYC    C7618767   0.629   4.175   5.735
   99MYC   H10818768   0.680   4.264   5.695
   99MYC   H10918769   0.554   4.212   5.807
   99MYC    C7518770   0.554   4.105   5.620
   99MYC   H11018771   0.476   4.173   5.583
   99MYC   H11118772   0.503   4.015   5.657
   99MYC    C7418773   0.647   4.068   5.502
   99MYC   H11218774   0.719   3.991   5.534
   99MYC   H11318775   0.704   4.156   5.473
   99MYC    C7318776   0.572   4.014   5.379
   99MYC   HH1318777   0.492   4.083   5.351
   99MYC   H11418778   0.526   3.918   5.403
   99MYC    C7218779   0.668   3.998   5.260
   99MYC   H11518780   0.748   3.927   5.285
   99MYC   H11618781   0.717   4.095   5.241
   99MYC    C7118782   0.598   3.952   5.131
   99MYC   H11718783   0.508   4.013   5.116
   99MYC   H11818784   0.564   3.848   5.142
   99MYC    C7018785   0.689   3.965   5.008
   99MYC   H11918786   0.771   3.893   5.014
   99MYC   H12018787   0.734   4.065   5.008
   99MYC    C6918788   0.612   3.946   4.876
   99MYC   H12118789   0.524   4.011   4.877
   99MYC   H12218790   0.577   3.843   4.868
   99MYC    C6818791   0.699   3.982   4.755
   99MYC   HH1218792   0.778   3.906   4.743
   99MYC   H12318793   0.748   4.078   4.772
   99MYC    C6718794   0.617   3.991   4.625
   99MYC   H12418795   0.535   4.063   4.639
   99MYC   H12518796   0.570   3.894   4.604
   99MYC    C6618797   0.703   4.034   4.507
   99MYC   H12618798   0.785   3.962   4.494
   99MYC   H12718799   0.749   4.131   4.528
   99MYC    C6518800   0.623   4.044   4.376
   99MYC   H12818801   0.546   4.121   4.386
   99MYC   H12918802   0.572   3.949   4.358
   99MYC    C6418803   0.714   4.077   4.257
   99MYC   H13018804   0.793   4.001   4.252
   99MYC   H13118805   0.764   4.173   4.274
   99MYC    C6318806   0.639   4.080   4.124
   99MYC   HH1118807   0.566   4.162   4.125
   99MYC   H13218808   0.582   3.986   4.113
   99MYC    C6218809   0.735   4.096   4.006
   99MYC   H13318810   0.811   4.017   4.012
   99MYC   H13418811   0.788   4.192   4.014
   99MYC    C6118812   0.663   4.087   3.872
   99MYC   H13518813   0.592   4.170   3.862
   99MYC   H13618814   0.605   3.994   3.868
   99MYC    C6018815   0.761   4.088   3.756
   99MYC   H13718816   0.847   4.023   3.774
   99MYC    C5818817   0.707   4.087   3.617
   99MYC   H13818818   0.599   4.099   3.606
   99MYC    C5918819   0.783   4.208   3.667
   99MYC   H13918820   0.883   4.225   3.629
   99MYC   H14018821   0.726   4.298   3.689
   99MYC    C5718822   0.765   3.989   3.518
   99MYC   HH1018823   0.725   3.889   3.536
   99MYC   H14118824   0.874   3.982   3.530
   99MYC    C5618825   0.734   4.031   3.374
   99MYC   H14218826   0.773   4.132   3.358
   99MYC   H14318827   0.625   4.036   3.360
   99MYC    C5518828   0.794   3.936   3.270
   99MYC   H14418829   0.753   3.835   3.282
   99MYC   H14518830   0.902   3.928   3.287
   99MYC    C5418831   0.766   3.987   3.129
   99MYC   H14618832   0.779   4.096   3.128
   99MYC   H14718833   0.661   3.967   3.106
   99MYC    C5318834   0.855   3.928   3.019
   99MYC   H14818835   0.841   3.820   3.014
   99MYC   H14918836   0.961   3.947   3.042
   99MYC    C5218837   0.819   3.994   2.885
   99MYC    H9918838   0.831   4.102   2.895
   99MYC   H15018839   0.713   3.974   2.864
   99MYC    C5118840   0.903   3.948   2.765
   99MYC    H9718841   0.890   3.840   2.750
   99MYC    H9818842   1.009   3.966   2.784
   99MYC    C5018843   0.857   4.024   2.639
   99MYC    H9518844   0.882   4.130   2.651
   99MYC    H9618845   0.748   4.017   2.632
   99MYC    C4918846   0.919   3.972   2.509
   99MYC    H9318847   0.902   3.864   2.501
   99MYC    H9418848   1.027   3.989   2.510
   99MYC    C4818849   0.856   4.043   2.387
   99MYC    H9118850   0.888   4.148   2.385
   99MYC    H9218851   0.746   4.043   2.399
   99MYC    C4718852   0.891   3.976   2.254
   99MYC    H8918853   0.870   3.869   2.262
   99MYC    H9018854   0.998   3.989   2.235
   99MYC    C4618855   0.810   4.033   2.136
   99MYC    H8718856   0.834   4.139   2.124
   99MYC    H8818857   0.704   4.027   2.161
   99MYC    C4518858   0.837   3.958   2.004
   99MYC    H8518859   0.804   3.854   2.013
   99MYC    H8618860   0.945   3.956   1.985
   99MYC    C4418861   0.769   4.022   1.880
   99MYC    H8318862   0.803   3.968   1.791
   99MYC    H8418863   0.805   4.125   1.871
   99MYC    C1818864   0.616   4.023   1.883
   99MYC    H3118865   0.573   4.003   1.981
   99MYC    C1718866   0.543   4.123   1.796
   99MYC    H3018867   0.605   4.180   1.727
   99MYC    C1918868   0.532   3.976   1.766
   99MYC    H3218869   0.585   3.937   1.679
   99MYC    H3318870   0.438   3.927   1.787
   99MYC    C1618871   0.425   4.203   1.848
   99MYC    H2818872   0.357   4.139   1.906
   99MYC    H2918873   0.366   4.240   1.763
   99MYC    C1518874   0.466   4.324   1.935
   99MYC    H2618875   0.378   4.388   1.951
   99MYC    H2718876   0.539   4.385   1.881
   99MYC    C1418877   0.524   4.285   2.073
   99MYC    H2418878   0.613   4.223   2.057
   99MYC    H2518879   0.450   4.224   2.127
   99MYC    C1318880   0.567   4.404   2.160
   99MYC    H2218881   0.484   4.475   2.170
   99MYC    H2318882   0.648   4.457   2.109
   99MYC    C1218883   0.616   4.359   2.301
   99MYC    H2018884   0.682   4.273   2.289
   99MYC    H2118885   0.530   4.325   2.361
   99MYC    C1118886   0.692   4.471   2.375
   99MYC    H1818887   0.628   4.558   2.389
   99MYC    H1918888   0.775   4.502   2.310
   99MYC    C1018889   0.753   4.428   2.511
   99MYC    H1618890   0.847   4.484   2.525
   99MYC    H1718891   0.781   4.322   2.507
   99MYC     C918892   0.663   4.453   2.633
   99MYC    H1418893   0.570   4.396   2.623
   99MYC    H1518894   0.636   4.559   2.637
   99MYC     C818895   0.733   4.414   2.765
   99MYC    H1218896   0.833   4.460   2.769
   99MYC    H1318897   0.748   4.306   2.767
   99MYC     C718898   0.656   4.458   2.891
   99MYC    H1018899   0.551   4.425   2.882
   99MYC    H1118900   0.654   4.567   2.897
   99MYC     C618901   0.715   4.399   3.022
   99MYC     H818902   0.814   4.442   3.040
   99MYC     H918903   0.730   4.292   3.008
   99MYC     C518904   0.623   4.419   3.144
   99MYC     H618905   0.653   4.349   3.224
   99MYC     H718906   0.521   4.389   3.116
   99MYC     C418907   0.616   4.563   3.202
   99MYC     H418908   0.516   4.576   3.245
   99MYC     H518909   0.624   4.637   3.121
   99MYC     C218910   0.720   4.591   3.313
   99MYC     H218911   0.711   4.510   3.386
   99MYC     O318912   0.852   4.589   3.258
   99MYC     H318913   0.860   4.665   3.198
   99MYC     C118914   0.693   4.725   3.388
   99MYC     H118915   0.591   4.720   3.427
   99MYC    C8118916   0.699   4.849   3.295
   99MYC    O8218917   0.795   4.879   3.226
   99MYC    O8318918   0.591   4.930   3.304
   99MYC   H10518919   0.611   5.006   3.247
   99MYC    C2018920   0.783   4.746   3.512
   99MYC    H3418921   0.887   4.760   3.482
   99MYC    H3518922   0.752   4.840   3.561
   99MYC    C2118923   0.774   4.631   3.616
   99MYC    H3618924   0.671   4.593   3.619
   99MYC    H3718925   0.838   4.548   3.583
   99MYC    C2218926   0.815   4.673   3.758
   99MYC    H3818927   0.918   4.711   3.757
   99MYC    H3918928   0.751   4.757   3.789
   99MYC    C2318929   0.802   4.560   3.861
   99MYC    H4018930   0.705   4.510   3.849
   99MYC    H4118931   0.879   4.484   3.843
   99MYC    C2418932   0.812   4.613   4.005
   99MYC    H4218933   0.906   4.669   4.016
   99MYC    H4318934   0.730   4.685   4.022
   99MYC    C2518935   0.805   4.504   4.114
   99MYC    H4418936   0.718   4.440   4.099
   99MYC    H4518937   0.894   4.440   4.108
   99MYC    C2618938   0.797   4.568   4.254
   99MYC    H4618939   0.874   4.646   4.262
   99MYC    H4718940   0.700   4.618   4.265
   99MYC    C2718941   0.816   4.469   4.371
   99MYC    H4818942   0.741   4.390   4.365
   99MYC    H4918943   0.915   4.422   4.362
   99MYC    C2818944   0.804   4.540   4.507
   99MYC    H5018945   0.865   4.632   4.506
   99MYC    H5118946   0.700   4.571   4.522
   99MYC    C2918947   0.849   4.454   4.626
   99MYC    H5218948   0.798   4.357   4.623
   99MYC    H5318949   0.957   4.435   4.618
   99MYC    C3018950   0.818   4.522   4.761
   99MYC    H5418951   0.857   4.624   4.760
   99MYC    H5518952   0.709   4.530   4.771
   99MYC    C3118953   0.876   4.447   4.882
   99MYC    H5618954   0.859   4.339   4.872
   99MYC    H5718955   0.985   4.462   4.885
   99MYC    C3218956   0.813   4.496   5.014
   99MYC    H5818957   0.821   4.606   5.019
   99MYC    H5918958   0.706   4.472   5.013
   99MYC    C3318959   0.877   4.436   5.140
   99MYC    H6018960   0.876   4.326   5.134
   99MYC    H6118961   0.983   4.467   5.145
   99MYC    C3418962   0.805   4.482   5.268
   99MYC    H6218963   0.792   4.591   5.264
   99MYC    H6318964   0.705   4.438   5.271
   99MYC    C3518965   0.881   4.447   5.398
   99MYC    H6418966   0.888   4.338   5.408
   99MYC    H6518967   0.983   4.485   5.389
   99MYC    C3618968   0.814   4.507   5.523
   99MYC    H6618969   0.784   4.610   5.501
   99MYC    H6718970   0.723   4.452   5.547
   99MYC    C3718971   0.909   4.510   5.645
   99MYC    H6818972   0.937   4.407   5.672
   99MYC    H6918973   1.001   4.562   5.616
   99MYC    C3818974   0.848   4.581   5.767
   99MYC    H7018975   0.801   4.675   5.735
   99MYC    H7118976   0.769   4.519   5.811
   99MYC    C3918977   0.954   4.614   5.875
   99MYC    H7218978   0.998   4.521   5.912
   99MYC    H7318979   1.035   4.671   5.827
   99MYC    C4018980   0.898   4.697   5.992
   99MYC    H7418981   0.844   4.784   5.952
   99MYC    H7518982   0.825   4.637   6.048
   99MYC    C4118983   1.008   4.747   6.088
   99MYC    H7618984   1.056   4.660   6.136
   99MYC    H7718985   1.086   4.798   6.030
   99MYC    C4218986   0.955   4.843   6.196
   99MYC    H7818987   0.905   4.928   6.148
   99MYC    H7918988   0.880   4.792   6.258
   99MYC    C4318989   1.067   4.898   6.288
   99MYC    H8018990   1.026   4.973   6.357
   99MYC    H8118991   1.145   4.946   6.229
   99MYC    H8218992   1.112   4.817   6.347
  100MYC   HH1518993   0.268   4.914   6.199
  100MYC    C8018994   0.306   4.865   6.109
  100MYC   H10018995   0.416   4.865   6.113
  100MYC   H10118996   0.271   4.761   6.109
  100MYC    C7918997   0.257   4.939   5.983
  100MYC   H10218998   0.291   5.043   5.987
  100MYC   H10318999   0.147   4.941   5.984
  100MYC    C7819000   0.306   4.875   5.852
  100MYC   HH1419001   0.277   4.769   5.850
  100MYC   H10419002   0.416   4.878   5.850
  100MYC    C7719003   0.250   4.945   5.727
  100MYC   H10619004   0.276   5.051   5.730
  100MYC   H10719005   0.141   4.938   5.728
  100MYC    C7619006   0.303   4.884   5.595
  100MYC   H10819007   0.285   4.776   5.595
  100MYC   H10919008   0.412   4.899   5.590
  100MYC    C7519009   0.236   4.947   5.472
  100MYC   H11019010   0.247   5.056   5.476
  100MYC   H11119011   0.129   4.925   5.474
  100MYC    C7419012   0.295   4.896   5.339
  100MYC   H11219013   0.281   4.787   5.332
  100MYC   H11319014   0.403   4.914   5.337
  100MYC    C7319015   0.230   4.965   5.217
  100MYC   HH1319016   0.244   5.073   5.226
  100MYC   H11419017   0.122   4.946   5.218
  100MYC    C7219018   0.288   4.917   5.083
  100MYC   H11519019   0.263   4.811   5.068
  100MYC   H11619020   0.398   4.924   5.086
  100MYC    C7119021   0.236   5.001   4.965
  100MYC   H11719022   0.265   5.106   4.980
  100MYC   H11819023   0.127   4.997   4.964
  100MYC    C7019024   0.290   4.953   4.829
  100MYC   H11919025   0.256   4.850   4.812
  100MYC   H12019026   0.399   4.951   4.831
  100MYC    C6919027   0.242   5.043   4.714
  100MYC   H12119028   0.278   5.145   4.729
  100MYC   H12219029   0.132   5.047   4.716
  100MYC    C6819030   0.288   4.992   4.576
  100MYC   HH1219031   0.259   4.886   4.566
  100MYC   H12319032   0.397   4.997   4.570
  100MYC    C6719033   0.225   5.072   4.461
  100MYC   H12419034   0.250   5.178   4.471
  100MYC   H12519035   0.116   5.063   4.467
  100MYC    C6619036   0.272   5.021   4.323
  100MYC   H12619037   0.266   4.911   4.322
  100MYC   H12719038   0.377   5.048   4.309
  100MYC    C6519039   0.188   5.076   4.207
  100MYC   H12819040   0.190   5.186   4.208
  100MYC   H12919041   0.083   5.045   4.221
  100MYC    C6419042   0.238   5.024   4.071
  100MYC   H13019043   0.253   4.916   4.077
  100MYC   H13119044   0.336   5.069   4.051
  100MYC    C6319045   0.142   5.055   3.955
  100MYC   HH1119046   0.126   5.163   3.948
  100MYC   H13219047   0.045   5.008   3.975
  100MYC    C6219048   0.198   5.002   3.822
  100MYC   H13319049   0.219   4.894   3.831
  100MYC   H13419050   0.295   5.051   3.803
  100MYC    C6119051   0.105   5.025   3.702
  100MYC   H13519052   0.078   5.131   3.698
  100MYC   H13619053   0.013   4.967   3.716
  100MYC    C6019054   0.173   4.983   3.573
  100MYC   H13719055   0.193   4.876   3.570
  100MYC    C5819056   0.145   5.051   3.442
  100MYC   H13819057   0.076   5.136   3.443
  100MYC    C5919058   0.278   5.072   3.511
  100MYC   H13919059   0.366   5.025   3.469
  100MYC   H14019060   0.296   5.169   3.557
  100MYC    C5719061   0.139   4.971   3.313
  100MYC   HH1019062   0.034   4.952   3.287
  100MYC   H14119063   0.185   4.873   3.327
  100MYC    C5619064   0.210   5.044   3.198
  100MYC   H14219065   0.317   5.054   3.223
  100MYC   H14319066   0.170   5.145   3.187
  100MYC    C5519067   0.198   4.969   3.064
  100MYC   H14419068   0.093   4.971   3.032
  100MYC   H14519069   0.225   4.864   3.078
  100MYC    C5419070   0.286   5.030   2.954
  100MYC   H14619071   0.391   5.014   2.979
  100MYC   H14719072   0.269   5.139   2.949
  100MYC    C5319073   0.255   4.968   2.817
  100MYC   H14819074   0.150   4.988   2.793
  100MYC   H14919075   0.268   4.859   2.822
  100MYC    C5219076   0.342   5.023   2.702
  100MYC    H9919077   0.447   4.998   2.721
  100MYC   H15019078   0.334   5.132   2.700
  100MYC    C5119079   0.301   4.966   2.566
  100MYC    H9719080   0.193   4.982   2.551
  100MYC    H9819081   0.317   4.857   2.566
  100MYC    C5019082   0.377   5.030   2.449
  100MYC    H9519083   0.485   5.014   2.464
  100MYC    H9619084   0.360   5.138   2.449
  100MYC    C4919085   0.335   4.971   2.314
  100MYC    H9319086   0.227   4.986   2.299
  100MYC    H9419087   0.352   4.862   2.316
  100MYC    C4819088   0.411   5.032   2.195
  100MYC    H9119089   0.519   5.024   2.214
  100MYC    H9219090   0.388   5.138   2.187
  100MYC    C4719091   0.377   4.961   2.063
  100MYC    H8919092   0.270   4.972   2.042
  100MYC    H9019093   0.396   4.854   2.073
  100MYC    C4619094   0.459   5.015   1.944
  100MYC    H8719095   0.566   5.012   1.970
  100MYC    H8819096   0.433   5.120   1.927
  100MYC    C4519097   0.436   4.933   1.815
  100MYC    H8519098   0.331   4.938   1.785
  100MYC    H8619099   0.458   4.828   1.836
  100MYC    C4419100   0.525   4.979   1.697
  100MYC    H8319101   0.524   4.900   1.621
  100MYC    H8419102   0.629   4.986   1.732
  100MYC    C1819103   0.482   5.110   1.634
  100MYC    H3119104   0.416   5.168   1.698
  100MYC    C1719105   0.577   5.188   1.547
  100MYC    H3019106   0.674   5.142   1.529
  100MYC    C1919107   0.458   5.120   1.485
  100MYC    H3219108   0.477   5.032   1.424
  100MYC    H3319109   0.376   5.183   1.451
  100MYC    C1619110   0.586   5.340   1.553
  100MYC    H2819111   0.486   5.383   1.570
  100MYC    H2919112   0.619   5.378   1.456
  100MYC    C1519113   0.683   5.394   1.661
  100MYC    H2619114   0.683   5.504   1.655
  100MYC    H2719115   0.785   5.361   1.637
  100MYC    C1419116   0.647   5.351   1.804
  100MYC    H2419117   0.655   5.242   1.811
  100MYC    H2519118   0.543   5.377   1.826
  100MYC    C1319119   0.739   5.413   1.912
  100MYC    H2219120   0.720   5.520   1.919
  100MYC    H2319121   0.843   5.400   1.879
  100MYC    C1219122   0.722   5.347   2.050
  100MYC    H2019123   0.729   5.238   2.038
  100MYC    H2119124   0.622   5.368   2.089
  100MYC    C1119125   0.829   5.393   2.152
  100MYC    H1819126   0.806   5.495   2.186
  100MYC    H1919127   0.926   5.398   2.101
  100MYC    C1019128   0.845   5.299   2.273
  100MYC    H1619129   0.941   5.322   2.321
  100MYC    H1719130   0.852   5.195   2.238
  100MYC     C919131   0.735   5.307   2.381
  100MYC    H1419132   0.638   5.281   2.337
  100MYC    H1519133   0.728   5.411   2.416
  100MYC     C819134   0.765   5.213   2.500
  100MYC    H1219135   0.871   5.223   2.527
  100MYC    H1319136   0.750   5.109   2.469
  100MYC     C719137   0.680   5.243   2.625
  100MYC    H1019138   0.574   5.233   2.600
  100MYC    H1119139   0.696   5.347   2.655
  100MYC     C619140   0.714   5.149   2.744
  100MYC     H819141   0.820   5.157   2.769
  100MYC     H919142   0.697   5.045   2.712
  100MYC     C519143   0.628   5.176   2.870
  100MYC     H619144   0.633   5.088   2.936
  100MYC     H719145   0.523   5.186   2.840
  100MYC     C419146   0.667   5.303   2.949
  100MYC     H419147   0.576   5.361   2.969
  100MYC     H519148   0.731   5.368   2.887
  100MYC     C219149   0.737   5.275   3.084
  100MYC     H219150   0.672   5.208   3.141
  100MYC     O319151   0.861   5.208   3.059
  100MYC     H319152   0.841   5.123   3.016
  100MYC     C119153   0.760   5.403   3.169
  100MYC     H119154   0.660   5.444   3.187
  100MYC    C8119155   0.838   5.512   3.093
  100MYC    O8219156   0.958   5.506   3.068
  100MYC    O8319157   0.762   5.617   3.055
  100MYC   H10519158   0.824   5.680   3.013
  100MYC    C2019159   0.823   5.375   3.308
  100MYC    H3419160   0.908   5.307   3.298
  100MYC    H3519161   0.864   5.469   3.347
  100MYC    C2119162   0.722   5.321   3.411
  100MYC    H3619163   0.644   5.396   3.425
  100MYC    H3719164   0.673   5.231   3.373
  100MYC    C2219165   0.787   5.289   3.548
  100MYC    H3819166   0.826   5.187   3.546
  100MYC    H3919167   0.874   5.355   3.564
  100MYC    C2319168   0.690   5.308   3.665
  100MYC    H4019169   0.657   5.413   3.667
  100MYC    H4119170   0.600   5.246   3.650
  100MYC    C2419171   0.753   5.273   3.801
  100MYC    H4219172   0.768   5.164   3.807
  100MYC    H4319173   0.852   5.320   3.808
  100MYC    C2519174   0.668   5.320   3.921
  100MYC    H4419175   0.655   5.429   3.914
  100MYC    H4519176   0.568   5.275   3.915
  100MYC    C2619177   0.733   5.285   4.055
  100MYC    H4619178   0.739   5.176   4.066
  100MYC    H4719179   0.836   5.323   4.056
  100MYC    C2719180   0.658   5.345   4.176
  100MYC    H4819181   0.648   5.453   4.162
  100MYC    H4919182   0.557   5.303   4.181
  100MYC    C2819183   0.732   5.318   4.308
  100MYC    H5019184   0.740   5.210   4.324
  100MYC    H5119185   0.834   5.356   4.300
  100MYC    C2919186   0.664   5.382   4.430
  100MYC    H5219187   0.648   5.489   4.412
  100MYC    H5319188   0.566   5.336   4.446
  100MYC    C3019189   0.750   5.365   4.557
  100MYC    H5419190   0.769   5.258   4.573
  100MYC    H5519191   0.847   5.413   4.541
  100MYC    C3119192   0.685   5.424   4.684
  100MYC    H5619193   0.665   5.531   4.668
  100MYC    H5719194   0.589   5.375   4.702
  100MYC    C3219195   0.777   5.407   4.806
  100MYC    H5819196   0.804   5.301   4.815
  100MYC    H5919197   0.870   5.463   4.790
  100MYC    C3319198   0.712   5.452   4.938
  100MYC    H6019199   0.682   5.557   4.931
  100MYC    H6119200   0.621   5.393   4.956
  100MYC    C3419201   0.809   5.435   5.057
  100MYC    H6219202   0.850   5.334   5.056
  100MYC    H6319203   0.894   5.504   5.042
  100MYC    C3519204   0.745   5.460   5.194
  100MYC    H6419205   0.687   5.553   5.192
  100MYC    H6519206   0.675   5.379   5.217
  100MYC    C3619207   0.852   5.470   5.305
  100MYC    H6619208   0.922   5.387   5.295
  100MYC    H6719209   0.909   5.562   5.289
  100MYC    C3719210   0.796   5.469   5.448
  100MYC    H6819211   0.714   5.542   5.457
  100MYC    H6919212   0.753   5.370   5.469
  100MYC    C3819213   0.905   5.503   5.551
  100MYC    H7019214   0.994   5.442   5.531
  100MYC    H7119215   0.934   5.608   5.538
  100MYC    C3919216   0.863   5.480   5.698
  100MYC    H7219217   0.773   5.539   5.719
  100MYC    H7319218   0.836   5.374   5.712
  100MYC    C4019219   0.975   5.518   5.797
  100MYC    H7419220   1.065   5.461   5.773
  100MYC    H7519221   0.999   5.624   5.783
  100MYC    C4119222   0.937   5.495   5.944
  100MYC    H7619223   0.846   5.551   5.968
  100MYC    H7719224   0.914   5.388   5.959
  100MYC    C4219225   1.050   5.537   6.041
  100MYC    H7819226   1.140   5.478   6.020
  100MYC    H7919227   1.076   5.642   6.023
  100MYC    C4319228   1.013   5.519   6.189
  100MYC    H8019229   1.095   5.552   6.254
  100MYC    H8119230   0.991   5.414   6.212
  100MYC    H8219231   0.924   5.579   6.214
  101MYC   HH1519232   0.467   6.164   6.233
  101MYC    C8019233   0.509   6.104   6.151
  101MYC   H10019234   0.618   6.112   6.153
  101MYC   H10119235   0.482   5.999   6.168
  101MYC    C7919236   0.453   6.152   6.016
  101MYC   H10219237   0.476   6.259   6.005
  101MYC   H10319238   0.344   6.143   6.016
  101MYC    C7819239   0.512   6.076   5.895
  101MYC   HH1419240   0.494   5.968   5.908
  101MYC   H10419241   0.621   6.090   5.893
  101MYC    C7719242   0.452   6.122   5.760
  101MYC   H10619243   0.463   6.230   5.751
  101MYC   H10719244   0.344   6.101   5.760
  101MYC    C7619245   0.518   6.054   5.638
  101MYC   H10819246   0.510   5.945   5.648
  101MYC   H10919247   0.625   6.079   5.637
  101MYC    C7519248   0.454   6.097   5.505
  101MYC   H11019249   0.453   6.207   5.500
  101MYC   H11119250   0.349   6.064   5.503
  101MYC    C7419251   0.527   6.042   5.381
  101MYC   H11219252   0.533   5.933   5.388
  101MYC   H11319253   0.630   6.080   5.381
  101MYC    C7319254   0.458   6.081   5.249
  101MYC   HH1319255   0.438   6.189   5.250
  101MYC   H11419256   0.360   6.031   5.244
  101MYC    C7219257   0.540   6.046   5.124
  101MYC   H11519258   0.563   5.938   5.124
  101MYC   H11619259   0.636   6.099   5.128
  101MYC    C7119260   0.467   6.082   4.993
  101MYC   H11719261   0.435   6.187   4.998
  101MYC   H11819262   0.376   6.021   4.985
  101MYC    C7019263   0.553   6.061   4.867
  101MYC   H11919264   0.584   5.956   4.861
  101MYC   H12019265   0.644   6.122   4.874
  101MYC    C6919266   0.477   6.099   4.738
  101MYC   H12119267   0.446   6.205   4.743
  101MYC   H12219268   0.385   6.040   4.731
  101MYC    C6819269   0.560   6.078   4.610
  101MYC   HH1219270   0.586   5.972   4.602
  101MYC   H12319271   0.653   6.134   4.616
  101MYC    C6719272   0.483   6.121   4.483
  101MYC   H12419273   0.466   6.229   4.485
  101MYC   H12519274   0.385   6.073   4.482
  101MYC    C6619275   0.557   6.083   4.353
  101MYC   H12619276   0.569   5.974   4.350
  101MYC   H12719277   0.658   6.127   4.354
  101MYC    C6519278   0.482   6.130   4.226
  101MYC   H12819279   0.485   6.239   4.221
  101MYC   H12919280   0.377   6.100   4.233
  101MYC    C6419281   0.543   6.070   4.098
  101MYC   H13019282   0.541   5.961   4.106
  101MYC   H13119283   0.648   6.100   4.090
  101MYC    C6319284   0.468   6.112   3.970
  101MYC   HH1119285   0.477   6.220   3.957
  101MYC   H13219286   0.361   6.089   3.981
  101MYC    C6219287   0.524   6.039   3.846
  101MYC   H13319288   0.513   5.931   3.860
  101MYC   H13419289   0.631   6.061   3.838
  101MYC    C6119290   0.454   6.079   3.715
  101MYC   H13519291   0.457   6.188   3.704
  101MYC   H13619292   0.348   6.050   3.719
  101MYC    C6019293   0.520   6.012   3.595
  101MYC   H13719294   0.517   5.904   3.601
  101MYC    C5819295   0.510   6.073   3.458
  101MYC   H13819296   0.459   6.169   3.451
  101MYC    C5919297   0.643   6.073   3.531
  101MYC   H13919298   0.720   6.006   3.495
  101MYC   H14019299   0.679   6.168   3.570
  101MYC    C5719300   0.488   5.986   3.336
  101MYC   HH1019301   0.380   5.965   3.327
  101MYC   H14119302   0.538   5.889   3.347
  101MYC    C5619303   0.537   6.054   3.207
  101MYC   H14219304   0.646   6.053   3.203
  101MYC   H14319305   0.507   6.160   3.210
  101MYC    C5519306   0.479   5.992   3.078
  101MYC   H14419307   0.370   5.986   3.089
  101MYC   H14519308   0.515   5.889   3.066
  101MYC    C5419309   0.514   6.075   2.953
  101MYC   H14619310   0.620   6.062   2.928
  101MYC   H14719311   0.501   6.181   2.977
  101MYC    C5319312   0.425   6.045   2.831
  101MYC   H14819313   0.406   6.140   2.779
  101MYC   H14919314   0.326   6.008   2.863
  101MYC    C5219315   0.486   5.946   2.729
  101MYC    H9919316   0.498   5.847   2.775
  101MYC   H15019317   0.586   5.982   2.702
  101MYC    C5119318   0.400   5.936   2.602
  101MYC    H9719319   0.367   6.037   2.575
  101MYC    H9819320   0.309   5.878   2.623
  101MYC    C5019321   0.473   5.874   2.481
  101MYC    H9519322   0.474   5.765   2.490
  101MYC    H9619323   0.577   5.908   2.480
  101MYC    C4919324   0.407   5.916   2.348
  101MYC    H9319325   0.400   6.026   2.345
  101MYC    H9419326   0.304   5.878   2.345
  101MYC    C4819327   0.484   5.870   2.223
  101MYC    H9119328   0.485   5.760   2.220
  101MYC    H9219329   0.588   5.903   2.229
  101MYC    C4719330   0.420   5.924   2.094
  101MYC    H8919331   0.420   6.034   2.097
  101MYC    H9019332   0.315   5.892   2.091
  101MYC    C4619333   0.492   5.877   1.966
  101MYC    H8719334   0.512   5.770   1.974
  101MYC    H8819335   0.590   5.928   1.958
  101MYC    C4519336   0.409   5.905   1.839
  101MYC    H8519337   0.401   6.013   1.823
  101MYC    H8619338   0.306   5.871   1.856
  101MYC    C4419339   0.464   5.835   1.713
  101MYC    H8319340   0.382   5.820   1.643
  101MYC    H8419341   0.500   5.734   1.739
  101MYC    C1819342   0.572   5.914   1.642
  101MYC    H3119343   0.572   6.020   1.667
  101MYC    C1719344   0.703   5.852   1.599
  101MYC    H3019345   0.718   5.746   1.622
  101MYC    C1919346   0.597   5.882   1.497
  101MYC    H3219347   0.545   5.797   1.454
  101MYC    H3319348   0.612   5.966   1.430
  101MYC    C1619349   0.832   5.933   1.602
  101MYC    H2819350   0.814   6.029   1.652
  101MYC    H2919351   0.861   5.957   1.499
  101MYC    C1519352   0.949   5.861   1.670
  101MYC    H2619353   1.037   5.925   1.662
  101MYC    H2719354   0.972   5.769   1.616
  101MYC    C1419355   0.925   5.829   1.819
  101MYC    H2419356   0.848   5.751   1.828
  101MYC    H2519357   0.886   5.918   1.870
  101MYC    C1319358   1.053   5.783   1.890
  101MYC    H2219359   1.128   5.862   1.881
  101MYC    H2319360   1.093   5.694   1.840
  101MYC    C1219361   1.033   5.753   2.039
  101MYC    H2019362   0.961   5.670   2.051
  101MYC    H2119363   0.989   5.841   2.086
  101MYC    C1119364   1.165   5.716   2.111
  101MYC    H1819365   1.238   5.796   2.094
  101MYC    H1919366   1.206   5.625   2.065
  101MYC    C1019367   1.150   5.693   2.263
  101MYC    H1619368   1.247   5.660   2.302
  101MYC    H1719369   1.080   5.610   2.280
  101MYC     C919370   1.104   5.818   2.340
  101MYC    H1419371   1.001   5.843   2.312
  101MYC    H1519372   1.167   5.903   2.313
  101MYC     C819373   1.108   5.798   2.493
  101MYC    H1219374   1.210   5.771   2.522
  101MYC    H1319375   1.043   5.714   2.520
  101MYC     C719376   1.064   5.923   2.571
  101MYC    H1019377   0.959   5.947   2.548
  101MYC    H1119378   1.124   6.009   2.540
  101MYC     C619379   1.079   5.903   2.723
  101MYC     H819380   1.183   5.875   2.744
  101MYC     H919381   1.017   5.818   2.753
  101MYC     C519382   1.042   6.027   2.808
  101MYC     H619383   0.934   6.043   2.806
  101MYC     H719384   1.087   6.116   2.761
  101MYC     C419385   1.094   6.020   2.953
  101MYC     H419386   1.102   6.122   2.991
  101MYC     H519387   1.196   5.980   2.952
  101MYC     C219388   1.007   5.939   3.055
  101MYC     H219389   0.918   5.999   3.075
  101MYC     O319390   0.967   5.814   3.000
  101MYC     H319391   1.043   5.753   3.006
  101MYC     C119392   1.082   5.918   3.190
  101MYC     H119393   1.112   6.017   3.226
  101MYC    C8119394   1.210   5.833   3.175
  101MYC    O8219395   1.214   5.724   3.120
  101MYC    O8319396   1.317   5.880   3.243
  101MYC   H10519397   1.384   5.809   3.236
  101MYC    C2019398   0.991   5.857   3.301
  101MYC    H3419399   0.886   5.880   3.280
  101MYC    H3519400   1.000   5.748   3.299
  101MYC    C2119401   1.026   5.911   3.441
  101MYC    H3619402   1.134   5.912   3.455
  101MYC    H3719403   0.993   6.016   3.446
  101MYC    C2219404   0.962   5.832   3.556
  101MYC    H3819405   0.858   5.808   3.532
  101MYC    H3919406   1.015   5.737   3.568
  101MYC    C2319407   0.966   5.911   3.689
  101MYC    H4019408   1.066   5.953   3.704
  101MYC    H4119409   0.896   5.995   3.683
  101MYC    C2419410   0.930   5.824   3.811
  101MYC    H4219411   0.836   5.771   3.793
  101MYC    H4319412   1.008   5.747   3.822
  101MYC    C2519413   0.920   5.904   3.942
  101MYC    H4419414   1.007   5.970   3.951
  101MYC    H4519415   0.832   5.969   3.938
  101MYC    C2619416   0.912   5.813   4.066
  101MYC    H4619417   0.824   5.748   4.058
  101MYC    H4719418   1.000   5.748   4.066
  101MYC    C2719419   0.907   5.892   4.198
  101MYC    H4819420   0.978   5.975   4.195
  101MYC    H4919421   0.807   5.935   4.211
  101MYC    C2819422   0.940   5.803   4.320
  101MYC    H5019423   0.871   5.718   4.324
  101MYC    H5119424   1.041   5.762   4.307
  101MYC    C2919425   0.934   5.880   4.453
  101MYC    H5219426   0.998   5.969   4.446
  101MYC    H5319427   0.831   5.915   4.469
  101MYC    C3019428   0.980   5.795   4.573
  101MYC    H5419429   0.919   5.704   4.579
  101MYC    H5519430   1.084   5.765   4.559
  101MYC    C3119431   0.967   5.873   4.705
  101MYC    H5619432   1.023   5.967   4.697
  101MYC    H5719433   0.861   5.900   4.721
  101MYC    C3219434   1.018   5.796   4.828
  101MYC    H5819435   0.966   5.699   4.835
  101MYC    H5919436   1.124   5.774   4.815
  101MYC    C3319437   0.996   5.875   4.958
  101MYC    H6019438   1.039   5.975   4.946
  101MYC    H6119439   0.888   5.889   4.974
  101MYC    C3419440   1.058   5.809   5.082
  101MYC    H6219441   1.017   5.708   5.095
  101MYC    H6319442   1.166   5.798   5.067
  101MYC    C3519443   1.033   5.891   5.210
  101MYC    H6419444   1.069   5.993   5.194
  101MYC    H6519445   0.924   5.897   5.228
  101MYC    C3619446   1.101   5.833   5.335
  101MYC    H6619447   1.064   5.731   5.353
  101MYC    H6719448   1.209   5.825   5.318
  101MYC    C3719449   1.076   5.920   5.460
  101MYC    H6819450   1.112   6.022   5.441
  101MYC    H6919451   0.968   5.926   5.478
  101MYC    C3819452   1.145   5.865   5.587
  101MYC    H7019453   1.107   5.765   5.608
  101MYC    H7119454   1.252   5.856   5.569
  101MYC    C3919455   1.121   5.955   5.709
  101MYC    H7219456   1.159   6.056   5.688
  101MYC    H7319457   1.013   5.965   5.727
  101MYC    C4019458   1.188   5.902   5.838
  101MYC    H7419459   1.157   5.799   5.855
  101MYC    H7519460   1.297   5.901   5.824
  101MYC    C4119461   1.153   5.987   5.962
  101MYC    H7619462   1.178   6.092   5.943
  101MYC    H7719463   1.045   5.982   5.979
  101MYC    C4219464   1.227   5.940   6.089
  101MYC    H7819465   1.214   5.831   6.102
  101MYC    H7919466   1.334   5.958   6.078
  101MYC    C4319467   1.177   6.010   6.217
  101MYC    H8019468   1.238   5.981   6.303
  101MYC    H8119469   1.073   5.983   6.238
  101MYC    H8219470   1.182   6.119   6.206
  102MYC   HH1519471   1.196   0.031   6.256
  102MYC    C8019472   1.269   0.040   6.175
  102MYC   H10019473   1.322   0.135   6.187
  102MYC   H10119474   1.342   6.408   6.186
  102MYC    C7919475   1.199   0.033   6.038
  102MYC   H10219476   1.123   0.112   6.034
  102MYC   H10319477   1.147   6.387   6.030
  102MYC    C7819478   1.296   0.049   5.919
  102MYC   HH1419479   1.378   6.428   5.929
  102MYC   H10419480   1.340   0.150   5.923
  102MYC    C7719481   1.228   0.029   5.783
  102MYC   H10619482   1.140   0.094   5.776
  102MYC   H10719483   1.191   6.375   5.776
  102MYC    C7619484   1.321   0.058   5.664
  102MYC   H10819485   1.413   6.448   5.673
  102MYC   H10919486   1.351   0.164   5.667
  102MYC    C7519487   1.256   0.028   5.527
  102MYC   H11019488   1.160   0.081   5.521
  102MYC   H11119489   1.234   6.371   5.521
  102MYC    C7419490   1.344   0.070   5.408
  102MYC   H11219491   1.441   0.020   5.416
  102MYC   H11319492   1.364   0.178   5.414
  102MYC    C7319493   1.281   0.038   5.272
  102MYC   HH1319494   1.185   0.092   5.263
  102MYC   H11419495   1.258   6.380   5.267
  102MYC    C7219496   1.371   0.076   5.154
  102MYC   H11519497   1.466   0.020   5.161
  102MYC   H11619498   1.397   0.183   5.161
  102MYC    C7119499   1.306   0.049   5.017
  102MYC   H11719500   1.214   0.108   5.010
  102MYC   H11819501   1.277   6.393   5.011
  102MYC    C7019502   1.398   0.083   4.898
  102MYC   H11919503   1.487   0.021   4.902
  102MYC   H12019504   1.430   0.188   4.907
  102MYC    C6919505   1.327   0.064   4.763
  102MYC   H12119506   1.233   0.121   4.764
  102MYC   H12219507   1.300   6.408   4.752
  102MYC    C6819508   1.412   0.107   4.643
  102MYC   HH1219509   1.502   0.046   4.637
  102MYC   H12319510   1.444   0.211   4.656
  102MYC    C6719511   1.333   0.096   4.511
  102MYC   H12419512   1.239   0.153   4.521
  102MYC   H12519513   1.304   6.441   4.496
  102MYC    C6619514   1.409   0.146   4.387
  102MYC   H12619515   1.497   0.082   4.370
  102MYC   H12719516   1.446   0.248   4.406
  102MYC    C6519517   1.319   0.147   4.263
  102MYC   H12819518   1.237   0.217   4.280
  102MYC   H12919519   1.275   0.048   4.250
  102MYC    C6419520   1.392   0.185   4.133
  102MYC   H13019521   1.461   0.105   4.104
  102MYC   H13119522   1.453   0.275   4.149
  102MYC    C6319523   1.292   0.213   4.019
  102MYC   HH1119524   1.234   0.302   4.044
  102MYC   H13219525   1.221   0.129   4.013
  102MYC    C6219526   1.357   0.231   3.881
  102MYC   H13319527   1.399   0.135   3.848
  102MYC   H13419528   1.441   0.302   3.888
  102MYC    C6119529   1.255   0.283   3.778
  102MYC   H13519530   1.234   0.388   3.798
  102MYC   H13619531   1.161   0.229   3.791
  102MYC    C6019532   1.301   0.264   3.634
  102MYC   H13719533   1.317   0.160   3.609
  102MYC    C5819534   1.242   0.353   3.527
  102MYC   H13819535   1.180   0.436   3.559
  102MYC    C5919536   1.389   0.363   3.562
  102MYC   H13919537   1.461   0.324   3.491
  102MYC   H14019538   1.422   0.452   3.617
  102MYC    C5719539   1.194   0.291   3.398
  102MYC   HH1019540   1.088   0.263   3.407
  102MYC   H14119541   1.249   0.198   3.378
  102MYC    C5619542   1.212   0.385   3.277
  102MYC   H14219543   1.316   0.419   3.273
  102MYC   H14319544   1.149   0.474   3.290
  102MYC    C5519545   1.175   0.314   3.145
  102MYC   H14419546   1.068   0.292   3.144
  102MYC   H14519547   1.228   0.218   3.140
  102MYC    C5419548   1.212   0.396   3.020
  102MYC   H14619549   1.319   0.416   3.019
  102MYC   H14719550   1.164   0.494   3.025
  102MYC    C5319551   1.173   0.324   2.891
  102MYC   H14819552   1.064   0.330   2.877
  102MYC   H14919553   1.197   0.217   2.901
  102MYC    C5219554   1.245   0.378   2.766
  102MYC    H9919555   1.353   0.360   2.778
  102MYC   H15019556   1.231   0.486   2.758
  102MYC    C5119557   1.196   0.309   2.638
  102MYC    H9719558   1.099   0.352   2.610
  102MYC    H9819559   1.178   0.203   2.660
  102MYC    C5019560   1.293   0.318   2.520
  102MYC    H9519561   1.389   0.273   2.548
  102MYC    H9619562   1.312   0.423   2.495
  102MYC    C4919563   1.237   0.245   2.397
  102MYC    H9319564   1.145   0.296   2.365
  102MYC    H9419565   1.207   0.143   2.426
  102MYC    C4819566   1.333   0.236   2.278
  102MYC    H9119567   1.421   0.177   2.307
  102MYC    H9219568   1.368   0.336   2.251
  102MYC    C4719569   1.265   0.170   2.156
  102MYC    H8919570   1.181   0.233   2.125
  102MYC    H9019571   1.223   0.073   2.186
  102MYC    C4619572   1.360   0.149   2.037
  102MYC    H8719573   1.441   0.081   2.067
  102MYC    H8819574   1.405   0.245   2.010
  102MYC    C4519575   1.286   0.090   1.914
  102MYC    H8519576   1.211   0.162   1.880
  102MYC    H8619577   1.232  -0.000   1.945
  102MYC    C4419578   1.379   0.053   1.797
  102MYC    H8319579   1.317   0.013   1.716
  102MYC    H8419580   1.445   6.421   1.828
  102MYC    C1819581   1.461   0.170   1.744
  102MYC    H3119582   1.400   0.258   1.723
  102MYC    C1719583   1.603   0.194   1.790
  102MYC    H3019584   1.646   0.121   1.858
  102MYC    C1919585   1.575   0.145   1.649
  102MYC    H3219586   1.599   0.042   1.625
  102MYC    H3319587   1.587   0.215   1.567
  102MYC    C1619588   1.657   0.335   1.810
  102MYC    H2819589   1.574   0.405   1.830
  102MYC    H2919590   1.703   0.369   1.716
  102MYC    C1519591   1.762   0.351   1.921
  102MYC    H2619592   1.806   0.451   1.911
  102MYC    H2719593   1.844   0.279   1.906
  102MYC    C1419594   1.709   0.334   2.066
  102MYC    H2419595   1.699   0.227   2.088
  102MYC    H2519596   1.609   0.377   2.074
  102MYC    C1319597   1.802   0.401   2.168
  102MYC    H2219598   1.804   0.509   2.149
  102MYC    H2319599   1.904   0.365   2.152
  102MYC    C1219600   1.764   0.377   2.316
  102MYC    H2019601   1.768   0.269   2.335
  102MYC    H2119602   1.661   0.410   2.334
  102MYC    C1119603   1.860   0.451   2.412
  102MYC    H1819604   1.833   0.557   2.419
  102MYC    H1919605   1.961   0.448   2.370
  102MYC    C1019606   1.867   0.390   2.554
  102MYC    H1619607   1.960   0.423   2.601
  102MYC    H1719608   1.874   0.281   2.545
  102MYC     C919609   1.750   0.425   2.648
  102MYC    H1419610   1.654   0.410   2.598
  102MYC    H1519611   1.757   0.531   2.675
  102MYC     C819612   1.755   0.339   2.776
  102MYC    H1219613   1.859   0.331   2.811
  102MYC    H1319614   1.722   0.237   2.752
  102MYC     C719615   1.670   0.393   2.893
  102MYC    H1019616   1.567   0.412   2.860
  102MYC    H1119617   1.712   0.490   2.924
  102MYC     C619618   1.669   0.295   3.013
  102MYC     H819619   1.771   0.263   3.036
  102MYC     H919620   1.615   0.204   2.982
  102MYC     C519621   1.602   0.349   3.141
  102MYC     H619622   1.596   0.268   3.214
  102MYC     H719623   1.499   0.376   3.119
  102MYC     C419624   1.669   0.471   3.209
  102MYC     H419625   1.605   0.501   3.292
  102MYC     H519626   1.672   0.557   3.140
  102MYC     C219627   1.811   0.442   3.264
  102MYC     H219628   1.809   0.339   3.301
  102MYC     O319629   1.908   0.451   3.159
  102MYC     H319630   1.934   0.544   3.151
  102MYC     C119631   1.850   0.535   3.383
  102MYC     H119632   1.775   0.517   3.461
  102MYC    C8119633   1.839   0.685   3.347
  102MYC    O8219634   1.761   0.762   3.401
  102MYC    O8319635   1.922   0.727   3.249
  102MYC   H10519636   1.905   0.822   3.239
  102MYC    C2019637   1.987   0.500   3.446
  102MYC    H3419638   2.068   0.526   3.378
  102MYC    H3519639   1.999   0.564   3.534
  102MYC    C2119640   2.001   0.351   3.488
  102MYC    H3619641   1.902   0.307   3.505
  102MYC    H3719642   2.046   0.296   3.405
  102MYC    C2219643   2.085   0.329   3.616
  102MYC    H3819644   2.111   0.223   3.622
  102MYC    H3919645   2.179   0.385   3.609
  102MYC    C2319646   2.008   0.368   3.744
  102MYC    H4019647   1.980   0.474   3.741
  102MYC    H4119648   1.915   0.310   3.748
  102MYC    C2419649   2.087   0.343   3.874
  102MYC    H4219650   2.121   0.238   3.876
  102MYC    H4319651   2.177   0.406   3.875
  102MYC    C2519652   2.002   0.371   3.999
  102MYC    H4419653   1.971   0.477   3.999
  102MYC    H4519654   1.910   0.311   3.994
  102MYC    C2619655   2.075   0.339   4.130
  102MYC    H4619656   2.109   0.235   4.127
  102MYC    H4719657   2.165   0.402   4.139
  102MYC    C2719658   1.986   0.360   4.254
  102MYC    H4819659   1.961   0.466   4.264
  102MYC    H4919660   1.892   0.305   4.241
  102MYC    C2819661   2.054   0.311   4.383
  102MYC    H5019662   2.078   0.205   4.373
  102MYC    H5119663   2.149   0.365   4.397
  102MYC    C2919664   1.967   0.330   4.509
  102MYC    H5219665   1.951   0.437   4.526
  102MYC    H5319666   1.869   0.285   4.493
  102MYC    C3019667   2.032   0.267   4.633
  102MYC    H5419668   2.034   0.158   4.621
  102MYC    H5519669   2.136   0.300   4.640
  102MYC    C3119670   1.960   0.302   4.764
  102MYC    H5619671   1.960   0.411   4.776
  102MYC    H5719672   1.855   0.270   4.758
  102MYC    C3219673   2.027   0.237   4.886
  102MYC    H5819674   2.003   0.129   4.888
  102MYC    H5919675   2.136   0.246   4.878
  102MYC    C3319676   1.983   0.301   5.018
  102MYC    H6019677   2.012   0.407   5.017
  102MYC    H6119678   1.873   0.299   5.026
  102MYC    C3419679   2.044   0.233   5.142
  102MYC    H6219680   2.003   0.131   5.151
  102MYC    H6319681   2.152   0.223   5.129
  102MYC    C3519682   2.016   0.312   5.271
  102MYC    H6419683   2.062   0.411   5.262
  102MYC    H6519684   1.908   0.327   5.281
  102MYC    C3619685   2.070   0.244   5.398
  102MYC    H6619686   2.028   0.143   5.406
  102MYC    H6719687   2.179   0.233   5.390
  102MYC    C3719688   2.034   0.324   5.524
  102MYC    H6819689   2.069   0.428   5.511
  102MYC    H6919690   1.925   0.328   5.533
  102MYC    C3819691   2.094   0.268   5.654
  102MYC    H7019692   2.073   0.160   5.662
  102MYC    H7119693   2.203   0.280   5.653
  102MYC    C3919694   2.035   0.340   5.778
  102MYC    H7219695   2.043   0.448   5.764
  102MYC    H7319696   1.928   0.317   5.784
  102MYC    C4019697   2.103   0.302   5.911
  102MYC    H7419698   2.101   0.193   5.923
  102MYC    H7519699   2.208   0.333   5.909
  102MYC    C4119700   2.032   0.367   6.032
  102MYC    H7619701   2.029   0.476   6.018
  102MYC    H7719702   1.927   0.332   6.034
  102MYC    C4219703   2.098   0.335   6.167
  102MYC    H7819704   2.108   0.226   6.178
  102MYC    H7919705   2.199   0.377   6.169
  102MYC    C4319706   2.018   0.390   6.287
  102MYC    H8019707   2.014   0.500   6.284
  102MYC    H8119708   2.064   0.360   6.381
  102MYC    H8219709   1.915   0.352   6.285
  103MYC   HH1519710   1.999   1.131   6.172
  103MYC    C8019711   1.926   1.118   6.091
  103MYC   H10019712   1.884   1.017   6.098
  103MYC   H10119713   1.845   1.190   6.105
  103MYC    C7919714   1.993   1.139   5.954
  103MYC   H10219715   2.078   1.069   5.945
  103MYC   H10319716   2.035   1.240   5.950
  103MYC    C7819717   1.897   1.118   5.835
  103MYC   HH1419718   1.810   1.184   5.846
  103MYC   H10419719   1.859   1.015   5.837
  103MYC    C7719720   1.965   1.146   5.699
  103MYC   H10619721   2.054   1.082   5.690
  103MYC   H10719722   1.999   1.250   5.697
  103MYC    C7619723   1.873   1.121   5.578
  103MYC   H10819724   1.785   1.187   5.584
  103MYC   H10919725   1.836   1.018   5.580
  103MYC    C7519726   1.947   1.146   5.445
  103MYC   H11019727   2.037   1.083   5.443
  103MYC   H11119728   1.980   1.250   5.442
  103MYC    C7419729   1.863   1.116   5.319
  103MYC   H11219730   1.774   1.182   5.318
  103MYC   H11319731   1.827   1.013   5.322
  103MYC    C7319732   1.946   1.138   5.191
  103MYC   HH1319733   2.036   1.076   5.196
  103MYC   H11419734   1.980   1.243   5.189
  103MYC    C7219735   1.871   1.107   5.061
  103MYC   H11519736   1.780   1.168   5.055
  103MYC   H11619737   1.840   1.002   5.060
  103MYC    C7119738   1.960   1.135   4.938
  103MYC   H11719739   2.052   1.075   4.945
  103MYC   H11819740   1.990   1.240   4.941
  103MYC    C7019741   1.892   1.107   4.803
  103MYC   H11919742   1.800   1.166   4.795
  103MYC   H12019743   1.863   1.001   4.797
  103MYC    C6919744   1.986   1.141   4.685
  103MYC   H12119745   2.073   1.075   4.688
  103MYC   H12219746   2.023   1.244   4.700
  103MYC    C6819747   1.918   1.132   4.547
  103MYC   HH1219748   1.829   1.196   4.547
  103MYC   H12319749   1.886   1.029   4.528
  103MYC    C6719750   2.014   1.179   4.436
  103MYC   H12419751   2.097   1.107   4.427
  103MYC   H12519752   2.059   1.275   4.466
  103MYC    C6619753   1.947   1.198   4.298
  103MYC   H12619754   1.859   1.262   4.309
  103MYC   H12719755   1.913   1.101   4.260
  103MYC    C6519756   2.046   1.262   4.199
  103MYC   H12819757   2.133   1.196   4.189
  103MYC   H12919758   2.082   1.356   4.243
  103MYC    C6419759   1.988   1.294   4.060
  103MYC   H13019760   2.049   1.374   4.017
  103MYC   H13119761   1.887   1.334   4.070
  103MYC    C6319762   1.989   1.174   3.963
  103MYC   HH1119763   1.919   1.096   3.998
  103MYC   H13219764   2.089   1.129   3.962
  103MYC    C6219765   1.951   1.217   3.821
  103MYC   H13319766   2.007   1.309   3.796
  103MYC   H13419767   1.845   1.244   3.817
  103MYC    C6119768   1.982   1.112   3.713
  103MYC   H13519769   1.923   1.022   3.730
  103MYC   H13619770   2.087   1.084   3.719
  103MYC    C6019771   1.955   1.169   3.574
  103MYC   H13719772   1.999   1.267   3.562
  103MYC    C5819773   1.954   1.081   3.452
  103MYC   H13819774   1.963   0.974   3.466
  103MYC    C5919775   1.825   1.144   3.502
  103MYC   H13919776   1.783   1.226   3.445
  103MYC   H14019777   1.752   1.078   3.548
  103MYC    C5719778   2.024   1.132   3.328
  103MYC   HH1019779   2.125   1.090   3.322
  103MYC   H14119780   2.037   1.241   3.334
  103MYC    C5619781   1.949   1.101   3.198
  103MYC   H14219782   1.847   1.142   3.204
  103MYC   H14319783   1.939   0.992   3.184
  103MYC    C5519784   2.022   1.161   3.077
  103MYC   H14419785   2.117   1.110   3.063
  103MYC   H14519786   2.044   1.266   3.098
  103MYC    C5419787   1.940   1.153   2.947
  103MYC   H14619788   1.843   1.203   2.963
  103MYC   H14719789   1.920   1.049   2.922
  103MYC    C5319790   2.014   1.221   2.831
  103MYC   H14819791   2.106   1.165   2.808
  103MYC   H14919792   2.045   1.322   2.861
  103MYC    C5219793   1.927   1.232   2.705
  103MYC    H9919794   1.834   1.285   2.731
  103MYC   H15019795   1.899   1.131   2.672
  103MYC    C5119796   1.997   1.306   2.590
  103MYC    H9719797   2.084   1.248   2.556
  103MYC    H9819798   2.035   1.403   2.625
  103MYC    C5019799   1.900   1.329   2.473
  103MYC    H9519800   1.819   1.394   2.507
  103MYC    H9619801   1.854   1.233   2.448
  103MYC    C4919802   1.965   1.388   2.347
  103MYC    H9319803   2.043   1.320   2.310
  103MYC    H9419804   2.013   1.483   2.371
  103MYC    C4819805   1.858   1.410   2.238
  103MYC    H9119806   1.793   1.493   2.269
  103MYC    H9219807   1.795   1.321   2.232
  103MYC    C4719808   1.915   1.439   2.098
  103MYC    H8919809   1.973   1.353   2.064
  103MYC    H9019810   1.982   1.526   2.102
  103MYC    C4619811   1.799   1.466   2.000
  103MYC    H8719812   1.747   1.557   2.032
  103MYC    H8819813   1.728   1.383   2.006
  103MYC    C4519814   1.842   1.484   1.854
  103MYC    H8519815   1.898   1.395   1.824
  103MYC    H8619816   1.911   1.569   1.847
  103MYC    C4419817   1.722   1.506   1.759
  103MYC    H8319818   1.754   1.569   1.676
  103MYC    H8419819   1.644   1.562   1.811
  103MYC    C1819820   1.666   1.379   1.697
  103MYC    H3119821   1.738   1.330   1.631
  103MYC    C1719822   1.568   1.288   1.767
  103MYC    H3019823   1.537   1.318   1.867
  103MYC    C1919824   1.522   1.375   1.652
  103MYC    H3219825   1.460   1.461   1.673
  103MYC    H3319826   1.503   1.329   1.556
  103MYC    C1619827   1.581   1.137   1.750
  103MYC    H2819828   1.683   1.108   1.778
  103MYC    H2919829   1.570   1.111   1.644
  103MYC    C1519830   1.481   1.053   1.833
  103MYC    H2619831   1.381   1.096   1.824
  103MYC    H2719832   1.510   1.060   1.939
  103MYC    C1419833   1.477   0.906   1.787
  103MYC    H2419834   1.577   0.873   1.757
  103MYC    H2519835   1.416   0.900   1.696
  103MYC    C1319836   1.420   0.806   1.891
  103MYC    H2219837   1.389   0.716   1.837
  103MYC    H2319838   1.331   0.849   1.938
  103MYC    C1219839   1.524   0.765   1.998
  103MYC    H2019840   1.555   0.854   2.055
  103MYC    H2119841   1.614   0.728   1.948
  103MYC    C1119842   1.474   0.656   2.095
  103MYC    H1819843   1.558   0.591   2.121
  103MYC    H1919844   1.401   0.592   2.044
  103MYC    C1019845   1.413   0.709   2.227
  103MYC    H1619846   1.353   0.629   2.273
  103MYC    H1719847   1.345   0.792   2.207
  103MYC     C919848   1.521   0.751   2.329
  103MYC    H1419849   1.582   0.832   2.287
  103MYC    H1519850   1.588   0.666   2.345
  103MYC     C819851   1.464   0.796   2.464
  103MYC    H1219852   1.392   0.720   2.500
  103MYC    H1319853   1.408   0.890   2.452
  103MYC     C719854   1.574   0.814   2.570
  103MYC    H1019855   1.642   0.895   2.539
  103MYC    H1119856   1.634   0.722   2.574
  103MYC     C619857   1.519   0.843   2.710
  103MYC     H819858   1.443   0.767   2.734
  103MYC     H919859   1.468   0.940   2.709
  103MYC     C519860   1.628   0.842   2.820
  103MYC     H619861   1.689   0.933   2.814
  103MYC     H719862   1.696   0.757   2.800
  103MYC     C419863   1.573   0.824   2.963
  103MYC     H419864   1.654   0.784   3.025
  103MYC     H519865   1.496   0.746   2.961
  103MYC     C219866   1.518   0.951   3.033
  103MYC     H219867   1.604   1.017   3.051
  103MYC     O319868   1.424   1.021   2.951
  103MYC     H319869   1.338   0.976   2.960
  103MYC     C119870   1.454   0.916   3.170
  103MYC     H119871   1.530   0.857   3.224
  103MYC    C8119872   1.330   0.824   3.157
  103MYC    O8219873   1.327   0.709   3.198
  103MYC    O8319874   1.219   0.883   3.107
  103MYC   H10519875   1.147   0.819   3.117
  103MYC    C2019876   1.427   1.041   3.258
  103MYC    H3419877   1.521   1.096   3.271
  103MYC    H3519878   1.356   1.109   3.209
  103MYC    C2119879   1.373   1.000   3.397
  103MYC    H3619880   1.267   0.973   3.388
  103MYC    H3719881   1.426   0.910   3.429
  103MYC    C2219882   1.389   1.107   3.507
  103MYC    H3819883   1.493   1.141   3.509
  103MYC    H3919884   1.327   1.194   3.485
  103MYC    C2319885   1.353   1.047   3.643
  103MYC    H4019886   1.247   1.017   3.643
  103MYC    H4119887   1.411   0.955   3.656
  103MYC    C2419888   1.379   1.138   3.764
  103MYC    H4219889   1.472   1.194   3.750
  103MYC    H4319890   1.298   1.211   3.773
  103MYC    C2519891   1.389   1.054   3.893
  103MYC    H4419892   1.305   0.983   3.896
  103MYC    H4519893   1.481   0.993   3.887
  103MYC    C2619894   1.390   1.135   4.023
  103MYC    H4619895   1.475   1.206   4.022
  103MYC    H4719896   1.298   1.194   4.030
  103MYC    C2719897   1.401   1.041   4.144
  103MYC    H4819898   1.321   0.967   4.139
  103MYC    H4919899   1.496   0.987   4.139
  103MYC    C2819900   1.393   1.114   4.279
  103MYC    H5019901   1.479   1.181   4.290
  103MYC    H5119902   1.302   1.176   4.282
  103MYC    C2919903   1.390   1.014   4.396
  103MYC    H5219904   1.302   0.948   4.385
  103MYC    H5319905   1.479   0.949   4.390
  103MYC    C3019906   1.386   1.081   4.533
  103MYC    H5419907   1.472   1.149   4.543
  103MYC    H5519908   1.295   1.142   4.541
  103MYC    C3119909   1.389   0.978   4.648
  103MYC    H5619910   1.303   0.911   4.639
  103MYC    H5719911   1.479   0.916   4.637
  103MYC    C3219912   1.389   1.045   4.786
  103MYC    H5819913   1.469   1.120   4.790
  103MYC    H5919914   1.294   1.098   4.800
  103MYC    C3319915   1.410   0.944   4.900
  103MYC    H6019916   1.337   0.863   4.892
  103MYC    H6119917   1.510   0.900   4.891
  103MYC    C3419918   1.396   1.012   5.037
  103MYC    H6219919   1.457   1.103   5.039
  103MYC    H6319920   1.291   1.043   5.050
  103MYC    C3519921   1.438   0.923   5.156
  103MYC    H6419922   1.389   0.826   5.150
  103MYC    H6519923   1.546   0.906   5.151
  103MYC    C3619924   1.402   0.991   5.289
  103MYC    H6619925   1.427   1.097   5.284
  103MYC    H6719926   1.293   0.985   5.302
  103MYC    C3719927   1.471   0.931   5.413
  103MYC    H6819928   1.452   0.823   5.418
  103MYC    H6919929   1.580   0.945   5.405
  103MYC    C3819930   1.419   0.999   5.541
  103MYC    H7019931   1.433   1.107   5.533
  103MYC    H7119932   1.311   0.981   5.548
  103MYC    C3919933   1.486   0.951   5.671
  103MYC    H7219934   1.486   0.841   5.675
  103MYC    H7319935   1.591   0.983   5.673
  103MYC    C4019936   1.411   1.006   5.795
  103MYC    H7419937   1.410   1.116   5.789
  103MYC    H7519938   1.307   0.973   5.790
  103MYC    C4119939   1.471   0.964   5.930
  103MYC    H7619940   1.481   0.854   5.932
  103MYC    H7719941   1.572   1.006   5.940
  103MYC    C4219942   1.384   1.010   6.048
  103MYC    H7819943   1.373   1.119   6.045
  103MYC    H7919944   1.283   0.968   6.037
  103MYC    C4319945   1.440   0.969   6.186
  103MYC    H8019946   1.372   1.002   6.265
  103MYC    H8119947   1.538   1.015   6.202
  103MYC    H8219948   1.450   0.860   6.192
  104MYC   HH1519949   1.744   1.905   6.281
  104MYC    C8019950   1.694   1.927   6.186
  104MYC   H10019951   1.589   1.898   6.194
  104MYC   H10119952   1.699   2.036   6.170
  104MYC    C7919953   1.763   1.852   6.071
  104MYC   H10219954   1.761   1.744   6.091
  104MYC   H10319955   1.869   1.882   6.068
  104MYC    C7819956   1.698   1.881   5.934
  104MYC   HH1419957   1.693   1.989   5.919
  104MYC   H10419958   1.594   1.844   5.936
  104MYC    C7719959   1.772   1.817   5.814
  104MYC   H10619960   1.769   1.708   5.823
  104MYC   H10719961   1.877   1.846   5.817
  104MYC    C7619962   1.711   1.861   5.679
  104MYC   H10819963   1.714   1.970   5.674
  104MYC   H10919964   1.605   1.832   5.676
  104MYC    C7519965   1.783   1.802   5.556
  104MYC   H11019966   1.768   1.693   5.553
  104MYC   H11119967   1.891   1.820   5.565
  104MYC    C7419968   1.732   1.865   5.425
  104MYC   H11219969   1.748   1.974   5.430
  104MYC   H11319970   1.623   1.849   5.416
  104MYC    C7319971   1.801   1.811   5.298
  104MYC   HH1319972   1.775   1.705   5.286
  104MYC   H11419973   1.910   1.816   5.311
  104MYC    C7219974   1.761   1.888   5.171
  104MYC   H11519975   1.785   1.995   5.185
  104MYC   H11619976   1.652   1.882   5.157
  104MYC    C7119977   1.832   1.837   5.044
  104MYC   H11719978   1.803   1.733   5.027
  104MYC   H11819979   1.940   1.839   5.061
  104MYC    C7019980   1.799   1.920   4.918
  104MYC   H11919981   1.825   2.025   4.936
  104MYC   H12019982   1.691   1.916   4.900
  104MYC    C6919983   1.874   1.868   4.794
  104MYC   H12119984   1.849   1.763   4.780
  104MYC   H12219985   1.982   1.873   4.813
  104MYC    C6819986   1.842   1.945   4.664
  104MYC   HH1219987   1.869   2.050   4.675
  104MYC   H12319988   1.733   1.941   4.647
  104MYC    C6719989   1.915   1.883   4.544
  104MYC   H12419990   1.898   1.775   4.545
  104MYC   H12519991   2.023   1.898   4.555
  104MYC    C6619992   1.870   1.937   4.406
  104MYC   H12619993   1.905   2.040   4.393
  104MYC   H12719994   1.760   1.940   4.403
  104MYC    C6519995   1.921   1.847   4.292
  104MYC   H12819996   1.889   1.745   4.312
  104MYC   H12919997   2.031   1.846   4.292
  104MYC    C6419998   1.872   1.888   4.151
  104MYC   H13019999   1.931   1.973   4.115
  104MYC   H13120000   1.768   1.920   4.156
  104MYC    C6320001   1.882   1.770   4.052
  104MYC   HH1120002   1.811   1.692   4.083
  104MYC   H13220003   1.983   1.725   4.058
  104MYC    C6220004   1.853   1.808   3.906
  104MYC   H13320005   1.932   1.876   3.871
  104MYC   H13420006   1.758   1.862   3.899
  104MYC    C6120007   1.848   1.684   3.813
  104MYC   H13520008   1.762   1.622   3.842
  104MYC   H13620009   1.938   1.623   3.829
  104MYC    C6020010   1.839   1.721   3.666
  104MYC   H13720011   1.909   1.800   3.640
  104MYC    C5820012   1.814   1.616   3.561
  104MYC   H13820013   1.793   1.515   3.595
  104MYC    C5920014   1.708   1.720   3.590
  104MYC   H13920015   1.691   1.798   3.517
  104MYC   H14020016   1.619   1.687   3.643
  104MYC    C5720017   1.898   1.618   3.433
  104MYC   HH1020018   1.976   1.541   3.439
  104MYC   H14120019   1.949   1.714   3.425
  104MYC    C5620020   1.816   1.596   3.305
  104MYC   H14220021   1.733   1.669   3.304
  104MYC   H14320022   1.771   1.496   3.306
  104MYC    C5520023   1.901   1.615   3.177
  104MYC   H14420024   1.971   1.531   3.167
  104MYC   H14520025   1.960   1.706   3.187
  104MYC    C5420026   1.813   1.626   3.051
  104MYC   H14620027   1.741   1.708   3.067
  104MYC   H14720028   1.754   1.534   3.039
  104MYC    C5320029   1.892   1.653   2.922
  104MYC   H14820030   1.944   1.561   2.890
  104MYC   H14920031   1.970   1.728   2.941
  104MYC    C5220032   1.799   1.703   2.810
  104MYC    H9920033   1.750   1.795   2.844
  104MYC   H15020034   1.720   1.629   2.794
  104MYC    C5120035   1.870   1.731   2.675
  104MYC    H9720036   1.909   1.637   2.635
  104MYC    H9820037   1.954   1.799   2.691
  104MYC    C5020038   1.771   1.794   2.575
  104MYC    H9520039   1.736   1.890   2.614
  104MYC    H9620040   1.683   1.729   2.566
  104MYC    C4920041   1.830   1.816   2.434
  104MYC    H9320042   1.867   1.721   2.394
  104MYC    H9420043   1.915   1.885   2.440
  104MYC    C4820044   1.724   1.874   2.338
  104MYC    H9120045   1.692   1.972   2.375
  104MYC    H9220046   1.635   1.809   2.339
  104MYC    C4720047   1.772   1.888   2.192
  104MYC    H8920048   1.807   1.790   2.156
  104MYC    H9020049   1.858   1.956   2.189
  104MYC    C4620050   1.661   1.940   2.099
  104MYC    H8720051   1.627   2.038   2.134
  104MYC    H8820052   1.574   1.873   2.105
  104MYC    C4520053   1.706   1.952   1.952
  104MYC    H8520054   1.727   1.852   1.912
  104MYC    H8620055   1.800   2.009   1.948
  104MYC    C4420056   1.603   2.024   1.861
  104MYC    H8320057   1.653   2.054   1.769
  104MYC    H8420058   1.571   2.117   1.910
  104MYC    C1820059   1.479   1.941   1.827
  104MYC    H3120060   1.455   1.867   1.902
  104MYC    C1720061   1.362   2.006   1.757
  104MYC    H3020062   1.373   2.110   1.728
  104MYC    C1920063   1.448   1.907   1.683
  104MYC    H3220064   1.513   1.946   1.605
  104MYC    H3320065   1.406   1.809   1.662
  104MYC    C1620066   1.217   1.970   1.792
  104MYC    H2820067   1.213   1.868   1.832
  104MYC    H2920068   1.158   1.969   1.700
  104MYC    C1520069   1.149   2.066   1.892
  104MYC    H2620070   1.042   2.042   1.895
  104MYC    H2720071   1.156   2.168   1.853
  104MYC    C1420072   1.205   2.062   2.036
  104MYC    H2420073   1.163   2.148   2.090
  104MYC    H2520074   1.313   2.078   2.034
  104MYC    C1320075   1.173   1.933   2.115
  104MYC    H2220076   1.217   1.846   2.065
  104MYC    H2320077   1.064   1.916   2.115
  104MYC    C1220078   1.227   1.940   2.259
  104MYC    H2020079   1.202   2.038   2.303
  104MYC    H2120080   1.336   1.935   2.255
  104MYC    C1120081   1.174   1.831   2.355
  104MYC    H1820082   1.162   1.736   2.301
  104MYC    H1920083   1.074   1.858   2.390
  104MYC    C1020084   1.268   1.812   2.475
  104MYC    H1620085   1.283   1.909   2.524
  104MYC    H1720086   1.366   1.780   2.439
  104MYC     C920087   1.219   1.711   2.581
  104MYC    H1420088   1.209   1.611   2.535
  104MYC    H1520089   1.119   1.740   2.616
  104MYC     C820090   1.316   1.703   2.701
  104MYC    H1220091   1.330   1.804   2.741
  104MYC    H1320092   1.414   1.668   2.667
  104MYC     C720093   1.265   1.612   2.814
  104MYC    H1020094   1.261   1.508   2.779
  104MYC    H1120095   1.163   1.641   2.840
  104MYC     C620096   1.355   1.619   2.941
  104MYC     H820097   1.373   1.723   2.968
  104MYC     H920098   1.453   1.575   2.917
  104MYC     C520099   1.294   1.544   3.061
  104MYC     H620100   1.373   1.523   3.135
  104MYC     H720101   1.259   1.446   3.027
  104MYC     C420102   1.177   1.620   3.130
  104MYC     H420103   1.100   1.547   3.158
  104MYC     H520104   1.130   1.688   3.059
  104MYC     C220105   1.218   1.697   3.258
  104MYC     H220106   1.241   1.620   3.333
  104MYC     O320107   1.337   1.773   3.235
  104MYC     H320108   1.310   1.860   3.198
  104MYC     C120109   1.105   1.789   3.316
  104MYC     H120110   1.016   1.728   3.337
  104MYC    C8120111   1.057   1.900   3.219
  104MYC    O8220112   1.129   1.958   3.140
  104MYC    O8320113   0.935   1.949   3.250
  104MYC   H10520114   0.926   2.030   3.196
  104MYC    C2020115   1.141   1.849   3.454
  104MYC    H3420116   1.240   1.896   3.450
  104MYC    H3520117   1.070   1.928   3.480
  104MYC    C2120118   1.138   1.744   3.568
  104MYC    H3620119   1.035   1.709   3.581
  104MYC    H3720120   1.198   1.657   3.541
  104MYC    C2220121   1.189   1.799   3.702
  104MYC    H3820122   1.291   1.837   3.688
  104MYC    H3920123   1.127   1.883   3.734
  104MYC    C2320124   1.191   1.691   3.811
  104MYC    H4020125   1.089   1.654   3.827
  104MYC    H4120126   1.251   1.605   3.779
  104MYC    C2420127   1.247   1.744   3.944
  104MYC    H4220128   1.349   1.780   3.929
  104MYC    H4320129   1.187   1.831   3.974
  104MYC    C2520130   1.246   1.640   4.057
  104MYC    H4420131   1.147   1.593   4.064
  104MYC    H4520132   1.318   1.560   4.035
  104MYC    C2620133   1.280   1.705   4.192
  104MYC    H4620134   1.380   1.750   4.187
  104MYC    H4720135   1.209   1.788   4.209
  104MYC    C2720136   1.274   1.610   4.312
  104MYC    H4820137   1.183   1.548   4.308
  104MYC    H4920138   1.360   1.542   4.310
  104MYC    C2820139   1.274   1.690   4.444
  104MYC    H5020140   1.361   1.757   4.444
  104MYC    H5120141   1.185   1.754   4.445
  104MYC    C2920142   1.276   1.605   4.572
  104MYC    H5220143   1.193   1.534   4.571
  104MYC    H5320144   1.369   1.547   4.577
  104MYC    C3020145   1.266   1.698   4.695
  104MYC    H5420146   1.348   1.770   4.692
  104MYC    H5520147   1.173   1.755   4.687
  104MYC    C3120148   1.268   1.626   4.831
  104MYC    H5620149   1.189   1.550   4.834
  104MYC    H5720150   1.364   1.575   4.844
  104MYC    C3220151   1.245   1.728   4.943
  104MYC    H5820152   1.322   1.806   4.937
  104MYC    H5920153   1.149   1.778   4.927
  104MYC    C3320154   1.249   1.670   5.085
  104MYC    H6020155   1.191   1.576   5.089
  104MYC    H6120156   1.352   1.645   5.112
  104MYC    C3420157   1.190   1.769   5.187
  104MYC    H6220158   1.228   1.870   5.166
  104MYC    H6320159   1.081   1.773   5.174
  104MYC    C3520160   1.222   1.735   5.333
  104MYC    H6420161   1.201   1.629   5.352
  104MYC    H6520162   1.330   1.749   5.350
  104MYC    C3620163   1.143   1.822   5.433
  104MYC    H6620164   1.151   1.927   5.404
  104MYC    H6720165   1.037   1.795   5.427
  104MYC    C3720166   1.193   1.805   5.577
  104MYC    H6820167   1.194   1.698   5.603
  104MYC    H6920168   1.297   1.840   5.583
  104MYC    C3820169   1.108   1.880   5.681
  104MYC    H7020170   1.099   1.986   5.652
  104MYC    H7120171   1.006   1.838   5.682
  104MYC    C3920172   1.169   1.871   5.822
  104MYC    H7220173   1.179   1.765   5.849
  104MYC    H7320174   1.270   1.913   5.819
  104MYC    C4020175   1.088   1.943   5.931
  104MYC    H7420176   1.074   2.048   5.903
  104MYC    H7520177   0.988   1.898   5.937
  104MYC    C4120178   1.157   1.935   6.068
  104MYC    H7620179   1.174   1.829   6.093
  104MYC    H7720180   1.256   1.982   6.061
  104MYC    C4220181   1.078   2.002   6.182
  104MYC    H7820182   1.058   2.106   6.157
  104MYC    H7920183   0.981   1.952   6.193
  104MYC    C4320184   1.152   1.996   6.317
  104MYC    H8020185   1.090   2.037   6.397
  104MYC    H8120186   1.245   2.054   6.312
  104MYC    H8220187   1.178   1.892   6.343
  105MYC   HH1520188   1.649   2.706   6.157
  105MYC    C8020189   1.609   2.660   6.066
  105MYC   H10020190   1.644   2.557   6.062
  105MYC   H10120191   1.500   2.660   6.072
  105MYC    C7920192   1.657   2.737   5.942
  105MYC   H10220193   1.767   2.729   5.934
  105MYC   H10320194   1.634   2.844   5.954
  105MYC    C7820195   1.593   2.687   5.811
  105MYC   HH1420196   1.484   2.697   5.819
  105MYC   H10420197   1.614   2.580   5.799
  105MYC    C7720198   1.642   2.762   5.686
  105MYC   H10620199   1.750   2.751   5.676
  105MYC   H10720200   1.621   2.869   5.697
  105MYC    C7620201   1.574   2.711   5.557
  105MYC   H10820202   1.465   2.723   5.567
  105MYC   H10920203   1.593   2.604   5.547
  105MYC    C7520204   1.622   2.783   5.429
  105MYC   H11020205   1.730   2.768   5.418
  105MYC   H11120206   1.605   2.891   5.439
  105MYC    C7420207   1.548   2.732   5.304
  105MYC   H11220208   1.443   2.762   5.309
  105MYC   H11320209   1.549   2.622   5.304
  105MYC    C7320210   1.610   2.781   5.172
  105MYC   HH1320211   1.713   2.744   5.165
  105MYC   H11420212   1.615   2.891   5.172
  105MYC    C7220213   1.530   2.734   5.049
  105MYC   H11520214   1.432   2.785   5.050
  105MYC   H11620215   1.510   2.626   5.057
  105MYC    C7120216   1.602   2.762   4.916
  105MYC   H11720217   1.691   2.699   4.910
  105MYC   H11820218   1.635   2.867   4.915
  105MYC    C7020219   1.512   2.737   4.794
  105MYC   H11920220   1.424   2.802   4.801
  105MYC   H12020221   1.475   2.633   4.796
  105MYC    C6920222   1.585   2.762   4.661
  105MYC   H12120223   1.655   2.680   4.642
  105MYC   H12220224   1.644   2.854   4.670
  105MYC    C6820225   1.488   2.777   4.542
  105MYC   HH1220226   1.420   2.861   4.562
  105MYC   H12320227   1.427   2.687   4.533
  105MYC    C6720228   1.562   2.803   4.410
  105MYC   H12420229   1.617   2.712   4.381
  105MYC   H12520230   1.637   2.881   4.425
  105MYC    C6620231   1.468   2.845   4.296
  105MYC   H12620232   1.414   2.936   4.326
  105MYC   H12720233   1.394   2.767   4.279
  105MYC    C6520234   1.545   2.873   4.166
  105MYC   H12820235   1.598   2.782   4.136
  105MYC   H12920236   1.622   2.949   4.185
  105MYC    C6420237   1.455   2.920   4.051
  105MYC   H13020238   1.407   3.015   4.079
  105MYC   H13120239   1.375   2.846   4.035
  105MYC    C6320240   1.535   2.939   3.921
  105MYC   HH1120241   1.584   2.844   3.896
  105MYC   H13220242   1.614   3.013   3.938
  105MYC    C6220243   1.449   2.984   3.802
  105MYC   H13320244   1.413   3.086   3.820
  105MYC   H13420245   1.361   2.919   3.794
  105MYC    C6120246   1.528   2.979   3.671
  105MYC   H13520247   1.560   2.875   3.653
  105MYC   H13620248   1.620   3.038   3.681
  105MYC    C6020249   1.449   3.031   3.552
  105MYC   H13720250   1.435   3.138   3.555
  105MYC    C5820251   1.469   2.967   3.417
  105MYC   H13820252   1.532   2.878   3.413
  105MYC    C5920253   1.338   2.951   3.489
  105MYC   H13920254   1.252   3.005   3.450
  105MYC   H14020255   1.315   2.853   3.531
  105MYC    C5720256   1.484   3.053   3.293
  105MYC   HH1020257   1.590   3.078   3.281
  105MYC   H14120258   1.431   3.148   3.305
  105MYC    C5620259   1.433   2.981   3.168
  105MYC   H14220260   1.323   2.980   3.168
  105MYC   H14320261   1.466   2.876   3.170
  105MYC    C5520262   1.484   3.045   3.038
  105MYC   H14420263   1.594   3.045   3.039
  105MYC   H14520264   1.452   3.149   3.032
  105MYC    C5420265   1.436   2.968   2.914
  105MYC   H14620266   1.329   2.985   2.901
  105MYC   H14720267   1.450   2.860   2.929
  105MYC    C5320268   1.509   3.010   2.785
  105MYC   H14820269   1.617   3.004   2.801
  105MYC   H14920270   1.485   3.114   2.762
  105MYC    C5220271   1.472   2.919   2.666
  105MYC    H9920272   1.363   2.922   2.652
  105MYC   H15020273   1.499   2.816   2.689
  105MYC    C5120274   1.541   2.963   2.536
  105MYC    H9720275   1.649   2.966   2.551
  105MYC    H9820276   1.508   3.064   2.512
  105MYC    C5020277   1.509   2.869   2.419
  105MYC    H9520278   1.400   2.855   2.412
  105MYC    H9620279   1.553   2.770   2.437
  105MYC    C4920280   1.560   2.926   2.286
  105MYC    H9320281   1.669   2.939   2.291
  105MYC    H9420282   1.516   3.025   2.271
  105MYC    C4820283   1.526   2.837   2.165
  105MYC    H9120284   1.419   2.811   2.170
  105MYC    H9220285   1.583   2.744   2.170
  105MYC    C4720286   1.552   2.910   2.033
  105MYC    H8920287   1.654   2.948   2.031
  105MYC    H9020288   1.484   2.996   2.028
  105MYC    C4620289   1.531   2.823   1.908
  105MYC    H8720290   1.435   2.770   1.915
  105MYC    H8820291   1.610   2.747   1.905
  105MYC    C4520292   1.531   2.906   1.779
  105MYC    H8520293   1.619   2.973   1.779
  105MYC    H8620294   1.442   2.970   1.779
  105MYC    C4420295   1.532   2.821   1.651
  105MYC    H8320296   1.515   2.888   1.566
  105MYC    H8420297   1.447   2.752   1.654
  105MYC    C1820298   1.662   2.745   1.631
  105MYC    H3120299   1.747   2.792   1.680
  105MYC    C1720300   1.666   2.595   1.617
  105MYC    H3020301   1.571   2.543   1.622
  105MYC    C1920302   1.689   2.683   1.497
  105MYC    H3220303   1.610   2.689   1.423
  105MYC    H3320304   1.790   2.691   1.457
  105MYC    C1620305   1.782   2.511   1.670
  105MYC    H2820306   1.860   2.576   1.712
  105MYC    H2920307   1.829   2.458   1.587
  105MYC    C1520308   1.742   2.406   1.777
  105MYC    H2620309   1.832   2.347   1.798
  105MYC    H2720310   1.669   2.337   1.734
  105MYC    C1420311   1.687   2.466   1.909
  105MYC    H2420312   1.586   2.506   1.891
  105MYC    H2520313   1.749   2.550   1.939
  105MYC    C1320314   1.680   2.361   2.023
  105MYC    H2220315   1.752   2.281   2.003
  105MYC    H2320316   1.580   2.315   2.022
  105MYC    C1220317   1.709   2.417   2.164
  105MYC    H2020318   1.635   2.494   2.190
  105MYC    H2120319   1.807   2.466   2.165
  105MYC    C1120320   1.710   2.306   2.273
  105MYC    H1820321   1.778   2.336   2.354
  105MYC    H1920322   1.754   2.215   2.231
  105MYC    C1020323   1.570   2.276   2.331
  105MYC    H1620324   1.561   2.168   2.350
  105MYC    H1720325   1.494   2.299   2.256
  105MYC     C920326   1.542   2.353   2.461
  105MYC    H1420327   1.435   2.376   2.468
  105MYC    H1520328   1.593   2.450   2.459
  105MYC     C820329   1.583   2.273   2.587
  105MYC    H1220330   1.676   2.218   2.567
  105MYC    H1320331   1.505   2.198   2.606
  105MYC     C720332   1.603   2.358   2.714
  105MYC    H1020333   1.523   2.432   2.723
  105MYC    H1120334   1.697   2.414   2.704
  105MYC     C620335   1.607   2.271   2.841
  105MYC     H820336   1.666   2.181   2.823
  105MYC     H920337   1.505   2.238   2.862
  105MYC     C520338   1.666   2.344   2.964
  105MYC     H620339   1.627   2.447   2.969
  105MYC     H720340   1.774   2.353   2.949
  105MYC     C420341   1.639   2.272   3.098
  105MYC     H420342   1.725   2.292   3.163
  105MYC     H520343   1.636   2.164   3.083
  105MYC     C220344   1.511   2.321   3.172
  105MYC     H220345   1.520   2.430   3.181
  105MYC     O320346   1.395   2.291   3.094
  105MYC     H320347   1.365   2.202   3.118
  105MYC     C120348   1.496   2.263   3.315
  105MYC     H120349   1.593   2.278   3.364
  105MYC    C8120350   1.468   2.111   3.313
  105MYC    O8220351   1.366   2.062   3.269
  105MYC    O8320352   1.564   2.033   3.368
  105MYC   H10520353   1.530   1.942   3.361
  105MYC    C2020354   1.389   2.339   3.398
  105MYC    H3420355   1.387   2.444   3.365
  105MYC    H3520356   1.288   2.299   3.378
  105MYC    C2120357   1.417   2.341   3.550
  105MYC    H3620358   1.522   2.367   3.565
  105MYC    H3720359   1.360   2.423   3.595
  105MYC    C2220360   1.383   2.212   3.628
  105MYC    H3820361   1.278   2.217   3.660
  105MYC    H3920362   1.391   2.123   3.565
  105MYC    C2320363   1.475   2.195   3.751
  105MYC    H4020364   1.568   2.145   3.719
  105MYC    H4120365   1.504   2.294   3.787
  105MYC    C2420366   1.413   2.117   3.868
  105MYC    H4220367   1.315   2.160   3.891
  105MYC    H4320368   1.398   2.012   3.841
  105MYC    C2520369   1.502   2.127   3.994
  105MYC    H4420370   1.594   2.069   3.979
  105MYC    H4520371   1.533   2.231   4.008
  105MYC    C2620372   1.432   2.079   4.123
  105MYC    H4620373   1.331   2.122   4.127
  105MYC    H4720374   1.422   1.970   4.120
  105MYC    C2720375   1.509   2.122   4.250
  105MYC    H4820376   1.611   2.082   4.247
  105MYC    H4920377   1.517   2.231   4.251
  105MYC    C2820378   1.440   2.076   4.379
  105MYC    H5020379   1.333   2.103   4.376
  105MYC    H5120380   1.445   1.967   4.386
  105MYC    C2920381   1.502   2.138   4.506
  105MYC    H5220382   1.610   2.117   4.507
  105MYC    H5320383   1.492   2.247   4.501
  105MYC    C3020384   1.438   2.087   4.635
  105MYC    H5420385   1.329   2.103   4.631
  105MYC    H5520386   1.454   1.978   4.642
  105MYC    C3120387   1.494   2.155   4.762
  105MYC    H5620388   1.603   2.141   4.765
  105MYC    H5720389   1.475   2.263   4.756
  105MYC    C3220390   1.432   2.099   4.891
  105MYC    H5820391   1.323   2.113   4.889
  105MYC    H5920392   1.450   1.991   4.895
  105MYC    C3320393   1.490   2.164   5.018
  105MYC    H6020394   1.598   2.147   5.021
  105MYC    H6120395   1.474   2.273   5.013
  105MYC    C3420396   1.426   2.110   5.147
  105MYC    H6220397   1.319   2.133   5.147
  105MYC    H6320398   1.436   2.001   5.150
  105MYC    C3520399   1.491   2.170   5.273
  105MYC    H6420400   1.597   2.141   5.276
  105MYC    H6520401   1.489   2.279   5.266
  105MYC    C3620402   1.423   2.127   5.405
  105MYC    H6620403   1.318   2.158   5.403
  105MYC    H6720404   1.424   2.017   5.413
  105MYC    C3720405   1.493   2.188   5.527
  105MYC    H6820406   1.596   2.148   5.533
  105MYC    H6920407   1.502   2.296   5.513
  105MYC    C3820408   1.421   2.161   5.661
  105MYC    H7020409   1.318   2.198   5.654
  105MYC    H7120410   1.416   2.053   5.678
  105MYC    C3920411   1.493   2.229   5.778
  105MYC    H7220412   1.596   2.193   5.783
  105MYC    H7320413   1.497   2.337   5.759
  105MYC    C4020414   1.426   2.205   5.915
  105MYC    H7420415   1.321   2.234   5.910
  105MYC    H7520416   1.430   2.098   5.938
  105MYC    C4120417   1.496   2.284   6.027
  105MYC    H7620418   1.603   2.261   6.026
  105MYC    H7720419   1.486   2.391   6.006
  105MYC    C4220420   1.441   2.256   6.168
  105MYC    H7820421   1.337   2.291   6.175
  105MYC    H7920422   1.439   2.148   6.186
  105MYC    C4320423   1.524   2.324   6.279
  105MYC    H8020424   1.479   2.304   6.378
  105MYC    H8120425   1.528   2.432   6.264
  105MYC    H8220426   1.626   2.284   6.280
  106MYC   HH1520427   2.038   3.590   6.223
  106MYC    C8020428   1.940   3.565   6.179
  106MYC   H10020429   1.914   3.463   6.210
  106MYC   H10120430   1.865   3.634   6.220
  106MYC    C7920431   1.946   3.575   6.026
  106MYC   H10220432   2.022   3.505   5.989
  106MYC   H10320433   1.978   3.675   5.996
  106MYC    C7820434   1.811   3.542   5.958
  106MYC   HH1420435   1.740   3.624   5.977
  106MYC   H10420436   1.769   3.452   6.004
  106MYC    C7720437   1.824   3.519   5.806
  106MYC   H10620438   1.893   3.435   5.789
  106MYC   H10720439   1.868   3.607   5.758
  106MYC    C7620440   1.688   3.486   5.740
  106MYC   H10820441   1.631   3.579   5.728
  106MYC   H10920442   1.630   3.421   5.806
  106MYC    C7520443   1.703   3.417   5.603
  106MYC   H11020444   1.760   3.324   5.616
  106MYC   H11120445   1.760   3.481   5.536
  106MYC    C7420446   1.566   3.383   5.540
  106MYC   H11220447   1.512   3.476   5.517
  106MYC   H11320448   1.505   3.328   5.613
  106MYC    C7320449   1.575   3.297   5.412
  106MYC   HH1320450   1.474   3.273   5.379
  106MYC   H11420451   1.623   3.201   5.436
  106MYC    C7220452   1.652   3.365   5.296
  106MYC   H11520453   1.758   3.375   5.323
  106MYC   H11620454   1.612   3.466   5.282
  106MYC    C7120455   1.640   3.287   5.164
  106MYC   H11720456   1.534   3.277   5.138
  106MYC   H11820457   1.679   3.185   5.178
  106MYC    C7020458   1.715   3.355   5.048
  106MYC   H11920459   1.823   3.352   5.067
  106MYC   H12020460   1.686   3.461   5.044
  106MYC    C6920461   1.683   3.289   4.913
  106MYC   H12120462   1.575   3.297   4.895
  106MYC   H12220463   1.706   3.182   4.918
  106MYC    C6820464   1.759   3.353   4.795
  106MYC   HH1220465   1.865   3.326   4.801
  106MYC   H12320466   1.752   3.462   4.803
  106MYC    C6720467   1.701   3.308   4.660
  106MYC   H12420468   1.596   3.340   4.655
  106MYC   H12520469   1.702   3.199   4.653
  106MYC    C6620470   1.777   3.367   4.540
  106MYC   H12620471   1.878   3.324   4.535
  106MYC   H12720472   1.789   3.475   4.555
  106MYC    C6520473   1.703   3.344   4.408
  106MYC   H12820474   1.602   3.386   4.416
  106MYC   H12920475   1.691   3.236   4.389
  106MYC    C6420476   1.774   3.409   4.288
  106MYC   H13020477   1.860   3.347   4.259
  106MYC   H13120478   1.813   3.507   4.318
  106MYC    C6320479   1.681   3.429   4.167
  106MYC   HH1120480   1.595   3.490   4.198
  106MYC   H13220481   1.642   3.332   4.134
  106MYC    C6220482   1.752   3.498   4.051
  106MYC   H13320483   1.829   3.431   4.010
  106MYC   H13420484   1.804   3.588   4.087
  106MYC    C6120485   1.656   3.540   3.938
  106MYC   H13520486   1.581   3.609   3.978
  106MYC   H13620487   1.601   3.451   3.904
  106MYC    C6020488   1.729   3.603   3.821
  106MYC   H13720489   1.836   3.582   3.821
  106MYC    C5820490   1.661   3.605   3.687
  106MYC   H13820491   1.558   3.571   3.684
  106MYC    C5920492   1.686   3.734   3.759
  106MYC   H13920493   1.763   3.800   3.720
  106MYC   H14020494   1.599   3.785   3.800
  106MYC    C5720495   1.740   3.562   3.565
  106MYC   HH1020496   1.738   3.453   3.560
  106MYC   H14120497   1.846   3.591   3.575
  106MYC    C5620498   1.684   3.621   3.435
  106MYC   H14220499   1.714   3.725   3.425
  106MYC   H14320500   1.574   3.619   3.438
  106MYC    C5520501   1.731   3.540   3.313
  106MYC   H14420502   1.703   3.435   3.328
  106MYC   H14520503   1.840   3.544   3.306
  106MYC    C5420504   1.669   3.588   3.181
  106MYC   H14620505   1.709   3.687   3.155
  106MYC   H14720506   1.560   3.599   3.192
  106MYC    C5320507   1.698   3.488   3.068
  106MYC   H14820508   1.658   3.390   3.095
  106MYC   H14920509   1.807   3.476   3.058
  106MYC    C5220510   1.640   3.530   2.933
  106MYC    H9920511   1.683   3.627   2.905
  106MYC   H15020512   1.531   3.543   2.941
  106MYC    C5120513   1.673   3.427   2.824
  106MYC    H9720514   1.630   3.330   2.851
  106MYC    H9820515   1.782   3.415   2.819
  106MYC    C5020516   1.622   3.467   2.684
  106MYC    H9520517   1.661   3.566   2.659
  106MYC    H9620518   1.512   3.474   2.685
  106MYC    C4920519   1.667   3.366   2.578
  106MYC    H9320520   1.623   3.268   2.600
  106MYC    H9420521   1.776   3.354   2.585
  106MYC    C4820522   1.632   3.407   2.434
  106MYC    H9120523   1.671   3.507   2.415
  106MYC    H9220524   1.523   3.410   2.422
  106MYC    C4720525   1.693   3.309   2.333
  106MYC    H8920526   1.653   3.208   2.351
  106MYC    H9020527   1.801   3.304   2.350
  106MYC    C4620528   1.668   3.346   2.185
  106MYC    H8720529   1.696   3.451   2.168
  106MYC    H8820530   1.561   3.337   2.163
  106MYC    C4520531   1.750   3.255   2.092
  106MYC    H8520532   1.724   3.151   2.113
  106MYC    H8620533   1.856   3.267   2.118
  106MYC    C4420534   1.735   3.282   1.941
  106MYC    H8320535   1.799   3.211   1.887
  106MYC    H8420536   1.775   3.382   1.918
  106MYC    C1820537   1.592   3.269   1.889
  106MYC    H3120538   1.531   3.205   1.952
  106MYC    C1720539   1.525   3.385   1.819
  106MYC    H3020540   1.584   3.473   1.796
  106MYC    C1920541   1.563   3.262   1.742
  106MYC    H3220542   1.647   3.271   1.674
  106MYC    H3320543   1.483   3.197   1.708
  106MYC    C1620544   1.380   3.417   1.852
  106MYC    H2820545   1.340   3.345   1.924
  106MYC    H2920546   1.319   3.406   1.761
  106MYC    C1520547   1.360   3.560   1.906
  106MYC    H2620548   1.255   3.575   1.930
  106MYC    H2720549   1.383   3.630   1.825
  106MYC    C1420550   1.447   3.595   2.030
  106MYC    H2420551   1.552   3.572   2.010
  106MYC    H2520552   1.416   3.535   2.116
  106MYC    C1320553   1.437   3.745   2.065
  106MYC    H2220554   1.336   3.768   2.101
  106MYC    H2320555   1.450   3.804   1.974
  106MYC    C1220556   1.541   3.795   2.167
  106MYC    H2020557   1.549   3.904   2.155
  106MYC    H2120558   1.640   3.754   2.144
  106MYC    C1120559   1.507   3.764   2.314
  106MYC    H1820560   1.520   3.657   2.334
  106MYC    H1920561   1.401   3.785   2.332
  106MYC    C1020562   1.594   3.848   2.411
  106MYC    H1620563   1.598   3.952   2.375
  106MYC    H1720564   1.696   3.809   2.408
  106MYC     C920565   1.543   3.850   2.556
  106MYC    H1420566   1.542   3.748   2.596
  106MYC    H1520567   1.440   3.887   2.558
  106MYC     C820568   1.630   3.941   2.646
  106MYC    H1220569   1.615   4.046   2.617
  106MYC    H1320570   1.736   3.918   2.628
  106MYC     C720571   1.603   3.924   2.797
  106MYC    H1020572   1.680   3.980   2.852
  106MYC    H1120573   1.616   3.819   2.823
  106MYC     C620574   1.464   3.971   2.845
  106MYC     H820575   1.385   3.924   2.786
  106MYC     H920576   1.457   4.079   2.829
  106MYC     C520577   1.442   3.939   2.994
  106MYC     H620578   1.531   3.970   3.050
  106MYC     H720579   1.433   3.830   3.007
  106MYC     C420580   1.317   4.007   3.053
  106MYC     H420581   1.227   3.960   3.012
  106MYC     H520582   1.316   4.111   3.019
  106MYC     C220583   1.310   4.005   3.208
  106MYC     H220584   1.313   3.901   3.241
  106MYC     O320585   1.424   4.073   3.260
  106MYC     H320586   1.501   4.047   3.206
  106MYC     C120587   1.180   4.069   3.265
  106MYC     H120588   1.101   3.996   3.248
  106MYC    C8120589   1.137   4.197   3.189
  106MYC    O8220590   1.035   4.205   3.124
  106MYC    O8320591   1.217   4.304   3.210
  106MYC   H10520592   1.173   4.378   3.164
  106MYC    C2020593   1.181   4.101   3.418
  106MYC    H3420594   1.262   4.172   3.439
  106MYC    H3520595   1.088   4.154   3.441
  106MYC    C2120596   1.193   3.983   3.516
  106MYC    H3620597   1.115   3.909   3.495
  106MYC    H3720598   1.290   3.933   3.504
  106MYC    C2220599   1.179   4.036   3.660
  106MYC    H3820600   1.258   4.109   3.678
  106MYC    H3920601   1.084   4.091   3.667
  106MYC    C2320602   1.181   3.932   3.772
  106MYC    H4020603   1.105   3.855   3.754
  106MYC    H4120604   1.279   3.882   3.774
  106MYC    C2420605   1.154   4.000   3.908
  106MYC    H4220606   1.225   4.083   3.921
  106MYC    H4320607   1.054   4.044   3.907
  106MYC    C2520608   1.166   3.906   4.029
  106MYC    H4420609   1.097   3.822   4.017
  106MYC    H4520610   1.268   3.865   4.032
  106MYC    C2620611   1.136   3.978   4.161
  106MYC    H4620612   1.196   4.070   4.168
  106MYC    H4720613   1.031   4.009   4.163
  106MYC    C2720614   1.167   3.890   4.283
  106MYC    H4820615   1.113   3.795   4.273
  106MYC    H4920616   1.274   3.867   4.284
  106MYC    C2820617   1.128   3.956   4.417
  106MYC    H5020618   1.171   4.056   4.423
  106MYC    H5120619   1.019   3.967   4.421
  106MYC    C2920620   1.177   3.872   4.536
  106MYC    H5220621   1.142   3.769   4.525
  106MYC    H5320622   1.287   3.869   4.534
  106MYC    C3020623   1.130   3.927   4.671
  106MYC    H5420624   1.158   4.033   4.679
  106MYC    H5520625   1.021   3.922   4.677
  106MYC    C3120626   1.192   3.850   4.789
  106MYC    H5620627   1.162   3.745   4.784
  106MYC    H5720628   1.301   3.854   4.781
  106MYC    C3220629   1.150   3.909   4.925
  106MYC    H5820630   1.173   4.016   4.926
  106MYC    H5920631   1.041   3.899   4.937
  106MYC    C3320632   1.221   3.841   5.043
  106MYC    H6020633   1.190   3.736   5.050
  106MYC    H6120634   1.329   3.841   5.025
  106MYC    C3420635   1.193   3.914   5.175
  106MYC    H6220636   1.222   4.019   5.165
  106MYC    H6320637   1.085   3.912   5.195
  106MYC    C3520638   1.268   3.853   5.295
  106MYC    H6420639   1.234   3.749   5.310
  106MYC    H6520640   1.375   3.849   5.272
  106MYC    C3620641   1.246   3.934   5.424
  106MYC    H6620642   1.286   4.035   5.408
  106MYC    H6720643   1.139   3.944   5.443
  106MYC    C3720644   1.313   3.871   5.546
  106MYC    H6820645   1.267   3.773   5.565
  106MYC    H6920646   1.419   3.852   5.524
  106MYC    C3820647   1.303   3.958   5.672
  106MYC    H7020648   1.366   4.047   5.659
  106MYC    H7120649   1.200   3.994   5.685
  106MYC    C3920650   1.346   3.883   5.799
  106MYC    H7220651   1.278   3.798   5.815
  106MYC    H7320652   1.446   3.840   5.783
  106MYC    C4020653   1.348   3.970   5.926
  106MYC    H7420654   1.420   4.052   5.913
  106MYC    H7520655   1.250   4.016   5.941
  106MYC    C4120656   1.386   3.888   6.051
  106MYC    H7620657   1.313   3.806   6.063
  106MYC    H7720658   1.484   3.841   6.035
  106MYC    C4220659   1.389   3.970   6.181
  106MYC    H7820660   1.462   4.052   6.171
  106MYC    H7920661   1.291   4.016   6.198
  106MYC    C4320662   1.427   3.885   6.304
  106MYC    H8020663   1.427   3.946   6.395
  106MYC    H8120664   1.526   3.840   6.291
  106MYC    H8220665   1.354   3.803   6.318
  107MYC   HH1520666   1.348   4.460   6.327
  107MYC    C8020667   1.308   4.398   6.246
  107MYC   H10020668   1.353   4.298   6.253
  107MYC   H10120669   1.200   4.389   6.260
  107MYC    C7920670   1.340   4.463   6.109
  107MYC   H10220671   1.448   4.478   6.101
  107MYC   H10320672   1.293   4.562   6.105
  107MYC    C7820673   1.291   4.378   5.990
  107MYC   HH1420674   1.184   4.358   6.001
  107MYC   H10420675   1.342   4.280   5.993
  107MYC    C7720676   1.318   4.445   5.854
  107MYC   H10620677   1.424   4.469   5.846
  107MYC   H10720678   1.263   4.540   5.849
  107MYC    C7620679   1.277   4.357   5.734
  107MYC   H10820680   1.170   4.330   5.743
  107MYC   H10920681   1.334   4.263   5.739
  107MYC    C7520682   1.301   4.425   5.598
  107MYC   H11020683   1.406   4.459   5.594
  107MYC   H11120684   1.238   4.514   5.590
  107MYC    C7420685   1.274   4.332   5.478
  107MYC   H11220686   1.171   4.296   5.482
  107MYC   H11320687   1.340   4.244   5.486
  107MYC    C7320688   1.300   4.402   5.343
  107MYC   HH1320689   1.402   4.440   5.342
  107MYC   H11420690   1.233   4.488   5.334
  107MYC    C7220691   1.280   4.310   5.220
  107MYC   H11520692   1.177   4.274   5.218
  107MYC   H11620693   1.346   4.223   5.229
  107MYC    C7120694   1.312   4.384   5.089
  107MYC   H11720695   1.416   4.419   5.092
  107MYC   H11820696   1.249   4.474   5.083
  107MYC    C7020697   1.291   4.300   4.961
  107MYC   H11920698   1.186   4.268   4.955
  107MYC   H12020699   1.353   4.210   4.965
  107MYC    C6920700   1.327   4.382   4.835
  107MYC   H12120701   1.434   4.406   4.837
  107MYC   H12220702   1.273   4.477   4.838
  107MYC    C6820703   1.293   4.312   4.702
  107MYC   HH1220704   1.185   4.291   4.699
  107MYC   H12320705   1.345   4.216   4.695
  107MYC    C6720706   1.331   4.400   4.581
  107MYC   H12420707   1.440   4.408   4.575
  107MYC   H12520708   1.293   4.502   4.598
  107MYC    C6620709   1.276   4.350   4.446
  107MYC   H12620710   1.168   4.338   4.453
  107MYC   H12720711   1.319   4.252   4.422
  107MYC    C6520712   1.308   4.449   4.332
  107MYC   H12820713   1.417   4.455   4.319
  107MYC   H12920714   1.275   4.549   4.361
  107MYC    C6420715   1.243   4.414   4.197
  107MYC   H13020716   1.134   4.405   4.211
  107MYC   H13120717   1.279   4.316   4.163
  107MYC    C6320718   1.272   4.521   4.090
  107MYC   HH1120719   1.380   4.530   4.078
  107MYC   H13220720   1.235   4.618   4.125
  107MYC    C6220721   1.209   4.491   3.952
  107MYC   H13320722   1.101   4.476   3.964
  107MYC   H13420723   1.250   4.397   3.914
  107MYC    C6120724   1.235   4.604   3.851
  107MYC   H13520725   1.341   4.631   3.855
  107MYC   H13620726   1.179   4.693   3.882
  107MYC    C6020727   1.196   4.567   3.709
  107MYC   H13720728   1.092   4.540   3.699
  107MYC    C5820729   1.261   4.637   3.592
  107MYC   H13820730   1.339   4.710   3.614
  107MYC    C5920731   1.293   4.492   3.620
  107MYC   H13920732   1.252   4.417   3.554
  107MYC   H14020733   1.392   4.470   3.660
  107MYC    C5720734   1.180   4.674   3.468
  107MYC   HH1020735   1.136   4.774   3.480
  107MYC   H14120736   1.097   4.604   3.457
  107MYC    C5620737   1.267   4.672   3.340
  107MYC   H14220738   1.344   4.595   3.349
  107MYC   H14320739   1.319   4.768   3.329
  107MYC    C5520740   1.184   4.643   3.213
  107MYC   H14420741   1.113   4.724   3.195
  107MYC   H14520742   1.124   4.553   3.232
  107MYC    C5420743   1.270   4.619   3.088
  107MYC   H14620744   1.349   4.546   3.110
  107MYC   H14720745   1.320   4.713   3.059
  107MYC    C5320746   1.186   4.567   2.970
  107MYC   H14820747   1.109   4.642   2.944
  107MYC   H14920748   1.132   4.477   3.002
  107MYC    C5220749   1.268   4.533   2.844
  107MYC    H9920750   1.340   4.454   2.869
  107MYC   H15020751   1.326   4.621   2.813
  107MYC    C5120752   1.178   4.487   2.728
  107MYC    H9720753   1.111   4.569   2.701
  107MYC    H9820754   1.114   4.404   2.762
  107MYC    C5020755   1.255   4.441   2.604
  107MYC    H9520756   1.311   4.349   2.628
  107MYC    H9620757   1.329   4.517   2.576
  107MYC    C4920758   1.163   4.415   2.483
  107MYC    H9320759   1.116   4.510   2.453
  107MYC    H9420760   1.081   4.348   2.514
  107MYC    C4820761   1.236   4.353   2.362
  107MYC    H9120762   1.271   4.253   2.390
  107MYC    H9220763   1.324   4.413   2.339
  107MYC    C4720764   1.146   4.344   2.237
  107MYC    H8920765   1.120   4.445   2.204
  107MYC    H9020766   1.051   4.295   2.265
  107MYC    C4620767   1.208   4.266   2.119
  107MYC    H8720768   1.228   4.163   2.150
  107MYC    H8820769   1.305   4.311   2.091
  107MYC    C4520770   1.115   4.265   1.996
  107MYC    H8520771   1.104   4.367   1.957
  107MYC    H8620772   1.015   4.235   2.030
  107MYC    C4420773   1.156   4.169   1.883
  107MYC    H8320774   1.067   4.149   1.822
  107MYC    H8420775   1.186   4.072   1.925
  107MYC    C1820776   1.265   4.222   1.790
  107MYC    H3120777   1.256   4.329   1.771
  107MYC    C1720778   1.404   4.162   1.784
  107MYC    H3020779   1.425   4.078   1.850
  107MYC    C1920780   1.305   4.137   1.673
  107MYC    H3220781   1.263   4.038   1.664
  107MYC    H3320782   1.321   4.188   1.578
  107MYC    C1620783   1.527   4.247   1.753
  107MYC    H2820784   1.501   4.354   1.759
  107MYC    H2920785   1.556   4.230   1.649
  107MYC    C1520786   1.650   4.220   1.841
  107MYC    H2620787   1.733   4.279   1.800
  107MYC    H2720788   1.680   4.114   1.834
  107MYC    C1420789   1.635   4.259   1.989
  107MYC    H2420790   1.571   4.186   2.041
  107MYC    H2520791   1.584   4.356   1.993
  107MYC    C1320792   1.772   4.270   2.059
  107MYC    H2220793   1.841   4.327   1.995
  107MYC    H2320794   1.816   4.170   2.071
  107MYC    C1220795   1.763   4.339   2.195
  107MYC    H2020796   1.701   4.278   2.261
  107MYC    H2120797   1.710   4.434   2.183
  107MYC    C1120798   1.901   4.370   2.258
  107MYC    H1820799   1.906   4.478   2.278
  107MYC    H1920800   1.982   4.350   2.186
  107MYC    C1020801   1.930   4.295   2.389
  107MYC    H1620802   2.032   4.318   2.422
  107MYC    H1720803   1.926   4.187   2.371
  107MYC     C920804   1.831   4.333   2.501
  107MYC    H1420805   1.732   4.291   2.479
  107MYC    H1520806   1.820   4.442   2.503
  107MYC     C820807   1.872   4.286   2.642
  107MYC    H1220808   1.966   4.336   2.670
  107MYC    H1320809   1.891   4.178   2.642
  107MYC     C720810   1.761   4.320   2.744
  107MYC    H1020811   1.682   4.245   2.737
  107MYC    H1120812   1.715   4.416   2.716
  107MYC     C620813   1.810   4.330   2.889
  107MYC     H820814   1.895   4.400   2.893
  107MYC     H920815   1.848   4.232   2.921
  107MYC     C520816   1.699   4.380   2.982
  107MYC     H620817   1.611   4.315   2.975
  107MYC     H720818   1.666   4.479   2.948
  107MYC     C420819   1.743   4.392   3.130
  107MYC     H420820   1.693   4.479   3.173
  107MYC     H520821   1.851   4.413   3.134
  107MYC     C220822   1.708   4.270   3.217
  107MYC     H220823   1.598   4.266   3.222
  107MYC     O320824   1.755   4.148   3.158
  107MYC     H320825   1.853   4.149   3.164
  107MYC     C120826   1.760   4.284   3.363
  107MYC     H120827   1.720   4.378   3.403
  107MYC    C8120828   1.915   4.293   3.372
  107MYC    O8220829   1.991   4.222   3.309
  107MYC    O8320830   1.960   4.366   3.476
  107MYC   H10520831   2.056   4.353   3.478
  107MYC    C2020832   1.706   4.172   3.455
  107MYC    H3420833   1.612   4.133   3.415
  107MYC    H3520834   1.776   4.087   3.457
  107MYC    C2120835   1.677   4.220   3.599
  107MYC    H3620836   1.769   4.260   3.643
  107MYC    H3720837   1.604   4.302   3.595
  107MYC    C2220838   1.622   4.108   3.689
  107MYC    H3820839   1.531   4.066   3.646
  107MYC    H3920840   1.696   4.028   3.694
  107MYC    C2320841   1.593   4.160   3.831
  107MYC    H4020842   1.679   4.218   3.866
  107MYC    H4120843   1.507   4.229   3.828
  107MYC    C2420844   1.565   4.048   3.933
  107MYC    H4220845   1.479   3.988   3.901
  107MYC    H4320846   1.653   3.981   3.935
  107MYC    C2520847   1.540   4.104   4.074
  107MYC    H4420848   1.602   4.193   4.088
  107MYC    H4520849   1.435   4.136   4.082
  107MYC    C2620850   1.573   4.004   4.187
  107MYC    H4620851   1.509   3.915   4.178
  107MYC    H4720852   1.677   3.971   4.175
  107MYC    C2720853   1.554   4.069   4.325
  107MYC    H4820854   1.584   4.174   4.319
  107MYC    H4920855   1.448   4.068   4.351
  107MYC    C2820856   1.636   4.002   4.438
  107MYC    H5020857   1.597   3.902   4.458
  107MYC    H5120858   1.740   3.992   4.407
  107MYC    C2920859   1.630   4.088   4.566
  107MYC    H5220860   1.662   4.190   4.542
  107MYC    H5320861   1.525   4.095   4.599
  107MYC    C3020862   1.716   4.036   4.683
  107MYC    H5420863   1.682   3.935   4.711
  107MYC    H5520864   1.820   4.028   4.651
  107MYC    C3120865   1.705   4.131   4.804
  107MYC    H5620866   1.739   4.230   4.774
  107MYC    H5720867   1.600   4.141   4.832
  107MYC    C3220868   1.785   4.086   4.928
  107MYC    H5820869   1.748   3.988   4.961
  107MYC    H5920870   1.891   4.074   4.902
  107MYC    C3320871   1.771   4.189   5.042
  107MYC    H6020872   1.819   4.283   5.012
  107MYC    H6120873   1.665   4.211   5.057
  107MYC    C3420874   1.830   4.142   5.176
  107MYC    H6220875   1.781   4.049   5.207
  107MYC    H6320876   1.937   4.120   5.164
  107MYC    C3520877   1.811   4.249   5.287
  107MYC    H6420878   1.872   4.337   5.263
  107MYC    H6520879   1.707   4.281   5.287
  107MYC    C3620880   1.847   4.198   5.428
  107MYC    H6620881   1.789   4.107   5.449
  107MYC    H6720882   1.953   4.170   5.431
  107MYC    C3720883   1.818   4.303   5.537
  107MYC    H6820884   1.883   4.390   5.523
  107MYC    H6920885   1.714   4.338   5.526
  107MYC    C3820886   1.836   4.247   5.680
  107MYC    H7020887   1.770   4.160   5.692
  107MYC    H7120888   1.939   4.212   5.693
  107MYC    C3920889   1.803   4.351   5.790
  107MYC    H7220890   1.875   4.433   5.785
  107MYC    H7320891   1.703   4.393   5.770
  107MYC    C4020892   1.804   4.289   5.931
  107MYC    H7420893   1.730   4.208   5.935
  107MYC    H7520894   1.902   4.244   5.950
  107MYC    C4120895   1.772   4.391   6.042
  107MYC    H7620896   1.853   4.466   6.047
  107MYC    H7720897   1.680   4.445   6.017
  107MYC    C4220898   1.755   4.325   6.181
  107MYC    H7820899   1.672   4.253   6.176
  107MYC    H7920900   1.846   4.268   6.205
  107MYC    C4320901   1.728   4.426   6.294
  107MYC    H8020902   1.638   4.484   6.273
  107MYC    H8120903   1.812   4.495   6.305
  107MYC    H8220904   1.713   4.373   6.389
  108MYC   HH1520905   1.517   5.376   6.263
  108MYC    C8020906   1.554   5.349   6.163
  108MYC   H10020907   1.656   5.386   6.154
  108MYC   H10120908   1.555   5.240   6.155
  108MYC    C7920909   1.463   5.411   6.055
  108MYC   H10220910   1.462   5.520   6.067
  108MYC   H10320911   1.360   5.376   6.071
  108MYC    C7820912   1.508   5.376   5.912
  108MYC   HH1420913   1.506   5.267   5.899
  108MYC   H10420914   1.612   5.407   5.897
  108MYC    C7720915   1.419   5.441   5.803
  108MYC   H10620916   1.420   5.550   5.815
  108MYC   H10720917   1.315   5.408   5.817
  108MYC    C7620918   1.465   5.405   5.660
  108MYC   H10820919   1.468   5.296   5.650
  108MYC   H10920920   1.567   5.442   5.644
  108MYC    C7520921   1.373   5.462   5.550
  108MYC   H11020922   1.366   5.571   5.561
  108MYC   H11120923   1.272   5.422   5.562
  108MYC    C7420924   1.424   5.429   5.408
  108MYC   H11220925   1.441   5.321   5.401
  108MYC   H11320926   1.521   5.478   5.393
  108MYC    C7320927   1.327   5.471   5.295
  108MYC   HH1320928   1.305   5.578   5.303
  108MYC   H11420929   1.233   5.417   5.306
  108MYC    C7220930   1.387   5.442   5.155
  108MYC   H11520931   1.418   5.337   5.151
  108MYC   H11620932   1.477   5.502   5.141
  108MYC    C7120933   1.290   5.469   5.038
  108MYC   H11720934   1.259   5.574   5.039
  108MYC   H11820935   1.199   5.409   5.051
  108MYC    C7020936   1.354   5.435   4.902
  108MYC   H11920937   1.386   5.330   4.904
  108MYC   H12020938   1.444   5.496   4.888
  108MYC    C6920939   1.260   5.456   4.781
  108MYC   H12120940   1.237   5.562   4.771
  108MYC   H12220941   1.166   5.403   4.798
  108MYC    C6820942   1.324   5.404   4.650
  108MYC   HH1220943   1.342   5.296   4.660
  108MYC   H12320944   1.423   5.451   4.637
  108MYC    C6720945   1.240   5.430   4.524
  108MYC   H12420946   1.233   5.538   4.506
  108MYC   H12520947   1.137   5.393   4.540
  108MYC    C6620948   1.300   5.360   4.400
  108MYC   H12620949   1.296   5.251   4.415
  108MYC   H12720950   1.406   5.386   4.391
  108MYC    C6520951   1.229   5.394   4.267
  108MYC   H12820952   1.240   5.501   4.247
  108MYC   H12920953   1.122   5.374   4.277
  108MYC    C6420954   1.286   5.313   4.149
  108MYC   H13020955   1.266   5.207   4.167
  108MYC   H13120956   1.395   5.325   4.146
  108MYC    C6320957   1.227   5.353   4.012
  108MYC   HH1120958   1.255   5.457   3.990
  108MYC   H13220959   1.118   5.349   4.017
  108MYC    C6220960   1.277   5.261   3.899
  108MYC   H13320961   1.245   5.158   3.921
  108MYC   H13420962   1.387   5.260   3.897
  108MYC    C6120963   1.225   5.301   3.759
  108MYC   H13520964   1.272   5.395   3.728
  108MYC   H13620965   1.117   5.320   3.765
  108MYC    C6020966   1.250   5.191   3.657
  108MYC   H13720967   1.199   5.099   3.683
  108MYC    C5820968   1.259   5.223   3.510
  108MYC   H13820969   1.257   5.328   3.481
  108MYC    C5920970   1.382   5.176   3.585
  108MYC   H13920971   1.418   5.076   3.566
  108MYC   H14020972   1.459   5.250   3.605
  108MYC    C5720973   1.188   5.134   3.409
  108MYC   HH1020974   1.084   5.166   3.400
  108MYC   H14120975   1.185   5.030   3.447
  108MYC    C5620976   1.253   5.133   3.270
  108MYC   H14220977   1.356   5.095   3.277
  108MYC   H14320978   1.260   5.236   3.233
  108MYC    C5520979   1.173   5.048   3.170
  108MYC   H14420980   1.071   5.088   3.164
  108MYC   H14520981   1.164   4.946   3.210
  108MYC    C5420982   1.235   5.042   3.029
  108MYC   H14620983   1.330   4.988   3.034
  108MYC   H14720984   1.257   5.144   2.996
  108MYC    C5320985   1.141   4.976   2.926
  108MYC   H14820986   1.050   5.036   2.918
  108MYC   H14920987   1.111   4.877   2.962
  108MYC    C5220988   1.206   4.963   2.787
  108MYC    H9920989   1.282   4.884   2.790
  108MYC   H15020990   1.258   5.057   2.764
  108MYC    C5120991   1.105   4.935   2.674
  108MYC    H9720992   1.032   5.016   2.672
  108MYC    H9820993   1.049   4.843   2.695
  108MYC    C5020994   1.174   4.923   2.536
  108MYC    H9520995   1.198   4.817   2.517
  108MYC    H9620996   1.270   4.976   2.540
  108MYC    C4920997   1.092   4.980   2.419
  108MYC    H9320998   1.065   5.084   2.443
  108MYC    H9420999   0.998   4.925   2.408
  108MYC    C4821000   1.171   4.979   2.287
  108MYC    H9121001   1.183   4.875   2.253
  108MYC    H9221002   1.271   5.019   2.306
  108MYC    C4721003   1.106   5.063   2.175
  108MYC    H8921004   1.084   5.163   2.215
  108MYC    H9021005   1.011   5.018   2.145
  108MYC    C4621006   1.199   5.080   2.053
  108MYC    H8721007   1.223   4.981   2.013
  108MYC    H8821008   1.294   5.125   2.086
  108MYC    C4521009   1.137   5.165   1.941
  108MYC    H8521010   1.082   5.249   1.984
  108MYC    H8621011   1.064   5.104   1.887
  108MYC    C4421012   1.240   5.220   1.840
  108MYC    H8321013   1.186   5.257   1.752
  108MYC    H8421014   1.303   5.137   1.804
  108MYC    C1821015   1.327   5.333   1.895
  108MYC    H3121016   1.276   5.394   1.969
  108MYC    C1721017   1.478   5.320   1.907
  108MYC    H3021018   1.521   5.225   1.875
  108MYC    C1921019   1.417   5.408   1.800
  108MYC    H3221020   1.420   5.373   1.697
  108MYC    H3321021   1.423   5.516   1.812
  108MYC    C1621022   1.556   5.385   2.021
  108MYC    H2821023   1.512   5.357   2.117
  108MYC    H2921024   1.547   5.494   2.015
  108MYC    C1521025   1.707   5.349   2.022
  108MYC    H2621026   1.762   5.433   2.066
  108MYC    H2721027   1.744   5.339   1.919
  108MYC    C1421028   1.740   5.222   2.103
  108MYC    H2421029   1.692   5.136   2.057
  108MYC    H2521030   1.694   5.234   2.202
  108MYC    C1321031   1.891   5.195   2.120
  108MYC    H2221032   1.940   5.283   2.164
  108MYC    H2321033   1.935   5.181   2.020
  108MYC    C1221034   1.925   5.071   2.206
  108MYC    H2021035   2.032   5.050   2.199
  108MYC    H2121036   1.872   4.984   2.166
  108MYC    C1121037   1.888   5.088   2.356
  108MYC    H1821038   1.784   5.120   2.365
  108MYC    H1921039   1.949   5.169   2.399
  108MYC    C1021040   1.906   4.960   2.441
  108MYC    H1621041   2.012   4.935   2.447
  108MYC    H1721042   1.855   4.877   2.392
  108MYC     C921043   1.847   4.979   2.582
  108MYC    H1421044   1.740   5.001   2.573
  108MYC    H1521045   1.894   5.066   2.630
  108MYC     C821046   1.864   4.856   2.674
  108MYC    H1221047   1.971   4.837   2.689
  108MYC    H1321048   1.821   4.767   2.626
  108MYC     C721049   1.795   4.878   2.811
  108MYC    H1021050   1.687   4.887   2.796
  108MYC    H1121051   1.830   4.973   2.853
  108MYC     C621052   1.823   4.764   2.912
  108MYC     H821053   1.931   4.761   2.934
  108MYC     H921054   1.798   4.668   2.866
  108MYC     C521055   1.745   4.778   3.045
  108MYC     H621056   1.775   4.694   3.109
  108MYC     H721057   1.638   4.764   3.026
  108MYC     C421058   1.766   4.913   3.119
  108MYC     H421059   1.699   4.987   3.074
  108MYC     H521060   1.868   4.949   3.100
  108MYC     C221061   1.742   4.913   3.273
  108MYC     H221062   1.718   5.017   3.299
  108MYC     O321063   1.629   4.831   3.305
  108MYC     H321064   1.615   4.836   3.401
  108MYC     C121065   1.867   4.872   3.357
  108MYC     H121066   1.944   4.946   3.330
  108MYC    C8121067   1.923   4.734   3.318
  108MYC    O8221068   1.871   4.628   3.347
  108MYC    O8321069   2.033   4.738   3.239
  108MYC   H10521070   2.053   4.646   3.218
  108MYC    C2021071   1.848   4.881   3.511
  108MYC    H3421072   1.777   4.805   3.545
  108MYC    H3521073   1.944   4.858   3.558
  108MYC    C2121074   1.801   5.020   3.560
  108MYC    H3621075   1.853   5.098   3.503
  108MYC    H3721076   1.694   5.032   3.539
  108MYC    C2221077   1.826   5.045   3.711
  108MYC    H3821078   1.770   4.973   3.771
  108MYC    H3921079   1.933   5.028   3.731
  108MYC    C2321080   1.790   5.189   3.752
  108MYC    H4021081   1.827   5.256   3.674
  108MYC    H4121082   1.680   5.200   3.753
  108MYC    C2421083   1.850   5.236   3.886
  108MYC    H4221084   1.950   5.193   3.898
  108MYC    H4321085   1.864   5.344   3.881
  108MYC    C2521086   1.765   5.204   4.011
  108MYC    H4421087   1.667   5.253   4.002
  108MYC    H4521088   1.747   5.096   4.018
  108MYC    C2621089   1.836   5.254   4.138
  108MYC    H4621090   1.934   5.205   4.144
  108MYC    H4721091   1.855   5.361   4.130
  108MYC    C2721092   1.760   5.227   4.269
  108MYC    H4821093   1.665   5.282   4.269
  108MYC    H4921094   1.735   5.120   4.275
  108MYC    C2821095   1.843   5.268   4.392
  108MYC    H5021096   1.943   5.225   4.384
  108MYC    H5121097   1.855   5.377   4.393
  108MYC    C2921098   1.781   5.223   4.526
  108MYC    H5221099   1.683   5.271   4.539
  108MYC    H5321100   1.765   5.115   4.524
  108MYC    C3021101   1.872   5.258   4.646
  108MYC    H5421102   1.970   5.211   4.632
  108MYC    H5521103   1.888   5.366   4.648
  108MYC    C3121104   1.813   5.213   4.781
  108MYC    H5621105   1.715   5.260   4.795
  108MYC    H5721106   1.796   5.104   4.779
  108MYC    C3221107   1.905   5.248   4.899
  108MYC    H5821108   1.997   5.189   4.892
  108MYC    H5921109   1.933   5.353   4.893
  108MYC    C3321110   1.837   5.222   5.036
  108MYC    H6021111   1.746   5.283   5.042
  108MYC    H6121112   1.807   5.117   5.042
  108MYC    C3421113   1.930   5.256   5.154
  108MYC    H6221114   2.014   5.185   5.155
  108MYC    H6321115   1.973   5.355   5.140
  108MYC    C3521116   1.857   5.253   5.289
  108MYC    H6421117   1.784   5.334   5.293
  108MYC    H6521118   1.801   5.159   5.299
  108MYC    C3621119   1.954   5.266   5.408
  108MYC    H6621120   2.018   5.177   5.411
  108MYC    H6721121   2.020   5.352   5.393
  108MYC    C3721122   1.882   5.281   5.543
  108MYC    H6821123   1.841   5.383   5.551
  108MYC    H6921124   1.797   5.212   5.547
  108MYC    C3821125   1.974   5.253   5.663
  108MYC    H7021126   2.006   5.148   5.659
  108MYC    H7121127   2.064   5.314   5.656
  108MYC    C3921128   1.905   5.280   5.798
  108MYC    H7221129   1.888   5.387   5.809
  108MYC    H7321130   1.807   5.231   5.799
  108MYC    C4021131   1.987   5.228   5.918
  108MYC    H7421132   2.003   5.120   5.906
  108MYC    H7521133   2.086   5.275   5.917
  108MYC    C4121134   1.919   5.255   6.053
  108MYC    H7621135   1.903   5.363   6.065
  108MYC    H7721136   1.819   5.208   6.053
  108MYC    C4221137   1.999   5.201   6.173
  108MYC    H7821138   2.011   5.093   6.164
  108MYC    H7921139   2.100   5.245   6.172
  108MYC    C4321140   1.932   5.233   6.308
  108MYC    H8021141   1.994   5.198   6.391
  108MYC    H8121142   1.834   5.183   6.315
  108MYC    H8221143   1.917   5.341   6.320
  109MYC   HH1521144   1.648   6.204   6.213
  109MYC    C8021145   1.633   6.127   6.137
  109MYC   H10021146   1.726   6.070   6.127
  109MYC   H10121147   1.554   6.059   6.171
  109MYC    C7921148   1.594   6.192   6.003
  109MYC   H10221149   1.668   6.269   5.977
  109MYC   H10321150   1.497   6.242   6.015
  109MYC    C7821151   1.585   6.090   5.887
  109MYC   HH1421152   1.523   6.005   5.918
  109MYC   H10421153   1.686   6.050   5.867
  109MYC    C7721154   1.527   6.150   5.758
  109MYC   H10621155   1.581   6.242   5.733
  109MYC   H10721156   1.422   6.177   5.775
  109MYC    C7621157   1.536   6.054   5.637
  109MYC   H10821158   1.494   5.956   5.665
  109MYC   H10921159   1.642   6.037   5.613
  109MYC    C7521160   1.463   6.108   5.513
  109MYC   H11021161   1.497   6.210   5.493
  109MYC   H11121162   1.355   6.114   5.535
  109MYC    C7421163   1.484   6.021   5.387
  109MYC   H11221164   1.451   5.918   5.406
  109MYC   H11321165   1.591   6.017   5.364
  109MYC    C7321166   1.408   6.078   5.266
  109MYC   HH1321167   1.440   6.182   5.250
  109MYC   H11421168   1.301   6.080   5.288
  109MYC    C7221169   1.431   5.999   5.135
  109MYC   H11521170   1.391   5.898   5.146
  109MYC   H11621171   1.539   5.990   5.116
  109MYC    C7121172   1.364   6.069   5.016
  109MYC   H11721173   1.407   6.170   5.006
  109MYC   H11821174   1.257   6.083   5.036
  109MYC    C7021175   1.380   5.995   4.882
  109MYC   H11921176   1.326   5.900   4.886
  109MYC   H12021177   1.486   5.972   4.866
  109MYC    C6921178   1.329   6.080   4.764
  109MYC   H12121179   1.385   6.175   4.763
  109MYC   H12221180   1.223   6.106   4.781
  109MYC    C6821181   1.343   6.012   4.627
  109MYC   HH1221182   1.272   5.929   4.619
  109MYC   H12321183   1.444   5.970   4.617
  109MYC    C6721184   1.320   6.113   4.512
  109MYC   H12421185   1.392   6.194   4.522
  109MYC   H12521186   1.220   6.157   4.523
  109MYC    C6621187   1.332   6.050   4.372
  109MYC   H12621188   1.238   6.001   4.346
  109MYC   H12721189   1.410   5.973   4.372
  109MYC    C6521190   1.367   6.156   4.265
  109MYC   H12821191   1.467   6.196   4.285
  109MYC   H12921192   1.298   6.240   4.274
  109MYC    C6421193   1.363   6.100   4.122
  109MYC   H13021194   1.265   6.056   4.103
  109MYC   H13121195   1.437   6.019   4.113
  109MYC    C6321196   1.392   6.207   4.015
  109MYC   HH1121197   1.491   6.250   4.032
  109MYC   H13221198   1.319   6.288   4.024
  109MYC    C6221199   1.386   6.148   3.872
  109MYC   H13321200   1.292   6.093   3.860
  109MYC   H13421201   1.467   6.076   3.859
  109MYC    C6121202   1.395   6.256   3.762
  109MYC   H13521203   1.488   6.312   3.774
  109MYC   H13621204   1.312   6.327   3.774
  109MYC    C6021205   1.388   6.194   3.623
  109MYC   H13721206   1.300   6.130   3.611
  109MYC    C5821207   1.433   6.269   3.501
  109MYC   H13821208   1.477   6.367   3.517
  109MYC    C5921209   1.513   6.151   3.550
  109MYC   H13921210   1.509   6.059   3.493
  109MYC   H14021211   1.609   6.171   3.597
  109MYC    C5721212   1.354   6.261   3.371
  109MYC   HH1021213   1.283   6.345   3.367
  109MYC   H14121214   1.294   6.170   3.369
  109MYC    C5621215   1.445   6.264   3.247
  109MYC   H14221216   1.514   6.178   3.252
  109MYC   H14321217   1.507   6.354   3.249
  109MYC    C5521218   1.366   6.258   3.115
  109MYC   H14421219   1.299   6.345   3.109
  109MYC   H14521220   1.304   6.168   3.115
  109MYC    C5421221   1.459   6.256   2.992
  109MYC   H14621222   1.525   6.168   2.998
  109MYC   H14721223   1.524   6.345   2.995
  109MYC    C5321224   1.382   6.254   2.859
  109MYC   H14821225   1.317   6.342   2.853
  109MYC   H14921226   1.318   6.165   2.856
  109MYC    C5221227   1.476   6.251   2.737
  109MYC    H9921228   1.538   6.161   2.742
  109MYC   H15021229   1.544   6.337   2.742
  109MYC    C5121230   1.401   6.253   2.602
  109MYC    H9721231   1.339   6.343   2.596
  109MYC    H9821232   1.333   6.166   2.597
  109MYC    C5021233   1.499   6.248   2.483
  109MYC    H9521234   1.561   6.158   2.493
  109MYC    H9621235   1.566   6.334   2.489
  109MYC    C4921236   1.430   6.247   2.345
  109MYC    H9321237   1.374   6.340   2.330
  109MYC    H9421238   1.358   6.164   2.342
  109MYC    C4821239   1.534   6.229   2.233
  109MYC    H9121240   1.601   6.147   2.262
  109MYC    H9221241   1.597   6.319   2.226
  109MYC    C4721242   1.475   6.198   2.094
  109MYC    H8921243   1.446   6.291   2.044
  109MYC    H9021244   1.384   6.137   2.104
  109MYC    C4621245   1.577   6.121   2.007
  109MYC    H8721246   1.597   6.025   2.056
  109MYC    H8821247   1.671   6.176   2.006
  109MYC    C4521248   1.531   6.093   1.863
  109MYC    H8521249   1.547   6.183   1.802
  109MYC    H8621250   1.423   6.073   1.862
  109MYC    C4421251   1.603   5.972   1.798
  109MYC    H8321252   1.565   5.959   1.696
  109MYC    H8421253   1.573   5.882   1.854
  109MYC    C1821254   1.755   5.978   1.796
  109MYC    H3121255   1.797   6.061   1.853
  109MYC    C1721256   1.835   5.850   1.796
  109MYC    H3021257   1.780   5.756   1.789
  109MYC    C1921258   1.833   5.937   1.673
  109MYC    H3221259   1.777   5.902   1.587
  109MYC    H3321260   1.923   5.993   1.649
  109MYC    C1621261   1.963   5.838   1.877
  109MYC    H2821262   1.989   5.936   1.917
  109MYC    H2921263   2.045   5.811   1.809
  109MYC    C1521264   1.961   5.734   1.992
  109MYC    H2621265   2.061   5.730   2.036
  109MYC    H2721266   1.940   5.636   1.949
  109MYC    C1421267   1.857   5.755   2.104
  109MYC    H2421268   1.757   5.743   2.062
  109MYC    H2521269   1.864   5.857   2.144
  109MYC    C1321270   1.879   5.653   2.219
  109MYC    H2221271   1.955   5.691   2.288
  109MYC    H2321272   1.919   5.560   2.177
  109MYC    C1221273   1.750   5.619   2.296
  109MYC    H2021274   1.671   5.592   2.224
  109MYC    H2121275   1.716   5.709   2.349
  109MYC    C1121276   1.766   5.504   2.398
  109MYC    H1821277   1.822   5.539   2.485
  109MYC    H1921278   1.826   5.424   2.353
  109MYC    C1021279   1.632   5.441   2.443
  109MYC    H1621280   1.652   5.367   2.521
  109MYC    H1721281   1.588   5.386   2.359
  109MYC     C921282   1.525   5.542   2.494
  109MYC    H1421283   1.435   5.486   2.522
  109MYC    H1521284   1.495   5.607   2.411
  109MYC     C821285   1.567   5.630   2.614
  109MYC    H1221286   1.486   5.700   2.634
  109MYC    H1321287   1.655   5.690   2.587
  109MYC     C721288   1.597   5.549   2.742
  109MYC    H1021289   1.686   5.487   2.727
  109MYC    H1121290   1.513   5.481   2.762
  109MYC     C621291   1.619   5.639   2.865
  109MYC     H821292   1.535   5.709   2.873
  109MYC     H921293   1.710   5.699   2.851
  109MYC     C521294   1.630   5.559   2.996
  109MYC     H621295   1.717   5.493   2.990
  109MYC     H721296   1.541   5.495   3.004
  109MYC     C421297   1.640   5.651   3.119
  109MYC     H421298   1.569   5.733   3.108
  109MYC     H521299   1.740   5.697   3.121
  109MYC     C221300   1.612   5.586   3.257
  109MYC     H221301   1.612   5.670   3.326
  109MYC     O321302   1.482   5.527   3.258
  109MYC     H321303   1.485   5.446   3.205
  109MYC     C121304   1.719   5.485   3.310
  109MYC     H121305   1.815   5.538   3.312
  109MYC    C8121306   1.738   5.359   3.222
  109MYC    O8221307   1.647   5.285   3.188
  109MYC    O8321308   1.867   5.321   3.206
  109MYC   H10521309   1.863   5.237   3.157
  109MYC    C2021310   1.693   5.439   3.455
  109MYC    H3421311   1.615   5.362   3.456
  109MYC    H3521312   1.784   5.391   3.492
  109MYC    C2121313   1.652   5.552   3.553
  109MYC    H3621314   1.721   5.636   3.543
  109MYC    H3721315   1.551   5.587   3.528
  109MYC    C2221316   1.651   5.505   3.699
  109MYC    H3821317   1.586   5.418   3.710
  109MYC    H3921318   1.753   5.474   3.725
  109MYC    C2321319   1.607   5.614   3.798
  109MYC    H4021320   1.672   5.701   3.787
  109MYC    H4121321   1.505   5.646   3.775
  109MYC    C2421322   1.614   5.562   3.942
  109MYC    H4221323   1.531   5.492   3.960
  109MYC    H4321324   1.707   5.506   3.956
  109MYC    C2521325   1.611   5.674   4.048
  109MYC    H4421326   1.695   5.742   4.030
  109MYC    H4521327   1.519   5.733   4.038
  109MYC    C2621328   1.621   5.616   4.189
  109MYC    H4621329   1.526   5.566   4.215
  109MYC    H4721330   1.699   5.538   4.191
  109MYC    C2721331   1.656   5.720   4.296
  109MYC    H4821332   1.756   5.760   4.275
  109MYC    H4921333   1.585   5.804   4.291
  109MYC    C2821334   1.652   5.658   4.436
  109MYC    H5021335   1.548   5.644   4.466
  109MYC    H5121336   1.698   5.559   4.433
  109MYC    C2921337   1.725   5.742   4.542
  109MYC    H5221338   1.831   5.750   4.516
  109MYC    H5321339   1.684   5.844   4.544
  109MYC    C3021340   1.710   5.678   4.681
  109MYC    H5421341   1.604   5.676   4.707
  109MYC    H5521342   1.744   5.573   4.676
  109MYC    C3121343   1.788   5.750   4.792
  109MYC    H5621344   1.896   5.747   4.770
  109MYC    H5721345   1.758   5.855   4.795
  109MYC    C3221346   1.761   5.684   4.928
  109MYC    H5821347   1.652   5.679   4.942
  109MYC    H5921348   1.798   5.581   4.926
  109MYC    C3321349   1.823   5.759   5.046
  109MYC    H6021350   1.932   5.758   5.038
  109MYC    H6121351   1.790   5.864   5.045
  109MYC    C3421352   1.779   5.694   5.179
  109MYC    H6221353   1.669   5.690   5.182
  109MYC    H6321354   1.815   5.591   5.182
  109MYC    C3521355   1.829   5.768   5.303
  109MYC    H6421356   1.938   5.766   5.306
  109MYC    H6521357   1.798   5.874   5.298
  109MYC    C3621358   1.771   5.705   5.431
  109MYC    H6621359   1.662   5.715   5.430
  109MYC    H6721360   1.793   5.598   5.431
  109MYC    C3721361   1.827   5.768   5.559
  109MYC    H6821362   1.935   5.749   5.565
  109MYC    H6921363   1.813   5.877   5.556
  109MYC    C3821364   1.757   5.712   5.684
  109MYC    H7021365   1.652   5.743   5.683
  109MYC    H7121366   1.759   5.603   5.682
  109MYC    C3921367   1.824   5.760   5.814
  109MYC    H7221368   1.924   5.715   5.822
  109MYC    H7321369   1.837   5.869   5.810
  109MYC    C4021370   1.742   5.725   5.939
  109MYC    H7421371   1.646   5.779   5.936
  109MYC    H7521372   1.717   5.618   5.939
  109MYC    C4121373   1.816   5.759   6.069
  109MYC    H7621374   1.904   5.694   6.078
  109MYC    H7721375   1.853   5.862   6.063
  109MYC    C4221376   1.728   5.745   6.194
  109MYC    H7821377   1.638   5.807   6.182
  109MYC    H7921378   1.694   5.641   6.204
  109MYC    C4321379   1.801   5.787   6.322
  109MYC    H8021380   1.733   5.782   6.407
  109MYC    H8121381   1.837   5.890   6.314
  109MYC    H8221382   1.887   5.722   6.340
  110MYC   HH1521383   2.665   0.429   6.175
  110MYC    C8021384   2.598   0.445   6.090
  110MYC   H10021385   2.501   0.400   6.115
  110MYC   H10121386   2.584   0.553   6.078
  110MYC    C7921387   2.656   0.383   5.962
  110MYC   H10221388   2.675   0.276   5.978
  110MYC   H10321389   2.753   0.429   5.942
  110MYC    C7821390   2.564   0.401   5.840
  110MYC   HH1421391   2.533   0.506   5.834
  110MYC   H10421392   2.472   0.342   5.855
  110MYC    C7721393   2.630   0.361   5.707
  110MYC   H10621394   2.656   0.254   5.709
  110MYC   H10721395   2.723   0.417   5.694
  110MYC    C7621396   2.538   0.389   5.586
  110MYC   H10821397   2.501   0.492   5.592
  110MYC   H10921398   2.450   0.323   5.592
  110MYC    C7521399   2.607   0.368   5.450
  110MYC   H11021400   2.642   0.265   5.442
  110MYC   H11121401   2.696   0.433   5.445
  110MYC    C7421402   2.515   0.402   5.331
  110MYC   H11221403   2.481   0.505   5.340
  110MYC   H11321404   2.426   0.338   5.336
  110MYC    C7321405   2.584   0.382   5.195
  110MYC   HH1321406   2.613   0.277   5.185
  110MYC   H11421407   2.676   0.442   5.193
  110MYC    C7221408   2.495   0.423   5.076
  110MYC   H11521409   2.473   0.531   5.084
  110MYC   H11621410   2.399   0.370   5.082
  110MYC    C7121411   2.563   0.394   4.941
  110MYC   H11721412   2.573   0.285   4.929
  110MYC   H11821413   2.664   0.436   4.942
  110MYC    C7021414   2.487   0.452   4.821
  110MYC   H11921415   2.477   0.561   4.834
  110MYC   H12021416   2.385   0.411   4.817
  110MYC    C6921417   2.560   0.422   4.689
  110MYC   H12121418   2.562   0.314   4.672
  110MYC   H12221419   2.664   0.455   4.698
  110MYC    C6821420   2.497   0.492   4.567
  110MYC   HH1221421   2.494   0.600   4.584
  110MYC   H12321422   2.393   0.458   4.554
  110MYC    C6721423   2.577   0.463   4.439
  110MYC   H12421424   2.578   0.355   4.420
  110MYC   H12521425   2.682   0.493   4.456
  110MYC    C6621426   2.525   0.536   4.314
  110MYC   H12621427   2.521   0.644   4.334
  110MYC   H12721428   2.422   0.503   4.292
  110MYC    C6521429   2.616   0.511   4.193
  110MYC   H12821430   2.624   0.403   4.176
  110MYC   H12921431   2.717   0.547   4.217
  110MYC    C6421432   2.568   0.579   4.063
  110MYC   H13021433   2.553   0.686   4.081
  110MYC   H13121434   2.472   0.536   4.033
  110MYC    C6321435   2.672   0.560   3.951
  110MYC   HH1121436   2.688   0.452   3.936
  110MYC   H13221437   2.768   0.602   3.984
  110MYC    C6221438   2.633   0.624   3.817
  110MYC   H13321439   2.604   0.729   3.832
  110MYC   H13421440   2.545   0.572   3.777
  110MYC    C6121441   2.750   0.617   3.717
  110MYC   H13521442   2.799   0.519   3.726
  110MYC   H13621443   2.825   0.691   3.745
  110MYC    C6021444   2.707   0.639   3.573
  110MYC   H13721445   2.654   0.732   3.559
  110MYC    C5821446   2.793   0.590   3.460
  110MYC   H13821447   2.884   0.536   3.486
  110MYC    C5921448   2.662   0.521   3.490
  110MYC   H13921449   2.578   0.537   3.423
  110MYC   H14021450   2.667   0.422   3.534
  110MYC    C5721451   2.809   0.672   3.332
  110MYC   HH1021452   2.895   0.739   3.341
  110MYC   H14121453   2.721   0.735   3.317
  110MYC    C5621454   2.826   0.580   3.210
  110MYC   H14221455   2.747   0.504   3.212
  110MYC   H14321456   2.921   0.525   3.217
  110MYC    C5521457   2.821   0.654   3.075
  110MYC   H14421458   2.921   0.694   3.051
  110MYC   H14521459   2.753   0.740   3.082
  110MYC    C5421460   2.772   0.562   2.962
  110MYC   H14621461   2.669   0.531   2.984
  110MYC   H14721462   2.833   0.471   2.960
  110MYC    C5321463   2.774   0.627   2.823
  110MYC   H14821464   2.878   0.648   2.795
  110MYC   H14921465   2.721   0.723   2.825
  110MYC    C5221466   2.710   0.536   2.716
  110MYC    H9921467   2.602   0.529   2.736
  110MYC   H15021468   2.751   0.435   2.725
  110MYC    C5121469   2.732   0.587   2.573
  110MYC    H9721470   2.840   0.596   2.555
  110MYC    H9821471   2.688   0.687   2.562
  110MYC    C5021472   2.671   0.493   2.467
  110MYC    H9521473   2.563   0.487   2.482
  110MYC    H9621474   2.711   0.392   2.481
  110MYC    C4921475   2.701   0.540   2.323
  110MYC    H9321476   2.809   0.545   2.308
  110MYC    H9421477   2.661   0.641   2.309
  110MYC    C4821478   2.639   0.446   2.217
  110MYC    H9121479   2.532   0.434   2.238
  110MYC    H9221480   2.685   0.347   2.228
  110MYC    C4721481   2.660   0.496   2.073
  110MYC    H8921482   2.767   0.495   2.049
  110MYC    H9021483   2.626   0.600   2.066
  110MYC    C4621484   2.583   0.412   1.969
  110MYC    H8721485   2.476   0.415   1.993
  110MYC    H8821486   2.615   0.308   1.976
  110MYC    C4521487   2.603   0.460   1.824
  110MYC    H8521488   2.705   0.437   1.790
  110MYC    H8621489   2.594   0.570   1.822
  110MYC    C4421490   2.500   0.402   1.724
  110MYC    H8321491   2.518   0.452   1.628
  110MYC    H8421492   2.400   0.434   1.756
  110MYC    C1821493   2.503   0.251   1.703
  110MYC    H3121494   2.571   0.198   1.770
  110MYC    C1721495   2.379   0.176   1.659
  110MYC    H3021496   2.289   0.236   1.641
  110MYC    C1921497   2.492   0.196   1.562
  110MYC    H3221498   2.474   0.266   1.481
  110MYC    H3321499   2.552   0.110   1.536
  110MYC    C1621500   2.347   0.035   1.707
  110MYC    H2821501   2.438   6.437   1.745
  110MYC    H2921502   2.313   6.425   1.622
  110MYC    C1521503   2.238   0.029   1.817
  110MYC    H2621504   2.229   6.375   1.852
  110MYC    H2721505   2.142   0.055   1.773
  110MYC    C1421506   2.266   0.123   1.935
  110MYC    H2421507   2.265   0.226   1.901
  110MYC    H2521508   2.368   0.106   1.971
  110MYC    C1321509   2.167   0.107   2.052
  110MYC    H2221510   2.166   0.002   2.084
  110MYC    H2321511   2.066   0.132   2.019
  110MYC    C1221512   2.205   0.196   2.172
  110MYC    H2021513   2.196   0.301   2.145
  110MYC    H2121514   2.311   0.178   2.196
  110MYC    C1121515   2.121   0.167   2.297
  110MYC    H1821516   2.121   0.060   2.318
  110MYC    H1921517   2.016   0.195   2.277
  110MYC    C1021518   2.169   0.242   2.423
  110MYC    H1621519   2.096   0.224   2.502
  110MYC    H1721520   2.170   0.351   2.404
  110MYC     C921521   2.309   0.198   2.472
  110MYC    H1421522   2.387   0.256   2.421
  110MYC    H1521523   2.325   0.093   2.446
  110MYC     C821524   2.323   0.214   2.624
  110MYC    H1221525   2.237   0.165   2.672
  110MYC    H1321526   2.317   0.320   2.651
  110MYC     C721527   2.452   0.153   2.681
  110MYC    H1021528   2.534   0.226   2.672
  110MYC    H1121529   2.481   0.064   2.624
  110MYC     C621530   2.433   0.114   2.829
  110MYC     H821531   2.361   0.031   2.835
  110MYC     H921532   2.389   0.199   2.882
  110MYC     C521533   2.564   0.072   2.896
  110MYC     H621534   2.632   0.157   2.892
  110MYC     H721535   2.610   6.441   2.839
  110MYC     C421536   2.549   0.027   3.043
  110MYC     H421537   2.646   6.438   3.075
  110MYC     H521538   2.482   6.390   3.045
  110MYC     C221539   2.503   0.133   3.148
  110MYC     H221540   2.568   0.115   3.234
  110MYC     O321541   2.529   0.266   3.103
  110MYC     H321542   2.482   0.328   3.162
  110MYC     C121543   2.355   0.116   3.198
  110MYC     H121544   2.329   0.010   3.186
  110MYC    C8121545   2.250   0.194   3.117
  110MYC    O8221546   2.238   0.315   3.121
  110MYC    O8321547   2.164   0.117   3.047
  110MYC   H10521548   2.100   0.179   3.008
  110MYC    C2021549   2.342   0.146   3.350
  110MYC    H3421550   2.382   0.246   3.372
  110MYC    H3521551   2.235   0.148   3.375
  110MYC    C2121552   2.411   0.039   3.437
  110MYC    H3621553   2.380   6.390   3.402
  110MYC    H3721554   2.520   0.044   3.426
  110MYC    C2221555   2.378   0.050   3.586
  110MYC    H3821556   2.420   0.143   3.627
  110MYC    H3921557   2.270   0.055   3.599
  110MYC    C2321558   2.433   6.379   3.664
  110MYC    H4021559   2.410   6.287   3.608
  110MYC    H4121560   2.542   6.385   3.671
  110MYC    C2421561   2.371   6.364   3.803
  110MYC    H4221562   2.262   6.367   3.795
  110MYC    H4321563   2.396   6.264   3.842
  110MYC    C2521564   2.417   0.020   3.905
  110MYC    H4421565   2.526   0.013   3.918
  110MYC    H4521566   2.393   0.121   3.870
  110MYC    C2621567   2.348   6.444   4.039
  110MYC    H4621568   2.240   0.009   4.027
  110MYC    H4721569   2.362   6.338   4.065
  110MYC    C2721570   2.398   0.080   4.156
  110MYC    H4821571   2.507   0.071   4.165
  110MYC    H4921572   2.374   0.185   4.140
  110MYC    C2821573   2.332   0.029   4.285
  110MYC    H5021574   2.223   0.045   4.279
  110MYC    H5121575   2.348   6.371   4.292
  110MYC    C2921576   2.385   0.093   4.414
  110MYC    H5221577   2.494   0.084   4.418
  110MYC    H5321578   2.359   0.200   4.417
  110MYC    C3021579   2.323   0.021   4.536
  110MYC    H5421580   2.214   0.032   4.533
  110MYC    H5521581   2.345   6.363   4.528
  110MYC    C3121582   2.376   0.072   4.670
  110MYC    H5621583   2.485   0.061   4.672
  110MYC    H5721584   2.353   0.179   4.680
  110MYC    C3221585   2.314   6.444   4.788
  110MYC    H5821586   2.206   0.009   4.788
  110MYC    H5921587   2.333   6.337   4.774
  110MYC    C3321588   2.373   0.040   4.922
  110MYC    H6021589   2.481   0.024   4.921
  110MYC    H6121590   2.357   0.148   4.933
  110MYC    C3421591   2.312   6.417   5.042
  110MYC    H6221592   2.204   6.436   5.047
  110MYC    H6321593   2.325   6.309   5.030
  110MYC    C3521594   2.379   0.013   5.173
  110MYC    H6421595   2.487   6.446   5.166
  110MYC    H6521596   2.365   0.122   5.184
  110MYC    C3621597   2.324   6.393   5.299
  110MYC    H6621598   2.216   6.408   5.305
  110MYC    H6721599   2.342   6.285   5.291
  110MYC    C3721600   2.392   6.448   5.426
  110MYC    H6821601   2.500   6.433   5.418
  110MYC    H6921602   2.375   0.106   5.431
  110MYC    C3821603   2.341   6.382   5.555
  110MYC    H7021604   2.231   6.389   5.559
  110MYC    H7121605   2.367   6.276   5.554
  110MYC    C3921606   2.401   6.449   5.680
  110MYC    H7221607   2.510   6.446   5.674
  110MYC    H7321608   2.372   0.105   5.681
  110MYC    C4021609   2.356   6.383   5.812
  110MYC    H7421610   2.247   6.381   5.816
  110MYC    H7521611   2.391   6.279   5.813
  110MYC    C4121612   2.410   0.007   5.936
  110MYC    H7621613   2.519   0.018   5.927
  110MYC    H7721614   2.368   0.108   5.939
  110MYC    C4221615   2.378   6.384   6.067
  110MYC    H7821616   2.270   6.368   6.075
  110MYC    H7921617   2.425   6.284   6.066
  110MYC    C4321618   2.427   0.010   6.192
  110MYC    H8021619   2.408   6.401   6.282
  110MYC    H8121620   2.375   0.106   6.201
  110MYC    H8221621   2.535   0.030   6.185
  111MYC   HH1521622   2.491   1.395   6.193
  111MYC    C8021623   2.428   1.357   6.111
  111MYC   H10021624   2.355   1.287   6.152
  111MYC   H10121625   2.374   1.442   6.067
  111MYC    C7921626   2.515   1.288   6.004
  111MYC   H10221627   2.566   1.202   6.049
  111MYC   H10321628   2.593   1.359   5.971
  111MYC    C7821629   2.433   1.242   5.882
  111MYC   HH1421630   2.380   1.329   5.841
  111MYC   H10421631   2.357   1.170   5.913
  111MYC    C7721632   2.520   1.181   5.770
  111MYC   H10621633   2.559   1.083   5.803
  111MYC   H10721634   2.607   1.246   5.753
  111MYC    C7621635   2.442   1.164   5.638
  111MYC   H10821636   2.391   1.259   5.617
  111MYC   H10921637   2.365   1.088   5.650
  111MYC    C7521638   2.532   1.130   5.518
  111MYC   H11021639   2.576   1.030   5.531
  111MYC   H11121640   2.616   1.201   5.514
  111MYC    C7421641   2.454   1.135   5.386
  111MYC   H11221642   2.386   1.221   5.388
  111MYC   H11321643   2.392   1.045   5.376
  111MYC    C7321644   2.544   1.150   5.261
  111MYC   HH1321645   2.612   1.064   5.254
  111MYC   H11421646   2.606   1.240   5.272
  111MYC    C7221647   2.459   1.161   5.134
  111MYC   H11521648   2.384   1.240   5.147
  111MYC   H11621649   2.405   1.067   5.119
  111MYC    C7121650   2.541   1.192   5.008
  111MYC   H11721651   2.623   1.120   4.997
  111MYC   H11821652   2.587   1.292   5.017
  111MYC    C7021653   2.452   1.189   4.883
  111MYC   H11921654   2.371   1.262   4.894
  111MYC   H12021655   2.404   1.090   4.876
  111MYC    C6921656   2.528   1.217   4.753
  111MYC   H12121657   2.612   1.148   4.744
  111MYC   H12221658   2.568   1.319   4.756
  111MYC    C6821659   2.436   1.202   4.630
  111MYC   HH1221660   2.353   1.274   4.638
  111MYC   H12321661   2.391   1.102   4.630
  111MYC    C6721662   2.511   1.223   4.499
  111MYC   H12421663   2.590   1.148   4.489
  111MYC   H12521664   2.560   1.321   4.500
  111MYC    C6621665   2.418   1.215   4.377
  111MYC   H12621666   2.342   1.294   4.384
  111MYC   H12721667   2.365   1.119   4.377
  111MYC    C6521668   2.496   1.231   4.246
  111MYC   H12821669   2.571   1.151   4.239
  111MYC   H12921670   2.550   1.326   4.247
  111MYC    C6421671   2.405   1.225   4.123
  111MYC   H13021672   2.330   1.305   4.130
  111MYC   H13121673   2.352   1.129   4.119
  111MYC    C6321674   2.485   1.244   3.994
  111MYC   HH1121675   2.565   1.169   3.989
  111MYC   H13221676   2.533   1.343   3.996
  111MYC    C6221677   2.399   1.233   3.868
  111MYC   H13321678   2.312   1.299   3.876
  111MYC   H13421679   2.361   1.130   3.858
  111MYC    C6121680   2.480   1.271   3.744
  111MYC   H13521681   2.574   1.214   3.743
  111MYC   H13621682   2.507   1.377   3.751
  111MYC    C6021683   2.405   1.248   3.615
  111MYC   H13721684   2.301   1.279   3.620
  111MYC    C5821685   2.477   1.269   3.485
  111MYC   H13821686   2.583   1.289   3.490
  111MYC    C5921687   2.435   1.130   3.527
  111MYC   H13921688   2.351   1.084   3.475
  111MYC   H14021689   2.513   1.060   3.557
  111MYC    C5721690   2.408   1.344   3.373
  111MYC   HH1021691   2.452   1.444   3.367
  111MYC   H14121692   2.301   1.357   3.393
  111MYC    C5621693   2.424   1.272   3.238
  111MYC   H14221694   2.349   1.192   3.232
  111MYC   H14321695   2.523   1.225   3.234
  111MYC    C5521696   2.410   1.367   3.118
  111MYC   H14421697   2.495   1.437   3.118
  111MYC   H14521698   2.318   1.426   3.127
  111MYC    C5421699   2.408   1.289   2.987
  111MYC   H14621700   2.313   1.234   2.979
  111MYC   H14721701   2.488   1.214   2.988
  111MYC    C5321702   2.426   1.377   2.863
  111MYC   H14821703   2.523   1.427   2.868
  111MYC   H14921704   2.349   1.456   2.861
  111MYC    C5221705   2.418   1.294   2.734
  111MYC    H9921706   2.318   1.251   2.725
  111MYC   H15021707   2.489   1.211   2.740
  111MYC    C5121708   2.449   1.376   2.608
  111MYC    H9721709   2.549   1.421   2.619
  111MYC    H9821710   2.377   1.458   2.598
  111MYC    C5021711   2.448   1.288   2.482
  111MYC    H9521712   2.348   1.243   2.469
  111MYC    H9621713   2.519   1.206   2.494
  111MYC    C4921714   2.484   1.368   2.356
  111MYC    H9321715   2.576   1.425   2.376
  111MYC    H9421716   2.405   1.441   2.335
  111MYC    C4821717   2.506   1.279   2.233
  111MYC    H9121718   2.414   1.226   2.208
  111MYC    H9221719   2.581   1.203   2.258
  111MYC    C4721720   2.555   1.360   2.112
  111MYC    H8921721   2.638   1.425   2.142
  111MYC    H9021722   2.474   1.425   2.078
  111MYC    C4621723   2.602   1.270   1.997
  111MYC    H8721724   2.517   1.213   1.959
  111MYC    H8821725   2.672   1.195   2.035
  111MYC    C4521726   2.669   1.346   1.881
  111MYC    H8521727   2.723   1.275   1.818
  111MYC    H8621728   2.744   1.415   1.921
  111MYC    C4421729   2.570   1.425   1.794
  111MYC    H8321730   2.628   1.482   1.721
  111MYC    H8421731   2.517   1.500   1.855
  111MYC    C1821732   2.470   1.335   1.722
  111MYC    H3121733   2.519   1.255   1.668
  111MYC    C1721734   2.333   1.306   1.780
  111MYC    H3021735   2.304   1.359   1.871
  111MYC    C1921736   2.347   1.393   1.657
  111MYC    H3221737   2.327   1.498   1.670
  111MYC    H3321738   2.319   1.352   1.561
  111MYC    C1621739   2.265   1.171   1.764
  111MYC    H2821740   2.328   1.105   1.703
  111MYC    H2921741   2.174   1.185   1.706
  111MYC    C1521742   2.225   1.097   1.895
  111MYC    H2621743   2.125   1.054   1.879
  111MYC    H2721744   2.215   1.167   1.978
  111MYC    C1421745   2.320   0.982   1.933
  111MYC    H2421746   2.414   1.024   1.971
  111MYC    H2521747   2.345   0.925   1.842
  111MYC    C1321748   2.263   0.884   2.037
  111MYC    H2221749   2.168   0.844   1.999
  111MYC    H2321750   2.241   0.939   2.129
  111MYC    C1221751   2.359   0.767   2.067
  111MYC    H2021752   2.445   0.804   2.123
  111MYC    H2121753   2.400   0.728   1.973
  111MYC    C1121754   2.295   0.649   2.144
  111MYC    H1821755   2.369   0.569   2.152
  111MYC    H1921756   2.212   0.609   2.085
  111MYC    C1021757   2.242   0.682   2.285
  111MYC    H1621758   2.215   0.587   2.334
  111MYC    H1721759   2.150   0.740   2.277
  111MYC     C921760   2.340   0.759   2.374
  111MYC    H1421761   2.356   0.860   2.333
  111MYC    H1521762   2.437   0.708   2.375
  111MYC     C821763   2.289   0.772   2.518
  111MYC    H1221764   2.284   0.672   2.562
  111MYC    H1321765   2.187   0.812   2.518
  111MYC     C721766   2.378   0.863   2.604
  111MYC    H1021767   2.359   0.968   2.578
  111MYC    H1121768   2.484   0.842   2.582
  111MYC     C621769   2.353   0.841   2.754
  111MYC     H821770   2.372   0.735   2.776
  111MYC     H921771   2.248   0.860   2.775
  111MYC     C521772   2.442   0.928   2.844
  111MYC     H621773   2.396   1.027   2.855
  111MYC     H721774   2.540   0.943   2.795
  111MYC     C421775   2.468   0.866   2.983
  111MYC     H421776   2.558   0.913   3.025
  111MYC     H521777   2.493   0.761   2.970
  111MYC     C221778   2.354   0.882   3.087
  111MYC     H221779   2.357   0.987   3.121
  111MYC     O321780   2.225   0.858   3.030
  111MYC     H321781   2.209   0.762   3.034
  111MYC     C121782   2.376   0.791   3.211
  111MYC     H121783   2.476   0.814   3.250
  111MYC    C8121784   2.375   0.641   3.174
  111MYC    O8221785   2.471   0.568   3.187
  111MYC    O8321786   2.256   0.594   3.131
  111MYC   H10521787   2.268   0.498   3.118
  111MYC    C2021788   2.275   0.822   3.323
  111MYC    H3421789   2.275   0.929   3.341
  111MYC    H3521790   2.173   0.796   3.291
  111MYC    C2121791   2.306   0.750   3.455
  111MYC    H3621792   2.299   0.641   3.442
  111MYC    H3721793   2.410   0.772   3.484
  111MYC    C2221794   2.213   0.793   3.570
  111MYC    H3821795   2.212   0.902   3.577
  111MYC    H3921796   2.110   0.762   3.548
  111MYC    C2321797   2.259   0.734   3.704
  111MYC    H4021798   2.269   0.625   3.696
  111MYC    H4121799   2.360   0.773   3.725
  111MYC    C2421800   2.166   0.768   3.822
  111MYC    H4221801   2.130   0.871   3.813
  111MYC    H4321802   2.078   0.702   3.818
  111MYC    C2521803   2.239   0.753   3.956
  111MYC    H4421804   2.288   0.655   3.959
  111MYC    H4521805   2.317   0.829   3.962
  111MYC    C2621806   2.147   0.764   4.079
  111MYC    H4621807   2.080   0.850   4.068
  111MYC    H4721808   2.084   0.674   4.085
  111MYC    C2721809   2.228   0.779   4.209
  111MYC    H4821810   2.316   0.713   4.204
  111MYC    H4921811   2.266   0.882   4.215
  111MYC    C2821812   2.148   0.746   4.335
  111MYC    H5021813   2.054   0.801   4.336
  111MYC    H5121814   2.123   0.639   4.334
  111MYC    C2921815   2.227   0.777   4.464
  111MYC    H5221816   2.327   0.732   4.457
  111MYC    H5321817   2.241   0.886   4.471
  111MYC    C3021818   2.157   0.726   4.591
  111MYC    H5421819   2.055   0.765   4.595
  111MYC    H5521820   2.150   0.616   4.586
  111MYC    C3121821   2.232   0.767   4.719
  111MYC    H5621822   2.337   0.735   4.712
  111MYC    H5721823   2.233   0.876   4.727
  111MYC    C3221824   2.170   0.707   4.846
  111MYC    H5821825   2.064   0.734   4.851
  111MYC    H5921826   2.176   0.598   4.842
  111MYC    C3321827   2.241   0.757   4.974
  111MYC    H6021828   2.348   0.738   4.966
  111MYC    H6121829   2.227   0.865   4.982
  111MYC    C3421830   2.188   0.689   5.102
  111MYC    H6221831   2.079   0.699   5.106
  111MYC    H6321832   2.210   0.582   5.099
  111MYC    C3521833   2.249   0.751   5.229
  111MYC    H6421834   2.358   0.741   5.226
  111MYC    H6521835   2.227   0.858   5.231
  111MYC    C3621836   2.196   0.687   5.359
  111MYC    H6621837   2.087   0.693   5.361
  111MYC    H6721838   2.223   0.581   5.361
  111MYC    C3721839   2.253   0.757   5.485
  111MYC    H6821840   2.362   0.743   5.487
  111MYC    H6921841   2.234   0.865   5.478
  111MYC    C3821842   2.192   0.705   5.617
  111MYC    H7021843   2.085   0.729   5.619
  111MYC    H7121844   2.201   0.596   5.621
  111MYC    C3921845   2.262   0.765   5.740
  111MYC    H7221846   2.364   0.725   5.746
  111MYC    H7321847   2.270   0.873   5.728
  111MYC    C4021848   2.188   0.737   5.873
  111MYC    H7421849   2.095   0.794   5.875
  111MYC    H7521850   2.161   0.631   5.878
  111MYC    C4121851   2.275   0.773   5.996
  111MYC    H7621852   2.355   0.699   6.005
  111MYC    H7721853   2.322   0.870   5.979
  111MYC    C4221854   2.195   0.778   6.128
  111MYC    H7821855   2.116   0.854   6.119
  111MYC    H7921856   2.146   0.682   6.146
  111MYC    C4321857   2.284   0.813   6.248
  111MYC    H8021858   2.223   0.827   6.338
  111MYC    H8121859   2.340   0.906   6.230
  111MYC    H8221860   2.357   0.733   6.267
  112MYC   HH1521861   2.585   1.755   6.282
  112MYC    C8021862   2.604   1.804   6.186
  112MYC   H10021863   2.538   1.891   6.178
  112MYC   H10121864   2.708   1.840   6.187
  112MYC    C7921865   2.582   1.705   6.071
  112MYC   H10221866   2.482   1.661   6.082
  112MYC   H10321867   2.654   1.623   6.079
  112MYC    C7821868   2.592   1.772   5.933
  112MYC   HH1421869   2.688   1.825   5.925
  112MYC   H10421870   2.513   1.847   5.924
  112MYC    C7721871   2.581   1.672   5.816
  112MYC   H10621872   2.495   1.606   5.832
  112MYC   H10721873   2.671   1.609   5.814
  112MYC    C7621874   2.565   1.744   5.681
  112MYC   H10821875   2.640   1.824   5.674
  112MYC   H10921876   2.467   1.793   5.679
  112MYC    C7521877   2.578   1.653   5.559
  112MYC   H11021878   2.509   1.568   5.567
  112MYC   H11121879   2.680   1.612   5.555
  112MYC    C7421880   2.549   1.729   5.428
  112MYC   H11221881   2.607   1.823   5.428
  112MYC   H11321882   2.443   1.757   5.427
  112MYC    C7321883   2.582   1.650   5.301
  112MYC   HH1321884   2.526   1.556   5.300
  112MYC   H11421885   2.689   1.625   5.301
  112MYC    C7221886   2.550   1.732   5.174
  112MYC   H11521887   2.603   1.828   5.178
  112MYC   H11621888   2.442   1.754   5.173
  112MYC    C7121889   2.587   1.659   5.044
  112MYC   H11721890   2.535   1.563   5.039
  112MYC   H11821891   2.695   1.638   5.044
  112MYC    C7021892   2.552   1.743   4.920
  112MYC   H11921893   2.608   1.837   4.922
  112MYC   H12021894   2.445   1.769   4.923
  112MYC    C6921895   2.581   1.669   4.788
  112MYC   H12121896   2.524   1.576   4.785
  112MYC   H12221897   2.687   1.642   4.783
  112MYC    C6821898   2.545   1.755   4.665
  112MYC   HH1221899   2.603   1.847   4.666
  112MYC   H12321900   2.439   1.783   4.672
  112MYC    C6721901   2.568   1.681   4.532
  112MYC   H12421902   2.515   1.585   4.535
  112MYC   H12521903   2.674   1.659   4.520
  112MYC    C6621904   2.516   1.762   4.412
  112MYC   H12621905   2.568   1.859   4.407
  112MYC   H12721906   2.410   1.783   4.427
  112MYC    C6521907   2.534   1.687   4.279
  112MYC   H12821908   2.502   1.583   4.291
  112MYC   H12921909   2.641   1.686   4.254
  112MYC    C6421910   2.454   1.752   4.164
  112MYC   H13021911   2.494   1.852   4.144
  112MYC   H13121912   2.350   1.764   4.195
  112MYC    C6321913   2.459   1.667   4.036
  112MYC   HH1121914   2.419   1.567   4.057
  112MYC   H13221915   2.563   1.655   4.005
  112MYC    C6221916   2.379   1.730   3.920
  112MYC   H13321917   2.419   1.830   3.899
  112MYC   H13421918   2.274   1.743   3.950
  112MYC    C6121919   2.386   1.645   3.792
  112MYC   H13521920   2.339   1.548   3.812
  112MYC   H13621921   2.491   1.624   3.769
  112MYC    C6021922   2.319   1.711   3.672
  112MYC   H13721923   2.279   1.810   3.693
  112MYC    C5821924   2.375   1.687   3.534
  112MYC   H13821925   2.459   1.619   3.527
  112MYC    C5921926   2.243   1.627   3.573
  112MYC   H13921927   2.153   1.670   3.531
  112MYC   H14021928   2.239   1.519   3.588
  112MYC    C5721929   2.382   1.798   3.429
  112MYC   HH1021930   2.477   1.851   3.439
  112MYC   H14121931   2.302   1.871   3.446
  112MYC    C5621932   2.368   1.742   3.286
  112MYC   H14221933   2.269   1.697   3.274
  112MYC   H14321934   2.442   1.662   3.272
  112MYC    C5521935   2.391   1.848   3.177
  112MYC   H14421936   2.491   1.891   3.188
  112MYC   H14521937   2.319   1.930   3.189
  112MYC    C5421938   2.376   1.789   3.035
  112MYC   H14621939   2.270   1.766   3.017
  112MYC   H14721940   2.431   1.694   3.029
  112MYC    C5321941   2.428   1.882   2.923
  112MYC   H14821942   2.536   1.899   2.937
  112MYC   H14921943   2.380   1.980   2.930
  112MYC    C5221944   2.405   1.823   2.782
  112MYC    H9921945   2.297   1.815   2.765
  112MYC   H15021946   2.445   1.720   2.780
  112MYC    C5121947   2.469   1.904   2.667
  112MYC    H9721948   2.577   1.911   2.683
  112MYC    H9821949   2.429   2.006   2.667
  112MYC    C5021950   2.442   1.837   2.530
  112MYC    H9521951   2.334   1.826   2.516
  112MYC    H9621952   2.484   1.735   2.533
  112MYC    C4921953   2.501   1.910   2.407
  112MYC    H9321954   2.610   1.918   2.419
  112MYC    H9421955   2.461   2.012   2.402
  112MYC    C4821956   2.468   1.833   2.277
  112MYC    H9121957   2.360   1.833   2.261
  112MYC    H9221958   2.497   1.729   2.292
  112MYC    C4721959   2.537   1.885   2.147
  112MYC    H8921960   2.632   1.932   2.173
  112MYC    H9021961   2.475   1.963   2.102
  112MYC    C4621962   2.559   1.769   2.047
  112MYC    H8721963   2.464   1.718   2.030
  112MYC    H8821964   2.622   1.694   2.096
  112MYC    C4521965   2.628   1.803   1.911
  112MYC    H8521966   2.662   1.709   1.865
  112MYC    H8621967   2.718   1.861   1.930
  112MYC    C4421968   2.544   1.881   1.809
  112MYC    H8321969   2.608   1.904   1.723
  112MYC    H8421970   2.517   1.977   1.853
  112MYC    C1821971   2.418   1.809   1.762
  112MYC    H3121972   2.381   1.734   1.832
  112MYC    C1721973   2.315   1.893   1.691
  112MYC    H3021974   2.343   1.994   1.661
  112MYC    C1921975   2.385   1.782   1.617
  112MYC    H3221976   2.460   1.807   1.544
  112MYC    H3321977   2.323   1.698   1.590
  112MYC    C1621978   2.171   1.882   1.736
  112MYC    H2821979   2.155   1.789   1.792
  112MYC    H2921980   2.109   1.876   1.646
  112MYC    C1521981   2.125   2.002   1.821
  112MYC    H2621982   2.019   1.986   1.845
  112MYC    H2721983   2.131   2.092   1.760
  112MYC    C1421984   2.200   2.026   1.953
  112MYC    H2421985   2.307   2.040   1.934
  112MYC    H2521986   2.190   1.938   2.018
  112MYC    C1321987   2.145   2.151   2.024
  112MYC    H2221988   2.036   2.144   2.028
  112MYC    H2321989   2.169   2.240   1.963
  112MYC    C1221990   2.198   2.173   2.166
  112MYC    H2021991   2.307   2.185   2.165
  112MYC    H2121992   2.175   2.084   2.226
  112MYC    C1121993   2.133   2.298   2.230
  112MYC    H1821994   2.024   2.294   2.217
  112MYC    H1921995   2.168   2.386   2.176
  112MYC    C1021996   2.164   2.318   2.380
  112MYC    H1621997   2.127   2.417   2.410
  112MYC    H1721998   2.272   2.318   2.394
  112MYC     C921999   2.101   2.212   2.471
  112MYC    H1422000   2.147   2.114   2.449
  112MYC    H1522001   1.994   2.203   2.449
  112MYC     C822002   2.119   2.242   2.621
  112MYC    H1222003   2.056   2.328   2.648
  112MYC    H1322004   2.223   2.270   2.642
  112MYC     C722005   2.081   2.120   2.707
  112MYC    H1022006   2.156   2.042   2.692
  112MYC    H1122007   1.985   2.080   2.673
  112MYC     C622008   2.069   2.151   2.858
  112MYC     H822009   1.986   2.221   2.874
  112MYC     H922010   2.161   2.201   2.893
  112MYC     C522011   2.046   2.022   2.939
  112MYC     H622012   2.138   1.964   2.940
  112MYC     H722013   1.971   1.961   2.886
  112MYC     C422014   1.995   2.041   3.083
  112MYC     H422015   1.988   1.941   3.127
  112MYC     H522016   1.893   2.080   3.081
  112MYC     C222017   2.083   2.130   3.175
  112MYC     H222018   2.188   2.112   3.151
  112MYC     O322019   2.052   2.268   3.152
  112MYC     H322020   1.963   2.284   3.188
  112MYC     C122021   2.063   2.096   3.326
  112MYC     H122022   2.095   1.991   3.336
  112MYC    C8122023   1.914   2.101   3.365
  112MYC    O8222024   1.850   2.204   3.376
  112MYC    O8322025   1.856   1.980   3.378
  112MYC   H10522026   1.761   1.998   3.396
  112MYC    C2022027   2.150   2.180   3.423
  112MYC    H3422028   2.254   2.179   3.388
  112MYC    H3522029   2.116   2.284   3.422
  112MYC    C2122030   2.146   2.125   3.567
  112MYC    H3622031   2.042   2.122   3.602
  112MYC    H3722032   2.181   2.022   3.567
  112MYC    C2222033   2.227   2.207   3.669
  112MYC    H3822034   2.325   2.234   3.626
  112MYC    H3922035   2.174   2.300   3.691
  112MYC    C2322036   2.250   2.127   3.799
  112MYC    H4022037   2.159   2.071   3.824
  112MYC    H4122038   2.329   2.052   3.781
  112MYC    C2422039   2.288   2.213   3.921
  112MYC    H4222040   2.371   2.281   3.895
  112MYC    H4322041   2.202   2.276   3.947
  112MYC    C2522042   2.329   2.127   4.043
  112MYC    H4422043   2.270   2.034   4.043
  112MYC    H4522044   2.434   2.097   4.032
  112MYC    C2622045   2.308   2.197   4.178
  112MYC    H4622046   2.366   2.291   4.181
  112MYC    H4722047   2.202   2.224   4.187
  112MYC    C2722048   2.348   2.109   4.298
  112MYC    H4822049   2.310   2.007   4.282
  112MYC    H4922050   2.457   2.102   4.304
  112MYC    C2822051   2.292   2.161   4.431
  112MYC    H5022052   2.328   2.263   4.449
  112MYC    H5122053   2.182   2.167   4.424
  112MYC    C2922054   2.328   2.072   4.552
  112MYC    H5222055   2.299   1.969   4.531
  112MYC    H5322056   2.437   2.074   4.566
  112MYC    C3022057   2.258   2.118   4.681
  112MYC    H5422058   2.278   2.224   4.697
  112MYC    H5522059   2.150   2.107   4.669
  112MYC    C3122060   2.303   2.038   4.806
  112MYC    H5622061   2.284   1.932   4.789
  112MYC    H5722062   2.412   2.050   4.819
  112MYC    C3222063   2.231   2.084   4.934
  112MYC    H5822064   2.245   2.192   4.948
  112MYC    H5922065   2.123   2.067   4.922
  112MYC    C3322066   2.280   2.010   5.060
  112MYC    H6022067   2.270   1.902   5.045
  112MYC    H6122068   2.386   2.031   5.075
  112MYC    C3422069   2.201   2.050   5.186
  112MYC    H6222070   2.211   2.159   5.201
  112MYC    H6322071   2.095   2.029   5.171
  112MYC    C3522072   2.250   1.977   5.313
  112MYC    H6422073   2.240   1.869   5.298
  112MYC    H6522074   2.357   1.998   5.327
  112MYC    C3622075   2.172   2.019   5.439
  112MYC    H6622076   2.181   2.127   5.453
  112MYC    H6722077   2.066   1.996   5.426
  112MYC    C3722078   2.224   1.947   5.566
  112MYC    H6822079   2.209   1.839   5.555
  112MYC    H6922080   2.332   1.965   5.575
  112MYC    C3822081   2.155   1.996   5.696
  112MYC    H7022082   2.173   2.103   5.707
  112MYC    H7122083   2.046   1.982   5.687
  112MYC    C3922084   2.206   1.921   5.821
  112MYC    H7222085   2.175   1.816   5.815
  112MYC    H7322086   2.316   1.923   5.820
  112MYC    C4022087   2.157   1.983   5.953
  112MYC    H7422088   2.192   2.086   5.959
  112MYC    H7522089   2.048   1.986   5.954
  112MYC    C4122090   2.208   1.905   6.077
  112MYC    H7622091   2.162   1.805   6.078
  112MYC    H7722092   2.316   1.891   6.068
  112MYC    C4222093   2.178   1.977   6.210
  112MYC    H7822094   2.221   2.078   6.207
  112MYC    H7922095   2.069   1.989   6.222
  112MYC    C4322096   2.235   1.903   6.333
  112MYC    H8022097   2.220   1.963   6.423
  112MYC    H8122098   2.342   1.885   6.321
  112MYC    H8222099   2.185   1.806   6.347
  113MYC   HH1522100   2.205   2.855   6.062
  113MYC    C8022101   2.277   2.774   6.075
  113MYC   H10022102   2.338   2.795   6.164
  113MYC   H10122103   2.222   2.681   6.093
  113MYC    C7922104   2.367   2.760   5.951
  113MYC   H10222105   2.442   2.682   5.970
  113MYC   H10322106   2.422   2.854   5.936
  113MYC    C7822107   2.290   2.725   5.822
  113MYC   HH1422108   2.218   2.804   5.798
  113MYC   H10422109   2.232   2.633   5.838
  113MYC    C7722110   2.385   2.704   5.702
  113MYC   H10622111   2.461   2.630   5.730
  113MYC   H10722112   2.438   2.798   5.681
  113MYC    C7622113   2.315   2.657   5.573
  113MYC   H10822114   2.250   2.736   5.534
  113MYC   H10922115   2.251   2.571   5.595
  113MYC    C7522116   2.418   2.615   5.465
  113MYC   H11022117   2.479   2.534   5.505
  113MYC   H11122118   2.485   2.699   5.446
  113MYC    C7422119   2.355   2.570   5.331
  113MYC   H11222120   2.309   2.657   5.282
  113MYC   H11322121   2.276   2.497   5.350
  113MYC    C7322122   2.461   2.508   5.237
  113MYC   HH1322123   2.495   2.413   5.281
  113MYC   H11422124   2.548   2.574   5.232
  113MYC    C7222125   2.409   2.482   5.095
  113MYC   H11522126   2.379   2.578   5.051
  113MYC   H11622127   2.319   2.419   5.098
  113MYC    C7122128   2.514   2.415   5.004
  113MYC   H11722129   2.527   2.310   5.033
  113MYC   H11822130   2.611   2.465   5.018
  113MYC    C7022131   2.476   2.424   4.855
  113MYC   H11922132   2.465   2.530   4.830
  113MYC   H12022133   2.377   2.378   4.840
  113MYC    C6922134   2.577   2.359   4.758
  113MYC   H12122135   2.544   2.256   4.735
  113MYC   H12222136   2.676   2.351   4.804
  113MYC    C6822137   2.588   2.441   4.628
  113MYC   HH1222138   2.640   2.535   4.651
  113MYC   H12322139   2.487   2.467   4.594
  113MYC    C6722140   2.662   2.372   4.512
  113MYC   H12422141   2.613   2.276   4.488
  113MYC   H12522142   2.766   2.349   4.540
  113MYC    C6622143   2.660   2.462   4.387
  113MYC   H12622144   2.717   2.554   4.408
  113MYC   H12722145   2.557   2.493   4.368
  113MYC    C6522146   2.715   2.398   4.258
  113MYC   H12822147   2.664   2.303   4.241
  113MYC   H12922148   2.822   2.376   4.270
  113MYC    C6422149   2.694   2.492   4.138
  113MYC   H13022150   2.756   2.582   4.150
  113MYC   H13122151   2.589   2.525   4.137
  113MYC    C6322152   2.724   2.427   4.002
  113MYC   HH1122153   2.665   2.335   3.992
  113MYC   H13222154   2.830   2.399   3.996
  113MYC    C6222155   2.689   2.522   3.885
  113MYC   H13322156   2.757   2.608   3.887
  113MYC   H13422157   2.588   2.561   3.900
  113MYC    C6122158   2.695   2.453   3.748
  113MYC   H13522159   2.627   2.367   3.748
  113MYC   H13622160   2.796   2.414   3.730
  113MYC    C6022161   2.658   2.549   3.635
  113MYC   H13722162   2.732   2.627   3.622
  113MYC    C5822163   2.589   2.497   3.512
  113MYC   H13822164   2.558   2.393   3.513
  113MYC    C5922165   2.515   2.589   3.606
  113MYC   H13922166   2.497   2.691   3.573
  113MYC   H14022167   2.436   2.546   3.667
  113MYC    C5722168   2.639   2.541   3.375
  113MYC   HH1022169   2.723   2.476   3.348
  113MYC   H14122170   2.679   2.643   3.379
  113MYC    C5622171   2.531   2.534   3.264
  113MYC   H14222172   2.480   2.630   3.258
  113MYC   H14322173   2.456   2.458   3.289
  113MYC    C5522174   2.594   2.497   3.128
  113MYC   H14422175   2.629   2.393   3.134
  113MYC   H14522176   2.683   2.559   3.112
  113MYC    C5422177   2.499   2.513   3.008
  113MYC   H14622178   2.476   2.619   2.994
  113MYC   H14722179   2.405   2.460   3.026
  113MYC    C5322180   2.565   2.457   2.880
  113MYC   H14822181   2.573   2.348   2.890
  113MYC   H14922182   2.668   2.495   2.873
  113MYC    C5222183   2.491   2.491   2.749
  113MYC    H9922184   2.496   2.599   2.732
  113MYC   H15022185   2.385   2.463   2.757
  113MYC    C5122186   2.555   2.416   2.630
  113MYC    H9722187   2.530   2.310   2.639
  113MYC    H9822188   2.664   2.423   2.638
  113MYC    C5022189   2.513   2.468   2.492
  113MYC    H9522190   2.548   2.571   2.480
  113MYC    H9622191   2.403   2.471   2.485
  113MYC    C4922192   2.572   2.380   2.380
  113MYC    H9322193   2.536   2.277   2.394
  113MYC    H9422194   2.681   2.377   2.392
  113MYC    C4822195   2.538   2.425   2.237
  113MYC    H9122196   2.568   2.530   2.223
  113MYC    H9222197   2.429   2.420   2.221
  113MYC    C4722198   2.610   2.336   2.133
  113MYC    H8922199   2.583   2.231   2.152
  113MYC    H9022200   2.718   2.345   2.148
  113MYC    C4622201   2.575   2.370   1.987
  113MYC    H8722202   2.602   2.474   1.966
  113MYC    H8822203   2.467   2.359   1.973
  113MYC    C4522204   2.650   2.278   1.889
  113MYC    H8522205   2.624   2.174   1.912
  113MYC    H8622206   2.758   2.288   1.905
  113MYC    C4422207   2.620   2.303   1.739
  113MYC    H8322208   2.673   2.227   1.680
  113MYC    H8422209   2.663   2.399   1.709
  113MYC    C1822210   2.473   2.298   1.703
  113MYC    H3122211   2.416   2.228   1.763
  113MYC    C1722212   2.403   2.423   1.654
  113MYC    H3022213   2.463   2.512   1.637
  113MYC    C1922214   2.430   2.309   1.559
  113MYC    H3222215   2.507   2.324   1.483
  113MYC    H3322216   2.345   2.249   1.527
  113MYC    C1622217   2.259   2.455   1.693
  113MYC    H2822218   2.215   2.373   1.750
  113MYC    H2922219   2.200   2.465   1.601
  113MYC    C1522220   2.244   2.587   1.772
  113MYC    H2622221   2.139   2.616   1.766
  113MYC    H2722222   2.302   2.665   1.721
  113MYC    C1422223   2.287   2.583   1.920
  113MYC    H2422224   2.396   2.578   1.927
  113MYC    H2522225   2.247   2.494   1.969
  113MYC    C1322226   2.240   2.711   1.993
  113MYC    H2222227   2.140   2.738   1.956
  113MYC    H2322228   2.308   2.791   1.965
  113MYC    C1222229   2.232   2.706   2.147
  113MYC    H2022230   2.333   2.693   2.189
  113MYC    H2122231   2.173   2.619   2.178
  113MYC    C1122232   2.167   2.835   2.201
  113MYC    H1822233   2.062   2.838   2.167
  113MYC    H1922234   2.218   2.921   2.156
  113MYC    C1022235   2.169   2.855   2.354
  113MYC    H1622236   2.124   2.952   2.376
  113MYC    H1722237   2.274   2.861   2.387
  113MYC     C922238   2.096   2.746   2.435
  113MYC    H1422239   2.148   2.650   2.421
  113MYC    H1522240   1.994   2.733   2.397
  113MYC     C822241   2.092   2.780   2.585
  113MYC    H1222242   2.018   2.861   2.601
  113MYC    H1322243   2.189   2.820   2.616
  113MYC     C722244   2.057   2.661   2.675
  113MYC    H1022245   2.135   2.584   2.666
  113MYC    H1122246   1.963   2.615   2.642
  113MYC     C622247   2.044   2.703   2.823
  113MYC     H822248   1.956   2.767   2.833
  113MYC     H922249   2.132   2.762   2.851
  113MYC     C522250   2.032   2.584   2.921
  113MYC     H622251   2.128   2.532   2.927
  113MYC     H722252   1.961   2.512   2.879
  113MYC     C422253   1.983   2.621   3.063
  113MYC     H422254   1.969   2.526   3.117
  113MYC     H522255   1.882   2.664   3.056
  113MYC     C222256   2.072   2.712   3.154
  113MYC     H222257   2.062   2.669   3.254
  113MYC     O322258   2.209   2.705   3.116
  113MYC     H322259   2.213   2.686   3.021
  113MYC     C122260   2.023   2.861   3.168
  113MYC     H122261   1.915   2.855   3.185
  113MYC    C8122262   2.043   2.947   3.041
  113MYC    O8222263   2.151   2.982   2.997
  113MYC    O8322264   1.927   2.994   2.988
  113MYC   H10522265   1.955   3.052   2.915
  113MYC    C2022266   2.082   2.935   3.292
  113MYC    H3422267   2.192   2.936   3.287
  113MYC    H3522268   2.050   3.040   3.288
  113MYC    C2122269   2.036   2.876   3.427
  113MYC    H3622270   1.928   2.859   3.423
  113MYC    H3722271   2.083   2.778   3.442
  113MYC    C2222272   2.067   2.964   3.550
  113MYC    H3822273   2.176   2.975   3.562
  113MYC    H3922274   2.026   3.064   3.534
  113MYC    C2322275   2.006   2.903   3.678
  113MYC    H4022276   1.900   2.884   3.660
  113MYC    H4122277   2.053   2.806   3.698
  113MYC    C2422278   2.020   2.992   3.804
  113MYC    H4222279   2.124   2.995   3.836
  113MYC    H4322280   1.990   3.094   3.779
  113MYC    C2522281   1.930   2.940   3.918
  113MYC    H4422282   1.827   2.933   3.880
  113MYC    H4522283   1.959   2.837   3.943
  113MYC    C2622284   1.928   3.028   4.045
  113MYC    H4622285   1.966   3.128   4.023
  113MYC    H4722286   1.824   3.040   4.076
  113MYC    C2722287   2.007   2.967   4.163
  113MYC    H4822288   1.976   2.863   4.176
  113MYC    H4922289   2.114   2.967   4.141
  113MYC    C2822290   1.981   3.042   4.296
  113MYC    H5022291   2.033   3.139   4.294
  113MYC    H5122292   1.874   3.064   4.304
  113MYC    C2922293   2.025   2.963   4.420
  113MYC    H5222294   1.979   2.863   4.417
  113MYC    H5322295   2.134   2.949   4.419
  113MYC    C3022296   1.982   3.033   4.550
  113MYC    H5422297   2.035   3.129   4.558
  113MYC    H5522298   1.875   3.055   4.546
  113MYC    C3122299   2.010   2.949   4.676
  113MYC    H5622300   1.960   2.852   4.668
  113MYC    H5722301   2.118   2.930   4.685
  113MYC    C3222302   1.960   3.020   4.804
  113MYC    H5822303   2.000   3.122   4.806
  113MYC    H5922304   1.850   3.028   4.799
  113MYC    C3322305   2.000   2.948   4.934
  113MYC    H6022306   1.960   2.846   4.934
  113MYC    H6122307   2.109   2.940   4.938
  113MYC    C3422308   1.949   3.023   5.058
  113MYC    H6222309   1.974   3.129   5.049
  113MYC    H6322310   1.840   3.015   5.063
  113MYC    C3522311   2.009   2.969   5.190
  113MYC    H6422312   1.987   2.862   5.200
  113MYC    H6522313   2.118   2.980   5.186
  113MYC    C3622314   1.956   3.045   5.313
  113MYC    H6622315   1.970   3.153   5.298
  113MYC    H6722316   1.847   3.028   5.321
  113MYC    C3722317   2.024   3.003   5.444
  113MYC    H6822318   2.007   2.895   5.461
  113MYC    H6922319   2.132   3.018   5.435
  113MYC    C3822320   1.971   3.083   5.565
  113MYC    H7022321   1.992   3.189   5.549
  113MYC    H7122322   1.863   3.071   5.571
  113MYC    C3922323   2.035   3.038   5.698
  113MYC    H7222324   2.009   2.933   5.716
  113MYC    H7322325   2.144   3.044   5.690
  113MYC    C4022326   1.987   3.124   5.817
  113MYC    H7422327   2.021   3.227   5.802
  113MYC    H7522328   1.878   3.125   5.819
  113MYC    C4122329   2.041   3.073   5.952
  113MYC    H7622330   2.004   2.970   5.967
  113MYC    H7722331   2.150   3.068   5.948
  113MYC    C4222332   1.998   3.161   6.071
  113MYC    H7822333   2.039   3.261   6.059
  113MYC    H7922334   1.889   3.170   6.072
  113MYC    C4322335   2.044   3.104   6.206
  113MYC    H8022336   2.013   3.169   6.288
  113MYC    H8122337   2.154   3.095   6.209
  113MYC    H8222338   2.001   3.004   6.222
  114MYC   HH1522339   2.365   3.428   6.127
  114MYC    C8022340   2.366   3.497   6.041
  114MYC   H10022341   2.304   3.584   6.066
  114MYC   H10122342   2.469   3.531   6.025
  114MYC    C7922343   2.312   3.427   5.915
  114MYC   H10222344   2.210   3.393   5.933
  114MYC   H10322345   2.372   3.337   5.895
  114MYC    C7822346   2.315   3.518   5.791
  114MYC   HH1422347   2.420   3.539   5.765
  114MYC   H10422348   2.268   3.614   5.815
  114MYC    C7722349   2.243   3.457   5.669
  114MYC   H10622350   2.136   3.449   5.690
  114MYC   H10722351   2.280   3.355   5.652
  114MYC    C7622352   2.265   3.540   5.541
  114MYC   H10822353   2.372   3.541   5.517
  114MYC   H10922354   2.235   3.644   5.560
  114MYC    C7522355   2.186   3.486   5.420
  114MYC   H11022356   2.079   3.497   5.438
  114MYC   H11122357   2.206   3.379   5.409
  114MYC    C7422358   2.225   3.559   5.290
  114MYC   H11222359   2.332   3.544   5.272
  114MYC   H11322360   2.209   3.667   5.302
  114MYC    C7322361   2.146   3.508   5.168
  114MYC   HH1322362   2.040   3.536   5.178
  114MYC   H11422363   2.151   3.399   5.165
  114MYC    C7222364   2.202   3.565   5.037
  114MYC   H11522365   2.310   3.544   5.032
  114MYC   H11622366   2.191   3.674   5.035
  114MYC    C7122367   2.134   3.504   4.913
  114MYC   H11722368   2.029   3.536   4.909
  114MYC   H11822369   2.135   3.395   4.922
  114MYC    C7022370   2.206   3.544   4.783
  114MYC   H11922371   2.313   3.519   4.791
  114MYC   H12022372   2.199   3.652   4.769
  114MYC    C6922373   2.147   3.472   4.661
  114MYC   H12122374   2.043   3.503   4.647
  114MYC   H12222375   2.147   3.364   4.679
  114MYC    C6822376   2.228   3.501   4.533
  114MYC   HH1222377   2.331   3.466   4.547
  114MYC   H12322378   2.232   3.609   4.516
  114MYC    C6722379   2.166   3.433   4.411
  114MYC   H12422380   2.069   3.479   4.389
  114MYC   H12522381   2.148   3.327   4.432
  114MYC    C6622382   2.257   3.444   4.288
  114MYC   H12622383   2.348   3.385   4.304
  114MYC   H12722384   2.288   3.548   4.274
  114MYC    C6522385   2.186   3.395   4.161
  114MYC   H12822386   2.099   3.459   4.142
  114MYC   H12922387   2.151   3.293   4.175
  114MYC    C6422388   2.279   3.399   4.039
  114MYC   H13022389   2.364   3.331   4.055
  114MYC   H13122390   2.320   3.500   4.028
  114MYC    C6322391   2.205   3.360   3.911
  114MYC   HH1122392   2.117   3.424   3.898
  114MYC   H13222393   2.169   3.256   3.920
  114MYC    C6222394   2.296   3.372   3.789
  114MYC   H13322395   2.380   3.303   3.799
  114MYC   H13422396   2.338   3.474   3.785
  114MYC    C6122397   2.221   3.344   3.658
  114MYC   H13522398   2.142   3.419   3.645
  114MYC   H13622399   2.172   3.246   3.664
  114MYC    C6022400   2.316   3.346   3.541
  114MYC   H13722401   2.384   3.261   3.542
  114MYC    C5822402   2.268   3.396   3.408
  114MYC   H13822403   2.170   3.442   3.403
  114MYC    C5922404   2.373   3.473   3.484
  114MYC   H13922405   2.476   3.471   3.447
  114MYC   H14022406   2.343   3.567   3.529
  114MYC    C5722407   2.299   3.312   3.286
  114MYC   HH1022408   2.206   3.263   3.254
  114MYC   H14122409   2.369   3.231   3.311
  114MYC    C5622410   2.359   3.392   3.170
  114MYC   H14222411   2.466   3.409   3.189
  114MYC   H14322412   2.311   3.490   3.163
  114MYC    C5522413   2.339   3.316   3.039
  114MYC   H14422414   2.235   3.329   3.007
  114MYC   H14522415   2.354   3.208   3.056
  114MYC    C5422416   2.433   3.361   2.927
  114MYC   H14622417   2.536   3.334   2.952
  114MYC   H14722418   2.428   3.469   2.916
  114MYC    C5322419   2.391   3.295   2.795
  114MYC   H14822420   2.292   3.333   2.768
  114MYC   H14922421   2.381   3.187   2.810
  114MYC    C5222422   2.488   3.321   2.680
  114MYC    H9922423   2.582   3.268   2.698
  114MYC   H15022424   2.510   3.428   2.672
  114MYC    C5122425   2.424   3.273   2.549
  114MYC    H9722426   2.334   3.331   2.530
  114MYC    H9822427   2.393   3.168   2.560
  114MYC    C5022428   2.517   3.284   2.428
  114MYC    H9522429   2.601   3.215   2.440
  114MYC    H9622430   2.559   3.385   2.422
  114MYC    C4922431   2.441   3.251   2.298
  114MYC    H9322432   2.359   3.324   2.285
  114MYC    H9422433   2.396   3.152   2.306
  114MYC    C4822434   2.532   3.255   2.176
  114MYC    H9122435   2.611   3.180   2.188
  114MYC    H9222436   2.582   3.353   2.172
  114MYC    C4722437   2.457   3.230   2.044
  114MYC    H8922438   2.386   3.312   2.026
  114MYC    H9022439   2.400   3.137   2.050
  114MYC    C4622440   2.558   3.223   1.929
  114MYC    H8722441   2.624   3.138   1.946
  114MYC    H8822442   2.619   3.313   1.939
  114MYC    C4522443   2.498   3.214   1.788
  114MYC    H8522444   2.430   3.298   1.769
  114MYC    H8622445   2.438   3.122   1.782
  114MYC    C4422446   2.608   3.207   1.678
  114MYC    H8322447   2.569   3.145   1.596
  114MYC    H8422448   2.696   3.154   1.716
  114MYC    C1822449   2.647   3.343   1.620
  114MYC    H3122450   2.587   3.367   1.533
  114MYC    C1722451   2.687   3.459   1.706
  114MYC    H3022452   2.703   3.444   1.811
  114MYC    C1922453   2.790   3.394   1.620
  114MYC    H3222454   2.866   3.332   1.666
  114MYC    H3322455   2.825   3.458   1.540
  114MYC    C1622456   2.636   3.597   1.674
  114MYC    H2822457   2.531   3.602   1.704
  114MYC    H2922458   2.638   3.614   1.566
  114MYC    C1522459   2.713   3.710   1.743
  114MYC    H2622460   2.668   3.806   1.716
  114MYC    H2722461   2.817   3.712   1.708
  114MYC    C1422462   2.710   3.697   1.895
  114MYC    H2422463   2.774   3.614   1.927
  114MYC    H2522464   2.608   3.674   1.927
  114MYC    C1322465   2.758   3.823   1.967
  114MYC    H2222466   2.705   3.911   1.928
  114MYC    H2322467   2.865   3.837   1.948
  114MYC    C1222468   2.732   3.810   2.117
  114MYC    H2022469   2.778   3.717   2.154
  114MYC    H2122470   2.623   3.800   2.132
  114MYC    C1122471   2.784   3.929   2.196
  114MYC    H1822472   2.730   4.019   2.166
  114MYC    H1922473   2.890   3.944   2.173
  114MYC    C1022474   2.769   3.912   2.347
  114MYC    H1622475   2.806   4.003   2.396
  114MYC    H1722476   2.834   3.830   2.381
  114MYC     C922477   2.624   3.883   2.391
  114MYC    H1422478   2.602   3.776   2.381
  114MYC    H1522479   2.554   3.936   2.325
  114MYC     C822480   2.595   3.929   2.535
  114MYC    H1222481   2.491   3.909   2.558
  114MYC    H1322482   2.610   4.037   2.541
  114MYC     C722483   2.682   3.863   2.643
  114MYC    H1022484   2.668   3.920   2.735
  114MYC    H1122485   2.789   3.873   2.619
  114MYC     C622486   2.648   3.714   2.665
  114MYC     H822487   2.705   3.653   2.593
  114MYC     H922488   2.542   3.695   2.644
  114MYC     C522489   2.680   3.668   2.807
  114MYC     H622490   2.783   3.697   2.831
  114MYC     H722491   2.678   3.558   2.810
  114MYC     C422492   2.580   3.724   2.913
  114MYC     H422493   2.483   3.677   2.895
  114MYC     H522494   2.563   3.831   2.898
  114MYC     C222495   2.619   3.701   3.061
  114MYC     H222496   2.525   3.698   3.117
  114MYC     O322497   2.683   3.574   3.073
  114MYC     H322498   2.719   3.566   3.163
  114MYC     C122499   2.705   3.816   3.122
  114MYC     H122500   2.639   3.904   3.125
  114MYC    C8122501   2.824   3.859   3.033
  114MYC    O8222502   2.826   3.965   2.973
  114MYC    O8322503   2.934   3.782   3.043
  114MYC   H10522504   3.001   3.825   2.988
  114MYC    C2022505   2.749   3.788   3.267
  114MYC    H3422506   2.798   3.691   3.274
  114MYC    H3522507   2.825   3.863   3.296
  114MYC    C2122508   2.634   3.796   3.370
  114MYC    H3622509   2.601   3.901   3.377
  114MYC    H3722510   2.548   3.738   3.336
  114MYC    C2222511   2.678   3.745   3.508
  114MYC    H3822512   2.684   3.636   3.505
  114MYC    H3922513   2.779   3.783   3.530
  114MYC    C2322514   2.583   3.790   3.620
  114MYC    H4022515   2.574   3.899   3.618
  114MYC    H4122516   2.483   3.748   3.604
  114MYC    C2422517   2.636   3.748   3.758
  114MYC    H4222518   2.642   3.638   3.763
  114MYC    H4322519   2.739   3.786   3.769
  114MYC    C2522520   2.550   3.800   3.873
  114MYC    H4422521   2.536   3.909   3.863
  114MYC    H4522522   2.451   3.754   3.869
  114MYC    C2622523   2.617   3.770   4.008
  114MYC    H4622524   2.639   3.663   4.014
  114MYC    H4722525   2.713   3.823   4.013
  114MYC    C2722526   2.531   3.810   4.129
  114MYC    H4822527   2.507   3.917   4.123
  114MYC    H4922528   2.436   3.755   4.128
  114MYC    C2822529   2.606   3.782   4.260
  114MYC    H5022530   2.634   3.676   4.263
  114MYC    H5122531   2.700   3.840   4.259
  114MYC    C2922532   2.526   3.818   4.386
  114MYC    H5222533   2.488   3.920   4.378
  114MYC    H5322534   2.439   3.751   4.394
  114MYC    C3022535   2.615   3.805   4.510
  114MYC    H5422536   2.651   3.702   4.519
  114MYC    H5522537   2.703   3.869   4.497
  114MYC    C3122538   2.544   3.845   4.640
  114MYC    H5622539   2.496   3.943   4.628
  114MYC    H5722540   2.465   3.773   4.663
  114MYC    C3222541   2.644   3.852   4.757
  114MYC    H5822542   2.695   3.755   4.765
  114MYC    H5922543   2.720   3.927   4.735
  114MYC    C3322544   2.578   3.885   4.891
  114MYC    H6022545   2.522   3.980   4.883
  114MYC    H6122546   2.505   3.807   4.916
  114MYC    C3422547   2.682   3.896   5.004
  114MYC    H6222548   2.748   3.809   5.001
  114MYC    H6322549   2.745   3.984   4.986
  114MYC    C3522550   2.618   3.906   5.143
  114MYC    H6422551   2.555   3.995   5.148
  114MYC    H6522552   2.553   3.819   5.158
  114MYC    C3622553   2.723   3.911   5.254
  114MYC    H6622554   2.794   3.828   5.241
  114MYC    H6722555   2.781   4.004   5.244
  114MYC    C3722556   2.662   3.903   5.395
  114MYC    H6822557   2.591   3.986   5.408
  114MYC    H6922558   2.605   3.810   5.405
  114MYC    C3822559   2.769   3.910   5.505
  114MYC    H7022560   2.843   3.830   5.489
  114MYC    H7122561   2.822   4.005   5.496
  114MYC    C3922562   2.711   3.896   5.647
  114MYC    H7222563   2.624   3.962   5.657
  114MYC    H7322564   2.676   3.793   5.662
  114MYC    C4022565   2.814   3.932   5.755
  114MYC    H7422566   2.905   3.874   5.739
  114MYC    H7522567   2.842   4.038   5.743
  114MYC    C4122568   2.764   3.909   5.899
  114MYC    H7622569   2.664   3.952   5.910
  114MYC    H7722570   2.755   3.801   5.916
  114MYC    C4222571   2.858   3.971   6.004
  114MYC    H7822572   2.960   3.932   5.990
  114MYC    H7922573   2.863   4.079   5.988
  114MYC    C4322574   2.814   3.943   6.149
  114MYC    H8022575   2.875   4.002   6.219
  114MYC    H8122576   2.826   3.837   6.173
  114MYC    H8222577   2.709   3.971   6.163
  115MYC   HH1522578   2.147   4.048   6.161
  115MYC    C8022579   2.256   4.053   6.153
  115MYC   H10022580   2.285   4.159   6.152
  115MYC   H10122581   2.300   4.006   6.242
  115MYC    C7922582   2.304   3.981   6.026
  115MYC   H10222583   2.250   3.886   6.016
  115MYC   H10322584   2.410   3.956   6.036
  115MYC    C7822585   2.286   4.065   5.897
  115MYC   HH1422586   2.357   4.148   5.898
  115MYC   H10422587   2.185   4.109   5.896
  115MYC    C7722588   2.305   3.982   5.769
  115MYC   H10622589   2.226   3.905   5.765
  115MYC   H10722590   2.401   3.928   5.773
  115MYC    C7622591   2.301   4.066   5.640
  115MYC   H10822592   2.391   4.128   5.634
  115MYC   H10922593   2.215   4.135   5.645
  115MYC    C7522594   2.289   3.980   5.513
  115MYC   H11022595   2.198   3.919   5.520
  115MYC   H11122596   2.373   3.910   5.508
  115MYC    C7422597   2.283   4.064   5.384
  115MYC   H11222598   2.379   4.117   5.372
  115MYC   H11322599   2.205   4.140   5.394
  115MYC    C7322600   2.255   3.978   5.260
  115MYC   HH1322601   2.159   3.926   5.273
  115MYC   H11422602   2.332   3.901   5.250
  115MYC    C7222603   2.250   4.061   5.131
  115MYC   H11522604   2.347   4.111   5.116
  115MYC   H11622605   2.175   4.141   5.141
  115MYC    C7122606   2.218   3.977   5.007
  115MYC   H11722607   2.121   3.928   5.021
  115MYC   H11822608   2.293   3.897   4.997
  115MYC    C7022609   2.215   4.060   4.878
  115MYC   H11922610   2.311   4.110   4.865
  115MYC   H12022611   2.138   4.138   4.887
  115MYC    C6922612   2.186   3.974   4.754
  115MYC   H12122613   2.090   3.922   4.767
  115MYC   H12222614   2.264   3.897   4.745
  115MYC    C6822615   2.183   4.057   4.624
  115MYC   HH1222616   2.278   4.108   4.611
  115MYC   H12322617   2.105   4.134   4.633
  115MYC    C6722618   2.154   3.970   4.501
  115MYC   H12422619   2.057   3.919   4.515
  115MYC   H12522620   2.231   3.892   4.493
  115MYC    C6622621   2.150   4.051   4.371
  115MYC   H12622622   2.249   4.096   4.354
  115MYC   H12722623   2.078   4.133   4.381
  115MYC    C6522624   2.112   3.965   4.250
  115MYC   H12822625   2.008   3.930   4.262
  115MYC   H12922626   2.175   3.875   4.247
  115MYC    C6422627   2.125   4.040   4.117
  115MYC   H13022628   2.231   4.065   4.101
  115MYC   H13122629   2.070   4.135   4.123
  115MYC    C6322630   2.073   3.959   3.997
  115MYC   HH1122631   1.966   3.943   4.009
  115MYC   H13222632   2.122   3.861   3.996
  115MYC    C6222633   2.101   4.031   3.864
  115MYC   H13322634   2.209   4.048   3.856
  115MYC   H13422635   2.053   4.130   3.866
  115MYC    C6122636   2.049   3.953   3.741
  115MYC   H13522637   1.976   4.016   3.689
  115MYC   H13622638   1.994   3.864   3.772
  115MYC    C6022639   2.160   3.913   3.644
  115MYC   H13722640   2.202   3.815   3.667
  115MYC    C5822641   2.150   3.954   3.500
  115MYC   H13822642   2.067   4.018   3.473
  115MYC    C5922643   2.256   4.015   3.587
  115MYC   H13922644   2.359   3.985   3.572
  115MYC   H14022645   2.243   4.119   3.616
  115MYC    C5722646   2.188   3.860   3.387
  115MYC   HH1022647   2.102   3.794   3.365
  115MYC   H14122648   2.271   3.795   3.415
  115MYC    C5622649   2.225   3.939   3.260
  115MYC   H14222650   2.323   3.987   3.274
  115MYC   H14322651   2.152   4.019   3.246
  115MYC    C5522652   2.226   3.853   3.133
  115MYC   H14422653   2.128   3.804   3.123
  115MYC   H14522654   2.301   3.774   3.141
  115MYC    C5422655   2.253   3.938   3.007
  115MYC   H14622656   2.359   3.968   3.005
  115MYC   H14722657   2.194   4.031   3.013
  115MYC    C5322658   2.216   3.866   2.877
  115MYC   H14822659   2.109   3.840   2.880
  115MYC   H14922660   2.272   3.772   2.869
  115MYC    C5222661   2.242   3.953   2.754
  115MYC    H9922662   2.350   3.973   2.746
  115MYC   H15022663   2.192   4.050   2.767
  115MYC    C5122664   2.192   3.890   2.623
  115MYC    H9722665   2.086   3.863   2.634
  115MYC    H9822666   2.248   3.798   2.604
  115MYC    C5022667   2.206   3.986   2.504
  115MYC    H9522668   2.311   4.018   2.495
  115MYC    H9622669   2.148   4.077   2.524
  115MYC    C4922670   2.160   3.925   2.371
  115MYC    H9322671   2.051   3.909   2.375
  115MYC    H9422672   2.207   3.827   2.357
  115MYC    C4822673   2.196   4.016   2.253
  115MYC    H9122674   2.305   4.019   2.242
  115MYC    H9222675   2.164   4.119   2.277
  115MYC    C4722676   2.132   3.975   2.120
  115MYC    H8922677   2.023   3.972   2.132
  115MYC    H9022678   2.165   3.874   2.092
  115MYC    C4622679   2.169   4.075   2.010
  115MYC    H8722680   2.276   4.067   1.988
  115MYC    H8822681   2.151   4.176   2.049
  115MYC    C4522682   2.088   4.057   1.880
  115MYC    H8522683   1.981   4.069   1.901
  115MYC    H8622684   2.103   3.954   1.845
  115MYC    C4422685   2.129   4.153   1.766
  115MYC    H8322686   2.074   4.126   1.675
  115MYC    H8422687   2.235   4.136   1.743
  115MYC    C1822688   2.108   4.302   1.798
  115MYC    H3122689   2.093   4.323   1.903
  115MYC    C1722690   2.190   4.402   1.720
  115MYC    H3022691   2.248   4.364   1.636
  115MYC    C1922692   2.040   4.398   1.703
  115MYC    H3222693   2.002   4.361   1.609
  115MYC    H3322694   1.981   4.478   1.748
  115MYC    C1622695   2.260   4.516   1.791
  115MYC    H2822696   2.190   4.564   1.861
  115MYC    H2922697   2.287   4.592   1.717
  115MYC    C1522698   2.387   4.474   1.868
  115MYC    H2622699   2.450   4.562   1.882
  115MYC    H2722700   2.445   4.403   1.808
  115MYC    C1422701   2.360   4.413   2.008
  115MYC    H2422702   2.339   4.306   1.996
  115MYC    H2522703   2.272   4.460   2.053
  115MYC    C1322704   2.479   4.432   2.105
  115MYC    H2222705   2.494   4.539   2.122
  115MYC    H2322706   2.571   4.395   2.058
  115MYC    C1222707   2.458   4.362   2.240
  115MYC    H2022708   2.455   4.253   2.224
  115MYC    H2122709   2.360   4.391   2.280
  115MYC    C1122710   2.568   4.395   2.343
  115MYC    H1822711   2.577   4.504   2.354
  115MYC    H1922712   2.664   4.360   2.304
  115MYC    C1022713   2.544   4.331   2.481
  115MYC    H1622714   2.638   4.334   2.538
  115MYC    H1722715   2.519   4.225   2.466
  115MYC     C922716   2.433   4.398   2.565
  115MYC    H1422717   2.340   4.404   2.506
  115MYC    H1522718   2.463   4.501   2.588
  115MYC     C822719   2.402   4.321   2.695
  115MYC    H1222720   2.496   4.302   2.748
  115MYC    H1322721   2.359   4.224   2.670
  115MYC     C722722   2.307   4.398   2.789
  115MYC    H1022723   2.217   4.429   2.735
  115MYC    H1122724   2.357   4.490   2.822
  115MYC     C622725   2.264   4.314   2.912
  115MYC     H822726   2.343   4.242   2.938
  115MYC     H922727   2.176   4.254   2.884
  115MYC     C522728   2.227   4.398   3.037
  115MYC     H622729   2.171   4.336   3.107
  115MYC     H722730   2.160   4.478   3.005
  115MYC     C422731   2.349   4.460   3.110
  115MYC     H422732   2.314   4.552   3.159
  115MYC     H522733   2.425   4.492   3.038
  115MYC     C222734   2.414   4.371   3.219
  115MYC     H222735   2.334   4.347   3.291
  115MYC     O322736   2.464   4.249   3.164
  115MYC     H322737   2.554   4.266   3.132
  115MYC     C122738   2.527   4.446   3.296
  115MYC     H122739   2.483   4.540   3.332
  115MYC    C8122740   2.645   4.487   3.205
  115MYC    O8222741   2.674   4.603   3.181
  115MYC    O8322742   2.723   4.385   3.161
  115MYC   H10522743   2.795   4.427   3.111
  115MYC    C2022744   2.576   4.373   3.423
  115MYC    H3422745   2.624   4.278   3.396
  115MYC    H3522746   2.654   4.434   3.469
  115MYC    C2122747   2.463   4.346   3.526
  115MYC    H3622748   2.384   4.420   3.515
  115MYC    H3722749   2.418   4.249   3.503
  115MYC    C2222750   2.511   4.346   3.672
  115MYC    H3822751   2.435   4.296   3.733
  115MYC    H3922752   2.603   4.287   3.681
  115MYC    C2322753   2.533   4.490   3.727
  115MYC    H4022754   2.596   4.547   3.658
  115MYC    H4122755   2.437   4.541   3.730
  115MYC    C2422756   2.597   4.495   3.866
  115MYC    H4222757   2.700   4.457   3.861
  115MYC    H4322758   2.604   4.600   3.896
  115MYC    C2522759   2.519   4.417   3.974
  115MYC    H4422760   2.412   4.440   3.965
  115MYC    H4522761   2.530   4.309   3.956
  115MYC    C2622762   2.566   4.450   4.116
  115MYC    H4622763   2.674   4.428   4.126
  115MYC    H4722764   2.554   4.558   4.132
  115MYC    C2722765   2.489   4.374   4.225
  115MYC    H4822766   2.382   4.374   4.202
  115MYC    H4922767   2.522   4.269   4.227
  115MYC    C2822768   2.511   4.438   4.363
  115MYC    H5022769   2.618   4.443   4.384
  115MYC    H5122770   2.475   4.542   4.358
  115MYC    C2922771   2.439   4.367   4.478
  115MYC    H5222772   2.332   4.354   4.454
  115MYC    H5322773   2.481   4.266   4.491
  115MYC    C3022774   2.453   4.447   4.608
  115MYC    H5422775   2.559   4.466   4.628
  115MYC    H5522776   2.405   4.545   4.595
  115MYC    C3122777   2.392   4.379   4.731
  115MYC    H5622778   2.286   4.355   4.712
  115MYC    H5722779   2.444   4.284   4.749
  115MYC    C3222780   2.403   4.468   4.856
  115MYC    H5822781   2.508   4.498   4.870
  115MYC    H5922782   2.346   4.561   4.839
  115MYC    C3322783   2.352   4.400   4.984
  115MYC    H6022784   2.248   4.369   4.970
  115MYC    H6122785   2.412   4.310   5.002
  115MYC    C3422786   2.363   4.493   5.106
  115MYC    H6222787   2.467   4.525   5.118
  115MYC    H6322788   2.303   4.583   5.089
  115MYC    C3522789   2.317   4.424   5.236
  115MYC    H6422790   2.212   4.393   5.226
  115MYC    H6522791   2.377   4.333   5.251
  115MYC    C3622792   2.332   4.514   5.359
  115MYC    H6622793   2.436   4.548   5.367
  115MYC    H6722794   2.270   4.604   5.346
  115MYC    C3722795   2.292   4.443   5.489
  115MYC    H6822796   2.189   4.406   5.480
  115MYC    H6922797   2.356   4.355   5.503
  115MYC    C3822798   2.304   4.533   5.613
  115MYC    H7022799   2.408   4.567   5.624
  115MYC    H7122800   2.242   4.623   5.598
  115MYC    C3922801   2.260   4.462   5.742
  115MYC    H7222802   2.158   4.423   5.728
  115MYC    H7322803   2.325   4.375   5.760
  115MYC    C4022804   2.262   4.555   5.865
  115MYC    H7422805   2.363   4.594   5.879
  115MYC    H7522806   2.196   4.640   5.846
  115MYC    C4122807   2.217   4.483   5.994
  115MYC    H7622808   2.120   4.434   5.976
  115MYC    H7722809   2.288   4.404   6.018
  115MYC    C4222810   2.203   4.579   6.113
  115MYC    H7822811   2.295   4.637   6.126
  115MYC    H7922812   2.122   4.651   6.092
  115MYC    C4322813   2.171   4.507   6.245
  115MYC    H8022814   2.135   4.578   6.320
  115MYC    H8122815   2.260   4.457   6.284
  115MYC    H8222816   2.093   4.431   6.230
  116MYC   HH1522817   2.329   4.978   6.198
  116MYC    C8022818   2.389   4.973   6.107
  116MYC   H10022819   2.452   5.062   6.103
  116MYC   H10122820   2.453   4.884   6.113
  116MYC    C7922821   2.297   4.966   5.983
  116MYC   H10222822   2.233   5.055   5.981
  116MYC   H10322823   2.231   4.879   5.992
  116MYC    C7822824   2.376   4.956   5.851
  116MYC   HH1422825   2.441   4.868   5.853
  116MYC   H10422826   2.442   5.044   5.842
  116MYC    C7722827   2.285   4.950   5.727
  116MYC   H10622828   2.219   5.038   5.726
  116MYC   H10722829   2.220   4.861   5.734
  116MYC    C7622830   2.364   4.945   5.595
  116MYC   H10822831   2.430   4.857   5.596
  116MYC   H10922832   2.429   5.033   5.590
  116MYC    C7522833   2.275   4.940   5.470
  116MYC   H11022834   2.200   5.020   5.475
  116MYC   H11122835   2.219   4.845   5.469
  116MYC    C7422836   2.356   4.954   5.341
  116MYC   H11222837   2.430   4.873   5.335
  116MYC   H11322838   2.412   5.048   5.344
  116MYC    C7322839   2.270   4.953   5.213
  116MYC   HH1322840   2.200   5.037   5.216
  116MYC   H11422841   2.211   4.861   5.209
  116MYC    C7222842   2.358   4.962   5.087
  116MYC   H11522843   2.422   4.874   5.083
  116MYC   H11622844   2.424   5.050   5.095
  116MYC    C7122845   2.278   4.973   4.956
  116MYC   H11722846   2.223   5.068   4.954
  116MYC   H11822847   2.203   4.893   4.952
  116MYC    C7022848   2.370   4.963   4.834
  116MYC   H11922849   2.421   4.866   4.835
  116MYC   H12022850   2.448   5.041   4.840
  116MYC    C6922851   2.296   4.979   4.700
  116MYC   H12122852   2.257   5.081   4.692
  116MYC   H12222853   2.210   4.911   4.698
  116MYC    C6822854   2.387   4.948   4.580
  116MYC   HH1222855   2.423   4.845   4.588
  116MYC   H12322856   2.476   5.013   4.584
  116MYC    C6722857   2.316   4.967   4.446
  116MYC   H12422858   2.285   5.072   4.436
  116MYC   H12522859   2.225   4.906   4.444
  116MYC    C6622860   2.405   4.928   4.326
  116MYC   H12622861   2.430   4.821   4.333
  116MYC   H12722862   2.499   4.984   4.331
  116MYC    C6522863   2.335   4.955   4.192
  116MYC   H12822864   2.316   5.063   4.183
  116MYC   H12922865   2.238   4.905   4.192
  116MYC    C6422866   2.417   4.907   4.072
  116MYC   H13022867   2.427   4.798   4.076
  116MYC   H13122868   2.518   4.949   4.076
  116MYC    C6322869   2.351   4.948   3.939
  116MYC   HH1122870   2.360   5.057   3.926
  116MYC   H13222871   2.244   4.925   3.943
  116MYC    C6222872   2.413   4.877   3.818
  116MYC   H13322873   2.401   4.769   3.830
  116MYC   H13422874   2.521   4.897   3.815
  116MYC    C6122875   2.350   4.921   3.686
  116MYC   H13522876   2.362   5.030   3.674
  116MYC   H13622877   2.242   4.902   3.688
  116MYC    C6022878   2.411   4.849   3.567
  116MYC   H13722879   2.393   4.742   3.569
  116MYC    C5822880   2.412   4.915   3.432
  116MYC   H13822881   2.373   5.016   3.427
  116MYC    C5922882   2.542   4.894   3.507
  116MYC   H13922883   2.610   4.817   3.472
  116MYC   H14022884   2.590   4.982   3.550
  116MYC    C5722885   2.378   4.833   3.309
  116MYC   HH1022886   2.285   4.778   3.326
  116MYC   H14122887   2.456   4.757   3.293
  116MYC    C5622888   2.366   4.917   3.181
  116MYC   H14222889   2.458   4.975   3.168
  116MYC   H14322890   2.284   4.989   3.193
  116MYC    C5522891   2.341   4.831   3.057
  116MYC   H14422892   2.247   4.775   3.068
  116MYC   H14522893   2.422   4.757   3.047
  116MYC    C5422894   2.335   4.915   2.928
  116MYC   H14622895   2.428   4.971   2.918
  116MYC   H14722896   2.253   4.988   2.937
  116MYC    C5322897   2.312   4.830   2.802
  116MYC   H14822898   2.211   4.787   2.805
  116MYC   H14922899   2.383   4.747   2.801
  116MYC    C5222900   2.329   4.914   2.675
  116MYC    H9922901   2.428   4.961   2.677
  116MYC   H15022902   2.255   4.996   2.674
  116MYC    C5122903   2.316   4.831   2.546
  116MYC    H9722904   2.214   4.793   2.536
  116MYC    H9822905   2.383   4.745   2.552
  116MYC    C5022906   2.353   4.914   2.421
  116MYC    H9522907   2.448   4.965   2.440
  116MYC    H9622908   2.277   4.993   2.406
  116MYC    C4922909   2.367   4.829   2.294
  116MYC    H9322910   2.272   4.781   2.271
  116MYC    H9422911   2.441   4.750   2.312
  116MYC    C4822912   2.410   4.913   2.173
  116MYC    H9122913   2.488   4.985   2.203
  116MYC    H9222914   2.324   4.972   2.140
  116MYC    C4722915   2.463   4.828   2.056
  116MYC    H8922916   2.391   4.749   2.032
  116MYC    H9022917   2.557   4.780   2.087
  116MYC    C4622918   2.488   4.914   1.931
  116MYC    H8722919   2.546   5.003   1.957
  116MYC    H8822920   2.391   4.948   1.895
  116MYC    C4522921   2.561   4.839   1.817
  116MYC    H8522922   2.505   4.748   1.791
  116MYC    H8622923   2.660   4.808   1.851
  116MYC    C4422924   2.575   4.923   1.688
  116MYC    H8322925   2.631   4.864   1.614
  116MYC    H8422926   2.635   5.012   1.709
  116MYC    C1822927   2.439   4.961   1.630
  116MYC    H3122928   2.370   4.878   1.625
  116MYC    C1722929   2.382   5.098   1.661
  116MYC    H3022930   2.446   5.168   1.714
  116MYC    C1922931   2.424   5.063   1.521
  116MYC    H3222932   2.514   5.108   1.481
  116MYC    H3322933   2.345   5.050   1.449
  116MYC    C1622934   2.234   5.112   1.695
  116MYC    H2822935   2.193   5.017   1.730
  116MYC    H2922936   2.179   5.136   1.603
  116MYC    C1522937   2.204   5.222   1.797
  116MYC    H2622938   2.095   5.230   1.808
  116MYC    H2722939   2.239   5.315   1.754
  116MYC    C1422940   2.267   5.206   1.938
  116MYC    H2422941   2.375   5.191   1.930
  116MYC    H2522942   2.225   5.117   1.987
  116MYC    C1322943   2.240   5.330   2.025
  116MYC    H2222944   2.132   5.342   2.036
  116MYC    H2322945   2.276   5.418   1.970
  116MYC    C1222946   2.306   5.331   2.164
  116MYC    H2022947   2.415   5.335   2.152
  116MYC    H2122948   2.282   5.239   2.219
  116MYC    C1122949   2.258   5.454   2.244
  116MYC    H1822950   2.154   5.439   2.274
  116MYC    H1922951   2.259   5.542   2.178
  116MYC    C1022952   2.342   5.491   2.369
  116MYC    H1622953   2.299   5.584   2.409
  116MYC    H1722954   2.445   5.514   2.339
  116MYC     C922955   2.344   5.385   2.482
  116MYC    H1422956   2.430   5.318   2.466
  116MYC    H1522957   2.254   5.322   2.476
  116MYC     C822958   2.352   5.449   2.622
  116MYC    H1222959   2.262   5.512   2.635
  116MYC    H1322960   2.438   5.517   2.627
  116MYC     C722961   2.359   5.348   2.737
  116MYC    H1022962   2.458   5.301   2.740
  116MYC    H1122963   2.286   5.267   2.718
  116MYC     C622964   2.327   5.411   2.875
  116MYC     H822965   2.232   5.466   2.867
  116MYC     H922966   2.404   5.484   2.901
  116MYC     C522967   2.313   5.305   2.988
  116MYC     H622968   2.412   5.282   3.030
  116MYC     H722969   2.276   5.213   2.944
  116MYC     C422970   2.213   5.344   3.100
  116MYC     H422971   2.184   5.251   3.151
  116MYC     H522972   2.121   5.380   3.052
  116MYC     C222973   2.259   5.444   3.211
  116MYC     H222974   2.271   5.385   3.302
  116MYC     O322975   2.385   5.504   3.180
  116MYC     H322976   2.370   5.574   3.114
  116MYC     C122977   2.152   5.554   3.240
  116MYC     H122978   2.056   5.502   3.250
  116MYC    C8122979   2.137   5.654   3.123
  116MYC    O8222980   2.222   5.735   3.090
  116MYC    O8322981   2.017   5.649   3.061
  116MYC   H10522982   2.020   5.718   2.993
  116MYC    C2022983   2.174   5.630   3.374
  116MYC    H3422984   2.278   5.667   3.379
  116MYC    H3522985   2.110   5.719   3.374
  116MYC    C2122986   2.141   5.547   3.500
  116MYC    H3622987   2.039   5.508   3.491
  116MYC    H3722988   2.208   5.460   3.506
  116MYC    C2222989   2.153   5.630   3.629
  116MYC    H3822990   2.258   5.659   3.643
  116MYC    H3922991   2.094   5.722   3.618
  116MYC    C2322992   2.104   5.555   3.755
  116MYC    H4022993   2.000   5.524   3.741
  116MYC    H4122994   2.164   5.464   3.769
  116MYC    C2422995   2.114   5.643   3.881
  116MYC    H4222996   2.219   5.672   3.895
  116MYC    H4322997   2.057   5.735   3.866
  116MYC    C2522998   2.064   5.573   4.009
  116MYC    H4422999   1.957   5.551   4.000
  116MYC    H4523000   2.116   5.477   4.020
  116MYC    C2623001   2.089   5.659   4.135
  116MYC    H4623002   2.194   5.691   4.135
  116MYC    H4723003   2.028   5.750   4.130
  116MYC    C2723004   2.059   5.584   4.266
  116MYC    H4823005   1.951   5.568   4.276
  116MYC    H4923006   2.106   5.485   4.263
  116MYC    C2823007   2.112   5.659   4.390
  116MYC    H5023008   2.218   5.684   4.374
  116MYC    H5123009   2.058   5.755   4.400
  116MYC    C2923010   2.099   5.578   4.520
  116MYC    H5223011   1.993   5.556   4.538
  116MYC    H5323012   2.150   5.482   4.507
  116MYC    C3023013   2.158   5.651   4.642
  116MYC    H5423014   2.263   5.676   4.622
  116MYC    H5523015   2.105   5.746   4.656
  116MYC    C3123016   2.150   5.567   4.771
  116MYC    H5623017   2.047   5.534   4.785
  116MYC    H5723018   2.212   5.477   4.759
  116MYC    C3223019   2.196   5.645   4.896
  116MYC    H5823020   2.296   5.685   4.880
  116MYC    H5923021   2.129   5.731   4.910
  116MYC    C3323022   2.196   5.558   5.023
  116MYC    H6023023   2.101   5.504   5.029
  116MYC    H6123024   2.275   5.483   5.015
  116MYC    C3423025   2.214   5.639   5.153
  116MYC    H6223026   2.296   5.710   5.141
  116MYC    H6323027   2.123   5.698   5.170
  116MYC    C3523028   2.242   5.550   5.276
  116MYC    H6423029   2.191   5.454   5.265
  116MYC    H6523030   2.349   5.529   5.280
  116MYC    C3623031   2.197   5.615   5.409
  116MYC    H6623032   2.228   5.720   5.412
  116MYC    H6723033   2.087   5.613   5.413
  116MYC    C3723034   2.253   5.543   5.533
  116MYC    H6823035   2.238   5.434   5.523
  116MYC    H6923036   2.362   5.559   5.536
  116MYC    C3823037   2.191   5.590   5.666
  116MYC    H7023038   2.196   5.700   5.672
  116MYC    H7123039   2.085   5.563   5.667
  116MYC    C3923040   2.261   5.529   5.788
  116MYC    H7223041   2.264   5.420   5.778
  116MYC    H7323042   2.365   5.564   5.790
  116MYC    C4023043   2.195   5.565   5.923
  116MYC    H7423044   2.190   5.674   5.934
  116MYC    H7523045   2.091   5.528   5.923
  116MYC    C4123046   2.271   5.505   6.043
  116MYC    H7623047   2.279   5.396   6.030
  116MYC    H7723048   2.373   5.544   6.044
  116MYC    C4223049   2.205   5.534   6.179
  116MYC    H7823050   2.196   5.642   6.193
  116MYC    H7923051   2.103   5.493   6.180
  116MYC    C4323052   2.284   5.474   6.297
  116MYC    H8023053   2.231   5.492   6.392
  116MYC    H8123054   2.383   5.519   6.304
  116MYC    H8223055   2.296   5.365   6.285
  117MYC   HH1523056   2.782   6.157   6.220
  117MYC    C8023057   2.732   6.109   6.136
  117MYC   H10023058   2.770   6.006   6.127
  117MYC   H10123059   2.625   6.104   6.157
  117MYC    C7923060   2.758   6.187   6.005
  117MYC   H10223061   2.866   6.200   5.992
  117MYC   H10323062   2.713   6.286   6.014
  117MYC    C7823063   2.701   6.115   5.882
  117MYC   HH1423064   2.592   6.106   5.893
  117MYC   H10423065   2.742   6.014   5.876
  117MYC    C7723066   2.732   6.189   5.750
  117MYC   H10623067   2.841   6.195   5.736
  117MYC   H10723068   2.695   6.292   5.755
  117MYC    C7623069   2.669   6.118   5.629
  117MYC   H10823070   2.560   6.118   5.641
  117MYC   H10923071   2.702   6.013   5.627
  117MYC    C7523072   2.706   6.183   5.495
  117MYC   H11023073   2.814   6.174   5.478
  117MYC   H11123074   2.683   6.291   5.498
  117MYC    C7423075   2.629   6.119   5.379
  117MYC   H11223076   2.522   6.140   5.390
  117MYC   H11323077   2.641   6.010   5.383
  117MYC    C7323078   2.676   6.168   5.241
  117MYC   HH1323079   2.779   6.133   5.225
  117MYC   H11423080   2.679   6.278   5.240
  117MYC    C7223081   2.585   6.120   5.127
  117MYC   H11523082   2.498   6.186   5.121
  117MYC   H11623083   2.548   6.019   5.149
  117MYC    C7123084   2.659   6.117   4.993
  117MYC   H11723085   2.727   6.031   4.993
  117MYC   H11823086   2.720   6.207   4.982
  117MYC    C7023087   2.565   6.107   4.872
  117MYC   H11923088   2.506   6.200   4.865
  117MYC   H12023089   2.494   6.024   4.886
  117MYC    C6923090   2.644   6.086   4.743
  117MYC   H12123091   2.689   5.986   4.745
  117MYC   H12223092   2.727   6.158   4.739
  117MYC    C6823093   2.560   6.101   4.615
  117MYC   HH1223094   2.522   6.204   4.609
  117MYC   H12323095   2.473   6.034   4.619
  117MYC    C6723096   2.645   6.070   4.491
  117MYC   H12423097   2.673   5.964   4.493
  117MYC   H12523098   2.738   6.127   4.496
  117MYC    C6623099   2.575   6.101   4.358
  117MYC   H12623100   2.547   6.207   4.355
  117MYC   H12723101   2.482   6.042   4.350
  117MYC    C6523102   2.667   6.068   4.240
  117MYC   H12823103   2.689   5.961   4.240
  117MYC   H12923104   2.763   6.120   4.255
  117MYC    C6423105   2.610   6.109   4.104
  117MYC   H13023106   2.587   6.216   4.104
  117MYC   H13123107   2.516   6.054   4.086
  117MYC    C6323108   2.710   6.078   3.991
  117MYC   HH1123109   2.730   5.970   3.990
  117MYC   H13223110   2.805   6.128   4.012
  117MYC    C6223111   2.659   6.121   3.853
  117MYC   H13323112   2.645   6.230   3.853
  117MYC   H13423113   2.561   6.075   3.835
  117MYC    C6123114   2.756   6.080   3.741
  117MYC   H13523115   2.771   5.972   3.744
  117MYC   H13623116   2.854   6.126   3.759
  117MYC    C6023117   2.704   6.122   3.605
  117MYC   H13723118   2.706   6.230   3.591
  117MYC    C5823119   2.728   6.036   3.484
  117MYC   H13823120   2.775   5.939   3.499
  117MYC    C5923121   2.589   6.051   3.540
  117MYC   H13923122   2.517   6.112   3.485
  117MYC   H14023123   2.546   5.966   3.591
  117MYC    C5723124   2.770   6.101   3.353
  117MYC   HH1023125   2.871   6.067   3.327
  117MYC   H14123126   2.777   6.210   3.365
  117MYC    C5623127   2.674   6.070   3.238
  117MYC   H14223128   2.578   6.120   3.255
  117MYC   H14323129   2.655   5.962   3.234
  117MYC    C5523130   2.730   6.116   3.103
  117MYC   H14423131   2.819   6.055   3.080
  117MYC   H14523132   2.763   6.220   3.110
  117MYC    C5423133   2.630   6.103   2.987
  117MYC   H14623134   2.546   6.171   3.005
  117MYC   H14723135   2.589   6.001   2.984
  117MYC    C5323136   2.696   6.136   2.853
  117MYC   H14823137   2.768   6.057   2.829
  117MYC   H14923138   2.752   6.230   2.861
  117MYC    C5223139   2.595   6.149   2.737
  117MYC    H9923140   2.532   6.237   2.754
  117MYC   H15023141   2.529   6.062   2.735
  117MYC    C5123142   2.667   6.162   2.602
  117MYC    H9723143   2.714   6.066   2.578
  117MYC    H9823144   2.748   6.235   2.612
  117MYC    C5023145   2.575   6.205   2.486
  117MYC    H9523146   2.550   6.311   2.497
  117MYC    H9623147   2.481   6.149   2.491
  117MYC    C4923148   2.638   6.181   2.347
  117MYC    H9323149   2.566   6.211   2.271
  117MYC    H9423150   2.655   6.074   2.333
  117MYC    C4823151   2.771   6.258   2.323
  117MYC    H9123152   2.842   6.235   2.404
  117MYC    H9223153   2.752   6.366   2.327
  117MYC    C4723154   2.841   6.223   2.190
  117MYC    H8923155   2.865   6.115   2.189
  117MYC    H9023156   2.938   6.275   2.188
  117MYC    C4623157   2.760   6.258   2.064
  117MYC    H8723158   2.716   6.358   2.076
  117MYC    H8823159   2.677   6.187   2.053
  117MYC    C4523160   2.845   6.259   1.936
  117MYC    H8523161   2.898   6.164   1.928
  117MYC    H8623162   2.923   6.336   1.946
  117MYC    C4423163   2.767   6.283   1.805
  117MYC    H8323164   2.838   6.314   1.728
  117MYC    H8423165   2.699   6.368   1.819
  117MYC    C1823166   2.691   6.161   1.756
  117MYC    H3123167   2.753   6.072   1.750
  117MYC    C1723168   2.546   6.137   1.790
  117MYC    H3023169   2.499   6.214   1.851
  117MYC    C1923170   2.586   6.175   1.649
  117MYC    H3223171   2.561   6.275   1.614
  117MYC    H3323172   2.584   6.098   1.572
  117MYC    C1623173   2.493   5.996   1.820
  117MYC    H2823174   2.560   5.945   1.890
  117MYC    H2923175   2.494   5.936   1.728
  117MYC    C1523176   2.349   5.998   1.877
  117MYC    H2623177   2.299   5.904   1.852
  117MYC    H2723178   2.292   6.077   1.827
  117MYC    C1423179   2.346   6.017   2.030
  117MYC    H2423180   2.426   6.085   2.061
  117MYC    H2523181   2.366   5.921   2.077
  117MYC    C1323182   2.211   6.071   2.083
  117MYC    H2223183   2.133   5.997   2.061
  117MYC    H2323184   2.186   6.163   2.028
  117MYC    C1223185   2.207   6.100   2.234
  117MYC    H2023186   2.289   6.167   2.261
  117MYC    H2123187   2.222   6.006   2.289
  117MYC    C1123188   2.073   6.165   2.278
  117MYC    H1823189   1.989   6.099   2.250
  117MYC    H1923190   2.059   6.258   2.221
  117MYC    C1023191   2.063   6.199   2.428
  117MYC    H1623192   1.978   6.265   2.444
  117MYC    H1723193   2.153   6.255   2.457
  117MYC     C923194   2.047   6.075   2.519
  117MYC    H1423195   2.124   6.001   2.496
  117MYC    H1523196   1.951   6.027   2.497
  117MYC     C823197   2.054   6.105   2.671
  117MYC    H1223198   2.036   6.011   2.725
  117MYC    H1323199   1.972   6.172   2.699
  117MYC     C723200   2.189   6.166   2.716
  117MYC    H1023201   2.185   6.275   2.705
  117MYC    H1123202   2.268   6.131   2.649
  117MYC     C623203   2.232   6.129   2.860
  117MYC     H823204   2.333   6.169   2.876
  117MYC     H923205   2.240   6.020   2.868
  117MYC     C523206   2.140   6.181   2.973
  117MYC     H623207   2.040   6.138   2.961
  117MYC     H723208   2.131   6.290   2.965
  117MYC     C423209   2.199   6.145   3.112
  117MYC     H423210   2.295   6.198   3.122
  117MYC     H523211   2.225   6.038   3.113
  117MYC     C223212   2.114   6.176   3.238
  117MYC     H223213   2.186   6.174   3.320
  117MYC     O323214   2.060   6.308   3.230
  117MYC     H323215   1.987   6.307   3.165
  117MYC     C123216   2.003   6.071   3.271
  117MYC     H123217   2.053   5.973   3.272
  117MYC    C8123218   1.892   6.064   3.165
  117MYC    O8223219   1.813   6.155   3.142
  117MYC    O8323220   1.887   5.948   3.096
  117MYC   H10523221   1.814   5.959   3.032
  117MYC    C2023222   1.941   6.089   3.413
  117MYC    H3423223   1.893   6.187   3.420
  117MYC    H3523224   1.862   6.014   3.426
  117MYC    C2123225   2.042   6.073   3.529
  117MYC    H3623226   2.093   5.976   3.520
  117MYC    H3723227   2.120   6.150   3.522
  117MYC    C2223228   1.977   6.083   3.668
  117MYC    H3823229   1.923   6.179   3.676
  117MYC    H3923230   1.903   6.003   3.680
  117MYC    C2323231   2.081   6.075   3.783
  117MYC    H4023232   2.135   5.979   3.776
  117MYC    H4123233   2.155   6.154   3.770
  117MYC    C2423234   2.017   6.088   3.922
  117MYC    H4223235   1.962   6.183   3.928
  117MYC    H4323236   1.943   6.007   3.935
  117MYC    C2523237   2.119   6.082   4.037
  117MYC    H4423238   2.177   5.989   4.030
  117MYC    H4523239   2.189   6.166   4.029
  117MYC    C2623240   2.049   6.087   4.175
  117MYC    H4623241   1.993   6.181   4.183
  117MYC    H4723242   1.976   6.005   4.181
  117MYC    C2723243   2.146   6.075   4.294
  117MYC    H4823244   2.200   5.979   4.288
  117MYC    H4923245   2.220   6.155   4.290
  117MYC    C2823246   2.070   6.083   4.428
  117MYC    H5023247   2.020   6.180   4.435
  117MYC    H5123248   1.992   6.006   4.430
  117MYC    C2923249   2.160   6.064   4.552
  117MYC    H5223250   2.202   5.962   4.551
  117MYC    H5323251   2.244   6.134   4.548
  117MYC    C3023252   2.081   6.086   4.682
  117MYC    H5423253   2.050   6.191   4.688
  117MYC    H5523254   1.990   6.026   4.680
  117MYC    C3123255   2.161   6.050   4.809
  117MYC    H5623256   2.185   5.944   4.807
  117MYC    H5723257   2.255   6.105   4.810
  117MYC    C3223258   2.082   6.083   4.937
  117MYC    H5823259   2.066   6.191   4.943
  117MYC    H5923260   1.982   6.036   4.932
  117MYC    C3323261   2.152   6.035   5.066
  117MYC    H6023262   2.162   5.926   5.063
  117MYC    H6123263   2.253   6.077   5.070
  117MYC    C3423264   2.075   6.076   5.193
  117MYC    H6223265   2.065   6.185   5.195
  117MYC    H6323266   1.973   6.035   5.188
  117MYC    C3523267   2.142   6.028   5.322
  117MYC    H6423268   2.147   5.918   5.322
  117MYC    H6523269   2.246   6.065   5.325
  117MYC    C3623270   2.068   6.075   5.448
  117MYC    H6623271   2.061   6.185   5.447
  117MYC    H6723272   1.965   6.037   5.446
  117MYC    C3723273   2.135   6.031   5.580
  117MYC    H6823274   2.137   5.921   5.585
  117MYC    H6923275   2.240   6.065   5.580
  117MYC    C3823276   2.063   6.087   5.704
  117MYC    H7023277   2.061   6.197   5.697
  117MYC    H7123278   1.959   6.054   5.702
  117MYC    C3923279   2.128   6.046   5.837
  117MYC    H7223280   2.130   5.937   5.846
  117MYC    H7323281   2.232   6.081   5.839
  117MYC    C4023282   2.053   6.106   5.958
  117MYC    H7423283   2.046   6.215   5.946
  117MYC    H7523284   1.950   6.067   5.959
  117MYC    C4123285   2.120   6.076   6.094
  117MYC    H7623286   2.128   5.968   6.108
  117MYC    H7723287   2.221   6.117   6.093
  117MYC    C4223288   2.041   6.137   6.212
  117MYC    H7823289   2.024   6.243   6.194
  117MYC    H7923290   1.943   6.089   6.218
  117MYC    C4323291   2.112   6.121   6.348
  117MYC    H8023292   2.126   6.015   6.373
  117MYC    H8123293   2.053   6.167   6.428
  117MYC    H8223294   2.211   6.169   6.346
  118MYC   HH1523295   2.993   0.038   6.312
  118MYC    C8023296   3.006   0.104   6.225
  118MYC   H10023297   2.952   0.198   6.245
  118MYC   H10123298   3.113   0.127   6.215
  118MYC    C7923299   2.953   0.037   6.098
  118MYC   H10223300   2.845   0.020   6.109
  118MYC   H10323301   3.000   6.388   6.088
  118MYC    C7823302   2.979   0.119   5.970
  118MYC   HH1423303   3.087   0.130   5.956
  118MYC   H10423304   2.938   0.220   5.981
  118MYC    C7723305   2.918   0.054   5.843
  118MYC   H10623306   2.809   0.061   5.848
  118MYC   H10723307   2.943   6.396   5.843
  118MYC    C7623308   2.969   0.116   5.712
  118MYC   H10823309   3.077   0.102   5.705
  118MYC   H10923310   2.950   0.225   5.714
  118MYC    C7523311   2.902   0.055   5.587
  118MYC   H11023312   2.794   0.073   5.592
  118MYC   H11123313   2.917   6.396   5.588
  118MYC    C7423314   2.956   0.112   5.455
  118MYC   H11223315   3.063   0.090   5.447
  118MYC   H11323316   2.946   0.221   5.455
  118MYC    C7323317   2.883   0.056   5.331
  118MYC   HH1323318   2.776   0.080   5.339
  118MYC   H11423319   2.891   6.396   5.332
  118MYC    C7223320   2.939   0.109   5.198
  118MYC   H11523321   3.042   0.074   5.186
  118MYC   H11623322   2.942   0.219   5.201
  118MYC    C7123323   2.855   0.066   5.076
  118MYC   H11723324   2.760   0.122   5.075
  118MYC   H11823325   2.829   6.409   5.085
  118MYC    C7023326   2.928   0.086   4.942
  118MYC   H11923327   3.011   0.014   4.937
  118MYC   H12023328   2.973   0.186   4.940
  118MYC    C6923329   2.837   0.069   4.819
  118MYC   H12123330   2.776   0.159   4.808
  118MYC   H12223331   2.768   6.435   4.834
  118MYC    C6823332   2.917   0.045   4.689
  118MYC   HH1223333   2.960   6.394   4.692
  118MYC   H12323334   3.001   0.115   4.685
  118MYC    C6723335   2.833   0.061   4.562
  118MYC   H12423336   2.801   0.166   4.553
  118MYC   H12523337   2.741   0.001   4.570
  118MYC    C6623338   2.909   0.020   4.434
  118MYC   H12623339   2.919   6.361   4.431
  118MYC   H12723340   3.011   0.061   4.437
  118MYC    C6523341   2.840   0.069   4.305
  118MYC   H12823342   2.841   0.179   4.305
  118MYC   H12923343   2.735   0.038   4.306
  118MYC    C6423344   2.907   0.017   4.176
  118MYC   H13023345   2.896   6.358   4.171
  118MYC   H13123346   3.014   0.039   4.179
  118MYC    C6323347   2.846   0.081   4.050
  118MYC   HH1123348   2.866   0.189   4.052
  118MYC   H13223349   2.737   0.069   4.052
  118MYC    C6223350   2.900   0.022   3.918
  118MYC   H13323351   2.878   6.365   3.914
  118MYC   H13423352   3.009   0.033   3.916
  118MYC    C6123353   2.840   0.092   3.794
  118MYC   H13523354   2.858   0.200   3.802
  118MYC   H13623355   2.731   0.079   3.795
  118MYC    C6023356   2.896   0.039   3.663
  118MYC   H13723357   2.866   6.387   3.642
  118MYC    C5823358   2.912   0.133   3.545
  118MYC   H13823359   2.890   0.238   3.562
  118MYC    C5923360   3.034   0.078   3.616
  118MYC   H13923361   3.093   0.002   3.566
  118MYC   H14023362   3.091   0.146   3.679
  118MYC    C5723363   2.875   0.089   3.404
  118MYC   HH1023364   2.767   0.104   3.390
  118MYC   H14123365   2.893   6.431   3.392
  118MYC    C5623366   2.952   0.165   3.295
  118MYC   H14223367   3.058   0.137   3.301
  118MYC   H14323368   2.946   0.273   3.313
  118MYC    C5523369   2.899   0.135   3.153
  118MYC   H14423370   2.799   0.179   3.143
  118MYC   H14523371   2.887   0.027   3.141
  118MYC    C5423372   2.988   0.189   3.039
  118MYC   H14623373   3.087   0.142   3.046
  118MYC   H14723374   3.002   0.297   3.050
  118MYC    C5323375   2.927   0.159   2.900
  118MYC   H14823376   2.835   0.217   2.892
  118MYC   H14923377   2.900   0.053   2.895
  118MYC    C5223378   3.016   0.195   2.780
  118MYC    H9923379   3.116   0.152   2.793
  118MYC   H15023380   3.027   0.304   2.776
  118MYC    C5123381   2.955   0.145   2.647
  118MYC    H9723382   2.852   0.183   2.638
  118MYC    H9823383   2.948   0.036   2.650
  118MYC    C5023384   3.035   0.187   2.521
  118MYC    H9523385   3.137   0.147   2.527
  118MYC    H9623386   3.043   0.297   2.519
  118MYC    C4923387   2.967   0.138   2.391
  118MYC    H9323388   2.863   0.175   2.390
  118MYC    H9423389   2.961   0.029   2.394
  118MYC    C4823390   3.037   0.182   2.261
  118MYC    H9123391   3.133   0.128   2.251
  118MYC    H9223392   3.060   0.288   2.267
  118MYC    C4723393   2.949   0.156   2.137
  118MYC    H8923394   2.857   0.215   2.147
  118MYC    H9023395   2.918   0.051   2.137
  118MYC    C4623396   3.014   0.187   2.000
  118MYC    H8723397   3.090   0.112   1.979
  118MYC    H8823398   3.065   0.284   2.005
  118MYC    C4523399   2.909   0.191   1.887
  118MYC    H8523400   2.843   0.277   1.903
  118MYC    H8623401   2.845   0.102   1.894
  118MYC    C4423402   2.967   0.197   1.744
  118MYC    H8323403   2.884   0.177   1.674
  118MYC    H8423404   3.038   0.115   1.730
  118MYC    C1823405   3.031   0.331   1.706
  118MYC    H3123406   3.017   0.409   1.781
  118MYC    C1723407   3.159   0.337   1.624
  118MYC    H3023408   3.201   0.243   1.592
  118MYC    C1923409   3.028   0.376   1.562
  118MYC    H3223410   2.988   0.308   1.487
  118MYC    H3323411   3.011   0.482   1.542
  118MYC    C1623412   3.265   0.443   1.648
  118MYC    H2823413   3.221   0.531   1.697
  118MYC    H2923414   3.304   0.478   1.551
  118MYC    C1523415   3.384   0.394   1.733
  118MYC    H2623416   3.452   0.479   1.748
  118MYC    H2723417   3.440   0.318   1.678
  118MYC    C1423418   3.342   0.338   1.871
  118MYC    H2423419   3.292   0.241   1.856
  118MYC    H2523420   3.270   0.406   1.917
  118MYC    C1323421   3.462   0.318   1.966
  118MYC    H2223422   3.513   0.414   1.978
  118MYC    H2323423   3.533   0.249   1.920
  118MYC    C1223424   3.421   0.268   2.105
  118MYC    H2023425   3.351   0.184   2.096
  118MYC    H2123426   3.366   0.348   2.156
  118MYC    C1123427   3.541   0.223   2.191
  118MYC    H1823428   3.632   0.275   2.160
  118MYC    H1923429   3.559   0.116   2.173
  118MYC    C1023430   3.521   0.244   2.343
  118MYC    H1623431   3.588   0.176   2.396
  118MYC    H1723432   3.419   0.217   2.371
  118MYC     C923433   3.552   0.389   2.387
  118MYC    H1423434   3.482   0.459   2.340
  118MYC    H1523435   3.652   0.416   2.351
  118MYC     C823436   3.552   0.409   2.540
  118MYC    H1223437   3.609   0.499   2.563
  118MYC    H1323438   3.604   0.325   2.587
  118MYC     C723439   3.412   0.420   2.604
  118MYC    H1023440   3.358   0.326   2.592
  118MYC    H1123441   3.354   0.499   2.554
  118MYC     C623442   3.426   0.454   2.754
  118MYC     H823443   3.474   0.551   2.764
  118MYC     H923444   3.493   0.380   2.800
  118MYC     C523445   3.292   0.457   2.830
  118MYC     H623446   3.243   0.360   2.821
  118MYC     H723447   3.226   0.531   2.782
  118MYC     C423448   3.306   0.493   2.980
  118MYC     H423449   3.212   0.538   3.012
  118MYC     H523450   3.383   0.570   2.991
  118MYC     C223451   3.335   0.374   3.075
  118MYC     H223452   3.247   0.308   3.071
  118MYC     O323453   3.448   0.298   3.032
  118MYC     H323454   3.528   0.343   3.064
  118MYC     C123455   3.353   0.418   3.223
  118MYC     H123456   3.262   0.472   3.251
  118MYC    C8123457   3.470   0.517   3.242
  118MYC    O8223458   3.456   0.631   3.283
  118MYC    O8323459   3.594   0.465   3.223
  118MYC   H10523460   3.656   0.537   3.243
  118MYC    C2023461   3.365   0.298   3.320
  118MYC    H3423462   3.283   0.227   3.300
  118MYC    H3523463   3.458   0.244   3.302
  118MYC    C2123464   3.358   0.341   3.468
  118MYC    H3623465   3.434   0.418   3.487
  118MYC    H3723466   3.260   0.386   3.487
  118MYC    C2223467   3.381   0.225   3.566
  118MYC    H3823468   3.313   0.142   3.543
  118MYC    H3923469   3.484   0.188   3.556
  118MYC    C2323470   3.358   0.272   3.711
  118MYC    H4023471   3.418   0.361   3.731
  118MYC    H4123472   3.253   0.303   3.722
  118MYC    C2423473   3.391   0.166   3.818
  118MYC    H4223474   3.346   0.069   3.791
  118MYC    H4323475   3.500   0.151   3.821
  118MYC    C2523476   3.339   0.209   3.956
  118MYC    H4423477   3.353   0.317   3.967
  118MYC    H4523478   3.231   0.190   3.960
  118MYC    C2623479   3.409   0.139   4.075
  118MYC    H4623480   3.405   0.030   4.062
  118MYC    H4723481   3.514   0.169   4.076
  118MYC    C2723482   3.341   0.179   4.207
  118MYC    H4823483   3.321   0.287   4.206
  118MYC    H4923484   3.244   0.129   4.214
  118MYC    C2823485   3.424   0.148   4.334
  118MYC    H5023486   3.448   0.041   4.337
  118MYC    H5123487   3.518   0.203   4.330
  118MYC    C2923488   3.346   0.189   4.460
  118MYC    H5223489   3.316   0.294   4.450
  118MYC    H5323490   3.253   0.131   4.465
  118MYC    C3023491   3.423   0.172   4.592
  118MYC    H5423492   3.456   0.068   4.603
  118MYC    H5523493   3.512   0.236   4.590
  118MYC    C3123494   3.334   0.211   4.712
  118MYC    H5623495   3.293   0.312   4.694
  118MYC    H5723496   3.248   0.143   4.717
  118MYC    C3223497   3.406   0.212   4.847
  118MYC    H5823498   3.445   0.112   4.870
  118MYC    H5923499   3.493   0.280   4.841
  118MYC    C3323500   3.312   0.258   4.960
  118MYC    H6023501   3.264   0.352   4.930
  118MYC    H6123502   3.232   0.185   4.974
  118MYC    C3423503   3.384   0.281   5.095
  118MYC    H6223504   3.422   0.186   5.133
  118MYC    H6323505   3.470   0.347   5.079
  118MYC    C3523506   3.290   0.345   5.200
  118MYC    H6423507   3.245   0.436   5.158
  118MYC    H6523508   3.208   0.275   5.221
  118MYC    C3623509   3.363   0.381   5.331
  118MYC    H6623510   3.413   0.292   5.370
  118MYC    H6723511   3.441   0.456   5.310
  118MYC    C3723512   3.266   0.437   5.438
  118MYC    H6823513   3.217   0.527   5.400
  118MYC    H6923514   3.188   0.362   5.457
  118MYC    C3823515   3.337   0.470   5.571
  118MYC    H7023516   3.400   0.385   5.601
  118MYC    H7123517   3.404   0.556   5.556
  118MYC    C3923518   3.238   0.501   5.685
  118MYC    H7223519   3.182   0.593   5.661
  118MYC    H7323520   3.165   0.420   5.692
  118MYC    C4023521   3.307   0.518   5.822
  118MYC    H7423522   3.369   0.430   5.842
  118MYC    H7523523   3.374   0.605   5.819
  118MYC    C4123524   3.207   0.536   5.938
  118MYC    H7623525   3.150   0.628   5.923
  118MYC    H7723526   3.134   0.453   5.936
  118MYC    C4223527   3.275   0.539   6.077
  118MYC    H7823528   3.328   0.445   6.094
  118MYC    H7923529   3.350   0.619   6.078
  118MYC    C4323530   3.176   0.564   6.192
  118MYC    H8023531   3.231   0.576   6.287
  118MYC    H8123532   3.107   0.479   6.203
  118MYC    H8223533   3.118   0.655   6.175
  119MYC   HH1523534   3.380   0.895   6.246
  119MYC    C8023535   3.354   0.972   6.172
  119MYC   H10023536   3.254   1.010   6.195
  119MYC   H10123537   3.426   1.054   6.181
  119MYC    C7923538   3.358   0.912   6.030
  119MYC   H10223539   3.285   0.830   6.025
  119MYC   H10323540   3.456   0.868   6.012
  119MYC    C7823541   3.324   1.013   5.919
  119MYC   HH1423542   3.387   1.102   5.929
  119MYC   H10423543   3.220   1.045   5.931
  119MYC    C7723544   3.343   0.952   5.779
  119MYC   H10623545   3.298   0.852   5.776
  119MYC   H10723546   3.450   0.939   5.759
  119MYC    C7623547   3.280   1.037   5.667
  119MYC   H10823548   3.322   1.139   5.668
  119MYC   H10923549   3.173   1.045   5.685
  119MYC    C7523550   3.303   0.974   5.528
  119MYC   H11023551   3.284   0.866   5.534
  119MYC   H11123552   3.408   0.987   5.499
  119MYC    C7423553   3.213   1.034   5.419
  119MYC   H11223554   3.235   1.141   5.406
  119MYC   H11323555   3.108   1.026   5.450
  119MYC    C7323556   3.230   0.962   5.285
  119MYC   HH1323557   3.213   0.854   5.300
  119MYC   H11423558   3.334   0.973   5.251
  119MYC    C7223559   3.135   1.012   5.175
  119MYC   H11523560   3.154   1.119   5.156
  119MYC   H11623561   3.031   1.003   5.208
  119MYC    C7123562   3.154   0.933   5.044
  119MYC   H11723563   3.125   0.829   5.061
  119MYC   H11823564   3.260   0.933   5.019
  119MYC    C7023565   3.075   0.989   4.925
  119MYC   H11923566   3.097   1.096   4.914
  119MYC   H12023567   2.967   0.980   4.943
  119MYC    C6923568   3.113   0.916   4.796
  119MYC   H12123569   3.085   0.810   4.804
  119MYC   H12223570   3.222   0.919   4.785
  119MYC    C6823571   3.050   0.975   4.668
  119MYC   HH1223572   3.063   1.084   4.668
  119MYC   H12323573   2.942   0.954   4.667
  119MYC    C6723574   3.117   0.916   4.543
  119MYC   H12423575   3.110   0.807   4.546
  119MYC   H12523576   3.224   0.941   4.546
  119MYC    C6623577   3.058   0.967   4.411
  119MYC   H12623578   3.057   1.076   4.410
  119MYC   H12723579   2.954   0.932   4.402
  119MYC    C6523580   3.140   0.915   4.291
  119MYC   H12823581   3.152   0.807   4.299
  119MYC   H12923582   3.241   0.959   4.296
  119MYC    C6423583   3.077   0.949   4.155
  119MYC   H13023584   3.069   1.058   4.145
  119MYC   H13123585   2.976   0.907   4.151
  119MYC    C6323586   3.160   0.892   4.039
  119MYC   HH1123587   3.168   0.783   4.050
  119MYC   H13223588   3.262   0.932   4.045
  119MYC    C6223589   3.101   0.925   3.902
  119MYC   H13323590   3.102   1.034   3.889
  119MYC   H13423591   2.997   0.893   3.897
  119MYC    C6123592   3.180   0.859   3.787
  119MYC   H13523593   3.151   0.753   3.781
  119MYC   H13623594   3.287   0.860   3.810
  119MYC    C6023595   3.159   0.928   3.654
  119MYC   H13723596   3.203   1.027   3.653
  119MYC    C5823597   3.164   0.849   3.527
  119MYC   H13823598   3.170   0.740   3.535
  119MYC    C5923599   3.033   0.910   3.572
  119MYC   H13923600   2.996   0.997   3.517
  119MYC   H14023601   2.956   0.844   3.610
  119MYC    C5723602   3.244   0.902   3.409
  119MYC   HH1023603   3.348   0.868   3.418
  119MYC   H14123604   3.246   1.012   3.412
  119MYC    C5623605   3.186   0.857   3.274
  119MYC   H14223606   3.087   0.901   3.261
  119MYC   H14323607   3.174   0.748   3.274
  119MYC    C5523608   3.276   0.897   3.156
  119MYC   H14423609   3.370   0.841   3.161
  119MYC   H14523610   3.303   1.003   3.164
  119MYC    C5423611   3.209   0.873   3.021
  119MYC   H14623612   3.125   0.942   3.010
  119MYC   H14723613   3.168   0.771   3.018
  119MYC    C5323614   3.307   0.890   2.903
  119MYC   H14823615   3.379   0.808   2.904
  119MYC   H14923616   3.363   0.984   2.915
  119MYC    C5223617   3.233   0.894   2.768
  119MYC    H9923618   3.179   0.989   2.760
  119MYC   H15023619   3.157   0.814   2.766
  119MYC    C5123620   3.326   0.876   2.648
  119MYC    H9723621   3.362   0.772   2.646
  119MYC    H9823622   3.414   0.940   2.659
  119MYC    C5023623   3.256   0.910   2.515
  119MYC    H9523624   3.259   1.019   2.500
  119MYC    H9623625   3.151   0.881   2.519
  119MYC    C4923626   3.322   0.840   2.395
  119MYC    H9323627   3.293   0.734   2.396
  119MYC    H9423628   3.431   0.843   2.406
  119MYC    C4823629   3.283   0.902   2.259
  119MYC    H9123630   3.324   1.003   2.253
  119MYC    H9223631   3.174   0.911   2.251
  119MYC    C4723632   3.335   0.817   2.141
  119MYC    H8923633   3.273   0.727   2.133
  119MYC    H9023634   3.437   0.782   2.163
  119MYC    C4623635   3.338   0.891   2.005
  119MYC    H8723636   3.423   0.960   2.004
  119MYC    H8823637   3.247   0.951   1.993
  119MYC    C4523638   3.350   0.791   1.888
  119MYC    H8523639   3.254   0.739   1.876
  119MYC    H8623640   3.423   0.713   1.915
  119MYC    C4423641   3.393   0.852   1.754
  119MYC    H8323642   3.391   0.770   1.681
  119MYC    H8423643   3.498   0.884   1.761
  119MYC    C1823644   3.306   0.964   1.699
  119MYC    H3123645   3.201   0.938   1.697
  119MYC    C1723646   3.341   1.110   1.714
  119MYC    H3023647   3.433   1.135   1.766
  119MYC    C1923648   3.358   1.042   1.580
  119MYC    H3223649   3.460   1.024   1.547
  119MYC    H3323650   3.288   1.067   1.501
  119MYC    C1623651   3.234   1.217   1.728
  119MYC    H2823652   3.137   1.179   1.694
  119MYC    H2923653   3.258   1.301   1.661
  119MYC    C1523654   3.220   1.274   1.871
  119MYC    H2623655   3.224   1.383   1.865
  119MYC    H2723656   3.306   1.243   1.933
  119MYC    C1423657   3.090   1.233   1.942
  119MYC    H2423658   3.085   1.124   1.950
  119MYC    H2523659   3.005   1.265   1.880
  119MYC    C1323660   3.076   1.296   2.082
  119MYC    H2223661   3.080   1.405   2.073
  119MYC    H2323662   3.160   1.264   2.145
  119MYC    C1223663   2.943   1.257   2.150
  119MYC    H2023664   2.943   1.150   2.174
  119MYC    H2123665   2.865   1.273   2.076
  119MYC    C1123666   2.908   1.340   2.274
  119MYC    H1823667   2.805   1.314   2.304
  119MYC    H1923668   2.907   1.446   2.248
  119MYC    C1023669   3.001   1.318   2.394
  119MYC    H1623670   3.102   1.353   2.370
  119MYC    H1723671   3.009   1.210   2.414
  119MYC     C923672   2.950   1.389   2.521
  119MYC    H1423673   2.848   1.356   2.542
  119MYC    H1523674   2.945   1.497   2.503
  119MYC     C823675   3.038   1.362   2.644
  119MYC    H1223676   3.135   1.411   2.631
  119MYC    H1323677   3.056   1.254   2.652
  119MYC     C723678   2.972   1.411   2.774
  119MYC    H1023679   2.875   1.361   2.786
  119MYC    H1123680   2.953   1.519   2.767
  119MYC     C623681   3.060   1.382   2.897
  119MYC     H823682   3.147   1.448   2.896
  119MYC     H923683   3.098   1.279   2.892
  119MYC     C523684   2.985   1.398   3.031
  119MYC     H623685   3.056   1.373   3.110
  119MYC     H723686   2.905   1.324   3.038
  119MYC     C423687   2.927   1.539   3.058
  119MYC     H423688   2.830   1.548   3.006
  119MYC     H523689   2.993   1.615   3.016
  119MYC     C223690   2.907   1.564   3.209
  119MYC     H223691   2.857   1.476   3.250
  119MYC     O323692   3.036   1.577   3.270
  119MYC     H323693   3.088   1.641   3.217
  119MYC     C123694   2.818   1.687   3.244
  119MYC     H123695   2.715   1.663   3.216
  119MYC    C8123696   2.859   1.814   3.165
  119MYC    O8223697   2.974   1.855   3.158
  119MYC    O8323698   2.755   1.887   3.121
  119MYC   H10523699   2.795   1.969   3.086
  119MYC    C2023700   2.815   1.720   3.396
  119MYC    H3423701   2.910   1.767   3.424
  119MYC    H3523702   2.737   1.796   3.415
  119MYC    C2123703   2.790   1.599   3.490
  119MYC    H3623704   2.691   1.556   3.471
  119MYC    H3723705   2.864   1.521   3.469
  119MYC    C2223706   2.804   1.637   3.639
  119MYC    H3823707   2.891   1.703   3.651
  119MYC    H3923708   2.715   1.695   3.669
  119MYC    C2323709   2.821   1.515   3.731
  119MYC    H4023710   2.733   1.451   3.724
  119MYC    H4123711   2.907   1.455   3.698
  119MYC    C2423712   2.844   1.558   3.877
  119MYC    H4223713   2.932   1.622   3.882
  119MYC    H4323714   2.759   1.620   3.908
  119MYC    C2523715   2.861   1.441   3.977
  119MYC    H4423716   2.788   1.362   3.956
  119MYC    H4523717   2.961   1.397   3.964
  119MYC    C2623718   2.843   1.491   4.121
  119MYC    H4623719   2.903   1.581   4.136
  119MYC    H4723720   2.738   1.521   4.133
  119MYC    C2723721   2.878   1.390   4.231
  119MYC    H4823722   2.824   1.296   4.215
  119MYC    H4923723   2.985   1.368   4.227
  119MYC    C2823724   2.842   1.447   4.370
  119MYC    H5023725   2.879   1.550   4.378
  119MYC    H5123726   2.732   1.452   4.379
  119MYC    C2923727   2.897   1.366   4.489
  119MYC    H5223728   2.861   1.263   4.484
  119MYC    H5323729   3.007   1.362   4.482
  119MYC    C3023730   2.857   1.429   4.624
  119MYC    H5423731   2.892   1.533   4.627
  119MYC    H5523732   2.748   1.432   4.631
  119MYC    C3123733   2.914   1.354   4.746
  119MYC    H5623734   2.880   1.250   4.743
  119MYC    H5723735   3.023   1.353   4.740
  119MYC    C3223736   2.871   1.418   4.879
  119MYC    H5823737   2.907   1.521   4.883
  119MYC    H5923738   2.761   1.423   4.883
  119MYC    C3323739   2.922   1.341   5.002
  119MYC    H6023740   2.888   1.237   4.996
  119MYC    H6123741   3.032   1.339   4.999
  119MYC    C3423742   2.875   1.402   5.135
  119MYC    H6223743   2.905   1.507   5.139
  119MYC    H6323744   2.766   1.398   5.141
  119MYC    C3523745   2.935   1.329   5.257
  119MYC    H6423746   2.910   1.222   5.251
  119MYC    H6523747   3.044   1.337   5.253
  119MYC    C3623748   2.885   1.385   5.392
  119MYC    H6623749   2.887   1.494   5.389
  119MYC    H6723750   2.781   1.354   5.408
  119MYC    C3723751   2.972   1.337   5.510
  119MYC    H6823752   2.979   1.228   5.508
  119MYC    H6923753   3.073   1.376   5.495
  119MYC    C3823754   2.919   1.381   5.648
  119MYC    H7023755   2.886   1.486   5.643
  119MYC    H7123756   2.832   1.320   5.674
  119MYC    C3923757   3.028   1.368   5.757
  119MYC    H7223758   3.075   1.269   5.748
  119MYC    H7323759   3.106   1.443   5.738
  119MYC    C4023760   2.974   1.385   5.900
  119MYC    H7423761   2.926   1.483   5.910
  119MYC    H7523762   2.897   1.309   5.919
  119MYC    C4123763   3.086   1.371   6.005
  119MYC    H7623764   3.136   1.274   5.991
  119MYC    H7723765   3.162   1.448   5.989
  119MYC    C4223766   3.035   1.380   6.151
  119MYC    H7823767   2.994   1.480   6.169
  119MYC    H7923768   2.954   1.308   6.165
  119MYC    C4323769   3.146   1.350   6.254
  119MYC    H8023770   3.107   1.360   6.356
  119MYC    H8123771   3.230   1.420   6.242
  119MYC    H8223772   3.184   1.248   6.242
  120MYC   HH1523773   3.457   2.216   6.274
  120MYC    C8023774   3.411   2.160   6.192
  120MYC   H10023775   3.383   2.061   6.230
  120MYC   H10123776   3.321   2.212   6.160
  120MYC    C7923777   3.511   2.147   6.075
  120MYC   H10223778   3.600   2.094   6.109
  120MYC   H10323779   3.543   2.248   6.046
  120MYC    C7823780   3.451   2.076   5.952
  120MYC   HH1423781   3.363   2.131   5.917
  120MYC   H10423782   3.417   1.975   5.980
  120MYC    C7723783   3.552   2.064   5.835
  120MYC   H10623784   3.633   1.995   5.864
  120MYC   H10723785   3.599   2.162   5.818
  120MYC    C7623786   3.489   2.016   5.703
  120MYC   H10823787   3.407   2.084   5.676
  120MYC   H10923788   3.444   1.916   5.718
  120MYC    C7523789   3.590   2.010   5.587
  120MYC   H11023790   3.665   1.932   5.608
  120MYC   H11123791   3.644   2.106   5.583
  120MYC    C7423792   3.526   1.983   5.450
  120MYC   H11223793   3.452   2.062   5.429
  120MYC   H11323794   3.471   1.888   5.453
  120MYC    C7323795   3.629   1.979   5.335
  120MYC   HH1323796   3.691   1.889   5.345
  120MYC   H11423797   3.697   2.065   5.345
  120MYC    C7223798   3.565   1.983   5.196
  120MYC   H11523799   3.507   2.076   5.186
  120MYC   H11623800   3.493   1.900   5.186
  120MYC    C7123801   3.667   1.975   5.081
  120MYC   H11723802   3.702   1.871   5.071
  120MYC   H11823803   3.755   2.035   5.105
  120MYC    C7023804   3.610   2.024   4.947
  120MYC   H11923805   3.592   2.132   4.954
  120MYC   H12023806   3.513   1.977   4.928
  120MYC    C6923807   3.702   1.996   4.826
  120MYC   H12123808   3.701   1.889   4.806
  120MYC   H12223809   3.806   2.023   4.852
  120MYC    C6823810   3.661   2.074   4.700
  120MYC   HH1223811   3.683   2.181   4.715
  120MYC   H12323812   3.553   2.066   4.685
  120MYC    C6723813   3.734   2.024   4.574
  120MYC   H12423814   3.702   1.921   4.554
  120MYC   H12523815   3.841   2.021   4.591
  120MYC    C6623816   3.706   2.110   4.449
  120MYC   H12623817   3.746   2.211   4.465
  120MYC   H12723818   3.598   2.119   4.434
  120MYC    C6523819   3.770   2.049   4.323
  120MYC   H12823820   3.732   1.947   4.310
  120MYC   H12923821   3.878   2.040   4.337
  120MYC    C6423822   3.743   2.129   4.195
  120MYC   H13023823   3.789   2.228   4.202
  120MYC   H13123824   3.635   2.143   4.183
  120MYC    C6323825   3.798   2.056   4.071
  120MYC   HH1123826   3.757   1.954   4.069
  120MYC   H13223827   3.907   2.046   4.079
  120MYC    C6223828   3.763   2.126   3.938
  120MYC   H13323829   3.820   2.219   3.929
  120MYC   H13423830   3.656   2.152   3.937
  120MYC    C6123831   3.793   2.035   3.818
  120MYC   H13523832   3.738   1.941   3.831
  120MYC   H13623833   3.899   2.008   3.818
  120MYC    C6023834   3.757   2.097   3.684
  120MYC   H13723835   3.830   2.172   3.652
  120MYC    C5823836   3.693   2.011   3.578
  120MYC   H13823837   3.663   1.911   3.607
  120MYC    C5923838   3.615   2.124   3.641
  120MYC   H13923839   3.595   2.212   3.581
  120MYC   H14023840   3.535   2.097   3.710
  120MYC    C5723841   3.745   2.016   3.436
  120MYC   HH1023842   3.827   1.943   3.427
  120MYC   H14123843   3.788   2.114   3.414
  120MYC    C5623844   3.637   1.985   3.330
  120MYC   H14223845   3.578   2.076   3.313
  120MYC   H14323846   3.568   1.908   3.367
  120MYC    C5523847   3.700   1.937   3.198
  120MYC   H14423848   3.737   1.835   3.212
  120MYC   H14523849   3.787   1.999   3.175
  120MYC    C5423850   3.605   1.940   3.077
  120MYC   H14623851   3.565   2.042   3.065
  120MYC   H14723852   3.520   1.873   3.095
  120MYC    C5323853   3.679   1.898   2.949
  120MYC   H14823854   3.714   1.795   2.959
  120MYC   H14923855   3.769   1.961   2.939
  120MYC    C5223856   3.596   1.911   2.820
  120MYC    H9923857   3.555   2.013   2.814
  120MYC   H15023858   3.511   1.842   2.824
  120MYC    C5123859   3.681   1.883   2.696
  120MYC    H9723860   3.718   1.779   2.700
  120MYC    H9823861   3.770   1.948   2.698
  120MYC    C5023862   3.607   1.905   2.563
  120MYC    H9523863   3.564   2.006   2.562
  120MYC    H9623864   3.524   1.834   2.554
  120MYC    C4923865   3.702   1.890   2.442
  120MYC    H9323866   3.745   1.789   2.443
  120MYC    H9423867   3.786   1.960   2.453
  120MYC    C4823868   3.633   1.915   2.307
  120MYC    H9123869   3.585   2.013   2.308
  120MYC    H9223870   3.554   1.840   2.294
  120MYC    C4723871   3.731   1.907   2.188
  120MYC    H8923872   3.781   1.809   2.189
  120MYC    H9023873   3.809   1.983   2.200
  120MYC    C4623874   3.661   1.926   2.053
  120MYC    H8723875   3.616   2.026   2.049
  120MYC    H8823876   3.580   1.854   2.048
  120MYC    C4523877   3.755   1.907   1.931
  120MYC    H8523878   3.806   1.811   1.940
  120MYC    H8623879   3.832   1.984   1.934
  120MYC    C4423880   3.681   1.913   1.795
  120MYC    H8323881   3.754   1.906   1.714
  120MYC    H8423882   3.632   2.010   1.784
  120MYC    C1823883   3.581   1.799   1.780
  120MYC    H3123884   3.624   1.702   1.802
  120MYC    C1723885   3.436   1.821   1.818
  120MYC    H3023886   3.408   1.923   1.846
  120MYC    C1923887   3.474   1.799   1.673
  120MYC    H3223888   3.471   1.884   1.606
  120MYC    H3323889   3.448   1.704   1.628
  120MYC    C1623890   3.367   1.714   1.901
  120MYC    H2823891   3.441   1.667   1.967
  120MYC    H2923892   3.330   1.635   1.835
  120MYC    C1523893   3.249   1.765   1.987
  120MYC    H2623894   3.187   1.679   2.014
  120MYC    H2723895   3.185   1.829   1.925
  120MYC    C1423896   3.289   1.840   2.117
  120MYC    H2423897   3.346   1.930   2.093
  120MYC    H2523898   3.353   1.775   2.179
  120MYC    C1323899   3.163   1.878   2.196
  120MYC    H2223900   3.105   1.786   2.213
  120MYC    H2323901   3.103   1.943   2.131
  120MYC    C1223902   3.179   1.950   2.331
  120MYC    H2023903   3.226   2.048   2.315
  120MYC    H2123904   3.245   1.892   2.397
  120MYC    C1123905   3.040   1.967   2.399
  120MYC    H1823906   3.006   1.869   2.435
  120MYC    H1923907   2.967   1.998   2.323
  120MYC    C1023908   3.031   2.069   2.513
  120MYC    H1623909   2.928   2.068   2.551
  120MYC    H1723910   3.048   2.169   2.472
  120MYC     C923911   3.127   2.045   2.631
  120MYC    H1423912   3.231   2.054   2.597
  120MYC    H1523913   3.113   1.944   2.670
  120MYC     C823914   3.103   2.148   2.744
  120MYC    H1223915   3.000   2.134   2.782
  120MYC    H1323916   3.108   2.249   2.703
  120MYC     C723917   3.201   2.137   2.862
  120MYC    H1023918   3.304   2.147   2.825
  120MYC    H1123919   3.193   2.037   2.906
  120MYC     C623920   3.173   2.245   2.968
  120MYC     H823921   3.067   2.244   2.993
  120MYC     H923922   3.193   2.343   2.923
  120MYC     C523923   3.256   2.234   3.098
  120MYC     H623924   3.236   2.324   3.158
  120MYC     H723925   3.362   2.238   3.073
  120MYC     C423926   3.228   2.106   3.182
  120MYC     H423927   3.319   2.044   3.180
  120MYC     H523928   3.152   2.045   3.133
  120MYC     C223929   3.186   2.125   3.331
  120MYC     H223930   3.210   2.031   3.381
  120MYC     O323931   3.264   2.229   3.392
  120MYC     H323932   3.358   2.207   3.377
  120MYC     C123933   3.033   2.148   3.354
  120MYC     H123934   2.986   2.052   3.328
  120MYC    C8123935   2.970   2.253   3.261
  120MYC    O8223936   2.994   2.372   3.267
  120MYC    O8323937   2.872   2.206   3.180
  120MYC   H10523938   2.838   2.284   3.134
  120MYC    C2023939   2.993   2.179   3.500
  120MYC    H3423940   3.032   2.277   3.530
  120MYC    H3523941   2.883   2.186   3.505
  120MYC    C2123942   3.039   2.073   3.603
  120MYC    H3623943   3.014   1.973   3.567
  120MYC    H3723944   3.148   2.078   3.614
  120MYC    C2223945   2.973   2.095   3.740
  120MYC    H3823946   2.987   2.199   3.771
  120MYC    H3923947   2.865   2.079   3.731
  120MYC    C2323948   3.029   2.003   3.849
  120MYC    H4023949   3.021   1.898   3.817
  120MYC    H4123950   3.136   2.024   3.864
  120MYC    C2423951   2.955   2.021   3.982
  120MYC    H4223952   2.961   2.126   4.014
  120MYC    H4323953   2.849   1.998   3.968
  120MYC    C2523954   3.010   1.931   4.094
  120MYC    H4423955   3.002   1.826   4.064
  120MYC    H4523956   3.117   1.952   4.108
  120MYC    C2623957   2.937   1.953   4.227
  120MYC    H4623958   2.950   2.058   4.258
  120MYC    H4723959   2.829   1.937   4.213
  120MYC    C2723960   2.988   1.861   4.339
  120MYC    H4823961   2.973   1.756   4.310
  120MYC    H4923962   3.096   1.877   4.350
  120MYC    C2823963   2.917   1.888   4.473
  120MYC    H5023964   2.897   1.995   4.483
  120MYC    H5123965   2.820   1.837   4.473
  120MYC    C2923966   3.000   1.842   4.593
  120MYC    H5223967   3.022   1.735   4.586
  120MYC    H5323968   3.097   1.894   4.590
  120MYC    C3023969   2.931   1.873   4.727
  120MYC    H5423970   2.891   1.975   4.725
  120MYC    H5523971   2.847   1.804   4.740
  120MYC    C3123972   3.027   1.860   4.846
  120MYC    H5623973   3.069   1.758   4.849
  120MYC    H5723974   3.112   1.928   4.831
  120MYC    C3223975   2.960   1.891   4.980
  120MYC    H5823976   2.913   1.990   4.975
  120MYC    H5923977   2.880   1.818   4.998
  120MYC    C3323978   3.060   1.888   5.097
  120MYC    H6023979   3.112   1.792   5.095
  120MYC    H6123980   3.135   1.966   5.083
  120MYC    C3423981   2.991   1.906   5.233
  120MYC    H6223982   2.949   2.007   5.240
  120MYC    H6323983   2.908   1.835   5.241
  120MYC    C3523984   3.088   1.883   5.350
  120MYC    H6423985   3.145   1.790   5.333
  120MYC    H6523986   3.161   1.965   5.355
  120MYC    C3623987   3.015   1.870   5.485
  120MYC    H6623988   2.961   1.963   5.506
  120MYC    H6723989   2.939   1.790   5.477
  120MYC    C3723990   3.109   1.838   5.602
  120MYC    H6823991   3.169   1.748   5.578
  120MYC    H6923992   3.180   1.921   5.615
  120MYC    C3823993   3.032   1.815   5.733
  120MYC    H7023994   2.968   1.902   5.751
  120MYC    H7123995   2.966   1.728   5.722
  120MYC    C3923996   3.124   1.794   5.855
  120MYC    H7223997   3.182   1.701   5.842
  120MYC    H7323998   3.196   1.876   5.858
  120MYC    C4023999   3.044   1.788   5.987
  120MYC    H7424000   2.944   1.830   5.971
  120MYC    H7524001   3.029   1.683   6.016
  120MYC    C4124002   3.112   1.864   6.103
  120MYC    H7624003   3.201   1.810   6.136
  120MYC    H7724004   3.145   1.962   6.067
  120MYC    C4224005   3.017   1.886   6.222
  120MYC    H7824006   2.925   1.934   6.186
  120MYC    H7924007   2.988   1.789   6.265
  120MYC    C4324008   3.077   1.976   6.332
  120MYC    H8024009   3.005   1.990   6.413
  120MYC    H8124010   3.102   2.074   6.291
  120MYC    H8224011   3.168   1.931   6.373
  121MYC   HH1524012   3.273   3.070   6.215
  121MYC    C8024013   3.253   3.083   6.108
  121MYC   H10024014   3.237   2.983   6.064
  121MYC   H10124015   3.162   3.141   6.096
  121MYC    C7924016   3.372   3.154   6.040
  121MYC   H10224017   3.462   3.091   6.047
  121MYC   H10324018   3.394   3.246   6.096
  121MYC    C7824019   3.347   3.192   5.893
  121MYC   HH1424020   3.427   3.259   5.860
  121MYC   H10424021   3.254   3.250   5.886
  121MYC    C7724022   3.340   3.072   5.795
  121MYC   H10624023   3.267   2.998   5.830
  121MYC   H10724024   3.437   3.022   5.792
  121MYC    C7624025   3.301   3.118   5.653
  121MYC   H10824026   3.364   3.203   5.624
  121MYC   H10924027   3.197   3.154   5.654
  121MYC    C7524028   3.315   3.008   5.544
  121MYC   H11024029   3.251   2.923   5.569
  121MYC   H11124030   3.418   2.972   5.543
  121MYC    C7424031   3.278   3.063   5.405
  121MYC   H11224032   3.329   3.159   5.391
  121MYC   H11324033   3.170   3.084   5.401
  121MYC    C7324034   3.316   2.970   5.288
  121MYC   HH1324035   3.253   2.881   5.290
  121MYC   H11424036   3.420   2.938   5.301
  121MYC    C7224037   3.302   3.042   5.152
  121MYC   H11524038   3.355   3.137   5.156
  121MYC   H11624039   3.197   3.065   5.133
  121MYC    C7124040   3.359   2.960   5.034
  121MYC   H11724041   3.299   2.869   5.021
  121MYC   H11824042   3.461   2.929   5.057
  121MYC    C7024043   3.360   3.040   4.902
  121MYC   H11924044   3.416   3.133   4.917
  121MYC   H12024045   3.257   3.069   4.877
  121MYC    C6924046   3.422   2.962   4.785
  121MYC   H12124047   3.367   2.868   4.771
  121MYC   H12224048   3.526   2.936   4.810
  121MYC    C6824049   3.420   3.042   4.654
  121MYC   HH1224050   3.477   3.135   4.667
  121MYC   H12324051   3.317   3.071   4.631
  121MYC    C6724052   3.478   2.964   4.534
  121MYC   H12424053   3.425   2.868   4.524
  121MYC   H12524054   3.583   2.941   4.553
  121MYC    C6624055   3.465   3.043   4.403
  121MYC   H12624056   3.521   3.137   4.411
  121MYC   H12724057   3.360   3.069   4.387
  121MYC    C6524058   3.515   2.965   4.279
  121MYC   H12824059   3.463   2.868   4.273
  121MYC   H12924060   3.622   2.944   4.290
  121MYC    C6424061   3.490   3.044   4.150
  121MYC   H13024062   3.540   3.141   4.156
  121MYC   H13124063   3.383   3.064   4.140
  121MYC    C6324064   3.539   2.971   4.023
  121MYC   HH1124065   3.492   2.872   4.017
  121MYC   H13224066   3.648   2.955   4.030
  121MYC    C6224067   3.506   3.051   3.896
  121MYC   H13324068   3.547   3.153   3.905
  121MYC   H13424069   3.397   3.062   3.888
  121MYC    C6124070   3.559   2.987   3.767
  121MYC   H13524071   3.524   2.883   3.761
  121MYC   H13624072   3.668   2.983   3.770
  121MYC    C6024073   3.514   3.064   3.644
  121MYC   H13724074   3.529   3.171   3.654
  121MYC    C5824075   3.529   3.008   3.505
  121MYC   H13824076   3.571   2.908   3.498
  121MYC    C5924077   3.392   3.020   3.567
  121MYC   H13924078   3.325   3.097   3.529
  121MYC   H14024079   3.342   2.928   3.597
  121MYC    C5724080   3.569   3.097   3.389
  121MYC   HH1024081   3.678   3.100   3.381
  121MYC   H14124082   3.536   3.200   3.408
  121MYC    C5624083   3.510   3.049   3.256
  121MYC   H14224084   3.402   3.033   3.268
  121MYC   H14324085   3.554   2.952   3.230
  121MYC    C5524086   3.532   3.149   3.141
  121MYC   H14424087   3.639   3.170   3.129
  121MYC   H14524088   3.482   3.243   3.164
  121MYC    C5424089   3.476   3.094   3.009
  121MYC   H14624090   3.369   3.072   3.022
  121MYC   H14724091   3.527   2.999   2.987
  121MYC    C5324092   3.493   3.187   2.888
  121MYC   H14824093   3.599   3.214   2.876
  121MYC   H14924094   3.436   3.280   2.904
  121MYC    C5224095   3.441   3.118   2.761
  121MYC    H9924096   3.334   3.100   2.771
  121MYC   H15024097   3.490   3.020   2.753
  121MYC    C5124098   3.468   3.194   2.630
  121MYC    H9724099   3.576   3.213   2.620
  121MYC    H9824100   3.417   3.291   2.632
  121MYC    C5024101   3.418   3.111   2.510
  121MYC    H9524102   3.310   3.098   2.518
  121MYC    H9624103   3.463   3.011   2.515
  121MYC    C4924104   3.452   3.173   2.374
  121MYC    H9324105   3.561   3.174   2.361
  121MYC    H9424106   3.418   3.277   2.370
  121MYC    C4824107   3.387   3.093   2.259
  121MYC    H9124108   3.278   3.099   2.269
  121MYC    H9224109   3.415   2.988   2.269
  121MYC    C4724110   3.428   3.143   2.119
  121MYC    H8924111   3.537   3.138   2.109
  121MYC    H9024112   3.400   3.248   2.107
  121MYC    C4624113   3.363   3.058   2.008
  121MYC    H8724114   3.254   3.068   2.014
  121MYC    H8824115   3.387   2.953   2.027
  121MYC    C4524116   3.410   3.097   1.866
  121MYC    H8524117   3.519   3.092   1.862
  121MYC    H8624118   3.382   3.201   1.846
  121MYC    C4424119   3.352   3.006   1.755
  121MYC    H8324120   3.388   3.044   1.659
  121MYC    H8424121   3.243   3.015   1.754
  121MYC    C1824122   3.391   2.860   1.769
  121MYC    H3124123   3.495   2.848   1.797
  121MYC    C1724124   3.296   2.756   1.824
  121MYC    H3024125   3.196   2.792   1.849
  121MYC    C1924126   3.332   2.756   1.677
  121MYC    H3224127   3.257   2.789   1.606
  121MYC    H3324128   3.398   2.678   1.640
  121MYC    C1624129   3.345   2.646   1.917
  121MYC    H2824130   3.377   2.689   2.012
  121MYC    H2924131   3.435   2.600   1.874
  121MYC    C1524132   3.243   2.533   1.942
  121MYC    H2624133   3.297   2.447   1.981
  121MYC    H2724134   3.197   2.502   1.848
  121MYC    C1424135   3.132   2.572   2.044
  121MYC    H2424136   3.067   2.647   1.999
  121MYC    H2524137   3.180   2.621   2.130
  121MYC    C1324138   3.047   2.452   2.093
  121MYC    H2224139   3.080   2.358   2.045
  121MYC    H2324140   2.943   2.467   2.062
  121MYC    C1224141   3.050   2.434   2.246
  121MYC    H2024142   2.970   2.364   2.276
  121MYC    H2124143   3.026   2.530   2.294
  121MYC    C1124144   3.185   2.379   2.300
  121MYC    H1824145   3.268   2.421   2.243
  121MYC    H1924146   3.187   2.271   2.283
  121MYC    C1024147   3.207   2.408   2.449
  121MYC    H1624148   3.269   2.329   2.493
  121MYC    H1724149   3.111   2.406   2.502
  121MYC     C924150   3.276   2.544   2.474
  121MYC    H1424151   3.224   2.624   2.420
  121MYC    H1524152   3.378   2.539   2.434
  121MYC     C824153   3.283   2.580   2.624
  121MYC    H1224154   3.326   2.495   2.678
  121MYC    H1324155   3.181   2.594   2.661
  121MYC     C724156   3.367   2.706   2.653
  121MYC    H1024157   3.318   2.795   2.612
  121MYC    H1124158   3.464   2.697   2.602
  121MYC     C624159   3.393   2.725   2.804
  121MYC     H824160   3.473   2.799   2.818
  121MYC     H924161   3.431   2.630   2.843
  121MYC     C524162   3.270   2.765   2.888
  121MYC     H624163   3.187   2.696   2.868
  121MYC     H724164   3.238   2.865   2.857
  121MYC     C424165   3.303   2.763   3.038
  121MYC     H424166   3.385   2.834   3.057
  121MYC     H524167   3.344   2.665   3.065
  121MYC     C224168   3.188   2.796   3.135
  121MYC     H224169   3.237   2.824   3.230
  121MYC     O324170   3.116   2.910   3.087
  121MYC     H324171   3.043   2.877   3.031
  121MYC     C124172   3.092   2.677   3.166
  121MYC     H124173   3.154   2.586   3.170
  121MYC    C8124174   2.985   2.652   3.057
  121MYC    O8224175   2.898   2.731   3.026
  121MYC    O8324176   2.990   2.529   3.000
  121MYC   H10524177   2.913   2.525   2.941
  121MYC    C2024178   3.027   2.690   3.306
  121MYC    H3424179   2.990   2.793   3.319
  121MYC    H3524180   2.939   2.625   3.311
  121MYC    C2124181   3.122   2.654   3.422
  121MYC    H3624182   3.157   2.551   3.410
  121MYC    H3724183   3.211   2.718   3.420
  121MYC    C2224184   3.056   2.668   3.560
  121MYC    H3824185   3.022   2.771   3.574
  121MYC    H3924186   2.966   2.604   3.563
  121MYC    C2324187   3.148   2.629   3.678
  121MYC    H4024188   3.176   2.523   3.668
  121MYC    H4124189   3.241   2.687   3.673
  121MYC    C2424190   3.081   2.652   3.814
  121MYC    H4224191   3.058   2.759   3.825
  121MYC    H4324192   2.985   2.599   3.816
  121MYC    C2524193   3.164   2.606   3.935
  121MYC    H4424194   3.177   2.497   3.931
  121MYC    H4524195   3.264   2.650   3.930
  121MYC    C2624196   3.098   2.645   4.069
  121MYC    H4624197   3.090   2.754   4.073
  121MYC    H4724198   2.995   2.606   4.071
  121MYC    C2724199   3.172   2.595   4.194
  121MYC    H4824200   3.167   2.485   4.197
  121MYC    H4924201   3.278   2.623   4.188
  121MYC    C2824202   3.111   2.653   4.324
  121MYC    H5024203   3.119   2.762   4.320
  121MYC    H5124204   3.004   2.629   4.327
  121MYC    C2924205   3.179   2.602   4.453
  121MYC    H5224206   3.166   2.493   4.459
  121MYC    H5324207   3.286   2.623   4.450
  121MYC    C3024208   3.117   2.668   4.579
  121MYC    H5424209   3.135   2.776   4.575
  121MYC    H5524210   3.009   2.653   4.576
  121MYC    C3124211   3.171   2.613   4.712
  121MYC    H5624212   3.166   2.503   4.711
  121MYC    H5724213   3.277   2.640   4.724
  121MYC    C3224214   3.090   2.666   4.832
  121MYC    H5824215   3.097   2.775   4.835
  121MYC    H5924216   2.984   2.641   4.815
  121MYC    C3324217   3.131   2.609   4.969
  121MYC    H6024218   3.137   2.499   4.964
  121MYC    H6124219   3.231   2.645   4.996
  121MYC    C3424220   3.030   2.649   5.079
  121MYC    H6224221   3.015   2.757   5.075
  121MYC    H6324222   2.933   2.603   5.055
  121MYC    C3524223   3.069   2.609   5.222
  121MYC    H6424224   3.091   2.501   5.227
  121MYC    H6524225   3.162   2.661   5.250
  121MYC    C3624226   2.957   2.643   5.323
  121MYC    H6624227   2.921   2.745   5.303
  121MYC    H6724228   2.872   2.576   5.306
  121MYC    C3724229   3.000   2.634   5.471
  121MYC    H6824230   3.037   2.533   5.492
  121MYC    H6924231   3.083   2.703   5.488
  121MYC    C3824232   2.884   2.669   5.567
  121MYC    H7024233   2.844   2.767   5.542
  121MYC    H7124234   2.803   2.596   5.553
  121MYC    C3924235   2.927   2.668   5.716
  121MYC    H7224236   2.974   2.572   5.739
  121MYC    H7324237   3.003   2.746   5.732
  121MYC    C4024238   2.809   2.691   5.813
  121MYC    H7424239   2.760   2.786   5.790
  121MYC    H7524240   2.734   2.612   5.797
  121MYC    C4124241   2.853   2.691   5.961
  121MYC    H7624242   2.914   2.601   5.980
  121MYC    H7724243   2.917   2.778   5.980
  121MYC    C4224244   2.735   2.692   6.060
  121MYC    H7824245   2.674   2.783   6.044
  121MYC    H7924246   2.670   2.606   6.040
  121MYC    C4324247   2.779   2.687   6.207
  121MYC    H8024248   2.692   2.684   6.274
  121MYC    H8124249   2.839   2.775   6.233
  121MYC    H8224250   2.840   2.598   6.226
  122MYC   HH1524251   3.580   3.521   6.286
  122MYC    C8024252   3.560   3.590   6.203
  122MYC   H10024253   3.452   3.608   6.198
  122MYC   H10124254   3.609   3.686   6.225
  122MYC    C7924255   3.611   3.531   6.071
  122MYC   H10224256   3.564   3.434   6.054
  122MYC   H10324257   3.719   3.513   6.080
  122MYC    C7824258   3.585   3.622   5.949
  122MYC   HH1424259   3.627   3.722   5.969
  122MYC   H10424260   3.477   3.634   5.936
  122MYC    C7724261   3.646   3.566   5.819
  122MYC   H10624262   3.607   3.465   5.801
  122MYC   H10724263   3.755   3.557   5.831
  122MYC    C7624264   3.617   3.654   5.696
  122MYC   H10824265   3.654   3.756   5.713
  122MYC   H10924266   3.508   3.662   5.682
  122MYC    C7524267   3.680   3.597   5.568
  122MYC   H11024268   3.646   3.494   5.554
  122MYC   H11124269   3.789   3.593   5.580
  122MYC    C7424270   3.646   3.679   5.442
  122MYC   H11224271   3.689   3.779   5.451
  122MYC   H11324272   3.538   3.690   5.434
  122MYC    C7324273   3.699   3.611   5.315
  122MYC   HH1324274   3.655   3.511   5.306
  122MYC   H11424275   3.808   3.596   5.323
  122MYC    C7224276   3.670   3.690   5.186
  122MYC   H11524277   3.724   3.785   5.189
  122MYC   H11624278   3.563   3.714   5.182
  122MYC    C7124279   3.709   3.610   5.061
  122MYC   H11724280   3.649   3.519   5.057
  122MYC   H11824281   3.814   3.579   5.068
  122MYC    C7024282   3.690   3.689   4.930
  122MYC   H11924283   3.761   3.772   4.926
  122MYC   H12024284   3.589   3.732   4.928
  122MYC    C6924285   3.708   3.598   4.808
  122MYC   H12124286   3.633   3.518   4.812
  122MYC   H12224287   3.806   3.549   4.813
  122MYC    C6824288   3.696   3.672   4.674
  122MYC   HH1224289   3.780   3.743   4.664
  122MYC   H12324290   3.603   3.731   4.673
  122MYC    C6724291   3.696   3.574   4.556
  122MYC   H12424292   3.611   3.505   4.567
  122MYC   H12524293   3.787   3.512   4.559
  122MYC    C6624294   3.687   3.644   4.420
  122MYC   H12624295   3.779   3.702   4.403
  122MYC   H12724296   3.603   3.715   4.422
  122MYC    C6524297   3.666   3.544   4.306
  122MYC   H12824298   3.573   3.488   4.323
  122MYC   H12924299   3.748   3.471   4.304
  122MYC    C6424300   3.657   3.614   4.170
  122MYC   H13024301   3.752   3.666   4.150
  122MYC   H13124302   3.579   3.691   4.174
  122MYC    C6324303   3.628   3.518   4.055
  122MYC   HH1124304   3.537   3.460   4.076
  122MYC   H13224305   3.710   3.446   4.045
  122MYC    C6224306   3.609   3.594   3.923
  122MYC   H13324307   3.697   3.658   3.907
  122MYC   H13424308   3.522   3.660   3.932
  122MYC    C6124309   3.592   3.503   3.802
  122MYC   H13524310   3.506   3.436   3.817
  122MYC   H13624311   3.680   3.438   3.792
  122MYC    C6024312   3.575   3.584   3.675
  122MYC   H13724313   3.638   3.673   3.674
  122MYC    C5824314   3.559   3.514   3.544
  122MYC   H13824315   3.551   3.406   3.546
  122MYC    C5924316   3.443   3.592   3.602
  122MYC   H13924317   3.417   3.687   3.555
  122MYC   H14024318   3.359   3.536   3.641
  122MYC    C5724319   3.638   3.564   3.425
  122MYC   HH1024320   3.740   3.523   3.429
  122MYC   H14124321   3.648   3.673   3.429
  122MYC    C5624322   3.572   3.526   3.293
  122MYC   H14224323   3.470   3.566   3.290
  122MYC   H14324324   3.564   3.417   3.288
  122MYC    C5524325   3.651   3.576   3.171
  122MYC   H14424326   3.750   3.531   3.170
  122MYC   H14524327   3.665   3.685   3.179
  122MYC    C5424328   3.578   3.545   3.041
  122MYC   H14624329   3.479   3.592   3.042
  122MYC   H14724330   3.563   3.437   3.033
  122MYC    C5324331   3.655   3.593   2.918
  122MYC   H14824332   3.750   3.539   2.911
  122MYC   H14924333   3.680   3.700   2.929
  122MYC    C5224334   3.576   3.574   2.789
  122MYC    H9924335   3.482   3.630   2.796
  122MYC   H15024336   3.550   3.468   2.777
  122MYC    C5124337   3.655   3.621   2.667
  122MYC    H9724338   3.745   3.560   2.656
  122MYC    H9824339   3.688   3.725   2.681
  122MYC    C5024340   3.572   3.612   2.539
  122MYC    H9524341   3.485   3.678   2.547
  122MYC    H9624342   3.534   3.510   2.528
  122MYC    C4924343   3.654   3.650   2.415
  122MYC    H9324344   3.738   3.580   2.405
  122MYC    H9424345   3.696   3.750   2.428
  122MYC    C4824346   3.568   3.646   2.289
  122MYC    H9124347   3.493   3.725   2.293
  122MYC    H9224348   3.514   3.550   2.286
  122MYC    C4724349   3.652   3.660   2.161
  122MYC    H8924350   3.728   3.581   2.158
  122MYC    H9024351   3.705   3.755   2.161
  122MYC    C4624352   3.562   3.650   2.038
  122MYC    H8724353   3.503   3.743   2.031
  122MYC    H8824354   3.492   3.567   2.052
  122MYC    C4524355   3.638   3.625   1.908
  122MYC    H8524356   3.678   3.523   1.908
  122MYC    H8624357   3.722   3.694   1.902
  122MYC    C4424358   3.550   3.645   1.783
  122MYC    H8324359   3.604   3.607   1.695
  122MYC    H8424360   3.539   3.753   1.767
  122MYC    C1824361   3.414   3.578   1.788
  122MYC    H3124362   3.422   3.470   1.782
  122MYC    C1724363   3.293   3.634   1.862
  122MYC    H3024364   3.301   3.728   1.914
  122MYC    C1924365   3.301   3.642   1.712
  122MYC    H3224366   3.318   3.739   1.666
  122MYC    H3324367   3.237   3.576   1.656
  122MYC    C1624368   3.189   3.539   1.921
  122MYC    H2824369   3.211   3.438   1.884
  122MYC    H2924370   3.090   3.565   1.881
  122MYC    C1524371   3.180   3.534   2.075
  122MYC    H2624372   3.129   3.624   2.111
  122MYC    H2724373   3.280   3.532   2.120
  122MYC    C1424374   3.102   3.408   2.118
  122MYC    H2424375   3.161   3.319   2.094
  122MYC    H2524376   3.011   3.404   2.058
  122MYC    C1324377   3.061   3.402   2.266
  122MYC    H2224378   3.000   3.490   2.289
  122MYC    H2324379   3.151   3.408   2.329
  122MYC    C1224380   2.981   3.273   2.297
  122MYC    H2024381   3.048   3.187   2.296
  122MYC    H2124382   2.907   3.257   2.218
  122MYC    C1124383   2.905   3.279   2.431
  122MYC    H1824384   2.838   3.192   2.438
  122MYC    H1924385   2.840   3.367   2.431
  122MYC    C1024386   2.996   3.281   2.556
  122MYC    H1624387   3.086   3.340   2.536
  122MYC    H1724388   3.030   3.178   2.577
  122MYC     C924389   2.926   3.340   2.680
  122MYC    H1424390   2.837   3.281   2.704
  122MYC    H1524391   2.893   3.442   2.656
  122MYC     C824392   3.020   3.344   2.801
  122MYC    H1224393   3.115   3.392   2.773
  122MYC    H1324394   3.044   3.241   2.830
  122MYC     C724395   2.960   3.419   2.921
  122MYC    H1024396   2.867   3.371   2.953
  122MYC    H1124397   2.933   3.520   2.889
  122MYC     C624398   3.057   3.432   3.041
  122MYC     H824399   3.010   3.495   3.118
  122MYC     H924400   3.146   3.487   3.008
  122MYC     C524401   3.102   3.298   3.104
  122MYC     H624402   3.174   3.320   3.184
  122MYC     H724403   3.157   3.240   3.030
  122MYC     C424404   2.989   3.210   3.164
  122MYC     H424405   3.037   3.119   3.200
  122MYC     H524406   2.918   3.179   3.085
  122MYC     C224407   2.914   3.274   3.283
  122MYC     H224408   2.989   3.331   3.338
  122MYC     O324409   2.812   3.363   3.236
  122MYC     H324410   2.741   3.309   3.197
  122MYC     C124411   2.851   3.169   3.380
  122MYC     H124412   2.932   3.100   3.408
  122MYC    C8124413   2.742   3.083   3.311
  122MYC    O8224414   2.633   3.126   3.276
  122MYC    O8324415   2.781   2.957   3.283
  122MYC   H10524416   2.706   2.917   3.235
  122MYC    C2024417   2.799   3.233   3.511
  122MYC    H3424418   2.726   3.311   3.488
  122MYC    H3524419   2.746   3.156   3.569
  122MYC    C2124420   2.912   3.290   3.600
  122MYC    H3624421   2.981   3.208   3.626
  122MYC    H3724422   2.971   3.364   3.544
  122MYC    C2224423   2.863   3.358   3.728
  122MYC    H3824424   2.815   3.454   3.703
  122MYC    H3924425   2.787   3.296   3.776
  122MYC    C2324426   2.979   3.381   3.827
  122MYC    H4024427   3.021   3.283   3.854
  122MYC    H4124428   3.059   3.437   3.777
  122MYC    C2424429   2.938   3.456   3.955
  122MYC    H4224430   2.931   3.563   3.935
  122MYC    H4324431   2.838   3.423   3.988
  122MYC    C2524432   3.038   3.430   4.069
  122MYC    H4424433   3.033   3.324   4.097
  122MYC    H4524434   3.140   3.449   4.033
  122MYC    C2624435   3.014   3.515   4.195
  122MYC    H4624436   3.030   3.621   4.170
  122MYC    H4724437   2.909   3.504   4.227
  122MYC    C2724438   3.107   3.474   4.310
  122MYC    H4824439   3.081   3.372   4.343
  122MYC    H4924440   3.210   3.470   4.274
  122MYC    C2824441   3.101   3.569   4.431
  122MYC    H5024442   3.137   3.668   4.400
  122MYC    H5124443   2.997   3.580   4.463
  122MYC    C2924444   3.186   3.518   4.550
  122MYC    H5224445   3.136   3.431   4.594
  122MYC    H5324446   3.283   3.483   4.513
  122MYC    C3024447   3.211   3.624   4.660
  122MYC    H5424448   3.269   3.575   4.739
  122MYC    H5524449   3.275   3.703   4.619
  122MYC    C3124450   3.083   3.687   4.719
  122MYC    H5624451   3.033   3.747   4.641
  122MYC    H5724452   3.012   3.608   4.747
  122MYC    C3224453   3.108   3.778   4.841
  122MYC    H5824454   3.180   3.856   4.816
  122MYC    H5924455   3.014   3.829   4.866
  122MYC    C3324456   3.156   3.700   4.965
  122MYC    H6024457   3.090   3.614   4.980
  122MYC    H6124458   3.257   3.661   4.947
  122MYC    C3424459   3.160   3.783   5.096
  122MYC    H6224460   3.239   3.858   5.090
  122MYC    H6324461   3.064   3.836   5.108
  122MYC    C3524462   3.182   3.691   5.217
  122MYC    H6424463   3.106   3.612   5.216
  122MYC    H6524464   3.280   3.641   5.208
  122MYC    C3624465   3.176   3.762   5.354
  122MYC    H6624466   3.264   3.826   5.366
  122MYC    H6724467   3.087   3.827   5.358
  122MYC    C3724468   3.169   3.659   5.469
  122MYC    H6824469   3.077   3.601   5.457
  122MYC    H6924470   3.253   3.589   5.459
  122MYC    C3824471   3.172   3.720   5.610
  122MYC    H7024472   3.266   3.774   5.624
  122MYC    H7124473   3.090   3.793   5.620
  122MYC    C3924474   3.157   3.611   5.718
  122MYC    H7224475   3.064   3.557   5.702
  122MYC    H7324476   3.239   3.538   5.707
  122MYC    C4024477   3.158   3.666   5.862
  122MYC    H7424478   3.249   3.725   5.878
  122MYC    H7524479   3.073   3.733   5.876
  122MYC    C4124480   3.152   3.553   5.967
  122MYC    H7624481   3.064   3.491   5.949
  122MYC    H7724482   3.240   3.488   5.955
  122MYC    C4224483   3.147   3.604   6.113
  122MYC    H7824484   3.234   3.669   6.131
  122MYC    H7924485   3.058   3.666   6.126
  122MYC    C4324486   3.147   3.490   6.216
  122MYC    H8024487   3.148   3.531   6.318
  122MYC    H8124488   3.235   3.426   6.204
  122MYC    H8224489   3.057   3.428   6.205
  123MYC   HH1524490   3.488   4.203   6.262
  123MYC    C8024491   3.425   4.200   6.172
  123MYC   H10024492   3.380   4.100   6.165
  123MYC   H10124493   3.344   4.273   6.185
  123MYC    C7924494   3.507   4.232   6.047
  123MYC   H10224495   3.589   4.159   6.040
  123MYC   H10324496   3.553   4.331   6.056
  123MYC    C7824497   3.424   4.226   5.917
  123MYC   HH1424498   3.356   4.313   5.913
  123MYC   H10424499   3.361   4.136   5.919
  123MYC    C7724500   3.511   4.224   5.790
  123MYC   H10624501   3.587   4.145   5.802
  123MYC   H10724502   3.565   4.318   5.780
  123MYC    C7624503   3.431   4.196   5.661
  123MYC   H10824504   3.372   4.285   5.634
  123MYC   H10924505   3.360   4.114   5.678
  123MYC    C7524506   3.524   4.158   5.545
  123MYC   H11024507   3.583   4.070   5.574
  123MYC   H11124508   3.595   4.240   5.527
  123MYC    C7424509   3.451   4.126   5.413
  123MYC   H11224510   3.398   4.216   5.379
  123MYC   H11324511   3.375   4.049   5.429
  123MYC    C7324512   3.550   4.080   5.305
  123MYC   HH1324513   3.572   3.973   5.319
  123MYC   H11424514   3.645   4.133   5.318
  123MYC    C7224515   3.502   4.103   5.161
  123MYC   H11524516   3.467   4.207   5.151
  123MYC   H11624517   3.416   4.038   5.139
  123MYC    C7124518   3.615   4.079   5.059
  123MYC   H11724519   3.639   3.972   5.057
  123MYC   H11824520   3.705   4.132   5.090
  123MYC    C7024521   3.578   4.126   4.917
  123MYC   H11924522   3.557   4.233   4.919
  123MYC   H12024523   3.486   4.075   4.885
  123MYC    C6924524   3.689   4.097   4.815
  123MYC   H12124525   3.709   3.989   4.812
  123MYC   H12224526   3.782   4.146   4.846
  123MYC    C6824527   3.651   4.146   4.674
  123MYC   HH1224528   3.654   4.255   4.671
  123MYC   H12324529   3.547   4.116   4.654
  123MYC    C6724530   3.741   4.089   4.563
  123MYC   H12424531   3.738   3.979   4.567
  123MYC   H12524532   3.845   4.120   4.578
  123MYC    C6624533   3.692   4.135   4.424
  123MYC   H12624534   3.720   4.240   4.410
  123MYC   H12724535   3.583   4.131   4.422
  123MYC    C6524536   3.746   4.051   4.307
  123MYC   H12824537   3.717   3.946   4.321
  123MYC   H12924538   3.856   4.055   4.304
  123MYC    C6424539   3.688   4.102   4.174
  123MYC   H13024540   3.726   4.203   4.155
  123MYC   H13124541   3.579   4.111   4.184
  123MYC    C6324542   3.719   4.013   4.052
  123MYC   HH1124543   3.682   3.912   4.070
  123MYC   H13224544   3.827   4.007   4.037
  123MYC    C6224545   3.651   4.070   3.926
  123MYC   H13324546   3.682   4.175   3.913
  123MYC   H13424547   3.542   4.072   3.942
  123MYC    C6124548   3.682   3.993   3.797
  123MYC   H13524549   3.656   3.887   3.811
  123MYC   H13624550   3.790   3.997   3.777
  123MYC    C6024551   3.605   4.051   3.679
  123MYC   H13724552   3.615   4.159   3.672
  123MYC    C5824553   3.596   3.978   3.548
  123MYC   H13824554   3.644   3.881   3.544
  123MYC    C5924555   3.474   3.991   3.635
  123MYC   H13924556   3.396   4.059   3.602
  123MYC   H14024557   3.438   3.903   3.687
  123MYC    C5724558   3.607   4.055   3.417
  123MYC   HH1024559   3.711   4.087   3.405
  123MYC   H14124560   3.547   4.146   3.421
  123MYC    C5624561   3.565   3.972   3.294
  123MYC   H14224562   3.460   3.941   3.304
  123MYC   H14324563   3.626   3.880   3.291
  123MYC    C5524564   3.585   4.049   3.162
  123MYC   H14424565   3.690   4.081   3.155
  123MYC   H14524566   3.523   4.139   3.165
  123MYC    C5424567   3.547   3.970   3.035
  123MYC   H14624568   3.438   3.968   3.026
  123MYC   H14724569   3.579   3.866   3.045
  123MYC    C5324570   3.610   4.031   2.908
  123MYC   H14824571   3.715   4.000   2.903
  123MYC   H14924572   3.610   4.141   2.916
  123MYC    C5224573   3.538   3.992   2.777
  123MYC    H9924574   3.439   4.037   2.777
  123MYC   H15024575   3.524   3.883   2.775
  123MYC    C5124576   3.615   4.036   2.651
  123MYC    H9724577   3.704   3.973   2.640
  123MYC    H9824578   3.652   4.139   2.665
  123MYC    C5024579   3.531   4.030   2.522
  123MYC    H9524580   3.448   4.103   2.531
  123MYC    H9624581   3.485   3.931   2.513
  123MYC    C4924582   3.613   4.060   2.395
  123MYC    H9324583   3.688   3.982   2.381
  123MYC    H9424584   3.668   4.154   2.408
  123MYC    C4824585   3.526   4.071   2.267
  123MYC    H9124586   3.464   4.161   2.274
  123MYC    H9224587   3.457   3.985   2.263
  123MYC    C4724588   3.610   4.075   2.138
  123MYC    H8924589   3.669   3.983   2.131
  123MYC    H9024590   3.681   4.158   2.144
  123MYC    C4624591   3.526   4.090   2.009
  123MYC    H8724592   3.476   4.188   2.010
  123MYC    H8824593   3.448   4.013   2.008
  123MYC    C4524594   3.613   4.076   1.882
  123MYC    H8524595   3.648   3.972   1.874
  123MYC    H8624596   3.702   4.139   1.893
  123MYC    C4424597   3.544   4.117   1.751
  123MYC    H8324598   3.617   4.106   1.670
  123MYC    H8424599   3.520   4.224   1.754
  123MYC    C1824600   3.419   4.036   1.715
  123MYC    H3124601   3.426   3.933   1.745
  123MYC    C1724602   3.280   4.097   1.710
  123MYC    H3024603   3.271   4.203   1.732
  123MYC    C1924604   3.354   4.064   1.583
  123MYC    H3224605   3.393   4.147   1.526
  123MYC    H3324606   3.319   3.979   1.524
  123MYC    C1624607   3.156   4.016   1.745
  123MYC    H2824608   3.183   3.914   1.775
  123MYC    H2924609   3.093   4.006   1.655
  123MYC    C1524610   3.070   4.080   1.854
  123MYC    H2624611   2.975   4.027   1.861
  123MYC    H2724612   3.046   4.183   1.825
  123MYC    C1424613   3.138   4.080   1.992
  123MYC    H2424614   3.241   4.114   1.983
  123MYC    H2524615   3.141   3.978   2.032
  123MYC    C1324616   3.066   4.173   2.091
  123MYC    H2224617   2.960   4.148   2.094
  123MYC    H2324618   3.074   4.276   2.054
  123MYC    C1224619   3.124   4.167   2.233
  123MYC    H2024620   3.230   4.193   2.230
  123MYC    H2124621   3.116   4.065   2.272
  123MYC    C1124622   3.050   4.263   2.327
  123MYC    H1824623   2.944   4.234   2.332
  123MYC    H1924624   3.053   4.365   2.285
  123MYC    C1024625   3.109   4.266   2.468
  123MYC    H1624626   3.213   4.300   2.464
  123MYC    H1724627   3.109   4.164   2.508
  123MYC     C924628   3.029   4.358   2.562
  123MYC    H1424629   2.926   4.320   2.570
  123MYC    H1524630   3.022   4.458   2.518
  123MYC     C824631   3.088   4.371   2.703
  123MYC    H1224632   3.020   4.434   2.763
  123MYC    H1324633   3.184   4.424   2.699
  123MYC     C724634   3.108   4.235   2.774
  123MYC    H1024635   3.201   4.189   2.738
  123MYC    H1124636   3.026   4.168   2.748
  123MYC     C624637   3.114   4.250   2.926
  123MYC     H824638   3.021   4.297   2.960
  123MYC     H924639   3.196   4.318   2.953
  123MYC     C524640   3.133   4.115   3.000
  123MYC     H624641   3.239   4.087   2.999
  123MYC     H724642   3.079   4.037   2.945
  123MYC     C424643   3.080   4.116   3.146
  123MYC     H424644   3.080   4.013   3.182
  123MYC     H524645   2.976   4.149   3.146
  123MYC     C224646   3.163   4.202   3.245
  123MYC     H224647   3.266   4.166   3.241
  123MYC     O324648   3.161   4.340   3.207
  123MYC     H324649   3.073   4.376   3.228
  123MYC     C124650   3.114   4.188   3.391
  123MYC     H124651   3.126   4.082   3.418
  123MYC    C8124652   2.964   4.220   3.408
  123MYC    O8224653   2.880   4.138   3.439
  123MYC    O8324654   2.932   4.352   3.396
  123MYC   H10524655   2.836   4.357   3.413
  123MYC    C2024656   3.203   4.270   3.487
  123MYC    H3424657   3.308   4.246   3.467
  123MYC    H3524658   3.191   4.377   3.468
  123MYC    C2124659   3.174   4.243   3.635
  123MYC    H3624660   3.070   4.266   3.658
  123MYC    H3724661   3.188   4.136   3.656
  123MYC    C2224662   3.265   4.327   3.727
  123MYC    H3824663   3.369   4.320   3.693
  123MYC    H3924664   3.235   4.432   3.718
  123MYC    C2324665   3.258   4.281   3.873
  123MYC    H4024666   3.175   4.211   3.887
  123MYC    H4124667   3.349   4.225   3.897
  123MYC    C2424668   3.240   4.397   3.973
  123MYC    H4224669   3.320   4.471   3.960
  123MYC    H4324670   3.144   4.447   3.952
  123MYC    C2524671   3.240   4.344   4.116
  123MYC    H4424672   3.175   4.255   4.121
  123MYC    H4524673   3.341   4.310   4.142
  123MYC    C2624674   3.192   4.445   4.221
  123MYC    H4624675   3.260   4.531   4.224
  123MYC    H4724676   3.092   4.482   4.194
  123MYC    C2724677   3.186   4.377   4.358
  123MYC    H4824678   3.122   4.288   4.349
  123MYC    H4924679   3.286   4.340   4.384
  123MYC    C2824680   3.132   4.464   4.472
  123MYC    H5024681   3.200   4.549   4.489
  123MYC    H5124682   3.034   4.505   4.444
  123MYC    C2924683   3.120   4.379   4.599
  123MYC    H5224684   3.053   4.295   4.577
  123MYC    H5324685   3.217   4.336   4.624
  123MYC    C3024686   3.065   4.454   4.720
  123MYC    H5424687   3.131   4.538   4.746
  123MYC    H5524688   2.966   4.496   4.696
  123MYC    C3124689   3.053   4.358   4.840
  123MYC    H5624690   3.006   4.265   4.807
  123MYC    H5724691   3.154   4.332   4.876
  123MYC    C3224692   2.971   4.415   4.955
  123MYC    H5824693   3.012   4.512   4.987
  123MYC    H5924694   2.868   4.434   4.920
  123MYC    C3324695   2.968   4.320   5.076
  123MYC    H6024696   2.959   4.216   5.042
  123MYC    H6124697   3.064   4.328   5.128
  123MYC    C3424698   2.852   4.350   5.172
  123MYC    H6224699   2.837   4.458   5.178
  123MYC    H6324700   2.760   4.307   5.131
  123MYC    C3524701   2.878   4.296   5.313
  123MYC    H6424702   2.906   4.190   5.308
  123MYC    H6524703   2.964   4.350   5.354
  123MYC    C3624704   2.757   4.313   5.406
  123MYC    H6624705   2.707   4.409   5.384
  123MYC    H6724706   2.684   4.233   5.386
  123MYC    C3724707   2.800   4.312   5.553
  123MYC    H6824708   2.859   4.222   5.574
  123MYC    H6924709   2.866   4.398   5.570
  123MYC    C3824710   2.682   4.319   5.651
  123MYC    H7024711   2.614   4.401   5.622
  123MYC    H7124712   2.625   4.226   5.644
  123MYC    C3924713   2.729   4.342   5.795
  123MYC    H7224714   2.812   4.274   5.818
  123MYC    H7324715   2.768   4.444   5.805
  123MYC    C4024716   2.618   4.321   5.898
  123MYC    H7424717   2.536   4.391   5.878
  123MYC    H7524718   2.578   4.220   5.886
  123MYC    C4124719   2.666   4.338   6.044
  123MYC    H7624720   2.745   4.265   6.064
  123MYC    H7724721   2.709   4.437   6.057
  123MYC    C4224722   2.551   4.318   6.145
  123MYC    H7824723   2.486   4.406   6.143
  123MYC    H7924724   2.492   4.232   6.114
  123MYC    C4324725   2.600   4.294   6.289
  123MYC    H8024726   2.514   4.287   6.357
  123MYC    H8124727   2.664   4.377   6.323
  123MYC    H8224728   2.656   4.201   6.295
  124MYC   HH1524729   3.113   5.513   6.272
  124MYC    C8024730   3.056   5.482   6.183
  124MYC   H10024731   3.020   5.379   6.199
  124MYC   H10124732   2.969   5.548   6.174
  124MYC    C7924733   3.144   5.490   6.057
  124MYC   H10224734   3.229   5.421   6.068
  124MYC   H10324735   3.186   5.591   6.050
  124MYC    C7824736   3.067   5.458   5.928
  124MYC   HH1424737   2.981   5.525   5.919
  124MYC   H10424738   3.028   5.355   5.933
  124MYC    C7724739   3.155   5.471   5.802
  124MYC   H10624740   3.239   5.401   5.809
  124MYC   H10724741   3.198   5.572   5.799
  124MYC    C7624742   3.079   5.445   5.671
  124MYC   H10824743   2.994   5.514   5.663
  124MYC   H10924744   3.038   5.343   5.672
  124MYC    C7524745   3.169   5.462   5.547
  124MYC   H11024746   3.252   5.391   5.554
  124MYC   H11124747   3.214   5.563   5.550
  124MYC    C7424748   3.096   5.443   5.413
  124MYC   H11224749   3.016   5.517   5.404
  124MYC   H11324750   3.049   5.344   5.410
  124MYC    C7324751   3.193   5.457   5.294
  124MYC   HH1324752   3.268   5.376   5.300
  124MYC   H11424753   3.248   5.552   5.303
  124MYC    C7224754   3.125   5.452   5.157
  124MYC   H11524755   3.059   5.539   5.147
  124MYC   H11624756   3.062   5.363   5.150
  124MYC    C7124757   3.227   5.451   5.043
  124MYC   H11724758   3.283   5.356   5.046
  124MYC   H11824759   3.300   5.532   5.058
  124MYC    C7024760   3.164   5.468   4.904
  124MYC   H11924761   3.122   5.569   4.895
  124MYC   H12024762   3.081   5.397   4.893
  124MYC    C6924763   3.265   5.444   4.791
  124MYC   H12124764   3.298   5.339   4.794
  124MYC   H12224765   3.354   5.506   4.808
  124MYC    C6824766   3.208   5.476   4.652
  124MYC   HH1224767   3.195   5.584   4.644
  124MYC   H12324768   3.109   5.430   4.641
  124MYC    C6724769   3.299   5.426   4.539
  124MYC   H12424770   3.302   5.317   4.540
  124MYC   H12524771   3.402   5.461   4.556
  124MYC    C6624772   3.252   5.475   4.401
  124MYC   H12624773   3.257   5.584   4.399
  124MYC   H12724774   3.147   5.447   4.386
  124MYC    C6524775   3.337   5.418   4.287
  124MYC   H12824776   3.325   5.309   4.283
  124MYC   H12924777   3.443   5.438   4.307
  124MYC    C6424778   3.299   5.479   4.151
  124MYC   H13024779   3.304   5.588   4.158
  124MYC   H13124780   3.195   5.452   4.127
  124MYC    C6324781   3.391   5.433   4.038
  124MYC   HH1124782   3.391   5.323   4.033
  124MYC   H13224783   3.494   5.464   4.060
  124MYC    C6224784   3.348   5.489   3.901
  124MYC   H13324785   3.334   5.597   3.908
  124MYC   H13424786   3.252   5.445   3.874
  124MYC    C6124787   3.451   5.459   3.791
  124MYC   H13524788   3.486   5.355   3.801
  124MYC   H13624789   3.539   5.523   3.805
  124MYC    C6024790   3.393   5.481   3.653
  124MYC   H13724791   3.356   5.582   3.638
  124MYC    C5824792   3.454   5.412   3.534
  124MYC   H13824793   3.535   5.343   3.554
  124MYC    C5924794   3.318   5.371   3.583
  124MYC   H13924795   3.232   5.399   3.522
  124MYC   H14024796   3.309   5.275   3.633
  124MYC    C5724797   3.473   5.487   3.404
  124MYC   HH1024798   3.572   5.533   3.402
  124MYC   H14124799   3.400   5.568   3.395
  124MYC    C5624800   3.459   5.393   3.283
  124MYC   H14224801   3.359   5.348   3.284
  124MYC   H14324802   3.531   5.310   3.293
  124MYC    C5524803   3.481   5.463   3.149
  124MYC   H14424804   3.581   5.509   3.147
  124MYC   H14524805   3.407   5.544   3.138
  124MYC    C5424806   3.468   5.366   3.031
  124MYC   H14624807   3.368   5.321   3.034
  124MYC   H14724808   3.541   5.285   3.042
  124MYC    C5324809   3.487   5.434   2.895
  124MYC   H14824810   3.587   5.478   2.890
  124MYC   H14924811   3.415   5.515   2.885
  124MYC    C5224812   3.469   5.335   2.778
  124MYC    H9924813   3.372   5.285   2.789
  124MYC   H15024814   3.546   5.257   2.783
  124MYC    C5124815   3.475   5.405   2.641
  124MYC    H9724816   3.577   5.439   2.621
  124MYC    H9824817   3.411   5.494   2.645
  124MYC    C5024818   3.425   5.315   2.527
  124MYC    H9524819   3.327   5.275   2.554
  124MYC    H9624820   3.492   5.229   2.514
  124MYC    C4924821   3.413   5.392   2.394
  124MYC    H9324822   3.511   5.398   2.345
  124MYC    H9424823   3.383   5.495   2.415
  124MYC    C4824824   3.308   5.330   2.299
  124MYC    H9124825   3.212   5.327   2.352
  124MYC    H9224826   3.335   5.227   2.274
  124MYC    C4724827   3.288   5.413   2.170
  124MYC    H8924828   3.307   5.519   2.191
  124MYC    H9024829   3.183   5.405   2.143
  124MYC    C4624830   3.376   5.370   2.050
  124MYC    H8724831   3.348   5.268   2.020
  124MYC    H8824832   3.480   5.366   2.082
  124MYC    C4524833   3.366   5.465   1.929
  124MYC    H8524834   3.430   5.427   1.849
  124MYC    H8624835   3.409   5.562   1.959
  124MYC    C4424836   3.224   5.490   1.874
  124MYC    H8324837   3.230   5.567   1.796
  124MYC    H8424838   3.161   5.532   1.952
  124MYC    C1824839   3.158   5.365   1.815
  124MYC    H3124840   3.219   5.319   1.738
  124MYC    C1724841   3.073   5.273   1.899
  124MYC    H3024842   3.051   5.303   2.001
  124MYC    C1924843   3.009   5.359   1.792
  124MYC    H3224844   2.949   5.443   1.825
  124MYC    H3324845   2.973   5.310   1.702
  124MYC    C1624846   3.088   5.122   1.885
  124MYC    H2824847   3.176   5.090   1.942
  124MYC    H2924848   3.108   5.097   1.780
  124MYC    C1524849   2.964   5.041   1.931
  124MYC    H2624850   2.972   4.939   1.891
  124MYC    H2724851   2.873   5.084   1.887
  124MYC    C1424852   2.949   5.031   2.085
  124MYC    H2424853   2.943   5.132   2.128
  124MYC    H2524854   3.038   4.984   2.127
  124MYC    C1324855   2.823   4.952   2.128
  124MYC    H2224856   2.822   4.854   2.079
  124MYC    H2324857   2.735   5.006   2.091
  124MYC    C1224858   2.808   4.934   2.281
  124MYC    H2024859   2.703   4.908   2.303
  124MYC    H2124860   2.828   5.029   2.331
  124MYC    C1124861   2.898   4.823   2.339
  124MYC    H1824862   3.002   4.840   2.308
  124MYC    H1924863   2.869   4.727   2.294
  124MYC    C1024864   2.893   4.809   2.493
  124MYC    H1624865   2.945   4.716   2.519
  124MYC    H1724866   2.789   4.796   2.525
  124MYC     C924867   2.958   4.926   2.569
  124MYC    H1424868   2.890   5.012   2.570
  124MYC    H1524869   3.049   4.958   2.517
  124MYC     C824870   2.996   4.889   2.714
  124MYC    H1224871   3.062   4.802   2.712
  124MYC    H1324872   2.906   4.859   2.769
  124MYC     C724873   3.067   5.003   2.791
  124MYC    H1024874   2.994   5.083   2.813
  124MYC    H1124875   3.145   5.047   2.727
  124MYC     C624876   3.132   4.954   2.922
  124MYC     H824877   3.206   4.877   2.899
  124MYC     H924878   3.054   4.907   2.983
  124MYC     C524879   3.200   5.067   3.002
  124MYC     H624880   3.126   5.142   3.031
  124MYC     H724881   3.270   5.118   2.935
  124MYC     C424882   3.280   5.021   3.127
  124MYC     H424883   3.334   5.109   3.165
  124MYC     H524884   3.358   4.951   3.096
  124MYC     C224885   3.201   4.961   3.249
  124MYC     H224886   3.236   5.018   3.335
  124MYC     O324887   3.060   4.983   3.237
  124MYC     H324888   3.026   4.919   3.172
  124MYC     C124889   3.232   4.811   3.278
  124MYC     H124890   3.341   4.804   3.288
  124MYC    C8124891   3.191   4.717   3.162
  124MYC    O8224892   3.075   4.691   3.133
  124MYC    O8324893   3.295   4.659   3.098
  124MYC   H10524894   3.254   4.600   3.033
  124MYC    C2024895   3.171   4.759   3.411
  124MYC    H3424896   3.062   4.765   3.407
  124MYC    H3524897   3.195   4.652   3.421
  124MYC    C2124898   3.221   4.832   3.538
  124MYC    H3624899   3.330   4.827   3.543
  124MYC    H3724900   3.194   4.938   3.533
  124MYC    C2224901   3.161   4.773   3.667
  124MYC    H3824902   3.051   4.774   3.658
  124MYC    H3924903   3.191   4.668   3.677
  124MYC    C2324904   3.201   4.851   3.794
  124MYC    H4024905   3.309   4.840   3.811
  124MYC    H4124906   3.181   4.958   3.779
  124MYC    C2424907   3.124   4.802   3.918
  124MYC    H4224908   3.016   4.812   3.898
  124MYC    H4324909   3.143   4.695   3.933
  124MYC    C2524910   3.158   4.879   4.046
  124MYC    H4424911   3.263   4.859   4.074
  124MYC    H4524912   3.149   4.987   4.029
  124MYC    C2624913   3.066   4.839   4.162
  124MYC    H4624914   2.962   4.860   4.134
  124MYC    H4724915   3.073   4.730   4.178
  124MYC    C2724916   3.098   4.910   4.295
  124MYC    H4824917   3.200   4.886   4.324
  124MYC    H4924918   3.093   5.019   4.280
  124MYC    C2824919   3.000   4.869   4.407
  124MYC    H5024920   2.899   4.902   4.381
  124MYC    H5124921   2.999   4.760   4.414
  124MYC    C2924922   3.040   4.927   4.544
  124MYC    H5224923   3.142   4.895   4.566
  124MYC    H5324924   3.040   5.037   4.539
  124MYC    C3024925   2.945   4.881   4.657
  124MYC    H5424926   2.854   4.942   4.655
  124MYC    H5524927   2.915   4.777   4.639
  124MYC    C3124928   3.012   4.890   4.795
  124MYC    H5624929   3.103   4.828   4.793
  124MYC    H5724930   3.044   4.993   4.814
  124MYC    C3224931   2.922   4.841   4.910
  124MYC    H5824932   2.838   4.910   4.923
  124MYC    H5924933   2.881   4.742   4.885
  124MYC    C3324934   3.002   4.830   5.041
  124MYC    H6024935   3.087   4.762   5.026
  124MYC    H6124936   3.044   4.928   5.065
  124MYC    C3424937   2.919   4.780   5.161
  124MYC    H6224938   2.837   4.849   5.180
  124MYC    H6324939   2.876   4.682   5.137
  124MYC    C3524940   3.008   4.768   5.287
  124MYC    H6424941   3.090   4.698   5.267
  124MYC    H6524942   3.053   4.866   5.306
  124MYC    C3624943   2.933   4.722   5.414
  124MYC    H6624944   2.847   4.788   5.432
  124MYC    H6724945   2.895   4.621   5.400
  124MYC    C3724946   3.027   4.726   5.536
  124MYC    H6824947   3.110   4.656   5.520
  124MYC    H6924948   3.072   4.826   5.543
  124MYC    C3824949   2.960   4.695   5.671
  124MYC    H7024950   2.872   4.759   5.684
  124MYC    H7124951   2.924   4.591   5.671
  124MYC    C3924952   3.057   4.715   5.789
  124MYC    H7224953   3.148   4.657   5.770
  124MYC    H7324954   3.087   4.821   5.792
  124MYC    C4024955   3.000   4.674   5.926
  124MYC    H7424956   2.907   4.730   5.945
  124MYC    H7524957   2.973   4.568   5.923
  124MYC    C4124958   3.100   4.699   6.040
  124MYC    H7624959   3.197   4.656   6.013
  124MYC    H7724960   3.115   4.807   6.052
  124MYC    C4224961   3.056   4.638   6.175
  124MYC    H7824962   2.959   4.680   6.205
  124MYC    H7924963   3.042   4.530   6.163
  124MYC    C4324964   3.159   4.662   6.288
  124MYC    H8024965   3.132   4.605   6.377
  124MYC    H8124966   3.162   4.769   6.315
  124MYC    H8224967   3.259   4.632   6.256
  125MYC   HH1524968   3.429   6.250   6.244
  125MYC    C8024969   3.353   6.252   6.165
  125MYC   H10024970   3.294   6.160   6.171
  125MYC   H10124971   3.287   6.337   6.182
  125MYC    C7924972   3.421   6.263   6.027
  125MYC   H10224973   3.492   6.180   6.016
  125MYC   H10324974   3.480   6.356   6.023
  125MYC    C7824975   3.321   6.260   5.909
  125MYC   HH1424976   3.248   6.341   5.922
  125MYC   H10424977   3.266   6.166   5.911
  125MYC    C7724978   3.391   6.276   5.773
  125MYC   H10624979   3.470   6.200   5.764
  125MYC   H10724980   3.441   6.374   5.769
  125MYC    C7624981   3.296   6.263   5.653
  125MYC   H10824982   3.214   6.335   5.662
  125MYC   H10924983   3.251   6.163   5.653
  125MYC    C7524984   3.369   6.285   5.519
  125MYC   H11024985   3.452   6.213   5.512
  125MYC   H11124986   3.414   6.385   5.519
  125MYC    C7424987   3.279   6.270   5.395
  125MYC   H11224988   3.200   6.346   5.398
  125MYC   H11324989   3.231   6.172   5.397
  125MYC    C7324990   3.361   6.284   5.265
  125MYC   HH1324991   3.432   6.202   5.259
  125MYC   H11424992   3.419   6.377   5.268
  125MYC    C7224993   3.274   6.284   5.139
  125MYC   H11524994   3.214   6.375   5.136
  125MYC   H11624995   3.204   6.199   5.142
  125MYC    C7124996   3.359   6.274   5.011
  125MYC   H11724997   3.411   6.178   5.010
  125MYC   H11824998   3.436   6.353   5.011
  125MYC    C7024999   3.274   6.286   4.884
  125MYC   H11925000   3.235   6.388   4.877
  125MYC   H12025001   3.188   6.219   4.891
  125MYC    C6925002   3.353   6.253   4.756
  125MYC   H12125003   3.390   6.150   4.762
  125MYC   H12225004   3.441   6.318   4.749
  125MYC    C6825005   3.266   6.269   4.631
  125MYC   HH1225006   3.234   6.374   4.623
  125MYC   H12325007   3.175   6.209   4.642
  125MYC    C6725008   3.338   6.229   4.502
  125MYC   H12425009   3.365   6.123   4.508
  125MYC   H12525010   3.431   6.286   4.491
  125MYC    C6625011   3.249   6.252   4.379
  125MYC   H12625012   3.223   6.358   4.372
  125MYC   H12725013   3.155   6.197   4.391
  125MYC    C6525014   3.316   6.208   4.248
  125MYC   H12825015   3.344   6.102   4.256
  125MYC   H12925016   3.408   6.265   4.232
  125MYC    C6425017   3.223   6.226   4.126
  125MYC   H13025018   3.201   6.332   4.112
  125MYC   H13125019   3.127   6.176   4.147
  125MYC    C6325020   3.284   6.168   3.998
  125MYC   HH1125021   3.310   6.062   4.016
  125MYC   H13225022   3.377   6.220   3.975
  125MYC    C6225023   3.189   6.176   3.878
  125MYC   H13325024   3.169   6.282   3.855
  125MYC   H13425025   3.093   6.130   3.903
  125MYC    C6125026   3.248   6.106   3.754
  125MYC   H13525027   3.268   6.001   3.778
  125MYC   H13625028   3.345   6.152   3.730
  125MYC    C6025029   3.157   6.115   3.632
  125MYC   H13725030   3.066   6.172   3.650
  125MYC    C5825031   3.216   6.124   3.494
  125MYC   H13825032   3.325   6.117   3.486
  125MYC    C5925033   3.145   5.998   3.536
  125MYC   H13925034   3.047   5.978   3.494
  125MYC   H14025035   3.206   5.910   3.555
  125MYC    C5725036   3.156   6.218   3.392
  125MYC   HH1025037   3.207   6.315   3.397
  125MYC   H14125038   3.051   6.237   3.417
  125MYC    C5625039   3.163   6.165   3.248
  125MYC   H14225040   3.124   6.062   3.245
  125MYC   H14325041   3.268   6.161   3.215
  125MYC    C5525042   3.082   6.252   3.151
  125MYC   H14425043   3.127   6.352   3.145
  125MYC   H14525044   2.982   6.266   3.193
  125MYC    C5425045   3.066   6.194   3.009
  125MYC   H14625046   2.982   6.246   2.962
  125MYC   H14725047   3.038   6.088   3.016
  125MYC    C5325048   3.189   6.208   2.918
  125MYC   H14825049   3.271   6.144   2.954
  125MYC   H14925050   3.225   6.311   2.922
  125MYC    C5225051   3.154   6.172   2.772
  125MYC    H9925052   3.062   6.224   2.744
  125MYC   H15025053   3.133   6.064   2.765
  125MYC    C5125054   3.263   6.209   2.669
  125MYC    H9725055   3.350   6.143   2.681
  125MYC    H9825056   3.297   6.311   2.688
  125MYC    C5025057   3.210   6.200   2.524
  125MYC    H9525058   3.123   6.266   2.515
  125MYC    H9625059   3.175   6.098   2.505
  125MYC    C4925060   3.314   6.240   2.417
  125MYC    H9325061   3.400   6.173   2.424
  125MYC    H9425062   3.350   6.341   2.437
  125MYC    C4825063   3.254   6.234   2.275
  125MYC    H9125064   3.172   6.306   2.269
  125MYC    H9225065   3.212   6.134   2.258
  125MYC    C4725066   3.357   6.265   2.164
  125MYC    H8925067   3.439   6.192   2.169
  125MYC    H9025068   3.400   6.364   2.182
  125MYC    C4625069   3.293   6.261   2.024
  125MYC    H8725070   3.211   6.334   2.021
  125MYC    H8825071   3.250   6.162   2.009
  125MYC    C4525072   3.393   6.293   1.910
  125MYC    H8525073   3.465   6.210   1.900
  125MYC    H8625074   3.450   6.382   1.938
  125MYC    C4425075   3.326   6.320   1.773
  125MYC    H8325076   3.399   6.370   1.709
  125MYC    H8425077   3.244   6.392   1.787
  125MYC    C1825078   3.276   6.196   1.700
  125MYC    H3125079   3.357   6.137   1.658
  125MYC    C1725080   3.156   6.118   1.749
  125MYC    H3025081   3.104   6.159   1.835
  125MYC    C1925082   3.146   6.199   1.622
  125MYC    H3225083   3.086   6.290   1.626
  125MYC    H3325084   3.143   6.146   1.528
  125MYC    C1625085   3.155   5.966   1.747
  125MYC    H2825086   3.227   5.925   1.819
  125MYC    H2925087   3.188   5.931   1.648
  125MYC    C1525088   3.015   5.907   1.773
  125MYC    H2625089   3.010   5.806   1.731
  125MYC    H2725090   2.943   5.967   1.717
  125MYC    C1425091   2.973   5.903   1.922
  125MYC    H2425092   2.864   5.913   1.928
  125MYC    H2525093   3.017   5.988   1.976
  125MYC    C1325094   3.015   5.775   1.994
  125MYC    H2225095   3.124   5.767   1.995
  125MYC    H2325096   2.976   5.689   1.939
  125MYC    C1225097   2.963   5.769   2.139
  125MYC    H2025098   2.854   5.782   2.139
  125MYC    H2125099   3.006   5.852   2.197
  125MYC    C1125100   2.997   5.635   2.207
  125MYC    H1825101   3.106   5.627   2.214
  125MYC    H1925102   2.963   5.553   2.143
  125MYC    C1025103   2.937   5.616   2.346
  125MYC    H1625104   2.959   5.513   2.378
  125MYC    H1725105   2.827   5.624   2.341
  125MYC     C925106   2.990   5.713   2.454
  125MYC    H1425107   2.957   5.815   2.433
  125MYC    H1525108   3.100   5.713   2.450
  125MYC     C825109   2.945   5.672   2.595
  125MYC    H1225110   2.973   5.566   2.610
  125MYC    H1325111   2.835   5.676   2.601
  125MYC     C725112   3.006   5.756   2.708
  125MYC    H1025113   2.962   5.856   2.708
  125MYC    H1125114   3.114   5.767   2.691
  125MYC     C625115   2.984   5.688   2.845
  125MYC     H825116   3.016   5.583   2.836
  125MYC     H925117   2.876   5.686   2.867
  125MYC     C525118   3.061   5.753   2.962
  125MYC     H625119   3.014   5.848   2.990
  125MYC     H725120   3.163   5.776   2.928
  125MYC     C425121   3.071   5.658   3.084
  125MYC     H425122   3.163   5.682   3.138
  125MYC     H525123   3.084   5.555   3.049
  125MYC     C225124   2.956   5.665   3.188
  125MYC     H225125   2.978   5.751   3.252
  125MYC     O325126   2.829   5.686   3.126
  125MYC     H325127   2.778   5.604   3.133
  125MYC     C125128   2.953   5.536   3.277
  125MYC     H125129   3.058   5.507   3.293
  125MYC    C8125130   2.886   5.417   3.205
  125MYC    O8225131   2.766   5.408   3.184
  125MYC    O8325132   2.972   5.321   3.163
  125MYC   H10525133   2.917   5.253   3.121
  125MYC    C2025134   2.890   5.559   3.416
  125MYC    H3425135   2.795   5.612   3.405
  125MYC    H3525136   2.867   5.462   3.460
  125MYC    C2125137   2.983   5.635   3.512
  125MYC    H3625138   3.077   5.580   3.523
  125MYC    H3725139   3.009   5.734   3.471
  125MYC    C2225140   2.920   5.654   3.651
  125MYC    H3825141   2.834   5.722   3.642
  125MYC    H3925142   2.881   5.558   3.685
  125MYC    C2325143   3.018   5.708   3.756
  125MYC    H4025144   3.104   5.641   3.763
  125MYC    H4125145   3.055   5.807   3.726
  125MYC    C2425146   2.950   5.719   3.893
  125MYC    H4225147   2.865   5.789   3.886
  125MYC    H4325148   2.907   5.621   3.919
  125MYC    C2525149   3.043   5.764   4.007
  125MYC    H4425150   3.129   5.696   4.012
  125MYC    H4525151   3.082   5.864   3.985
  125MYC    C2625152   2.969   5.763   4.141
  125MYC    H4625153   2.881   5.828   4.134
  125MYC    H4725154   2.932   5.662   4.161
  125MYC    C2725155   3.055   5.809   4.260
  125MYC    H4825156   3.145   5.748   4.265
  125MYC    H4925157   3.087   5.913   4.244
  125MYC    C2825158   2.977   5.798   4.392
  125MYC    H5025159   2.887   5.860   4.386
  125MYC    H5125160   2.945   5.694   4.406
  125MYC    C2925161   3.060   5.842   4.515
  125MYC    H5225162   3.153   5.783   4.518
  125MYC    H5325163   3.088   5.947   4.504
  125MYC    C3025164   2.981   5.822   4.646
  125MYC    H5425165   2.890   5.883   4.642
  125MYC    H5525166   2.950   5.717   4.654
  125MYC    C3125167   3.063   5.860   4.771
  125MYC    H5625168   3.153   5.798   4.775
  125MYC    H5725169   3.096   5.965   4.762
  125MYC    C3225170   2.982   5.842   4.900
  125MYC    H5825171   2.892   5.903   4.895
  125MYC    H5925172   2.949   5.738   4.909
  125MYC    C3325173   3.061   5.881   5.026
  125MYC    H6025174   3.154   5.822   5.030
  125MYC    H6125175   3.090   5.986   5.020
  125MYC    C3425176   2.982   5.857   5.156
  125MYC    H6225177   2.885   5.908   5.150
  125MYC    H6325178   2.961   5.750   5.167
  125MYC    C3525179   3.056   5.907   5.282
  125MYC    H6425180   3.159   5.868   5.281
  125MYC    H6525181   3.063   6.016   5.278
  125MYC    C3625182   2.989   5.864   5.413
  125MYC    H6625183   2.883   5.888   5.410
  125MYC    H6725184   2.997   5.755   5.422
  125MYC    C3725185   3.053   5.930   5.537
  125MYC    H6825186   3.162   5.923   5.530
  125MYC    H6925187   3.028   6.037   5.537
  125MYC    C3825188   3.007   5.866   5.669
  125MYC    H7025189   2.898   5.864   5.673
  125MYC    H7125190   3.041   5.761   5.671
  125MYC    C3925191   3.062   5.938   5.794
  125MYC    H7225192   3.171   5.947   5.786
  125MYC    H7325193   3.022   6.040   5.797
  125MYC    C4025194   3.027   5.865   5.925
  125MYC    H7425195   2.918   5.849   5.930
  125MYC    H7525196   3.074   5.766   5.924
  125MYC    C4125197   3.073   5.941   6.051
  125MYC    H7625198   3.181   5.959   6.045
  125MYC    H7725199   3.025   6.040   6.053
  125MYC    C4225200   3.040   5.866   6.181
  125MYC    H7825201   2.933   5.840   6.184
  125MYC    H7925202   3.095   5.772   6.183
  125MYC    C4325203   3.075   5.947   6.308
  125MYC    H8025204   3.065   5.884   6.397
  125MYC    H8125205   3.007   6.033   6.319
  125MYC    H8225206   3.178   5.984   6.304
  126MYC   HH1525207   3.564   0.465   6.206
  126MYC    C8025208   3.653   0.444   6.146
  126MYC   H10025209   3.741   0.455   6.211
  126MYC   H10125210   3.648   0.339   6.113
  126MYC    C7925211   3.661   0.541   6.027
  126MYC   H10225212   3.731   0.622   6.050
  126MYC   H10325213   3.564   0.588   6.011
  126MYC    C7825214   3.705   0.472   5.896
  126MYC   HH1425215   3.634   0.391   5.873
  126MYC   H10425216   3.803   0.427   5.911
  126MYC    C7725217   3.710   0.568   5.775
  126MYC   H10625218   3.783   0.648   5.795
  126MYC   H10725219   3.612   0.616   5.762
  126MYC    C7625220   3.748   0.494   5.646
  126MYC   H10825221   3.675   0.414   5.627
  126MYC   H10925222   3.845   0.447   5.660
  126MYC    C7525223   3.755   0.586   5.522
  126MYC   H11025224   3.835   0.660   5.537
  126MYC   H11125225   3.661   0.642   5.513
  126MYC    C7425226   3.781   0.508   5.393
  126MYC   H11225227   3.696   0.441   5.373
  126MYC   H11325228   3.869   0.444   5.405
  126MYC    C7325229   3.802   0.599   5.271
  126MYC   HH1325230   3.888   0.666   5.291
  126MYC   H11425231   3.714   0.663   5.258
  126MYC    C7225232   3.827   0.521   5.141
  126MYC   H11525233   3.739   0.460   5.118
  126MYC   H11625234   3.912   0.453   5.154
  126MYC    C7125235   3.856   0.615   5.022
  126MYC   H11725236   3.947   0.673   5.043
  126MYC   H11825237   3.774   0.688   5.013
  126MYC    C7025238   3.871   0.541   4.889
  126MYC   H11925239   3.778   0.489   4.866
  126MYC   H12025240   3.950   0.464   4.898
  126MYC    C6925241   3.907   0.636   4.774
  126MYC   H12125242   4.006   0.680   4.791
  126MYC   H12225243   3.835   0.719   4.772
  126MYC    C6825244   3.905   0.566   4.637
  126MYC   HH1225245   3.805   0.527   4.618
  126MYC   H12325246   3.974   0.481   4.639
  126MYC    C6725247   3.945   0.661   4.523
  126MYC   H12425248   4.048   0.696   4.538
  126MYC   H12525249   3.881   0.750   4.526
  126MYC    C6625250   3.933   0.594   4.386
  126MYC   H12625251   3.830   0.558   4.373
  126MYC   H12725252   3.998   0.506   4.382
  126MYC    C6525253   3.968   0.689   4.270
  126MYC   H12825254   4.075   0.711   4.272
  126MYC   H12925255   3.914   0.784   4.284
  126MYC    C6425256   3.929   0.630   4.133
  126MYC   H13025257   3.822   0.606   4.135
  126MYC   H13125258   3.983   0.535   4.117
  126MYC    C6325259   3.958   0.725   4.017
  126MYC   HH1125260   4.065   0.722   3.993
  126MYC   H13225261   3.935   0.828   4.047
  126MYC    C6225262   3.875   0.691   3.892
  126MYC   H13325263   3.769   0.697   3.918
  126MYC   H13425264   3.895   0.587   3.863
  126MYC    C6125265   3.904   0.784   3.774
  126MYC   H13525266   4.008   0.770   3.742
  126MYC   H13625267   3.894   0.889   3.806
  126MYC    C6025268   3.809   0.759   3.659
  126MYC   H13725269   3.707   0.789   3.681
  126MYC    C5825270   3.856   0.775   3.517
  126MYC   H13825271   3.962   0.796   3.501
  126MYC    C5925272   3.824   0.637   3.571
  126MYC   H13925273   3.734   0.588   3.536
  126MYC   H14025274   3.908   0.570   3.590
  126MYC    C5725275   3.768   0.839   3.412
  126MYC   HH1025276   3.789   0.947   3.407
  126MYC   H14125277   3.662   0.828   3.439
  126MYC    C5625278   3.792   0.775   3.275
  126MYC   H14225279   3.769   0.668   3.282
  126MYC   H14325280   3.898   0.784   3.248
  126MYC    C5525281   3.707   0.838   3.163
  126MYC   H14425282   3.748   0.937   3.142
  126MYC   H14525283   3.604   0.853   3.199
  126MYC    C5425284   3.704   0.751   3.036
  126MYC   H14625285   3.603   0.712   3.021
  126MYC   H14725286   3.770   0.664   3.047
  126MYC    C5325287   3.748   0.828   2.910
  126MYC   H14825288   3.850   0.867   2.926
  126MYC   H14925289   3.681   0.914   2.895
  126MYC    C5225290   3.746   0.741   2.785
  126MYC    H9925291   3.642   0.712   2.764
  126MYC   H15025292   3.803   0.649   2.802
  126MYC    C5125293   3.804   0.814   2.663
  126MYC    H9725294   3.911   0.833   2.680
  126MYC    H9825295   3.755   0.911   2.651
  126MYC    C5025296   3.788   0.733   2.534
  126MYC    H9525297   3.682   0.709   2.520
  126MYC    H9625298   3.842   0.637   2.543
  126MYC    C4925299   3.838   0.809   2.411
  126MYC    H9325300   3.943   0.836   2.424
  126MYC    H9425301   3.783   0.903   2.402
  126MYC    C4825302   3.822   0.728   2.282
  126MYC    H9125303   3.716   0.702   2.268
  126MYC    H9225304   3.877   0.633   2.293
  126MYC    C4725305   3.874   0.803   2.158
  126MYC    H8925306   3.974   0.843   2.180
  126MYC    H9025307   3.809   0.889   2.136
  126MYC    C4625308   3.885   0.713   2.035
  126MYC    H8725309   3.937   0.622   2.066
  126MYC    H8825310   3.949   0.763   1.961
  126MYC    C4525311   3.750   0.677   1.966
  126MYC    H8525312   3.721   0.759   1.899
  126MYC    H8625313   3.670   0.669   2.041
  126MYC    C4425314   3.755   0.545   1.887
  126MYC    H8325315   3.667   0.540   1.821
  126MYC    H8425316   3.745   0.462   1.958
  126MYC    C1825317   3.883   0.522   1.807
  126MYC    H3125318   3.971   0.526   1.868
  126MYC    C1725319   3.885   0.414   1.702
  126MYC    H3025320   3.790   0.367   1.679
  126MYC    C1925321   3.900   0.559   1.661
  126MYC    H3225322   3.818   0.606   1.610
  126MYC    H3325323   3.998   0.592   1.628
  126MYC    C1625324   4.002   0.318   1.696
  126MYC    H2825325   4.096   0.373   1.700
  126MYC    H2925326   4.000   0.268   1.599
  126MYC    C1525327   4.000   0.211   1.809
  126MYC    H2625328   4.039   0.117   1.768
  126MYC    H2725329   3.897   0.192   1.840
  126MYC    C1425330   4.086   0.249   1.932
  126MYC    H2425331   4.062   0.350   1.966
  126MYC    H2525332   4.192   0.252   1.901
  126MYC    C1325333   4.073   0.150   2.051
  126MYC    H2225334   4.173   0.127   2.089
  126MYC    H2325335   4.030   0.056   2.016
  126MYC    C1225336   3.989   0.206   2.168
  126MYC    H2025337   3.890   0.235   2.130
  126MYC    H2125338   4.036   0.297   2.207
  126MYC    C1125339   3.971   0.104   2.283
  126MYC    H1825340   4.069   0.072   2.319
  126MYC    H1925341   3.922   0.015   2.243
  126MYC    C1025342   3.886   0.158   2.401
  126MYC    H1625343   3.810   0.084   2.425
  126MYC    H1725344   3.832   0.248   2.368
  126MYC     C925345   3.965   0.192   2.530
  126MYC    H1425346   4.045   0.263   2.507
  126MYC    H1525347   4.012   0.100   2.567
  126MYC     C825348   3.872   0.250   2.639
  126MYC    H1225349   3.788   0.181   2.654
  126MYC    H1325350   3.831   0.344   2.601
  126MYC     C725351   3.939   0.277   2.775
  126MYC    H1025352   4.016   0.354   2.762
  126MYC    H1125353   3.988   0.186   2.810
  126MYC     C625354   3.836   0.326   2.881
  126MYC     H825355   3.761   0.248   2.895
  126MYC     H925356   3.783   0.412   2.840
  126MYC     C525357   3.898   0.368   3.017
  126MYC     H625358   3.822   0.420   3.075
  126MYC     H725359   3.977   0.441   2.997
  126MYC     C425360   3.957   0.253   3.104
  126MYC     H425361   4.032   0.298   3.170
  126MYC     H525362   4.011   0.183   3.040
  126MYC     C225363   3.856   0.178   3.195
  126MYC     H225364   3.814   0.251   3.264
  126MYC     O325365   3.750   0.124   3.116
  126MYC     H325366   3.677   0.099   3.175
  126MYC     C125367   3.923   0.065   3.280
  126MYC     H125368   4.001   0.114   3.338
  126MYC    C8125369   3.994   6.407   3.195
  126MYC    O8225370   3.939   6.333   3.116
  126MYC    O8325371   4.124   6.389   3.228
  126MYC   H10525372   4.154   6.312   3.176
  126MYC    C2025373   3.825   6.447   3.381
  126MYC    H3425374   3.729   6.428   3.332
  126MYC    H3525375   3.864   6.347   3.407
  126MYC    C2125376   3.802   0.075   3.512
  126MYC    H3625377   3.774   0.179   3.489
  126MYC    H3725378   3.715   0.031   3.563
  126MYC    C2225379   3.922   0.072   3.609
  126MYC    H3825380   3.949   6.418   3.630
  126MYC    H3925381   4.009   0.120   3.564
  126MYC    C2325382   3.891   0.143   3.742
  126MYC    H4025383   3.866   0.248   3.723
  126MYC    H4125384   3.801   0.097   3.786
  126MYC    C2425385   4.005   0.136   3.845
  126MYC    H4225386   4.032   0.031   3.862
  126MYC    H4325387   4.094   0.188   3.807
  126MYC    C2525388   3.963   0.200   3.979
  126MYC    H4425389   3.950   0.308   3.967
  126MYC    H4525390   3.865   0.159   4.007
  126MYC    C2625391   4.061   0.173   4.096
  126MYC    H4625392   4.088   0.067   4.096
  126MYC    H4725393   4.153   0.231   4.081
  126MYC    C2725394   3.996   0.209   4.231
  126MYC    H4825395   3.979   0.317   4.236
  126MYC    H4925396   3.898   0.160   4.237
  126MYC    C2825397   4.079   0.165   4.353
  126MYC    H5025398   4.113   0.062   4.340
  126MYC    H5125399   4.169   0.228   4.361
  126MYC    C2925400   3.996   0.174   4.483
  126MYC    H5225401   3.958   0.276   4.495
  126MYC    H5325402   3.909   0.108   4.474
  126MYC    C3025403   4.076   0.136   4.608
  126MYC    H5425404   4.123   0.038   4.593
  126MYC    H5525405   4.157   0.208   4.623
  126MYC    C3125406   3.988   0.129   4.734
  126MYC    H5625407   3.926   0.219   4.740
  126MYC    H5725408   3.921   0.043   4.725
  126MYC    C3225409   4.072   0.117   4.862
  126MYC    H5825410   4.149   0.041   4.850
  126MYC    H5925411   4.123   0.212   4.879
  126MYC    C3325412   3.987   0.083   4.986
  126MYC    H6025413   3.891   0.135   4.983
  126MYC    H6125414   3.966   6.425   4.986
  126MYC    C3425415   4.059   0.121   5.117
  126MYC    H6225416   4.165   0.091   5.112
  126MYC    H6325417   4.058   0.230   5.125
  126MYC    C3525418   3.996   0.060   5.243
  126MYC    H6425419   3.887   0.060   5.235
  126MYC    H6525420   4.028   6.406   5.253
  126MYC    C3625421   4.037   0.140   5.368
  126MYC    H6625422   4.146   0.152   5.369
  126MYC    H6725423   3.994   0.240   5.360
  126MYC    C3725424   3.993   0.077   5.501
  126MYC    H6825425   3.886   0.053   5.499
  126MYC    H6925426   4.048   6.433   5.517
  126MYC    C3825427   4.022   0.174   5.618
  126MYC    H7025428   4.127   0.205   5.614
  126MYC    H7125429   3.962   0.264   5.602
  126MYC    C3925430   3.991   0.117   5.757
  126MYC    H7225431   3.884   0.094   5.764
  126MYC    H7325432   4.046   0.023   5.772
  126MYC    C4025433   4.031   0.217   5.868
  126MYC    H7425434   4.140   0.229   5.868
  126MYC    H7525435   3.990   0.316   5.844
  126MYC    C4125436   3.984   0.176   6.009
  126MYC    H7625437   3.874   0.166   6.008
  126MYC    H7725438   4.025   0.077   6.033
  126MYC    C4225439   4.026   0.277   6.117
  126MYC    H7825440   4.135   0.285   6.119
  126MYC    H7925441   3.987   0.376   6.092
  126MYC    C4325442   3.976   0.239   6.258
  126MYC    H8025443   4.009   0.313   6.331
  126MYC    H8125444   4.016   0.141   6.288
  126MYC    H8225445   3.867   0.234   6.261
  127MYC   HH1525446   4.318   1.128   6.308
  127MYC    C8025447   4.254   1.115   6.220
  127MYC   H10025448   4.182   1.035   6.239
  127MYC   H10125449   4.197   1.208   6.205
  127MYC    C7925450   4.339   1.083   6.095
  127MYC   H10225451   4.392   0.989   6.112
  127MYC   H10325452   4.415   1.161   6.082
  127MYC    C7825453   4.254   1.073   5.967
  127MYC   HH1425454   4.210   1.171   5.946
  127MYC   H10425455   4.171   1.003   5.984
  127MYC    C7725456   4.333   1.026   5.844
  127MYC   H10625457   4.372   0.925   5.862
  127MYC   H10725458   4.420   1.092   5.828
  127MYC    C7625459   4.245   1.025   5.717
  127MYC   H10825460   4.210   1.127   5.698
  127MYC   H10925461   4.156   0.964   5.735
  127MYC    C7525462   4.317   0.973   5.591
  127MYC   H11025463   4.348   0.870   5.607
  127MYC   H11125464   4.408   1.033   5.573
  127MYC    C7425465   4.225   0.980   5.467
  127MYC   H11225466   4.185   1.082   5.459
  127MYC   H11325467   4.140   0.914   5.482
  127MYC    C7325468   4.297   0.944   5.336
  127MYC   HH1325469   4.338   0.843   5.342
  127MYC   H11425470   4.381   1.013   5.321
  127MYC    C7225471   4.202   0.954   5.215
  127MYC   H11525472   4.151   1.051   5.217
  127MYC   H11625473   4.124   0.877   5.223
  127MYC    C7125474   4.275   0.941   5.080
  127MYC   H11725475   4.324   0.843   5.074
  127MYC   H11825476   4.354   1.016   5.075
  127MYC    C7025477   4.180   0.959   4.960
  127MYC   H11925478   4.135   1.059   4.965
  127MYC   H12025479   4.098   0.886   4.965
  127MYC    C6925480   4.254   0.943   4.827
  127MYC   H12125481   4.282   0.838   4.813
  127MYC   H12225482   4.348   1.000   4.830
  127MYC    C6825483   4.172   0.992   4.706
  127MYC   HH1225484   4.151   1.099   4.718
  127MYC   H12325485   4.076   0.940   4.702
  127MYC    C6725486   4.247   0.969   4.574
  127MYC   H12425487   4.246   0.862   4.551
  127MYC   H12525488   4.353   0.998   4.586
  127MYC    C6625489   4.189   1.048   4.456
  127MYC   H12625490   4.202   1.156   4.474
  127MYC   H12725491   4.081   1.030   4.449
  127MYC    C6525492   4.255   1.009   4.324
  127MYC   H12825493   4.231   0.904   4.302
  127MYC   H12925494   4.365   1.014   4.334
  127MYC    C6425495   4.213   1.097   4.205
  127MYC   H13025496   4.262   1.194   4.212
  127MYC   H13125497   4.104   1.115   4.209
  127MYC    C6325498   4.248   1.030   4.071
  127MYC   HH1125499   4.189   0.937   4.063
  127MYC   H13225500   4.353   1.000   4.072
  127MYC    C6225501   4.220   1.118   3.949
  127MYC   H13325502   4.292   1.200   3.946
  127MYC   H13425503   4.120   1.162   3.955
  127MYC    C6125504   4.231   1.035   3.819
  127MYC   H13525505   4.150   0.961   3.819
  127MYC   H13625506   4.325   0.978   3.820
  127MYC    C6025507   4.226   1.119   3.693
  127MYC   H13725508   4.320   1.172   3.676
  127MYC    C5825509   4.153   1.065   3.573
  127MYC   H13825510   4.093   0.975   3.588
  127MYC    C5925511   4.102   1.189   3.642
  127MYC   H13925512   4.114   1.284   3.591
  127MYC   H14025513   4.011   1.180   3.701
  127MYC    C5725514   4.223   1.065   3.439
  127MYC   HH1025515   4.273   0.969   3.426
  127MYC   H14125516   4.301   1.142   3.436
  127MYC    C5625517   4.127   1.089   3.321
  127MYC   H14225518   4.091   1.193   3.323
  127MYC   H14325519   4.039   1.024   3.330
  127MYC    C5525520   4.197   1.061   3.187
  127MYC   H14425521   4.224   0.955   3.183
  127MYC   H14525522   4.291   1.117   3.183
  127MYC    C5425523   4.113   1.096   3.063
  127MYC   H14625524   4.087   1.202   3.066
  127MYC   H14725525   4.019   1.038   3.065
  127MYC    C5325526   4.191   1.065   2.935
  127MYC   H14825527   4.218   0.959   2.933
  127MYC   H14925528   4.285   1.122   2.936
  127MYC    C5225529   4.114   1.099   2.806
  127MYC    H9925530   4.085   1.205   2.807
  127MYC   H15025531   4.022   1.040   2.802
  127MYC    C5125532   4.200   1.071   2.681
  127MYC    H9725533   4.232   0.965   2.683
  127MYC    H9825534   4.292   1.131   2.686
  127MYC    C5025535   4.128   1.100   2.549
  127MYC    H9525536   4.103   1.207   2.544
  127MYC    H9625537   4.033   1.044   2.546
  127MYC    C4925538   4.213   1.061   2.427
  127MYC    H9325539   4.230   0.952   2.428
  127MYC    H9425540   4.312   1.108   2.435
  127MYC    C4825541   4.148   1.100   2.294
  127MYC    H9125542   4.139   1.209   2.289
  127MYC    H9225543   4.047   1.059   2.289
  127MYC    C4725544   4.229   1.050   2.173
  127MYC    H8925545   4.228   0.940   2.173
  127MYC    H9025546   4.334   1.081   2.183
  127MYC    C4625547   4.173   1.101   2.040
  127MYC    H8725548   4.174   1.210   2.042
  127MYC    H8825549   4.068   1.069   2.031
  127MYC    C4525550   4.252   1.052   1.917
  127MYC    H8525551   4.249   0.943   1.912
  127MYC    H8625552   4.358   1.080   1.930
  127MYC    C4425553   4.202   1.111   1.784
  127MYC    H8325554   4.272   1.082   1.706
  127MYC    H8425555   4.206   1.220   1.790
  127MYC    C1825556   4.063   1.065   1.742
  127MYC    H3125557   4.057   0.956   1.732
  127MYC    C1725558   3.939   1.137   1.788
  127MYC    H3025559   3.957   1.226   1.848
  127MYC    C1925560   3.983   1.145   1.643
  127MYC    H3225561   4.024   1.239   1.609
  127MYC    H3325562   3.925   1.090   1.569
  127MYC    C1625563   3.816   1.058   1.830
  127MYC    H2825564   3.846   0.981   1.903
  127MYC    H2925565   3.775   1.004   1.744
  127MYC    C1525566   3.704   1.144   1.892
  127MYC    H2625567   3.614   1.082   1.900
  127MYC    H2725568   3.680   1.227   1.825
  127MYC    C1425569   3.739   1.198   2.033
  127MYC    H2425570   3.832   1.256   2.029
  127MYC    H2525571   3.759   1.113   2.099
  127MYC    C1325572   3.630   1.287   2.095
  127MYC    H2225573   3.533   1.236   2.092
  127MYC    H2325574   3.620   1.378   2.035
  127MYC    C1225575   3.664   1.325   2.241
  127MYC    H2025576   3.770   1.355   2.246
  127MYC    H2125577   3.654   1.237   2.304
  127MYC    C1125578   3.577   1.439   2.300
  127MYC    H1825579   3.473   1.406   2.306
  127MYC    H1925580   3.582   1.525   2.232
  127MYC    C1025581   3.624   1.484   2.439
  127MYC    H1625582   3.583   1.583   2.461
  127MYC    H1725583   3.732   1.495   2.436
  127MYC     C925584   3.587   1.387   2.554
  127MYC    H1425585   3.603   1.284   2.522
  127MYC    H1525586   3.481   1.398   2.577
  127MYC     C825587   3.672   1.414   2.679
  127MYC    H1225588   3.656   1.516   2.715
  127MYC    H1325589   3.778   1.405   2.652
  127MYC     C725590   3.644   1.314   2.793
  127MYC    H1025591   3.651   1.212   2.754
  127MYC    H1125592   3.541   1.329   2.827
  127MYC     C625593   3.742   1.330   2.911
  127MYC     H825594   3.727   1.427   2.959
  127MYC     H925595   3.845   1.331   2.872
  127MYC     C525596   3.733   1.216   3.015
  127MYC     H625597   3.816   1.226   3.087
  127MYC     H725598   3.750   1.121   2.963
  127MYC     C425599   3.599   1.207   3.093
  127MYC     H425600   3.582   1.102   3.119
  127MYC     H525601   3.515   1.235   3.028
  127MYC     C225602   3.595   1.289   3.223
  127MYC     H225603   3.676   1.251   3.287
  127MYC     O325604   3.620   1.428   3.196
  127MYC     H325605   3.540   1.464   3.154
  127MYC     C125606   3.461   1.272   3.301
  127MYC     H125607   3.446   1.165   3.320
  127MYC    C8125608   3.338   1.320   3.222
  127MYC    O8225609   3.330   1.427   3.165
  127MYC    O8325610   3.228   1.245   3.244
  127MYC   H10525611   3.154   1.294   3.204
  127MYC    C2025612   3.461   1.338   3.441
  127MYC    H3425613   3.488   1.444   3.432
  127MYC    H3525614   3.359   1.335   3.482
  127MYC    C2125615   3.556   1.269   3.541
  127MYC    H3625616   3.528   1.163   3.551
  127MYC    H3725617   3.659   1.273   3.505
  127MYC    C2225618   3.550   1.335   3.680
  127MYC    H3825619   3.572   1.442   3.670
  127MYC    H3925620   3.449   1.326   3.720
  127MYC    C2325621   3.650   1.272   3.779
  127MYC    H4025622   3.628   1.165   3.791
  127MYC    H4125623   3.752   1.281   3.739
  127MYC    C2425624   3.644   1.341   3.916
  127MYC    H4225625   3.663   1.448   3.904
  127MYC    H4325626   3.542   1.331   3.956
  127MYC    C2525627   3.744   1.284   4.018
  127MYC    H4425628   3.725   1.176   4.031
  127MYC    H4525629   3.846   1.295   3.980
  127MYC    C2625630   3.731   1.354   4.154
  127MYC    H4625631   3.755   1.461   4.143
  127MYC    H4725632   3.626   1.349   4.187
  127MYC    C2725633   3.820   1.294   4.264
  127MYC    H4825634   3.800   1.186   4.270
  127MYC    H4925635   3.925   1.306   4.238
  127MYC    C2825636   3.792   1.358   4.401
  127MYC    H5025637   3.819   1.464   4.398
  127MYC    H5125638   3.684   1.354   4.420
  127MYC    C2925639   3.865   1.289   4.517
  127MYC    H5225640   3.852   1.180   4.508
  127MYC    H5325641   3.972   1.309   4.511
  127MYC    C3025642   3.810   1.334   4.654
  127MYC    H5425643   3.829   1.441   4.668
  127MYC    H5525644   3.701   1.320   4.655
  127MYC    C3125645   3.870   1.255   4.772
  127MYC    H5625646   3.862   1.147   4.750
  127MYC    H5725647   3.977   1.278   4.781
  127MYC    C3225648   3.799   1.284   4.905
  127MYC    H5825649   3.812   1.390   4.931
  127MYC    H5925650   3.691   1.267   4.893
  127MYC    C3325651   3.850   1.196   5.020
  127MYC    H6025652   3.838   1.090   4.992
  127MYC    H6125653   3.958   1.213   5.033
  127MYC    C3425654   3.777   1.221   5.153
  127MYC    H6225655   3.792   1.325   5.183
  127MYC    H6325656   3.670   1.206   5.139
  127MYC    C3525657   3.828   1.128   5.265
  127MYC    H6425658   3.814   1.024   5.235
  127MYC    H6525659   3.936   1.143   5.278
  127MYC    C3625660   3.758   1.151   5.400
  127MYC    H6625661   3.764   1.257   5.427
  127MYC    H6725662   3.651   1.126   5.391
  127MYC    C3725663   3.821   1.067   5.513
  127MYC    H6825664   3.823   0.962   5.483
  127MYC    H6925665   3.925   1.099   5.527
  127MYC    C3825666   3.745   1.079   5.647
  127MYC    H7025667   3.726   1.184   5.670
  127MYC    H7125668   3.647   1.030   5.637
  127MYC    C3925669   3.823   1.016   5.765
  127MYC    H7225670   3.858   0.916   5.736
  127MYC    H7325671   3.912   1.077   5.785
  127MYC    C4025672   3.738   1.004   5.894
  127MYC    H7425673   3.690   1.101   5.914
  127MYC    H7525674   3.658   0.931   5.877
  127MYC    C4125675   3.820   0.961   6.017
  127MYC    H7625676   3.870   0.866   5.996
  127MYC    H7725677   3.899   1.035   6.035
  127MYC    C4225678   3.733   0.947   6.144
  127MYC    H7825679   3.682   1.042   6.163
  127MYC    H7925680   3.656   0.871   6.126
  127MYC    C4325681   3.813   0.908   6.269
  127MYC    H8025682   3.747   0.907   6.357
  127MYC    H8125683   3.895   0.979   6.288
  127MYC    H8225684   3.855   0.807   6.258
  128MYC   HH1525685   3.539   1.552   6.208
  128MYC    C8025686   3.594   1.628   6.151
  128MYC   H10025687   3.523   1.703   6.117
  128MYC   H10125688   3.666   1.676   6.219
  128MYC    C7925689   3.667   1.564   6.032
  128MYC   H10225690   3.593   1.514   5.968
  128MYC   H10325691   3.735   1.486   6.069
  128MYC    C7825692   3.747   1.666   5.947
  128MYC   HH1425693   3.825   1.711   6.009
  128MYC   H10425694   3.679   1.747   5.917
  128MYC    C7725695   3.810   1.603   5.821
  128MYC   H10625696   3.731   1.551   5.765
  128MYC   H10725697   3.883   1.526   5.851
  128MYC    C7625698   3.877   1.706   5.728
  128MYC   H10825699   3.966   1.747   5.777
  128MYC   H10925700   3.808   1.789   5.712
  128MYC    C7525701   3.915   1.645   5.592
  128MYC   H11025702   3.829   1.590   5.553
  128MYC   H11125703   3.996   1.573   5.605
  128MYC    C7425704   3.957   1.750   5.486
  128MYC   H11225705   4.054   1.793   5.512
  128MYC   H11325706   3.884   1.832   5.485
  128MYC    C7325707   3.964   1.687   5.345
  128MYC   HH1325708   3.867   1.640   5.324
  128MYC   H11425709   4.039   1.607   5.345
  128MYC    C7225710   3.996   1.786   5.232
  128MYC   H11525711   4.097   1.826   5.245
  128MYC   H11625712   3.927   1.871   5.235
  128MYC    C7125713   3.984   1.717   5.094
  128MYC   H11725714   3.881   1.682   5.081
  128MYC   H11825715   4.048   1.628   5.094
  128MYC    C7025716   4.023   1.805   4.974
  128MYC   H11925717   4.129   1.830   4.979
  128MYC   H12025718   3.967   1.899   4.978
  128MYC    C6925719   3.992   1.732   4.842
  128MYC   H12125720   3.884   1.717   4.833
  128MYC   H12225721   4.037   1.632   4.845
  128MYC    C6825722   4.043   1.804   4.716
  128MYC   HH1225723   4.153   1.810   4.719
  128MYC   H12325724   4.005   1.907   4.714
  128MYC    C6725725   3.999   1.730   4.588
  128MYC   H12425726   3.890   1.732   4.581
  128MYC   H12525727   4.029   1.625   4.596
  128MYC    C6625728   4.059   1.787   4.458
  128MYC   H12625729   4.169   1.786   4.465
  128MYC   H12725730   4.028   1.892   4.446
  128MYC    C6525731   4.015   1.705   4.335
  128MYC   H12825732   3.905   1.711   4.326
  128MYC   H12925733   4.040   1.600   4.352
  128MYC    C6425734   4.079   1.751   4.203
  128MYC   H13025735   4.188   1.744   4.211
  128MYC   H13125736   4.054   1.857   4.185
  128MYC    C6325737   4.030   1.666   4.085
  128MYC   HH1125738   3.922   1.679   4.074
  128MYC   H13225739   4.047   1.560   4.106
  128MYC    C6225740   4.098   1.701   3.951
  128MYC   H13325741   4.204   1.670   3.955
  128MYC   H13425742   4.097   1.810   3.936
  128MYC    C6125743   4.028   1.634   3.832
  128MYC   H13525744   3.926   1.673   3.825
  128MYC   H13625745   4.018   1.526   3.852
  128MYC    C6025746   4.101   1.652   3.700
  128MYC   H13725747   4.187   1.585   3.692
  128MYC    C5825748   4.022   1.680   3.575
  128MYC   H13825749   3.915   1.700   3.587
  128MYC    C5925750   4.114   1.785   3.631
  128MYC   H13925751   4.207   1.805   3.577
  128MYC   H14025752   4.069   1.872   3.678
  128MYC    C5725753   4.051   1.603   3.448
  128MYC   HH1025754   3.989   1.513   3.445
  128MYC   H14125755   4.156   1.569   3.447
  128MYC    C5625756   4.025   1.687   3.321
  128MYC   H14225757   4.100   1.766   3.315
  128MYC   H14325758   3.927   1.736   3.330
  128MYC    C5525759   4.027   1.603   3.192
  128MYC   H14425760   3.938   1.538   3.190
  128MYC   H14525761   4.115   1.537   3.193
  128MYC    C5425762   4.032   1.690   3.066
  128MYC   H14625763   4.126   1.746   3.068
  128MYC   H14725764   3.950   1.764   3.069
  128MYC    C5325765   4.023   1.610   2.935
  128MYC   H14825766   3.923   1.566   2.928
  128MYC   H14925767   4.095   1.527   2.939
  128MYC    C5225768   4.051   1.696   2.810
  128MYC    H9925769   4.155   1.729   2.812
  128MYC   H15025770   3.987   1.785   2.811
  128MYC    C5125771   4.026   1.617   2.680
  128MYC    H9725772   3.921   1.587   2.678
  128MYC    H9825773   4.086   1.526   2.682
  128MYC    C5025774   4.059   1.696   2.552
  128MYC    H9525775   4.165   1.721   2.549
  128MYC    H9625776   4.003   1.791   2.551
  128MYC    C4925777   4.021   1.613   2.428
  128MYC    H9325778   3.913   1.601   2.427
  128MYC    H9425779   4.065   1.513   2.438
  128MYC    C4825780   4.063   1.671   2.292
  128MYC    H9125781   4.171   1.688   2.291
  128MYC    H9225782   4.014   1.768   2.276
  128MYC    C4725783   4.025   1.574   2.178
  128MYC    H8925784   3.916   1.563   2.174
  128MYC    H9025785   4.065   1.474   2.202
  128MYC    C4625786   4.076   1.615   2.039
  128MYC    H8725787   4.183   1.639   2.045
  128MYC    H8825788   4.023   1.705   2.007
  128MYC    C4525789   4.055   1.503   1.935
  128MYC    H8525790   3.948   1.484   1.923
  128MYC    H8625791   4.099   1.410   1.974
  128MYC    C4425792   4.119   1.530   1.797
  128MYC    H8325793   4.107   1.439   1.737
  128MYC    H8425794   4.227   1.545   1.809
  128MYC    C1825795   4.056   1.646   1.721
  128MYC    H3125796   3.951   1.660   1.745
  128MYC    C1725797   4.137   1.767   1.680
  128MYC    H3025798   4.243   1.768   1.703
  128MYC    C1925799   4.093   1.667   1.577
  128MYC    H3225800   4.168   1.603   1.533
  128MYC    H3325801   4.014   1.697   1.509
  128MYC    C1625802   4.074   1.906   1.681
  128MYC    H2825803   3.974   1.899   1.724
  128MYC    H2925804   4.061   1.942   1.578
  128MYC    C1525805   4.152   2.012   1.760
  128MYC    H2625806   4.092   2.104   1.760
  128MYC    H2725807   4.245   2.037   1.708
  128MYC    C1425808   4.184   1.972   1.906
  128MYC    H2425809   4.284   1.927   1.909
  128MYC    H2525810   4.113   1.897   1.940
  128MYC    C1325811   4.177   2.092   2.002
  128MYC    H2225812   4.071   2.117   2.017
  128MYC    H2325813   4.224   2.179   1.957
  128MYC    C1225814   4.243   2.064   2.138
  128MYC    H2025815   4.352   2.065   2.125
  128MYC    H2125816   4.215   1.965   2.175
  128MYC    C1125817   4.202   2.171   2.241
  128MYC    H1825818   4.098   2.154   2.272
  128MYC    H1925819   4.202   2.268   2.190
  128MYC    C1025820   4.293   2.179   2.365
  128MYC    H1625821   4.273   2.274   2.415
  128MYC    H1725822   4.398   2.183   2.334
  128MYC     C925823   4.271   2.067   2.467
  128MYC    H1425824   4.317   1.974   2.432
  128MYC    H1525825   4.163   2.047   2.476
  128MYC     C825826   4.328   2.103   2.606
  128MYC    H1225827   4.321   2.211   2.623
  128MYC    H1325828   4.434   2.077   2.610
  128MYC     C725829   4.253   2.033   2.721
  128MYC    H1025830   4.263   1.924   2.709
  128MYC    H1125831   4.146   2.056   2.715
  128MYC     C625832   4.306   2.076   2.859
  128MYC     H825833   4.296   2.185   2.869
  128MYC     H925834   4.414   2.055   2.864
  128MYC     C525835   4.236   2.004   2.976
  128MYC     H625836   4.308   1.991   3.058
  128MYC     H725837   4.211   1.903   2.942
  128MYC     C425838   4.109   2.073   3.030
  128MYC     H425839   4.043   1.995   3.071
  128MYC     H525840   4.053   2.120   2.949
  128MYC     C225841   4.139   2.174   3.143
  128MYC     H225842   4.202   2.121   3.216
  128MYC     O325843   4.213   2.284   3.090
  128MYC     H325844   4.151   2.357   3.072
  128MYC     C125845   4.014   2.227   3.219
  128MYC     H125846   3.957   2.138   3.247
  128MYC    C8125847   3.925   2.312   3.127
  128MYC    O8225848   3.947   2.428   3.100
  128MYC    O8325849   3.829   2.241   3.063
  128MYC   H10525850   3.786   2.305   3.003
  128MYC    C2025851   4.050   2.306   3.348
  128MYC    H3425852   4.122   2.385   3.325
  128MYC    H3525853   3.959   2.355   3.385
  128MYC    C2125854   4.104   2.216   3.461
  128MYC    H3625855   4.025   2.145   3.489
  128MYC    H3725856   4.189   2.157   3.426
  128MYC    C2225857   4.149   2.295   3.585
  128MYC    H3825858   4.240   2.351   3.561
  128MYC    H3925859   4.071   2.368   3.612
  128MYC    C2325860   4.174   2.201   3.704
  128MYC    H4025861   4.080   2.147   3.725
  128MYC    H4125862   4.249   2.125   3.676
  128MYC    C2425863   4.219   2.274   3.831
  128MYC    H4225864   4.322   2.309   3.819
  128MYC    H4325865   4.156   2.362   3.846
  128MYC    C2525866   4.207   2.183   3.954
  128MYC    H4425867   4.103   2.147   3.960
  128MYC    H4525868   4.270   2.094   3.941
  128MYC    C2625869   4.244   2.252   4.087
  128MYC    H4625870   4.346   2.222   4.116
  128MYC    H4725871   4.247   2.361   4.073
  128MYC    C2725872   4.145   2.218   4.199
  128MYC    H4825873   4.047   2.261   4.174
  128MYC    H4925874   4.131   2.109   4.204
  128MYC    C2825875   4.189   2.269   4.337
  128MYC    H5025876   4.284   2.222   4.364
  128MYC    H5125877   4.208   2.377   4.332
  128MYC    C2925878   4.085   2.240   4.445
  128MYC    H5225879   3.991   2.293   4.421
  128MYC    H5325880   4.062   2.133   4.446
  128MYC    C3025881   4.132   2.282   4.585
  128MYC    H5425882   4.223   2.226   4.610
  128MYC    H5525883   4.159   2.388   4.585
  128MYC    C3125884   4.027   2.257   4.694
  128MYC    H5625885   3.935   2.312   4.669
  128MYC    H5725886   4.001   2.151   4.696
  128MYC    C3225887   4.076   2.300   4.832
  128MYC    H5825888   4.172   2.249   4.854
  128MYC    H5925889   4.096   2.407   4.832
  128MYC    C3325890   3.977   2.267   4.945
  128MYC    H6025891   3.878   2.306   4.919
  128MYC    H6125892   3.967   2.158   4.954
  128MYC    C3425893   4.022   2.325   5.079
  128MYC    H6225894   4.124   2.290   5.102
  128MYC    H6325895   4.027   2.435   5.070
  128MYC    C3525896   3.929   2.288   5.195
  128MYC    H6425897   3.826   2.316   5.170
  128MYC    H6525898   3.931   2.180   5.210
  128MYC    C3625899   3.971   2.358   5.326
  128MYC    H6625900   4.074   2.331   5.349
  128MYC    H6725901   3.969   2.467   5.311
  128MYC    C3725902   3.881   2.322   5.445
  128MYC    H6825903   3.777   2.349   5.423
  128MYC    H6925904   3.883   2.213   5.459
  128MYC    C3825905   3.926   2.391   5.575
  128MYC    H7025906   4.034   2.374   5.589
  128MYC    H7125907   3.913   2.500   5.565
  128MYC    C3925908   3.851   2.340   5.699
  128MYC    H7225909   3.744   2.363   5.689
  128MYC    H7325910   3.860   2.231   5.702
  128MYC    C4025911   3.905   2.400   5.830
  128MYC    H7425912   4.015   2.396   5.829
  128MYC    H7525913   3.877   2.506   5.837
  128MYC    C4125914   3.855   2.324   5.954
  128MYC    H7625915   3.746   2.330   5.958
  128MYC    H7725916   3.881   2.218   5.943
  128MYC    C4225917   3.914   2.376   6.086
  128MYC    H7825918   4.023   2.386   6.076
  128MYC    H7925919   3.875   2.476   6.107
  128MYC    C4325920   3.884   2.283   6.205
  128MYC    H8025921   3.925   2.326   6.298
  128MYC    H8125922   3.930   2.185   6.190
  128MYC    H8225923   3.776   2.270   6.218
  129MYC   HH1525924   3.674   2.738   6.163
  129MYC    C8025925   3.696   2.788   6.068
  129MYC   H10025926   3.657   2.890   6.073
  129MYC   H10125927   3.805   2.792   6.055
  129MYC    C7925928   3.631   2.711   5.951
  129MYC   H10225929   3.522   2.713   5.963
  129MYC   H10325930   3.662   2.606   5.956
  129MYC    C7825931   3.669   2.769   5.813
  129MYC   HH1425932   3.778   2.760   5.801
  129MYC   H10425933   3.645   2.876   5.810
  129MYC    C7725934   3.599   2.698   5.696
  129MYC   H10625935   3.493   2.727   5.693
  129MYC   H10725936   3.601   2.589   5.712
  129MYC    C7625937   3.665   2.729   5.561
  129MYC   H10825938   3.768   2.691   5.563
  129MYC   H10925939   3.672   2.838   5.548
  129MYC    C7525940   3.591   2.669   5.440
  129MYC   H11025941   3.499   2.726   5.422
  129MYC   H11125942   3.562   2.565   5.463
  129MYC    C7425943   3.679   2.669   5.314
  129MYC   H11225944   3.759   2.595   5.326
  129MYC   H11325945   3.726   2.767   5.302
  129MYC    C7325946   3.600   2.636   5.186
  129MYC   HH1325947   3.529   2.718   5.166
  129MYC   H11425948   3.540   2.546   5.201
  129MYC    C7225949   3.691   2.617   5.064
  129MYC   H11525950   3.746   2.522   5.075
  129MYC   H11625951   3.767   2.696   5.061
  129MYC    C7125952   3.614   2.617   4.932
  129MYC   H11725953   3.569   2.716   4.918
  129MYC   H11825954   3.531   2.545   4.937
  129MYC    C7025955   3.703   2.584   4.811
  129MYC   H11925956   3.736   2.479   4.818
  129MYC   H12025957   3.792   2.647   4.812
  129MYC    C6925958   3.629   2.605   4.678
  129MYC   H12125959   3.608   2.712   4.667
  129MYC   H12225960   3.532   2.554   4.681
  129MYC    C6825961   3.709   2.555   4.557
  129MYC   HH1225962   3.720   2.446   4.564
  129MYC   H12325963   3.810   2.598   4.559
  129MYC    C6725964   3.641   2.593   4.425
  129MYC   H12425965   3.641   2.702   4.416
  129MYC   H12525966   3.536   2.561   4.428
  129MYC    C6625967   3.709   2.531   4.303
  129MYC   H12625968   3.699   2.421   4.308
  129MYC   H12725969   3.816   2.554   4.304
  129MYC    C6525970   3.647   2.582   4.173
  129MYC   H12825971   3.657   2.691   4.170
  129MYC   H12925972   3.539   2.560   4.173
  129MYC    C6425973   3.710   2.521   4.047
  129MYC   H13025974   3.694   2.413   4.047
  129MYC   H13125975   3.819   2.538   4.049
  129MYC    C6325976   3.650   2.583   3.921
  129MYC   HH1125977   3.664   2.692   3.924
  129MYC   H13225978   3.542   2.564   3.920
  129MYC    C6225979   3.712   2.529   3.791
  129MYC   H13325980   3.703   2.419   3.790
  129MYC   H13425981   3.819   2.554   3.788
  129MYC    C6125982   3.641   2.587   3.669
  129MYC   H13525983   3.645   2.697   3.673
  129MYC   H13625984   3.535   2.560   3.672
  129MYC    C6025985   3.700   2.540   3.538
  129MYC   H13725986   3.721   2.433   3.537
  129MYC    C5825987   3.649   2.600   3.410
  129MYC   H13825988   3.579   2.682   3.419
  129MYC    C5925989   3.791   2.627   3.454
  129MYC   H13925990   3.871   2.579   3.400
  129MYC   H14025991   3.814   2.727   3.491
  129MYC    C5725992   3.616   2.509   3.293
  129MYC   HH1025993   3.513   2.474   3.302
  129MYC   H14125994   3.680   2.420   3.296
  129MYC    C5625995   3.637   2.579   3.158
  129MYC   H14225996   3.741   2.611   3.151
  129MYC   H14325997   3.576   2.670   3.154
  129MYC    C5525998   3.601   2.489   3.039
  129MYC   H14425999   3.493   2.492   3.022
  129MYC   H14526000   3.624   2.385   3.063
  129MYC    C5426001   3.677   2.529   2.911
  129MYC   H14626002   3.785   2.528   2.930
  129MYC   H14726003   3.653   2.633   2.886
  129MYC    C5326004   3.647   2.438   2.791
  129MYC   H14826005   3.539   2.429   2.777
  129MYC   H14926006   3.685   2.337   2.811
  129MYC    C5226007   3.710   2.492   2.661
  129MYC    H9926008   3.819   2.502   2.676
  129MYC   H15026009   3.672   2.593   2.642
  129MYC    C5126010   3.685   2.403   2.538
  129MYC    H9726011   3.578   2.379   2.531
  129MYC    H9826012   3.737   2.308   2.553
  129MYC    C5026013   3.732   2.469   2.407
  129MYC    H9526014   3.830   2.514   2.423
  129MYC    H9626015   3.664   2.551   2.382
  129MYC    C4926016   3.739   2.370   2.288
  129MYC    H9326017   3.638   2.334   2.267
  129MYC    H9426018   3.798   2.282   2.319
  129MYC    C4826019   3.803   2.430   2.161
  129MYC    H9126020   3.907   2.457   2.182
  129MYC    H9226021   3.751   2.523   2.134
  129MYC    C4726022   3.798   2.333   2.041
  129MYC    H8926023   3.693   2.315   2.014
  129MYC    H9026024   3.840   2.236   2.072
  129MYC    C4626025   3.874   2.382   1.915
  129MYC    H8726026   3.981   2.389   1.939
  129MYC    H8826027   3.840   2.483   1.889
  129MYC    C4526028   3.854   2.287   1.794
  129MYC    H8526029   3.748   2.286   1.765
  129MYC    H8626030   3.878   2.185   1.826
  129MYC    C4426031   3.942   2.320   1.670
  129MYC    H8326032   3.945   2.230   1.608
  129MYC    H8426033   4.045   2.338   1.704
  129MYC    C1826034   3.894   2.437   1.586
  129MYC    H3126035   3.816   2.495   1.634
  129MYC    C1726036   3.990   2.515   1.499
  129MYC    H3026037   4.093   2.481   1.495
  129MYC    C1926038   3.887   2.426   1.435
  129MYC    H3226039   3.921   2.335   1.388
  129MYC    H3326040   3.804   2.475   1.384
  129MYC    C1626041   3.979   2.667   1.485
  129MYC    H2826042   3.873   2.697   1.486
  129MYC    H2926043   4.018   2.696   1.387
  129MYC    C1526044   4.054   2.748   1.593
  129MYC    H2626045   4.037   2.855   1.575
  129MYC    H2726046   4.161   2.733   1.581
  129MYC    C1426047   4.012   2.714   1.738
  129MYC    H2426048   4.018   2.606   1.754
  129MYC    H2526049   3.907   2.743   1.751
  129MYC    C1326050   4.094   2.782   1.848
  129MYC    H2226051   4.090   2.891   1.836
  129MYC    H2326052   4.199   2.752   1.837
  129MYC    C1226053   4.044   2.743   1.989
  129MYC    H2026054   4.042   2.634   1.997
  129MYC    H2126055   3.941   2.779   2.003
  129MYC    C1126056   4.134   2.800   2.099
  129MYC    H1826057   4.130   2.909   2.099
  129MYC    H1926058   4.237   2.772   2.075
  129MYC    C1026059   4.106   2.745   2.240
  129MYC    H1626060   4.196   2.763   2.301
  129MYC    H1726061   4.093   2.636   2.235
  129MYC     C926062   3.983   2.804   2.311
  129MYC    H1426063   3.895   2.742   2.289
  129MYC    H1526064   3.963   2.905   2.272
  129MYC     C826065   4.005   2.813   2.463
  129MYC    H1226066   4.092   2.877   2.481
  129MYC    H1326067   4.030   2.713   2.502
  129MYC     C726068   3.884   2.870   2.540
  129MYC    H1026069   3.805   2.795   2.546
  129MYC    H1126070   3.844   2.956   2.485
  129MYC     C626071   3.921   2.917   2.682
  129MYC     H826072   3.836   2.971   2.726
  129MYC     H926073   4.003   2.990   2.674
  129MYC     C526074   3.964   2.805   2.780
  129MYC     H626075   4.036   2.738   2.731
  129MYC     H726076   3.877   2.745   2.806
  129MYC     C426077   4.028   2.863   2.907
  129MYC     H426078   3.961   2.938   2.950
  129MYC     H526079   4.120   2.915   2.879
  129MYC     C226080   4.060   2.758   3.016
  129MYC     H226081   3.967   2.705   3.040
  129MYC     O326082   4.155   2.663   2.967
  129MYC     H326083   4.244   2.702   2.978
  129MYC     C126084   4.111   2.826   3.147
  129MYC     H126085   4.029   2.891   3.180
  129MYC    C8126086   4.233   2.918   3.126
  129MYC    O8226087   4.231   3.038   3.150
  129MYC    O8326088   4.343   2.858   3.075
  129MYC   H10526089   4.411   2.928   3.070
  129MYC    C2026090   4.135   2.725   3.262
  129MYC    H3426091   4.052   2.654   3.266
  129MYC    H3526092   4.226   2.667   3.244
  129MYC    C2126093   4.147   2.797   3.398
  129MYC    H3626094   4.233   2.866   3.397
  129MYC    H3726095   4.057   2.858   3.413
  129MYC    C2226096   4.163   2.702   3.518
  129MYC    H3826097   4.098   2.614   3.506
  129MYC    H3926098   4.266   2.665   3.522
  129MYC    C2326099   4.127   2.773   3.649
  129MYC    H4026100   4.182   2.867   3.656
  129MYC    H4126101   4.020   2.799   3.647
  129MYC    C2426102   4.155   2.690   3.775
  129MYC    H4226103   4.107   2.592   3.766
  129MYC    H4326104   4.263   2.672   3.783
  129MYC    C2526105   4.105   2.761   3.902
  129MYC    H4426106   4.139   2.865   3.902
  129MYC    H4526107   3.995   2.763   3.901
  129MYC    C2626108   4.154   2.693   4.030
  129MYC    H4626109   4.122   2.587   4.030
  129MYC    H4726110   4.263   2.694   4.032
  129MYC    C2726111   4.099   2.761   4.157
  129MYC    H4826112   4.117   2.869   4.151
  129MYC    H4926113   3.991   2.747   4.162
  129MYC    C2826114   4.165   2.706   4.284
  129MYC    H5026115   4.164   2.597   4.281
  129MYC    H5126116   4.271   2.737   4.287
  129MYC    C2926117   4.095   2.752   4.413
  129MYC    H5226118   4.085   2.861   4.412
  129MYC    H5326119   3.993   2.710   4.414
  129MYC    C3026120   4.170   2.709   4.540
  129MYC    H5426121   4.203   2.605   4.530
  129MYC    H5526122   4.261   2.770   4.549
  129MYC    C3126123   4.084   2.724   4.666
  129MYC    H5626124   4.033   2.821   4.664
  129MYC    H5726125   4.006   2.647   4.664
  129MYC    C3226126   4.164   2.710   4.796
  129MYC    H5826127   4.214   2.613   4.798
  129MYC    H5926128   4.242   2.787   4.798
  129MYC    C3326129   4.074   2.726   4.920
  129MYC    H6026130   4.017   2.819   4.912
  129MYC    H6126131   4.002   2.643   4.923
  129MYC    C3426132   4.155   2.727   5.050
  129MYC    H6226133   4.208   2.631   5.060
  129MYC    H6326134   4.232   2.805   5.044
  129MYC    C3526135   4.069   2.752   5.175
  129MYC    H6426136   4.018   2.849   5.166
  129MYC    H6526137   3.992   2.674   5.182
  129MYC    C3626138   4.156   2.751   5.302
  129MYC    H6626139   4.210   2.656   5.305
  129MYC    H6726140   4.231   2.830   5.295
  129MYC    C3726141   4.078   2.769   5.433
  129MYC    H6826142   4.041   2.872   5.441
  129MYC    H6926143   3.990   2.702   5.434
  129MYC    C3826144   4.168   2.735   5.554
  129MYC    H7026145   4.195   2.629   5.547
  129MYC    H7126146   4.261   2.793   5.546
  129MYC    C3926147   4.104   2.762   5.691
  129MYC    H7226148   4.090   2.870   5.705
  129MYC    H7326149   4.004   2.715   5.695
  129MYC    C4026150   4.191   2.705   5.805
  129MYC    H7426151   4.200   2.597   5.791
  129MYC    H7526152   4.293   2.746   5.796
  129MYC    C4126153   4.137   2.734   5.946
  129MYC    H7626154   4.143   2.842   5.966
  129MYC    H7726155   4.031   2.706   5.950
  129MYC    C4226156   4.215   2.657   6.055
  129MYC    H7826157   4.211   2.550   6.032
  129MYC    H7926158   4.320   2.687   6.052
  129MYC    C4326159   4.159   2.679   6.196
  129MYC    H8026160   4.212   2.616   6.268
  129MYC    H8126161   4.052   2.654   6.200
  129MYC    H8226162   4.172   2.784   6.227
  130MYC   HH1526163   4.248   3.391   6.224
  130MYC    C8026164   4.284   3.392   6.121
  130MYC   H10026165   4.350   3.479   6.108
  130MYC   H10126166   4.343   3.301   6.104
  130MYC    C7926167   4.165   3.399   6.023
  130MYC   H10226168   4.109   3.492   6.040
  130MYC   H10326169   4.098   3.316   6.044
  130MYC    C7826170   4.209   3.393   5.875
  130MYC   HH1426171   4.276   3.307   5.861
  130MYC   H10426172   4.266   3.483   5.850
  130MYC    C7726173   4.090   3.377   5.778
  130MYC   H10626174   4.021   3.462   5.789
  130MYC   H10726175   4.034   3.287   5.804
  130MYC    C7626176   4.134   3.368   5.630
  130MYC   H10826177   4.222   3.303   5.623
  130MYC   H10926178   4.165   3.467   5.595
  130MYC    C7526179   4.025   3.312   5.537
  130MYC   H11026180   3.933   3.371   5.548
  130MYC   H11126181   4.001   3.209   5.568
  130MYC    C7426182   4.068   3.312   5.389
  130MYC   H11226183   4.167   3.265   5.380
  130MYC   H11326184   4.079   3.416   5.356
  130MYC    C7326185   3.969   3.238   5.296
  130MYC   HH1326186   3.869   3.281   5.308
  130MYC   H11426187   3.964   3.132   5.324
  130MYC    C7226188   4.013   3.250   5.149
  130MYC   H11526189   4.113   3.207   5.137
  130MYC   H11626190   4.022   3.357   5.124
  130MYC    C7126191   3.917   3.184   5.047
  130MYC   H11726192   3.816   3.224   5.061
  130MYC   H11826193   3.913   3.076   5.065
  130MYC    C7026194   3.965   3.211   4.904
  130MYC   H11926195   4.065   3.167   4.891
  130MYC   H12026196   3.978   3.320   4.891
  130MYC    C6926197   3.873   3.160   4.792
  130MYC   H12126198   3.771   3.200   4.806
  130MYC   H12226199   3.866   3.051   4.796
  130MYC    C6826200   3.928   3.205   4.655
  130MYC   HH1226201   4.032   3.173   4.647
  130MYC   H12326202   3.929   3.315   4.652
  130MYC    C6726203   3.851   3.153   4.532
  130MYC   H12426204   3.747   3.186   4.536
  130MYC   H12526205   3.851   3.043   4.532
  130MYC    C6626206   3.918   3.206   4.403
  130MYC   H12626207   4.024   3.179   4.405
  130MYC   H12726208   3.913   3.316   4.404
  130MYC    C6526209   3.856   3.154   4.273
  130MYC   H12826210   3.749   3.178   4.271
  130MYC   H12926211   3.866   3.045   4.268
  130MYC    C6426212   3.925   3.218   4.150
  130MYC   H13026213   4.033   3.200   4.157
  130MYC   H13126214   3.910   3.326   4.153
  130MYC    C6326215   3.874   3.164   4.016
  130MYC   HH1126216   3.766   3.182   4.008
  130MYC   H13226217   3.889   3.055   4.012
  130MYC    C6226218   3.945   3.229   3.896
  130MYC   H13326219   4.053   3.208   3.903
  130MYC   H13426220   3.934   3.338   3.902
  130MYC    C6126221   3.892   3.180   3.761
  130MYC   H13526222   3.786   3.209   3.752
  130MYC   H13626223   3.895   3.071   3.759
  130MYC    C6026224   3.972   3.234   3.644
  130MYC   H13726225   4.071   3.190   3.638
  130MYC    C5826226   3.903   3.264   3.514
  130MYC   H13826227   3.794   3.258   3.512
  130MYC    C5926228   3.961   3.377   3.596
  130MYC   H13926229   4.051   3.425   3.560
  130MYC   H14026230   3.891   3.443   3.648
  130MYC    C5726231   3.966   3.219   3.383
  130MYC   HH1026232   3.936   3.115   3.363
  130MYC   H14126233   4.075   3.220   3.391
  130MYC    C5626234   3.923   3.306   3.264
  130MYC   H14226235   3.954   3.410   3.282
  130MYC   H14326236   3.814   3.306   3.255
  130MYC    C5526237   3.985   3.257   3.132
  130MYC   H14426238   3.961   3.152   3.117
  130MYC   H14526239   4.095   3.264   3.139
  130MYC    C5426240   3.939   3.337   3.009
  130MYC   H14626241   3.963   3.443   3.024
  130MYC   H14726242   3.830   3.329   3.000
  130MYC    C5326243   4.005   3.288   2.879
  130MYC   H14826244   3.976   3.184   2.861
  130MYC   H14926245   4.114   3.289   2.891
  130MYC    C5226246   3.968   3.374   2.757
  130MYC    H9926247   4.002   3.477   2.774
  130MYC   H15026248   3.859   3.376   2.747
  130MYC    C5126249   4.030   3.321   2.626
  130MYC    H9726250   3.982   3.225   2.601
  130MYC    H9826251   4.137   3.301   2.641
  130MYC    C5026252   4.013   3.419   2.509
  130MYC    H9526253   4.076   3.508   2.527
  130MYC    H9626254   3.909   3.453   2.504
  130MYC    C4926255   4.051   3.357   2.373
  130MYC    H9326256   3.980   3.275   2.351
  130MYC    H9426257   4.150   3.311   2.380
  130MYC    C4826258   4.050   3.459   2.258
  130MYC    H9126259   4.133   3.529   2.273
  130MYC    H9226260   3.958   3.518   2.261
  130MYC    C4726261   4.063   3.392   2.120
  130MYC    H8926262   3.975   3.330   2.100
  130MYC    H9026263   4.149   3.324   2.121
  130MYC    C4626264   4.080   3.493   2.005
  130MYC    H8726265   4.166   3.557   2.027
  130MYC    H8826266   3.992   3.558   2.003
  130MYC    C4526267   4.101   3.426   1.868
  130MYC    H8526268   4.020   3.353   1.849
  130MYC    H8626269   4.195   3.369   1.870
  130MYC    C4426270   4.107   3.527   1.752
  130MYC    H8326271   4.155   3.479   1.666
  130MYC    H8426272   4.173   3.610   1.780
  130MYC    C1826273   3.971   3.581   1.711
  130MYC    H3126274   3.901   3.587   1.794
  130MYC    C1726275   3.959   3.687   1.605
  130MYC    H3026276   4.051   3.718   1.555
  130MYC    C1926277   3.910   3.547   1.577
  130MYC    H3226278   3.969   3.485   1.511
  130MYC    H3326279   3.803   3.530   1.572
  130MYC    C1626280   3.862   3.803   1.624
  130MYC    H2826281   3.772   3.768   1.674
  130MYC    H2926282   3.829   3.838   1.525
  130MYC    C1526283   3.918   3.923   1.704
  130MYC    H2626284   3.837   3.996   1.718
  130MYC    H2726285   3.996   3.972   1.645
  130MYC    C1426286   3.976   3.885   1.843
  130MYC    H2426287   4.071   3.832   1.827
  130MYC    H2526288   3.909   3.815   1.894
  130MYC    C1326289   4.001   4.005   1.936
  130MYC    H2226290   3.905   4.050   1.963
  130MYC    H2326291   4.057   4.082   1.882
  130MYC    C1226292   4.080   3.968   2.064
  130MYC    H2026293   4.171   4.030   2.069
  130MYC    H2126294   4.113   3.864   2.058
  130MYC    C1126295   4.001   3.986   2.196
  130MYC    H1826296   3.912   3.922   2.193
  130MYC    H1926297   3.965   4.090   2.204
  130MYC    C1026298   4.087   3.952   2.319
  130MYC    H1626299   4.158   4.033   2.337
  130MYC    H1726300   4.146   3.862   2.297
  130MYC     C926301   4.004   3.925   2.446
  130MYC    H1426302   3.933   3.844   2.426
  130MYC    H1526303   3.946   4.014   2.472
  130MYC     C826304   4.093   3.886   2.566
  130MYC    H1226305   4.152   3.973   2.598
  130MYC    H1326306   4.165   3.809   2.535
  130MYC     C726307   4.012   3.832   2.685
  130MYC    H1026308   3.968   3.735   2.656
  130MYC    H1126309   3.928   3.900   2.707
  130MYC     C626310   4.096   3.813   2.813
  130MYC     H826311   4.133   3.911   2.844
  130MYC     H926312   4.184   3.752   2.790
  130MYC     C526313   4.016   3.746   2.927
  130MYC     H626314   4.066   3.652   2.955
  130MYC     H726315   3.917   3.717   2.890
  130MYC     C426316   3.997   3.833   3.054
  130MYC     H426317   3.909   3.793   3.107
  130MYC     H526318   3.970   3.935   3.025
  130MYC     C226319   4.117   3.833   3.152
  130MYC     H226320   4.138   3.728   3.177
  130MYC     O326321   4.233   3.889   3.091
  130MYC     H326322   4.237   3.984   3.116
  130MYC     C126323   4.084   3.907   3.284
  130MYC     H126324   3.987   3.867   3.318
  130MYC    C8126325   4.065   4.059   3.263
  130MYC    O8226326   4.156   4.136   3.237
  130MYC    O8326327   3.938   4.101   3.271
  130MYC   H10526328   3.941   4.197   3.254
  130MYC    C2026329   4.185   3.877   3.398
  130MYC    H3426330   4.198   3.769   3.406
  130MYC    H3526331   4.283   3.919   3.372
  130MYC    C2126332   4.138   3.933   3.534
  130MYC    H3626333   4.134   4.042   3.529
  130MYC    H3726334   4.035   3.899   3.553
  130MYC    C2226335   4.227   3.890   3.652
  130MYC    H3826336   4.230   3.780   3.656
  130MYC    H3926337   4.329   3.924   3.636
  130MYC    C2326338   4.173   3.945   3.785
  130MYC    H4026339   4.175   4.054   3.783
  130MYC    H4126340   4.068   3.915   3.796
  130MYC    C2426341   4.252   3.895   3.907
  130MYC    H4226342   4.259   3.785   3.903
  130MYC    H4326343   4.354   3.934   3.904
  130MYC    C2526344   4.184   3.935   4.039
  130MYC    H4426345   4.174   4.044   4.044
  130MYC    H4526346   4.082   3.893   4.041
  130MYC    C2626347   4.260   3.885   4.163
  130MYC    H4626348   4.283   3.778   4.151
  130MYC    H4726349   4.356   3.938   4.170
  130MYC    C2726350   4.181   3.905   4.292
  130MYC    H4826351   4.154   4.011   4.303
  130MYC    H4926352   4.087   3.849   4.286
  130MYC    C2826353   4.258   3.859   4.417
  130MYC    H5026354   4.293   3.756   4.403
  130MYC    H5126355   4.348   3.922   4.429
  130MYC    C2926356   4.173   3.867   4.544
  130MYC    H5226357   4.134   3.969   4.556
  130MYC    H5326358   4.087   3.800   4.534
  130MYC    C3026359   4.253   3.829   4.670
  130MYC    H5426360   4.297   3.729   4.658
  130MYC    H5526361   4.336   3.900   4.683
  130MYC    C3126362   4.165   3.830   4.796
  130MYC    H5626363   4.111   3.926   4.800
  130MYC    H5726364   4.089   3.751   4.788
  130MYC    C3226365   4.245   3.812   4.926
  130MYC    H5826366   4.299   3.717   4.924
  130MYC    H5926367   4.319   3.892   4.933
  130MYC    C3326368   4.152   3.817   5.048
  130MYC    H6026369   4.087   3.906   5.040
  130MYC    H6126370   4.086   3.729   5.047
  130MYC    C3426371   4.227   3.823   5.182
  130MYC    H6226372   4.279   3.728   5.199
  130MYC    H6326373   4.303   3.902   5.179
  130MYC    C3526374   4.130   3.852   5.297
  130MYC    H6426375   4.086   3.951   5.283
  130MYC    H6526376   4.047   3.779   5.294
  130MYC    C3626377   4.196   3.845   5.436
  130MYC    H6626378   4.230   3.743   5.455
  130MYC    H6726379   4.284   3.910   5.437
  130MYC    C3726380   4.098   3.889   5.546
  130MYC    H6826381   4.075   3.995   5.533
  130MYC    H6926382   4.004   3.834   5.536
  130MYC    C3826383   4.154   3.866   5.687
  130MYC    H7026384   4.171   3.758   5.702
  130MYC    H7126385   4.252   3.916   5.697
  130MYC    C3926386   4.059   3.919   5.796
  130MYC    H7226387   4.049   4.027   5.785
  130MYC    H7326388   3.960   3.875   5.782
  130MYC    C4026389   4.108   3.886   5.938
  130MYC    H7426390   4.111   3.777   5.951
  130MYC    H7526391   4.211   3.922   5.950
  130MYC    C4126392   4.019   3.949   6.046
  130MYC    H7626393   4.023   4.058   6.037
  130MYC    H7726394   3.915   3.919   6.028
  130MYC    C4226395   4.059   3.907   6.188
  130MYC    H7826396   4.044   3.799   6.199
  130MYC    H7926397   4.167   3.925   6.204
  130MYC    C4326398   3.980   3.980   6.297
  130MYC    H8026399   3.970   3.917   6.384
  130MYC    H8126400   3.879   4.006   6.262
  130MYC    H8226401   4.031   4.072   6.327
  131MYC   HH1526402   4.209   4.173   6.126
  131MYC    C8026403   4.303   4.230   6.135
  131MYC   H10026404   4.278   4.336   6.145
  131MYC   H10126405   4.354   4.197   6.226
  131MYC    C7926406   4.393   4.207   6.012
  131MYC   H10226407   4.420   4.100   6.008
  131MYC   H10326408   4.486   4.263   6.025
  131MYC    C7826409   4.326   4.247   5.879
  131MYC   HH1426410   4.295   4.353   5.885
  131MYC   H10426411   4.235   4.188   5.865
  131MYC    C7726412   4.419   4.228   5.758
  131MYC   H10626413   4.455   4.125   5.756
  131MYC   H10726414   4.507   4.293   5.769
  131MYC    C7626415   4.351   4.259   5.623
  131MYC   H10826416   4.317   4.363   5.622
  131MYC   H10926417   4.261   4.196   5.613
  131MYC    C7526418   4.444   4.234   5.503
  131MYC   H11026419   4.482   4.132   5.507
  131MYC   H11126420   4.531   4.301   5.510
  131MYC    C7426421   4.374   4.256   5.367
  131MYC   H11226422   4.339   4.360   5.360
  131MYC   H11326423   4.285   4.192   5.362
  131MYC    C7326424   4.466   4.224   5.248
  131MYC   HH1326425   4.498   4.119   5.253
  131MYC   H11426426   4.557   4.285   5.254
  131MYC    C7226427   4.398   4.249   5.112
  131MYC   H11526428   4.371   4.355   5.105
  131MYC   H11626429   4.304   4.192   5.108
  131MYC    C7126430   4.486   4.210   4.992
  131MYC   H11726431   4.508   4.103   4.997
  131MYC   H11826432   4.582   4.263   4.998
  131MYC    C7026433   4.419   4.242   4.857
  131MYC   H11926434   4.401   4.350   4.851
  131MYC   H12026435   4.321   4.192   4.853
  131MYC    C6926436   4.503   4.198   4.736
  131MYC   H12126437   4.519   4.089   4.741
  131MYC   H12226438   4.601   4.246   4.741
  131MYC    C6826439   4.435   4.233   4.602
  131MYC   HH1226440   4.420   4.341   4.597
  131MYC   H12326441   4.336   4.186   4.598
  131MYC    C6726442   4.518   4.188   4.481
  131MYC   H12426443   4.533   4.079   4.486
  131MYC   H12526444   4.617   4.234   4.486
  131MYC    C6626445   4.452   4.224   4.347
  131MYC   H12626446   4.436   4.333   4.343
  131MYC   H12726447   4.353   4.177   4.341
  131MYC    C6526448   4.537   4.181   4.227
  131MYC   H12826449   4.550   4.072   4.230
  131MYC   H12926450   4.636   4.226   4.235
  131MYC    C6426451   4.475   4.221   4.092
  131MYC   H13026452   4.472   4.330   4.085
  131MYC   H13126453   4.371   4.185   4.087
  131MYC    C6326454   4.554   4.163   3.974
  131MYC   HH1126455   4.549   4.053   3.977
  131MYC   H13226456   4.660   4.190   3.984
  131MYC    C6226457   4.502   4.212   3.838
  131MYC   H13326458   4.519   4.320   3.831
  131MYC   H13426459   4.394   4.196   3.831
  131MYC    C6126460   4.571   4.141   3.720
  131MYC   H13526461   4.534   4.038   3.714
  131MYC   H13626462   4.679   4.135   3.739
  131MYC    C6026463   4.550   4.214   3.589
  131MYC   H13726464   4.612   4.303   3.580
  131MYC    C5826465   4.524   4.136   3.463
  131MYC   H13826466   4.511   4.028   3.472
  131MYC    C5926467   4.414   4.221   3.522
  131MYC   H13926468   4.388   4.313   3.471
  131MYC   H14026469   4.331   4.170   3.571
  131MYC    C5726470   4.595   4.175   3.335
  131MYC   HH1026471   4.691   4.123   3.329
  131MYC   H14126472   4.618   4.282   3.336
  131MYC    C5626473   4.512   4.144   3.209
  131MYC   H14226474   4.418   4.199   3.214
  131MYC   H14326475   4.488   4.037   3.206
  131MYC    C5526476   4.587   4.183   3.081
  131MYC   H14426477   4.680   4.125   3.073
  131MYC   H14526478   4.616   4.289   3.088
  131MYC    C5426479   4.503   4.163   2.954
  131MYC   H14626480   4.411   4.222   2.961
  131MYC   H14726481   4.473   4.058   2.945
  131MYC    C5326482   4.582   4.204   2.828
  131MYC   H14826483   4.661   4.130   2.810
  131MYC   H14926484   4.631   4.300   2.845
  131MYC    C5226485   4.493   4.216   2.704
  131MYC    H9926486   4.425   4.301   2.716
  131MYC   H15026487   4.431   4.126   2.694
  131MYC    C5126488   4.576   4.234   2.575
  131MYC    H9726489   4.633   4.143   2.558
  131MYC    H9826490   4.649   4.315   2.589
  131MYC    C5026491   4.488   4.266   2.453
  131MYC    H9526492   4.482   4.375   2.441
  131MYC    H9626493   4.386   4.230   2.470
  131MYC    C4926494   4.541   4.202   2.323
  131MYC    H9326495   4.535   4.093   2.333
  131MYC    H9426496   4.647   4.228   2.308
  131MYC    C4826497   4.460   4.248   2.201
  131MYC    H9126498   4.487   4.351   2.177
  131MYC    H9226499   4.353   4.248   2.226
  131MYC    C4726500   4.480   4.159   2.077
  131MYC    H8926501   4.448   4.057   2.099
  131MYC    H9026502   4.587   4.155   2.052
  131MYC    C4626503   4.401   4.213   1.956
  131MYC    H8726504   4.440   4.311   1.929
  131MYC    H8826505   4.296   4.227   1.985
  131MYC    C4526506   4.407   4.120   1.834
  131MYC    H8526507   4.342   4.033   1.850
  131MYC    H8626508   4.509   4.082   1.822
  131MYC    C4426509   4.366   4.190   1.702
  131MYC    H8326510   4.384   4.120   1.620
  131MYC    H8426511   4.433   4.275   1.685
  131MYC    C1826512   4.221   4.234   1.694
  131MYC    H3126513   4.153   4.150   1.683
  131MYC    C1726514   4.165   4.360   1.758
  131MYC    H3026515   4.233   4.422   1.816
  131MYC    C1926516   4.191   4.355   1.609
  131MYC    H3226517   4.275   4.414   1.572
  131MYC    H3326518   4.107   4.348   1.541
  131MYC    C1626519   4.020   4.369   1.806
  131MYC    H2826520   3.966   4.276   1.782
  131MYC    H2926521   3.970   4.448   1.749
  131MYC    C1526522   4.003   4.401   1.956
  131MYC    H2626523   4.050   4.498   1.976
  131MYC    H2726524   4.054   4.325   2.017
  131MYC    C1426525   3.854   4.409   1.998
  131MYC    H2426526   3.810   4.309   1.997
  131MYC    H2526527   3.800   4.469   1.924
  131MYC    C1326528   3.831   4.474   2.137
  131MYC    H2226529   3.724   4.497   2.147
  131MYC    H2326530   3.884   4.570   2.140
  131MYC    C1226531   3.872   4.390   2.259
  131MYC    H2026532   3.976   4.356   2.248
  131MYC    H2126533   3.810   4.300   2.263
  131MYC    C1126534   3.856   4.469   2.391
  131MYC    H1826535   3.799   4.409   2.463
  131MYC    H1926536   3.794   4.558   2.373
  131MYC    C1026537   3.989   4.515   2.454
  131MYC    H1626538   3.969   4.596   2.525
  131MYC    H1726539   4.053   4.559   2.376
  131MYC     C926540   4.069   4.404   2.527
  131MYC    H1426541   4.164   4.446   2.560
  131MYC    H1526542   4.092   4.322   2.458
  131MYC     C826543   3.993   4.347   2.649
  131MYC    H1226544   3.907   4.288   2.616
  131MYC    H1326545   3.953   4.432   2.706
  131MYC     C726546   4.079   4.260   2.743
  131MYC    H1026547   4.162   4.320   2.783
  131MYC    H1126548   4.124   4.180   2.685
  131MYC     C626549   3.998   4.197   2.860
  131MYC     H826550   4.068   4.143   2.925
  131MYC     H926551   3.929   4.123   2.819
  131MYC     C526552   3.917   4.297   2.947
  131MYC     H626553   3.862   4.239   3.022
  131MYC     H726554   3.840   4.347   2.885
  131MYC     C426555   4.005   4.403   3.018
  131MYC     H426556   4.070   4.450   2.944
  131MYC     H526557   4.071   4.352   3.089
  131MYC     C226558   3.931   4.517   3.092
  131MYC     H226559   4.009   4.569   3.148
  131MYC     O326560   3.879   4.609   2.995
  131MYC     H326561   3.782   4.598   2.993
  131MYC     C126562   3.822   4.470   3.194
  131MYC     H126563   3.841   4.364   3.215
  131MYC    C8126564   3.675   4.474   3.146
  131MYC    O8226565   3.622   4.570   3.092
  131MYC    O8326566   3.599   4.379   3.204
  131MYC   H10526567   3.507   4.401   3.181
  131MYC    C2026568   3.836   4.540   3.333
  131MYC    H3426569   3.888   4.636   3.322
  131MYC    H3526570   3.736   4.564   3.372
  131MYC    C2126571   3.909   4.451   3.436
  131MYC    H3626572   3.851   4.358   3.449
  131MYC    H3726573   4.007   4.422   3.397
  131MYC    C2226574   3.926   4.517   3.574
  131MYC    H3826575   4.000   4.597   3.567
  131MYC    H3926576   3.831   4.563   3.604
  131MYC    C2326577   3.968   4.416   3.682
  131MYC    H4026578   3.893   4.336   3.688
  131MYC    H4126579   4.064   4.369   3.655
  131MYC    C2426580   3.981   4.482   3.821
  131MYC    H4226581   4.060   4.558   3.816
  131MYC    H4326582   3.887   4.533   3.844
  131MYC    C2526583   4.014   4.383   3.935
  131MYC    H4426584   3.942   4.300   3.934
  131MYC    H4526585   4.114   4.340   3.920
  131MYC    C2626586   4.007   4.455   4.071
  131MYC    H4626587   4.071   4.544   4.067
  131MYC    H4726588   3.904   4.490   4.086
  131MYC    C2726589   4.048   4.369   4.192
  131MYC    H4826590   3.984   4.280   4.199
  131MYC    H4926591   4.152   4.336   4.181
  131MYC    C2826592   4.034   4.453   4.321
  131MYC    H5026593   4.096   4.543   4.312
  131MYC    H5126594   3.930   4.486   4.331
  131MYC    C2926595   4.074   4.379   4.450
  131MYC    H5226596   4.013   4.289   4.461
  131MYC    H5326597   4.179   4.347   4.444
  131MYC    C3026598   4.055   4.470   4.574
  131MYC    H5426599   4.123   4.556   4.566
  131MYC    H5526600   3.953   4.510   4.572
  131MYC    C3126601   4.078   4.398   4.707
  131MYC    H5626602   4.016   4.308   4.710
  131MYC    H5726603   4.182   4.366   4.713
  131MYC    C3226604   4.044   4.487   4.829
  131MYC    H5826605   4.111   4.574   4.831
  131MYC    H5926606   3.942   4.525   4.819
  131MYC    C3326607   4.055   4.409   4.961
  131MYC    H6026608   3.991   4.320   4.955
  131MYC    H6126609   4.158   4.373   4.973
  131MYC    C3426610   4.017   4.491   5.086
  131MYC    H6226611   4.088   4.573   5.099
  131MYC    H6326612   3.918   4.536   5.071
  131MYC    C3526613   4.014   4.402   5.212
  131MYC    H6426614   3.939   4.323   5.197
  131MYC    H6526615   4.111   4.353   5.223
  131MYC    C3626616   3.981   4.479   5.341
  131MYC    H6626617   4.058   4.555   5.359
  131MYC    H6726618   3.885   4.531   5.330
  131MYC    C3726619   3.973   4.384   5.463
  131MYC    H6826620   3.893   4.311   5.446
  131MYC    H6926621   4.067   4.328   5.471
  131MYC    C3826622   3.947   4.458   5.595
  131MYC    H7026623   4.026   4.532   5.611
  131MYC    H7126624   3.852   4.513   5.588
  131MYC    C3926625   3.941   4.363   5.717
  131MYC    H7226626   3.862   4.289   5.702
  131MYC    H7326627   4.036   4.308   5.723
  131MYC    C4026628   3.917   4.439   5.849
  131MYC    H7426629   3.995   4.515   5.861
  131MYC    H7526630   3.821   4.491   5.843
  131MYC    C4126631   3.919   4.347   5.973
  131MYC    H7626632   3.842   4.269   5.961
  131MYC    H7726633   4.015   4.296   5.978
  131MYC    C4226634   3.895   4.424   6.104
  131MYC    H7826635   3.973   4.500   6.116
  131MYC    H7926636   3.799   4.478   6.098
  131MYC    C4326637   3.893   4.333   6.228
  131MYC    H8026638   3.880   4.393   6.319
  131MYC    H8126639   3.988   4.279   6.236
  131MYC    H8226640   3.812   4.261   6.222
  132MYC   HH1526641   3.993   4.841   6.195
  132MYC    C8026642   4.048   4.888   6.113
  132MYC   H10026643   4.025   4.995   6.113
  132MYC   H10126644   4.155   4.875   6.132
  132MYC    C7926645   4.008   4.824   5.979
  132MYC   H10226646   3.901   4.841   5.963
  132MYC   H10326647   4.022   4.716   5.984
  132MYC    C7826648   4.087   4.879   5.858
  132MYC   HH1426649   4.189   4.838   5.860
  132MYC   H10426650   4.096   4.988   5.866
  132MYC    C7726651   4.020   4.845   5.724
  132MYC   H10626652   3.924   4.899   5.719
  132MYC   H10726653   3.996   4.738   5.721
  132MYC    C7626654   4.103   4.881   5.599
  132MYC   H10826655   4.190   4.813   5.593
  132MYC   H10926656   4.142   4.983   5.608
  132MYC    C7526657   4.019   4.870   5.471
  132MYC   H11026658   3.938   4.944   5.478
  132MYC   H11126659   3.971   4.772   5.467
  132MYC    C7426660   4.097   4.894   5.340
  132MYC   H11226661   4.173   4.816   5.327
  132MYC   H11326662   4.148   4.991   5.345
  132MYC    C7326663   4.001   4.894   5.220
  132MYC   HH1326664   3.923   4.970   5.237
  132MYC   H11426665   3.949   4.797   5.215
  132MYC    C7226666   4.068   4.922   5.084
  132MYC   H11526667   4.141   4.843   5.061
  132MYC   H11626668   4.122   5.017   5.090
  132MYC    C7126669   3.963   4.930   4.972
  132MYC   H11726670   3.884   5.001   5.001
  132MYC   H11826671   3.915   4.832   4.960
  132MYC    C7026672   4.020   4.976   4.836
  132MYC   H11926673   4.093   4.902   4.801
  132MYC   H12026674   4.074   5.071   4.850
  132MYC    C6926675   3.910   4.994   4.731
  132MYC   H12126676   3.835   5.065   4.768
  132MYC   H12226677   3.858   4.898   4.716
  132MYC    C6826678   3.964   5.044   4.596
  132MYC   HH1226679   4.041   4.975   4.561
  132MYC   H12326680   4.011   5.142   4.610
  132MYC    C6726681   3.854   5.055   4.489
  132MYC   H12426682   3.782   5.134   4.517
  132MYC   H12526683   3.797   4.961   4.485
  132MYC    C6626684   3.911   5.085   4.350
  132MYC   H12626685   3.987   5.008   4.326
  132MYC   H12726686   3.963   5.182   4.351
  132MYC    C6526687   3.805   5.085   4.239
  132MYC   H12826688   3.739   5.172   4.251
  132MYC   H12926689   3.742   4.995   4.248
  132MYC    C6426690   3.869   5.087   4.099
  132MYC   H13026691   3.933   4.999   4.088
  132MYC   H13126692   3.933   5.175   4.090
  132MYC    C6326693   3.765   5.087   3.985
  132MYC   HH1126694   3.704   5.178   3.992
  132MYC   H13226695   3.698   5.001   3.995
  132MYC    C6226696   3.834   5.082   3.847
  132MYC   H13326697   3.895   4.991   3.841
  132MYC   H13426698   3.902   5.167   3.837
  132MYC    C6126699   3.735   5.082   3.730
  132MYC   H13526700   3.668   5.169   3.738
  132MYC   H13626701   3.672   4.993   3.736
  132MYC    C6026702   3.807   5.084   3.596
  132MYC   H13726703   3.889   5.013   3.593
  132MYC    C5826704   3.731   5.103   3.468
  132MYC   H13826705   3.624   5.122   3.477
  132MYC    C5926706   3.824   5.211   3.516
  132MYC   H13926707   3.918   5.225   3.463
  132MYC   H14026708   3.780   5.302   3.556
  132MYC    C5726709   3.765   5.014   3.349
  132MYC   HH1026710   3.717   4.916   3.363
  132MYC   H14126711   3.873   4.996   3.347
  132MYC    C5626712   3.722   5.073   3.214
  132MYC   H14226713   3.768   5.172   3.202
  132MYC   H14326714   3.613   5.087   3.213
  132MYC    C5526715   3.763   4.982   3.097
  132MYC   H14426716   3.710   4.886   3.106
  132MYC   H14526717   3.870   4.961   3.105
  132MYC    C5426718   3.735   5.044   2.959
  132MYC   H14626719   3.785   5.141   2.951
  132MYC   H14726720   3.627   5.062   2.948
  132MYC    C5326721   3.783   4.952   2.845
  132MYC   H14826722   3.728   4.856   2.851
  132MYC   H14926723   3.889   4.929   2.860
  132MYC    C5226724   3.764   5.013   2.705
  132MYC    H9926725   3.822   5.106   2.699
  132MYC   H15026726   3.658   5.039   2.691
  132MYC    C5126727   3.808   4.916   2.593
  132MYC    H9726728   3.746   4.826   2.597
  132MYC    H9826729   3.912   4.885   2.611
  132MYC    C5026730   3.798   4.979   2.453
  132MYC    H9526731   3.864   5.067   2.448
  132MYC    H9626732   3.696   5.015   2.437
  132MYC    C4926733   3.836   4.880   2.340
  132MYC    H9326734   3.763   4.798   2.339
  132MYC    H9426735   3.934   4.836   2.360
  132MYC    C4826736   3.837   4.949   2.202
  132MYC    H9126737   3.909   5.032   2.203
  132MYC    H9226738   3.738   4.990   2.184
  132MYC    C4726739   3.870   4.855   2.085
  132MYC    H8926740   3.791   4.778   2.080
  132MYC    H9026741   3.965   4.803   2.104
  132MYC    C4626742   3.878   4.927   1.948
  132MYC    H8726743   3.964   4.995   1.949
  132MYC    H8826744   3.789   4.989   1.934
  132MYC    C4526745   3.890   4.828   1.831
  132MYC    H8526746   3.799   4.767   1.825
  132MYC    H8626747   3.972   4.759   1.853
  132MYC    C4426748   3.918   4.892   1.693
  132MYC    H8326749   3.930   4.809   1.621
  132MYC    H8426750   4.014   4.944   1.696
  132MYC    C1826751   3.809   4.984   1.638
  132MYC    H3126752   3.711   4.963   1.678
  132MYC    C1726753   3.838   5.126   1.593
  132MYC    H3026754   3.941   5.161   1.601
  132MYC    C1926755   3.814   5.018   1.491
  132MYC    H3226756   3.899   4.983   1.433
  132MYC    H3326757   3.720   5.018   1.436
  132MYC    C1626758   3.735   5.238   1.609
  132MYC    H2826759   3.645   5.200   1.659
  132MYC    H2926760   3.704   5.272   1.510
  132MYC    C1526761   3.788   5.359   1.688
  132MYC    H2626762   3.717   5.442   1.679
  132MYC    H2726763   3.881   5.393   1.641
  132MYC    C1426764   3.813   5.330   1.837
  132MYC    H2426765   3.868   5.236   1.848
  132MYC    H2526766   3.717   5.317   1.889
  132MYC    C1326767   3.893   5.443   1.904
  132MYC    H2226768   3.834   5.535   1.905
  132MYC    H2326769   3.982   5.464   1.843
  132MYC    C1226770   3.938   5.410   2.047
  132MYC    H2026771   3.984   5.310   2.049
  132MYC    H2126772   3.850   5.407   2.113
  132MYC    C1126773   4.039   5.513   2.100
  132MYC    H1826774   3.990   5.611   2.105
  132MYC    H1926775   4.120   5.523   2.027
  132MYC    C1026776   4.102   5.480   2.236
  132MYC    H1626777   4.169   5.563   2.262
  132MYC    H1726778   4.165   5.391   2.226
  132MYC     C926779   4.001   5.459   2.351
  132MYC    H1426780   3.954   5.360   2.340
  132MYC    H1526781   3.922   5.534   2.344
  132MYC     C826782   4.068   5.471   2.489
  132MYC    H1226783   4.103   5.575   2.501
  132MYC    H1326784   4.158   5.408   2.492
  132MYC     C726785   3.976   5.432   2.606
  132MYC    H1026786   3.986   5.325   2.625
  132MYC    H1126787   3.871   5.449   2.579
  132MYC     C626788   4.006   5.512   2.735
  132MYC     H826789   3.951   5.607   2.730
  132MYC     H926790   4.112   5.538   2.738
  132MYC     C526791   3.969   5.437   2.865
  132MYC     H626792   4.049   5.365   2.886
  132MYC     H726793   3.879   5.378   2.848
  132MYC     C426794   3.945   5.529   2.989
  132MYC     H426795   3.841   5.513   3.019
  132MYC     H526796   3.951   5.634   2.959
  132MYC     C226797   4.034   5.508   3.115
  132MYC     H226798   3.977   5.551   3.198
  132MYC     O326799   4.051   5.368   3.141
  132MYC     H326800   4.097   5.329   3.065
  132MYC     C126801   4.171   5.584   3.114
  132MYC     H126802   4.145   5.690   3.111
  132MYC    C8126803   4.255   5.557   2.987
  132MYC    O8226804   4.304   5.449   2.960
  132MYC    O8326805   4.274   5.665   2.909
  132MYC   H10526806   4.330   5.635   2.836
  132MYC    C2026807   4.257   5.563   3.241
  132MYC    H3426808   4.294   5.460   3.244
  132MYC    H3526809   4.345   5.628   3.233
  132MYC    C2126810   4.185   5.595   3.374
  132MYC    H3626811   4.137   5.693   3.368
  132MYC    H3726812   4.105   5.521   3.389
  132MYC    C2226813   4.279   5.591   3.496
  132MYC    H3826814   4.334   5.497   3.494
  132MYC    H3926815   4.353   5.672   3.488
  132MYC    C2326816   4.204   5.603   3.631
  132MYC    H4026817   4.151   5.698   3.635
  132MYC    H4126818   4.128   5.524   3.635
  132MYC    C2426819   4.298   5.590   3.753
  132MYC    H4226820   4.362   5.502   3.740
  132MYC    H4326821   4.363   5.677   3.758
  132MYC    C2526822   4.220   5.575   3.886
  132MYC    H4426823   4.155   5.662   3.899
  132MYC    H4526824   4.155   5.487   3.879
  132MYC    C2626825   4.312   5.561   4.009
  132MYC    H4626826   4.385   5.481   3.991
  132MYC    H4726827   4.368   5.654   4.023
  132MYC    C2726828   4.233   5.529   4.138
  132MYC    H4826829   4.154   5.604   4.151
  132MYC    H4926830   4.183   5.432   4.126
  132MYC    C2826831   4.320   5.526   4.265
  132MYC    H5026832   4.403   5.455   4.252
  132MYC    H5126833   4.365   5.625   4.280
  132MYC    C2926834   4.239   5.487   4.391
  132MYC    H5226835   4.151   5.552   4.398
  132MYC    H5326836   4.202   5.385   4.379
  132MYC    C3026837   4.320   5.498   4.522
  132MYC    H5426838   4.407   5.432   4.517
  132MYC    H5526839   4.357   5.601   4.533
  132MYC    C3126840   4.235   5.462   4.646
  132MYC    H5626841   4.144   5.525   4.646
  132MYC    H5726842   4.201   5.358   4.638
  132MYC    C3226843   4.309   5.482   4.780
  132MYC    H5826844   4.399   5.419   4.781
  132MYC    H5926845   4.342   5.586   4.787
  132MYC    C3326846   4.221   5.448   4.902
  132MYC    H6026847   4.129   5.507   4.897
  132MYC    H6126848   4.191   5.342   4.897
  132MYC    C3426849   4.291   5.475   5.037
  132MYC    H6226850   4.384   5.417   5.043
  132MYC    H6326851   4.318   5.581   5.043
  132MYC    C3526852   4.201   5.439   5.158
  132MYC    H6426853   4.107   5.494   5.150
  132MYC    H6526854   4.176   5.332   5.154
  132MYC    C3626855   4.266   5.472   5.294
  132MYC    H6626856   4.360   5.417   5.304
  132MYC    H6726857   4.291   5.579   5.297
  132MYC    C3726858   4.174   5.439   5.414
  132MYC    H6826859   4.077   5.486   5.398
  132MYC    H6926860   4.157   5.330   5.416
  132MYC    C3826861   4.231   5.485   5.549
  132MYC    H7026862   4.329   5.438   5.566
  132MYC    H7126863   4.248   5.594   5.546
  132MYC    C3926864   4.138   5.452   5.668
  132MYC    H7226865   4.039   5.496   5.649
  132MYC    H7326866   4.124   5.344   5.673
  132MYC    C4026867   4.191   5.504   5.803
  132MYC    H7426868   4.292   5.465   5.820
  132MYC    H7526869   4.198   5.613   5.800
  132MYC    C4126870   4.101   5.463   5.922
  132MYC    H7626871   3.999   5.502   5.906
  132MYC    H7726872   4.092   5.354   5.924
  132MYC    C4226873   4.154   5.513   6.058
  132MYC    H7826874   4.260   5.486   6.068
  132MYC    H7926875   4.148   5.622   6.061
  132MYC    C4326876   4.077   5.455   6.178
  132MYC    H8026877   4.115   5.496   6.272
  132MYC    H8126878   4.087   5.346   6.182
  132MYC    H8226879   3.970   5.479   6.171
  133MYC   HH1526880   3.879   6.044   6.174
  133MYC    C8026881   3.821   6.098   6.099
  133MYC   H10026882   3.714   6.080   6.117
  133MYC   H10126883   3.840   6.206   6.113
  133MYC    C7926884   3.861   6.054   5.958
  133MYC   H10226885   3.841   5.946   5.947
  133MYC   H10326886   3.969   6.067   5.946
  133MYC    C7826887   3.788   6.132   5.847
  133MYC   HH1426888   3.805   6.239   5.860
  133MYC   H10426889   3.680   6.115   5.856
  133MYC    C7726890   3.834   6.090   5.706
  133MYC   H10626891   3.814   5.984   5.691
  133MYC   H10726892   3.943   6.104   5.698
  133MYC    C7626893   3.765   6.171   5.593
  133MYC   H10826894   3.780   6.278   5.610
  133MYC   H10926895   3.657   6.151   5.596
  133MYC    C7526896   3.820   6.133   5.455
  133MYC   H11026897   3.808   6.025   5.440
  133MYC   H11126898   3.928   6.154   5.453
  133MYC    C7426899   3.753   6.207   5.338
  133MYC   H11226900   3.764   6.315   5.350
  133MYC   H11326901   3.646   6.185   5.338
  133MYC    C7326902   3.814   6.163   5.204
  133MYC   HH1326903   3.807   6.054   5.196
  133MYC   H11426904   3.921   6.187   5.205
  133MYC    C7226905   3.750   6.226   5.079
  133MYC   H11526906   3.758   6.335   5.083
  133MYC   H11626907   3.644   6.201   5.074
  133MYC    C7126908   3.822   6.172   4.954
  133MYC   H11726909   3.813   6.063   4.953
  133MYC   H11826910   3.929   6.194   4.963
  133MYC    C7026911   3.772   6.226   4.818
  133MYC   H11926912   3.775   6.336   4.818
  133MYC   H12026913   3.668   6.195   4.802
  133MYC    C6926914   3.862   6.170   4.707
  133MYC   H12126915   3.862   6.060   4.714
  133MYC   H12226916   3.965   6.202   4.726
  133MYC    C6826917   3.825   6.209   4.564
  133MYC   HH1226918   3.840   6.317   4.550
  133MYC   H12326919   3.720   6.188   4.544
  133MYC    C6726920   3.914   6.131   4.465
  133MYC   H12426921   3.887   6.025   4.470
  133MYC   H12526922   4.018   6.139   4.496
  133MYC    C6626923   3.903   6.178   4.319
  133MYC   H12626924   3.938   6.282   4.313
  133MYC   H12726925   3.799   6.176   4.287
  133MYC    C6526926   3.988   6.090   4.226
  133MYC   H12826927   3.942   5.990   4.221
  133MYC   H12926928   4.088   6.077   4.268
  133MYC    C6426929   4.000   6.148   4.085
  133MYC   H13026930   4.060   6.240   4.089
  133MYC   H13126931   3.901   6.176   4.048
  133MYC    C6326932   4.064   6.049   3.986
  133MYC   HH1126933   4.000   5.959   3.980
  133MYC   H13226934   4.162   6.017   4.023
  133MYC    C6226935   4.080   6.110   3.846
  133MYC   H13326936   4.155   6.190   3.850
  133MYC   H13426937   3.985   6.157   3.816
  133MYC    C6126938   4.120   6.006   3.741
  133MYC   H13526939   4.044   5.928   3.736
  133MYC   H13626940   4.214   5.958   3.771
  133MYC    C6026941   4.137   6.070   3.604
  133MYC   H13726942   4.218   6.143   3.602
  133MYC    C5826943   4.114   5.991   3.479
  133MYC   H13826944   4.077   5.889   3.491
  133MYC    C5926945   4.018   6.100   3.517
  133MYC   H13926946   4.020   6.192   3.458
  133MYC   H14026947   3.919   6.071   3.553
  133MYC    C5726948   4.206   6.006   3.359
  133MYC   HH1026949   4.287   5.933   3.365
  133MYC   H14126950   4.251   6.106   3.358
  133MYC    C5626951   4.127   5.985   3.230
  133MYC   H14226952   4.043   6.056   3.226
  133MYC   H14326953   4.083   5.885   3.233
  133MYC    C5526954   4.210   6.000   3.101
  133MYC   H14426955   4.292   5.927   3.102
  133MYC   H14526956   4.254   6.100   3.097
  133MYC    C5426957   4.121   5.977   2.978
  133MYC   H14626958   4.039   6.049   2.979
  133MYC   H14726959   4.076   5.877   2.986
  133MYC    C5326960   4.194   5.986   2.844
  133MYC   H14826961   4.285   5.924   2.846
  133MYC   H14926962   4.226   6.089   2.826
  133MYC    C5226963   4.103   5.940   2.729
  133MYC    H9926964   4.017   6.007   2.722
  133MYC   H15026965   4.063   5.840   2.751
  133MYC    C5126966   4.174   5.934   2.593
  133MYC    H9726967   4.256   5.862   2.597
  133MYC    H9826968   4.218   6.032   2.571
  133MYC    C5026969   4.077   5.897   2.479
  133MYC    H9526970   3.997   5.972   2.474
  133MYC    H9626971   4.029   5.801   2.501
  133MYC    C4926972   4.147   5.888   2.342
  133MYC    H9326973   4.207   5.797   2.337
  133MYC    H9426974   4.217   5.972   2.333
  133MYC    C4826975   4.049   5.893   2.224
  133MYC    H9126976   3.990   5.986   2.231
  133MYC    H9226977   3.978   5.810   2.231
  133MYC    C4726978   4.120   5.891   2.087
  133MYC    H8926979   4.170   5.794   2.075
  133MYC    H9026980   4.199   5.967   2.087
  133MYC    C4626981   4.026   5.917   1.968
  133MYC    H8726982   3.972   6.011   1.986
  133MYC    H8826983   3.950   5.837   1.963
  133MYC    C4526984   4.101   5.927   1.834
  133MYC    H8526985   4.146   5.830   1.810
  133MYC    H8626986   4.184   5.998   1.845
  133MYC    C4426987   4.014   5.972   1.716
  133MYC    H8326988   4.079   5.986   1.629
  133MYC    H8426989   3.971   6.071   1.738
  133MYC    C1826990   3.903   5.874   1.679
  133MYC    H3126991   3.935   5.771   1.686
  133MYC    C1726992   3.758   5.902   1.710
  133MYC    H3026993   3.737   5.996   1.760
  133MYC    C1926994   3.808   5.907   1.567
  133MYC    H3226995   3.817   6.005   1.520
  133MYC    H3326996   3.782   5.827   1.499
  133MYC    C1626997   3.663   5.789   1.749
  133MYC    H2826998   3.719   5.708   1.798
  133MYC    H2926999   3.621   5.744   1.659
  133MYC    C1527000   3.546   5.832   1.840
  133MYC    H2627001   3.470   5.754   1.836
  133MYC    H2727002   3.499   5.923   1.801
  133MYC    C1427003   3.587   5.855   1.988
  133MYC    H2427004   3.648   5.946   1.997
  133MYC    H2527005   3.649   5.771   2.021
  133MYC    C1327006   3.464   5.865   2.081
  133MYC    H2227007   3.403   5.775   2.067
  133MYC    H2327008   3.402   5.950   2.052
  133MYC    C1227009   3.499   5.877   2.232
  133MYC    H2027010   3.521   5.981   2.256
  133MYC    H2127011   3.590   5.819   2.252
  133MYC    C1127012   3.385   5.823   2.322
  133MYC    H1827013   3.377   5.715   2.305
  133MYC    H1927014   3.290   5.867   2.289
  133MYC    C1027015   3.400   5.848   2.473
  133MYC    H1627016   3.327   5.784   2.525
  133MYC    H1727017   3.372   5.951   2.496
  133MYC     C927018   3.540   5.822   2.533
  133MYC    H1427019   3.606   5.905   2.505
  133MYC    H1527020   3.584   5.731   2.491
  133MYC     C827021   3.535   5.808   2.687
  133MYC    H1227022   3.500   5.708   2.712
  133MYC    H1327023   3.462   5.879   2.728
  133MYC     C727024   3.670   5.835   2.757
  133MYC    H1027025   3.692   5.942   2.752
  133MYC    H1127026   3.751   5.783   2.704
  133MYC     C627027   3.670   5.788   2.905
  133MYC     H827028   3.708   5.685   2.907
  133MYC     H927029   3.567   5.784   2.943
  133MYC     C527030   3.754   5.878   2.998
  133MYC     H627031   3.702   5.973   3.012
  133MYC     H727032   3.847   5.902   2.946
  133MYC     C427033   3.789   5.812   3.134
  133MYC     H427034   3.898   5.809   3.141
  133MYC     H527035   3.758   5.707   3.134
  133MYC     C227036   3.735   5.877   3.264
  133MYC     H227037   3.794   5.832   3.345
  133MYC     O327038   3.761   6.018   3.265
  133MYC     H327039   3.695   6.061   3.207
  133MYC     C127040   3.586   5.846   3.295
  133MYC     H127041   3.574   5.738   3.290
  133MYC    C8127042   3.488   5.906   3.191
  133MYC    O8227043   3.485   6.024   3.160
  133MYC    O8327044   3.387   5.823   3.157
  133MYC   H10527045   3.326   5.877   3.103
  133MYC    C2027046   3.540   5.887   3.437
  133MYC    H3427047   3.531   5.997   3.442
  133MYC    H3527048   3.439   5.847   3.453
  133MYC    C2127049   3.630   5.840   3.553
  133MYC    H3627050   3.657   5.735   3.540
  133MYC    H3727051   3.724   5.898   3.552
  133MYC    C2227052   3.562   5.858   3.690
  133MYC    H3827053   3.518   5.959   3.695
  133MYC    H3927054   3.478   5.787   3.696
  133MYC    C2327055   3.654   5.839   3.811
  133MYC    H4027056   3.708   5.744   3.803
  133MYC    H4127057   3.729   5.919   3.813
  133MYC    C2427058   3.572   5.841   3.942
  133MYC    H4227059   3.508   5.929   3.942
  133MYC    H4327060   3.506   5.753   3.942
  133MYC    C2527061   3.655   5.841   4.072
  133MYC    H4427062   3.727   5.758   4.071
  133MYC    H4527063   3.713   5.934   4.078
  133MYC    C2627064   3.563   5.828   4.194
  133MYC    H4627065   3.483   5.903   4.187
  133MYC    H4727066   3.514   5.730   4.192
  133MYC    C2727067   3.634   5.845   4.329
  133MYC    H4827068   3.715   5.771   4.338
  133MYC    H4927069   3.680   5.944   4.334
  133MYC    C2827070   3.536   5.828   4.447
  133MYC    H5027071   3.452   5.897   4.435
  133MYC    H5127072   3.495   5.726   4.446
  133MYC    C2927073   3.602   5.854   4.584
  133MYC    H5227074   3.687   5.787   4.596
  133MYC    H5327075   3.642   5.957   4.586
  133MYC    C3027076   3.505   5.836   4.702
  133MYC    H5427077   3.419   5.904   4.690
  133MYC    H5527078   3.465   5.733   4.701
  133MYC    C3127079   3.573   5.863   4.837
  133MYC    H5627080   3.661   5.798   4.847
  133MYC    H5727081   3.609   5.966   4.839
  133MYC    C3227082   3.480   5.840   4.958
  133MYC    H5827083   3.392   5.905   4.949
  133MYC    H5927084   3.444   5.736   4.956
  133MYC    C3327085   3.551   5.867   5.091
  133MYC    H6027086   3.645   5.810   5.094
  133MYC    H6127087   3.578   5.973   5.097
  133MYC    C3427088   3.466   5.829   5.213
  133MYC    H6227089   3.371   5.882   5.208
  133MYC    H6327090   3.444   5.721   5.209
  133MYC    C3527091   3.535   5.862   5.347
  133MYC    H6427092   3.639   5.827   5.344
  133MYC    H6527093   3.537   5.970   5.360
  133MYC    C3627094   3.465   5.797   5.468
  133MYC    H6627095   3.358   5.821   5.466
  133MYC    H6727096   3.473   5.688   5.460
  133MYC    C3727097   3.525   5.842   5.602
  133MYC    H6827098   3.633   5.823   5.602
  133MYC    H6927099   3.512   5.951   5.612
  133MYC    C3827100   3.462   5.773   5.724
  133MYC    H7027101   3.354   5.790   5.723
  133MYC    H7127102   3.477   5.664   5.716
  133MYC    C3927103   3.521   5.824   5.856
  133MYC    H7227104   3.628   5.802   5.859
  133MYC    H7327105   3.511   5.933   5.860
  133MYC    C4027106   3.453   5.764   5.981
  133MYC    H7427107   3.345   5.782   5.974
  133MYC    H7527108   3.468   5.655   5.983
  133MYC    C4127109   3.507   5.826   6.112
  133MYC    H7627110   3.612   5.797   6.126
  133MYC    H7727111   3.505   5.935   6.102
  133MYC    C4227112   3.425   5.786   6.236
  133MYC    H7827113   3.319   5.803   6.215
  133MYC    H7927114   3.438   5.679   6.256
  133MYC    C4327115   3.464   5.868   6.361
  133MYC    H8027116   3.394   5.846   6.443
  133MYC    H8127117   3.458   5.975   6.340
  133MYC    H8227118   3.566   5.844   6.393
  134MYC   HH1527119   5.204   0.183   6.363
  134MYC    C8027120   5.147   0.135   6.283
  134MYC   H10027121   5.171   0.028   6.283
  134MYC   H10127122   5.040   0.146   6.305
  134MYC    C7927123   5.183   0.197   6.147
  134MYC   H10227124   5.291   0.189   6.133
  134MYC   H10327125   5.158   0.304   6.148
  134MYC    C7827126   5.110   0.128   6.030
  134MYC   HH1427127   5.002   0.148   6.037
  134MYC   H10427128   5.123   0.020   6.038
  134MYC    C7727129   5.162   0.175   5.893
  134MYC   H10627130   5.270   0.160   5.888
  134MYC   H10727131   5.144   0.283   5.882
  134MYC    C7627132   5.095   0.100   5.776
  134MYC   H10827133   4.987   0.119   5.777
  134MYC   H10927134   5.109   6.441   5.789
  134MYC    C7527135   5.152   0.142   5.639
  134MYC   H11027136   5.261   0.124   5.638
  134MYC   H11127137   5.137   0.249   5.626
  134MYC    C7427138   5.088   0.066   5.522
  134MYC   H11227139   4.979   0.077   5.527
  134MYC   H11327140   5.110   6.409   5.529
  134MYC    C7327141   5.136   0.119   5.385
  134MYC   HH1327142   5.244   0.101   5.375
  134MYC   H11427143   5.122   0.228   5.384
  134MYC    C7227144   5.062   0.057   5.266
  134MYC   H11527145   4.954   0.067   5.283
  134MYC   H11627146   5.084   6.400   5.259
  134MYC    C7127147   5.099   0.126   5.133
  134MYC   H11727148   5.198   0.093   5.101
  134MYC   H11827149   5.105   0.234   5.150
  134MYC    C7027150   4.997   0.101   5.020
  134MYC   H11927151   4.896   0.123   5.057
  134MYC   H12027152   4.998   6.445   4.992
  134MYC    C6927153   5.025   0.189   4.897
  134MYC   H12127154   5.123   0.162   4.855
  134MYC   H12227155   5.032   0.294   4.929
  134MYC    C6827156   4.918   0.178   4.788
  134MYC   HH1227157   4.819   0.201   4.830
  134MYC   H12327158   4.914   0.074   4.751
  134MYC    C6727159   4.946   0.273   4.670
  134MYC   H12427160   5.048   0.255   4.634
  134MYC   H12527161   4.943   0.377   4.706
  134MYC    C6627162   4.847   0.257   4.553
  134MYC   H12627163   4.745   0.282   4.587
  134MYC   H12727164   4.846   0.152   4.522
  134MYC    C6527165   4.885   0.345   4.433
  134MYC   H12827166   4.990   0.327   4.408
  134MYC   H12927167   4.877   0.451   4.461
  134MYC    C6427168   4.799   0.319   4.309
  134MYC   H13027169   4.696   0.352   4.327
  134MYC   H13127170   4.795   0.211   4.290
  134MYC    C6327171   4.854   0.389   4.184
  134MYC   HH1127172   4.959   0.358   4.169
  134MYC   H13227173   4.855   0.498   4.200
  134MYC    C6227174   4.774   0.356   4.057
  134MYC   H13327175   4.675   0.402   4.063
  134MYC   H13427176   4.760   0.248   4.050
  134MYC    C6127177   4.845   0.404   3.929
  134MYC   H13527178   4.947   0.362   3.927
  134MYC   H13627179   4.857   0.513   3.932
  134MYC    C6027180   4.771   0.364   3.803
  134MYC   H13727181   4.680   0.421   3.788
  134MYC    C5827182   4.848   0.323   3.680
  134MYC   H13827183   4.956   0.317   3.689
  134MYC    C5927184   4.769   0.220   3.756
  134MYC   H13927185   4.677   0.183   3.711
  134MYC   H14027186   4.825   0.146   3.813
  134MYC    C5727187   4.805   0.371   3.542
  134MYC   HH1027188   4.846   0.471   3.526
  134MYC   H14127189   4.696   0.380   3.536
  134MYC    C5627190   4.855   0.276   3.432
  134MYC   H14227191   4.802   0.180   3.438
  134MYC   H14327192   4.961   0.256   3.449
  134MYC    C5527193   4.839   0.336   3.291
  134MYC   H14427194   4.876   0.440   3.293
  134MYC   H14527195   4.732   0.341   3.266
  134MYC    C5427196   4.913   0.257   3.182
  134MYC   H14627197   4.862   0.162   3.164
  134MYC   H14727198   5.014   0.232   3.218
  134MYC    C5327199   4.924   0.337   3.051
  134MYC   H14827200   4.961   0.439   3.072
  134MYC   H14927201   4.824   0.348   3.008
  134MYC    C5227202   5.019   0.271   2.949
  134MYC    H9927203   4.987   0.168   2.933
  134MYC   H15027204   5.120   0.268   2.991
  134MYC    C5127205   5.021   0.346   2.815
  134MYC    H9727206   5.067   0.445   2.828
  134MYC    H9827207   4.918   0.362   2.782
  134MYC    C5027208   5.096   0.267   2.706
  134MYC    H9527209   5.056   0.165   2.704
  134MYC    H9627210   5.202   0.259   2.732
  134MYC    C4927211   5.082   0.330   2.566
  134MYC    H9327212   5.147   0.418   2.558
  134MYC    H9427213   4.979   0.364   2.551
  134MYC    C4827214   5.116   0.229   2.455
  134MYC    H9127215   5.050   0.142   2.465
  134MYC    H9227216   5.219   0.194   2.468
  134MYC    C4727217   5.100   0.287   2.313
  134MYC    H8927218   5.174   0.367   2.298
  134MYC    H9027219   5.001   0.332   2.304
  134MYC    C4627220   5.118   0.179   2.205
  134MYC    H8727221   5.036   0.106   2.214
  134MYC    H8827222   5.211   0.124   2.224
  134MYC    C4527223   5.122   0.232   2.060
  134MYC    H8527224   5.143   0.148   1.994
  134MYC    H8627225   5.206   0.302   2.051
  134MYC    C4427226   4.993   0.303   2.012
  134MYC    H8327227   5.013   0.343   1.912
  134MYC    H8427228   4.974   0.390   2.075
  134MYC    C1827229   4.870   0.213   2.006
  134MYC    H3127230   4.891   0.108   2.028
  134MYC    C1727231   4.733   0.265   2.045
  134MYC    H3027232   4.729   0.369   2.076
  134MYC    C1927233   4.765   0.238   1.900
  134MYC    H3227234   4.777   0.325   1.835
  134MYC    H3327235   4.725   0.150   1.852
  134MYC    C1627236   4.633   0.176   2.120
  134MYC    H2827237   4.670   0.158   2.222
  134MYC    H2927238   4.626   0.078   2.072
  134MYC    C1527239   4.489   0.235   2.131
  134MYC    H2627240   4.425   0.159   2.178
  134MYC    H2727241   4.449   0.253   2.031
  134MYC    C1427242   4.481   0.365   2.215
  134MYC    H2427243   4.526   0.447   2.158
  134MYC    H2527244   4.541   0.351   2.306
  134MYC    C1327245   4.338   0.406   2.256
  134MYC    H2227246   4.290   0.323   2.309
  134MYC    H2327247   4.278   0.426   2.166
  134MYC    C1227248   4.339   0.530   2.348
  134MYC    H2027249   4.377   0.617   2.291
  134MYC    H2127250   4.411   0.514   2.428
  134MYC    C1127251   4.201   0.566   2.407
  134MYC    H1827252   4.153   0.476   2.446
  134MYC    H1927253   4.136   0.602   2.326
  134MYC    C1027254   4.206   0.675   2.518
  134MYC    H1627255   4.121   0.742   2.505
  134MYC    H1727256   4.296   0.737   2.506
  134MYC     C927257   4.199   0.620   2.663
  134MYC    H1427258   4.113   0.553   2.671
  134MYC    H1527259   4.179   0.704   2.731
  134MYC     C827260   4.327   0.549   2.711
  134MYC    H1227261   4.407   0.623   2.726
  134MYC    H1327262   4.362   0.479   2.635
  134MYC     C727263   4.307   0.468   2.840
  134MYC    H1027264   4.236   0.387   2.820
  134MYC    H1127265   4.262   0.532   2.916
  134MYC     C627266   4.438   0.407   2.895
  134MYC     H827267   4.502   0.487   2.933
  134MYC     H927268   4.493   0.361   2.811
  134MYC     C527269   4.418   0.297   3.003
  134MYC     H627270   4.516   0.259   3.034
  134MYC     H727271   4.366   0.213   2.955
  134MYC     C427272   4.335   0.339   3.127
  134MYC     H427273   4.303   0.247   3.177
  134MYC     H527274   4.243   0.387   3.094
  134MYC     C227275   4.405   0.428   3.235
  134MYC     H227276   4.430   0.360   3.319
  134MYC     O327277   4.527   0.485   3.188
  134MYC     H327278   4.504   0.556   3.125
  134MYC     C127279   4.311   0.539   3.290
  134MYC     H127280   4.217   0.491   3.318
  134MYC    C8127281   4.277   0.645   3.183
  134MYC    O8227282   4.359   0.717   3.128
  134MYC    O8327283   4.145   0.659   3.159
  134MYC   H10527284   4.138   0.731   3.094
  134MYC    C2027285   4.364   0.608   3.419
  134MYC    H3427286   4.468   0.638   3.405
  134MYC    H3527287   4.306   0.699   3.436
  134MYC    C2127288   4.353   0.520   3.545
  134MYC    H3627289   4.254   0.475   3.550
  134MYC    H3727290   4.426   0.437   3.539
  134MYC    C2227291   4.378   0.599   3.675
  134MYC    H3827292   4.480   0.639   3.674
  134MYC    H3927293   4.310   0.685   3.678
  134MYC    C2327294   4.358   0.514   3.801
  134MYC    H4027295   4.256   0.472   3.800
  134MYC    H4127296   4.427   0.429   3.799
  134MYC    C2427297   4.379   0.593   3.931
  134MYC    H4227298   4.483   0.628   3.935
  134MYC    H4327299   4.315   0.682   3.931
  134MYC    C2527300   4.350   0.508   4.055
  134MYC    H4427301   4.245   0.476   4.052
  134MYC    H4527302   4.411   0.417   4.052
  134MYC    C2627303   4.375   0.582   4.187
  134MYC    H4627304   4.481   0.612   4.192
  134MYC    H4727305   4.315   0.674   4.189
  134MYC    C2727306   4.341   0.494   4.308
  134MYC    H4827307   4.237   0.459   4.299
  134MYC    H4927308   4.405   0.405   4.309
  134MYC    C2827309   4.356   0.569   4.442
  134MYC    H5027310   4.460   0.603   4.453
  134MYC    H5127311   4.293   0.658   4.440
  134MYC    C2927312   4.318   0.481   4.562
  134MYC    H5227313   4.218   0.439   4.546
  134MYC    H5327314   4.388   0.397   4.570
  134MYC    C3027315   4.318   0.561   4.693
  134MYC    H5427316   4.414   0.613   4.705
  134MYC    H5527317   4.240   0.638   4.687
  134MYC    C3127318   4.293   0.474   4.818
  134MYC    H5627319   4.203   0.414   4.802
  134MYC    H5727320   4.378   0.405   4.831
  134MYC    C3227321   4.275   0.559   4.945
  134MYC    H5827322   4.354   0.635   4.949
  134MYC    H5927323   4.180   0.613   4.938
  134MYC    C3327324   4.278   0.478   5.075
  134MYC    H6027325   4.214   0.390   5.066
  134MYC    H6127326   4.381   0.442   5.093
  134MYC    C3427327   4.231   0.562   5.195
  134MYC    H6227328   4.282   0.659   5.193
  134MYC    H6327329   4.124   0.582   5.185
  134MYC    C3527330   4.259   0.498   5.332
  134MYC    H6427331   4.229   0.393   5.332
  134MYC    H6527332   4.367   0.502   5.351
  134MYC    C3627333   4.183   0.572   5.445
  134MYC    H6627334   4.181   0.679   5.424
  134MYC    H6727335   4.079   0.538   5.445
  134MYC    C3727336   4.244   0.550   5.584
  134MYC    H6827337   4.258   0.442   5.602
  134MYC    H6927338   4.344   0.596   5.587
  134MYC    C3827339   4.157   0.610   5.696
  134MYC    H7027340   4.139   0.716   5.676
  134MYC    H7127341   4.060   0.560   5.696
  134MYC    C3927342   4.221   0.594   5.835
  134MYC    H7227343   4.246   0.489   5.852
  134MYC    H7327344   4.316   0.650   5.838
  134MYC    C4027345   4.130   0.644   5.949
  134MYC    H7427346   4.106   0.749   5.933
  134MYC    H7527347   4.036   0.588   5.946
  134MYC    C4127348   4.195   0.627   6.088
  134MYC    H7627349   4.225   0.522   6.102
  134MYC    H7727350   4.287   0.687   6.092
  134MYC    C4227351   4.102   0.668   6.203
  134MYC    H7827352   4.075   0.774   6.190
  134MYC    H7927353   4.010   0.609   6.199
  134MYC    C4327354   4.166   0.650   6.342
  134MYC    H8027355   4.094   0.675   6.420
  134MYC    H8127356   4.253   0.716   6.353
  134MYC    H8227357   4.199   0.547   6.357
  135MYC   HH1527358   4.636   0.668   6.215
  135MYC    C8027359   4.674   0.733   6.135
  135MYC   H10027360   4.646   0.837   6.159
  135MYC   H10127361   4.784   0.726   6.135
  135MYC    C7927362   4.616   0.690   5.999
  135MYC   H10227363   4.507   0.701   6.002
  135MYC   H10327364   4.637   0.584   5.984
  135MYC    C7827365   4.673   0.770   5.880
  135MYC   HH1427366   4.782   0.757   5.877
  135MYC   H10427367   4.654   0.877   5.895
  135MYC    C7727368   4.613   0.725   5.746
  135MYC   H10627369   4.508   0.757   5.741
  135MYC   H10727370   4.613   0.615   5.741
  135MYC    C7627371   4.687   0.779   5.622
  135MYC   H10827372   4.792   0.746   5.626
  135MYC   H10927373   4.688   0.889   5.623
  135MYC    C7527374   4.624   0.730   5.490
  135MYC   H11027375   4.526   0.778   5.477
  135MYC   H11127376   4.605   0.622   5.498
  135MYC    C7427377   4.710   0.756   5.365
  135MYC   H11227378   4.805   0.701   5.375
  135MYC   H11327379   4.735   0.862   5.358
  135MYC    C7327380   4.639   0.710   5.236
  135MYC   HH1327381   4.551   0.774   5.220
  135MYC   H11427382   4.602   0.608   5.250
  135MYC    C7227383   4.728   0.715   5.111
  135MYC   H11527384   4.815   0.650   5.126
  135MYC   H11627385   4.766   0.816   5.095
  135MYC    C7127386   4.652   0.667   4.985
  135MYC   H11727387   4.567   0.734   4.969
  135MYC   H11827388   4.609   0.568   5.006
  135MYC    C7027389   4.738   0.658   4.857
  135MYC   H11927390   4.725   0.557   4.816
  135MYC   H12027391   4.844   0.668   4.881
  135MYC    C6927392   4.699   0.761   4.749
  135MYC   H12127393   4.727   0.861   4.782
  135MYC   H12227394   4.590   0.761   4.737
  135MYC    C6827395   4.763   0.730   4.612
  135MYC   HH1227396   4.745   0.624   4.588
  135MYC   H12327397   4.872   0.743   4.619
  135MYC    C6727398   4.708   0.817   4.498
  135MYC   H12427399   4.738   0.921   4.512
  135MYC   H12527400   4.598   0.815   4.500
  135MYC    C6627401   4.755   0.768   4.360
  135MYC   H12627402   4.728   0.662   4.348
  135MYC   H12727403   4.865   0.773   4.355
  135MYC    C6527404   4.695   0.848   4.243
  135MYC   H12827405   4.727   0.953   4.250
  135MYC   H12927406   4.586   0.846   4.249
  135MYC    C6427407   4.739   0.791   4.107
  135MYC   H13027408   4.712   0.685   4.102
  135MYC   H13127409   4.849   0.796   4.099
  135MYC    C6327410   4.677   0.864   3.986
  135MYC   HH1127411   4.706   0.970   3.989
  135MYC   H13227412   4.568   0.859   3.993
  135MYC    C6227413   4.724   0.801   3.853
  135MYC   H13327414   4.698   0.695   3.852
  135MYC   H13427415   4.833   0.807   3.848
  135MYC    C6127416   4.664   0.869   3.729
  135MYC   H13527417   4.688   0.976   3.731
  135MYC   H13627418   4.555   0.861   3.731
  135MYC    C6027419   4.718   0.807   3.601
  135MYC   H13727420   4.693   0.701   3.592
  135MYC    C5827421   4.725   0.886   3.473
  135MYC   H13827422   4.694   0.990   3.478
  135MYC    C5927423   4.852   0.848   3.546
  135MYC   H13927424   4.915   0.770   3.503
  135MYC   H14027425   4.906   0.927   3.597
  135MYC    C5727426   4.692   0.822   3.339
  135MYC   HH1027427   4.583   0.818   3.326
  135MYC   H14127428   4.728   0.718   3.336
  135MYC    C5627429   4.752   0.900   3.221
  135MYC   H14227430   4.859   0.917   3.238
  135MYC   H14327431   4.704   0.998   3.216
  135MYC    C5527432   4.734   0.827   3.086
  135MYC   H14427433   4.631   0.790   3.079
  135MYC   H14527434   4.800   0.739   3.084
  135MYC    C5427435   4.763   0.918   2.965
  135MYC   H14627436   4.867   0.954   2.970
  135MYC   H14727437   4.698   1.006   2.971
  135MYC    C5327438   4.739   0.846   2.832
  135MYC   H14827439   4.640   0.798   2.834
  135MYC   H14927440   4.813   0.765   2.821
  135MYC    C5227441   4.747   0.939   2.710
  135MYC    H9927442   4.849   0.978   2.699
  135MYC   H15027443   4.680   1.025   2.725
  135MYC    C5127444   4.705   0.866   2.581
  135MYC    H9727445   4.603   0.829   2.593
  135MYC    H9827446   4.770   0.779   2.567
  135MYC    C5027447   4.712   0.954   2.454
  135MYC    H9527448   4.816   0.987   2.439
  135MYC    H9627449   4.651   1.044   2.467
  135MYC    C4927450   4.664   0.875   2.331
  135MYC    H9327451   4.557   0.851   2.344
  135MYC    H9427452   4.717   0.780   2.328
  135MYC    C4827453   4.683   0.948   2.197
  135MYC    H9127454   4.790   0.970   2.183
  135MYC    H9227455   4.629   1.043   2.197
  135MYC    C4727456   4.633   0.860   2.080
  135MYC    H8927457   4.524   0.855   2.085
  135MYC    H9027458   4.670   0.758   2.095
  135MYC    C4627459   4.676   0.906   1.940
  135MYC    H8727460   4.785   0.917   1.938
  135MYC    H8827461   4.634   1.005   1.919
  135MYC    C4527462   4.633   0.806   1.831
  135MYC    H8527463   4.528   0.825   1.805
  135MYC    H8627464   4.636   0.704   1.872
  135MYC    C4427465   4.720   0.808   1.704
  135MYC    H8327466   4.683   0.729   1.637
  135MYC    H8427467   4.822   0.779   1.731
  135MYC    C1827468   4.721   0.940   1.629
  135MYC    H3127469   4.626   0.991   1.631
  135MYC    C1727470   4.846   1.025   1.615
  135MYC    H3027471   4.938   0.988   1.660
  135MYC    C1927472   4.795   0.946   1.498
  135MYC    H3227473   4.851   0.857   1.467
  135MYC    H3327474   4.747   0.999   1.416
  135MYC    C1627475   4.839   1.177   1.608
  135MYC    H2827476   4.735   1.209   1.613
  135MYC    H2927477   4.874   1.210   1.509
  135MYC    C1527478   4.920   1.254   1.714
  135MYC    H2627479   4.906   1.361   1.697
  135MYC    H2727480   5.027   1.234   1.700
  135MYC    C1427481   4.883   1.221   1.861
  135MYC    H2427482   4.926   1.124   1.888
  135MYC    H2527483   4.774   1.212   1.871
  135MYC    C1327484   4.934   1.330   1.958
  135MYC    H2227485   4.875   1.421   1.942
  135MYC    H2327486   5.038   1.355   1.932
  135MYC    C1227487   4.929   1.292   2.107
  135MYC    H2027488   4.995   1.206   2.123
  135MYC    H2127489   4.828   1.261   2.136
  135MYC    C1127490   4.974   1.410   2.197
  135MYC    H1827491   4.893   1.483   2.206
  135MYC    H1927492   5.056   1.463   2.146
  135MYC    C1027493   5.026   1.369   2.337
  135MYC    H1627494   5.100   1.444   2.368
  135MYC    H1727495   5.079   1.274   2.330
  135MYC     C927496   4.919   1.361   2.449
  135MYC    H1427497   4.835   1.298   2.417
  135MYC    H1527498   4.880   1.462   2.467
  135MYC     C827499   4.982   1.304   2.578
  135MYC    H1227500   5.084   1.341   2.587
  135MYC    H1327501   4.988   1.195   2.569
  135MYC     C727502   4.908   1.340   2.709
  135MYC    H1027503   4.803   1.308   2.704
  135MYC    H1127504   4.908   1.449   2.721
  135MYC     C627505   4.977   1.274   2.830
  135MYC     H827506   5.086   1.286   2.822
  135MYC     H927507   4.959   1.166   2.826
  135MYC     C527508   4.934   1.325   2.969
  135MYC     H627509   4.979   1.259   3.044
  135MYC     H727510   4.825   1.315   2.981
  135MYC     C427511   4.975   1.472   3.000
  135MYC     H427512   4.894   1.539   2.967
  135MYC     H527513   5.064   1.500   2.941
  135MYC     C227514   5.005   1.494   3.150
  135MYC     H227515   4.930   1.434   3.205
  135MYC     O327516   5.135   1.443   3.178
  135MYC     H327517   5.200   1.511   3.153
  135MYC     C127518   4.992   1.640   3.202
  135MYC     H127519   4.886   1.668   3.195
  135MYC    C8127520   5.071   1.742   3.116
  135MYC    O8227521   5.190   1.733   3.092
  135MYC    O8327522   5.000   1.852   3.083
  135MYC   H10527523   5.065   1.912   3.041
  135MYC    C2027524   5.030   1.657   3.352
  135MYC    H3427525   5.139   1.652   3.362
  135MYC    H3527526   5.000   1.758   3.385
  135MYC    C2127527   4.965   1.552   3.445
  135MYC    H3627528   4.857   1.553   3.432
  135MYC    H3727529   5.000   1.452   3.417
  135MYC    C2227530   4.998   1.572   3.594
  135MYC    H3827531   5.107   1.579   3.606
  135MYC    H3927532   4.955   1.667   3.628
  135MYC    C2327533   4.945   1.456   3.680
  135MYC    H4027534   4.836   1.451   3.670
  135MYC    H4127535   4.985   1.361   3.642
  135MYC    C2427536   4.983   1.471   3.828
  135MYC    H4227537   5.092   1.469   3.837
  135MYC    H4327538   4.950   1.569   3.864
  135MYC    C2527539   4.922   1.362   3.917
  135MYC    H4427540   4.812   1.365   3.908
  135MYC    H4527541   4.954   1.263   3.883
  135MYC    C2627542   4.962   1.380   4.065
  135MYC    H4627543   5.070   1.364   4.074
  135MYC    H4727544   4.943   1.484   4.094
  135MYC    C2727545   4.887   1.287   4.162
  135MYC    H4827546   4.779   1.304   4.152
  135MYC    H4927547   4.906   1.182   4.135
  135MYC    C2827548   4.931   1.312   4.307
  135MYC    H5027549   5.036   1.284   4.318
  135MYC    H5127550   4.924   1.419   4.329
  135MYC    C2927551   4.847   1.236   4.412
  135MYC    H5227552   4.743   1.269   4.405
  135MYC    H5327553   4.849   1.129   4.389
  135MYC    C3027554   4.900   1.259   4.554
  135MYC    H5427555   4.999   1.213   4.564
  135MYC    H5527556   4.913   1.367   4.571
  135MYC    C3127557   4.807   1.204   4.664
  135MYC    H5627558   4.711   1.258   4.660
  135MYC    H5727559   4.785   1.099   4.645
  135MYC    C3227560   4.868   1.218   4.804
  135MYC    H5827561   4.957   1.154   4.811
  135MYC    H5927562   4.902   1.321   4.819
  135MYC    C3327563   4.769   1.181   4.917
  135MYC    H6027564   4.684   1.249   4.913
  135MYC    H6127565   4.730   1.079   4.900
  135MYC    C3427566   4.835   1.188   5.056
  135MYC    H6227567   4.911   1.110   5.063
  135MYC    H6327568   4.887   1.284   5.066
  135MYC    C3527569   4.735   1.174   5.172
  135MYC    H6427570   4.660   1.254   5.166
  135MYC    H6527571   4.682   1.078   5.164
  135MYC    C3627572   4.806   1.181   5.308
  135MYC    H6627573   4.874   1.095   5.318
  135MYC    H6727574   4.869   1.271   5.311
  135MYC    C3727575   4.711   1.185   5.430
  135MYC    H6827576   4.644   1.271   5.421
  135MYC    H6927577   4.648   1.095   5.430
  135MYC    C3827578   4.790   1.193   5.562
  135MYC    H7027579   4.854   1.105   5.570
  135MYC    H7127580   4.857   1.281   5.557
  135MYC    C3927581   4.703   1.204   5.688
  135MYC    H7227582   4.642   1.296   5.683
  135MYC    H7327583   4.633   1.119   5.692
  135MYC    C4027584   4.789   1.206   5.816
  135MYC    H7427585   4.849   1.114   5.819
  135MYC    H7527586   4.860   1.290   5.810
  135MYC    C4127587   4.708   1.217   5.946
  135MYC    H7627588   4.652   1.310   5.946
  135MYC    H7727589   4.636   1.134   5.951
  135MYC    C4227590   4.799   1.211   6.071
  135MYC    H7827591   4.855   1.117   6.071
  135MYC    H7927592   4.873   1.293   6.066
  135MYC    C4327593   4.722   1.222   6.204
  135MYC    H8027594   4.791   1.217   6.289
  135MYC    H8127595   4.649   1.141   6.213
  135MYC    H8227596   4.668   1.318   6.209
  136MYC   HH1527597   4.835   2.111   6.159
  136MYC    C8027598   4.838   2.054   6.065
  136MYC   H10027599   4.921   1.981   6.072
  136MYC   H10127600   4.744   1.998   6.055
  136MYC    C7927601   4.859   2.148   5.945
  136MYC   H10227602   4.952   2.204   5.959
  136MYC   H10327603   4.777   2.222   5.944
  136MYC    C7827604   4.862   2.074   5.810
  136MYC   HH1427605   4.767   2.021   5.795
  136MYC   H10427606   4.942   1.998   5.812
  136MYC    C7727607   4.887   2.169   5.691
  136MYC   H10627608   4.986   2.216   5.703
  136MYC   H10727609   4.814   2.250   5.693
  136MYC    C7627610   4.881   2.098   5.555
  136MYC   H10827611   4.779   2.060   5.539
  136MYC   H10927612   4.947   2.011   5.556
  136MYC    C7527613   4.920   2.190   5.438
  136MYC   H11027614   5.021   2.228   5.455
  136MYC   H11127615   4.853   2.276   5.434
  136MYC    C7427616   4.916   2.117   5.302
  136MYC   H11227617   4.813   2.086   5.281
  136MYC   H11327618   4.976   2.025   5.308
  136MYC    C7327619   4.969   2.203   5.186
  136MYC   HH1327620   5.072   2.233   5.207
  136MYC   H11427621   4.909   2.295   5.180
  136MYC    C7227622   4.962   2.129   5.052
  136MYC   H11527623   4.859   2.095   5.036
  136MYC   H11627624   5.025   2.039   5.056
  136MYC    C7127625   5.006   2.215   4.932
  136MYC   H11727626   5.115   2.228   4.933
  136MYC   H11827627   4.962   2.315   4.941
  136MYC    C7027628   4.961   2.153   4.799
  136MYC   H11927629   4.852   2.138   4.803
  136MYC   H12027630   5.006   2.054   4.786
  136MYC    C6927631   4.994   2.240   4.676
  136MYC   H12127632   5.101   2.235   4.655
  136MYC   H12227633   4.970   2.345   4.698
  136MYC    C6827634   4.913   2.197   4.553
  136MYC   HH1227635   4.806   2.213   4.574
  136MYC   H12327636   4.926   2.089   4.536
  136MYC    C6727637   4.951   2.273   4.425
  136MYC   H12427638   5.053   2.245   4.396
  136MYC   H12527639   4.950   2.380   4.444
  136MYC    C6627640   4.853   2.242   4.310
  136MYC   H12627641   4.759   2.294   4.329
  136MYC   H12727642   4.831   2.135   4.309
  136MYC    C6527643   4.908   2.282   4.172
  136MYC   H12827644   5.001   2.228   4.153
  136MYC   H12927645   4.930   2.389   4.170
  136MYC    C6427646   4.807   2.248   4.060
  136MYC   H13027647   4.721   2.317   4.067
  136MYC   H13127648   4.768   2.147   4.078
  136MYC    C6327649   4.867   2.254   3.919
  136MYC   HH1127650   4.955   2.189   3.914
  136MYC   H13227651   4.900   2.356   3.896
  136MYC    C6227652   4.764   2.207   3.814
  136MYC   H13327653   4.682   2.280   3.809
  136MYC   H13427654   4.720   2.113   3.849
  136MYC    C6127655   4.822   2.185   3.674
  136MYC   H13527656   4.911   2.121   3.681
  136MYC   H13627657   4.855   2.280   3.631
  136MYC    C6027658   4.718   2.119   3.583
  136MYC   H13727659   4.635   2.186   3.562
  136MYC    C5827660   4.755   2.020   3.476
  136MYC   H13827661   4.860   1.992   3.468
  136MYC    C5927662   4.684   1.973   3.601
  136MYC   H13927663   4.580   1.945   3.592
  136MYC   H14027664   4.742   1.915   3.672
  136MYC    C5727665   4.683   2.021   3.343
  136MYC   HH1027666   4.583   2.062   3.355
  136MYC   H14127667   4.671   1.918   3.307
  136MYC    C5627668   4.760   2.102   3.237
  136MYC   H14227669   4.856   2.054   3.217
  136MYC   H14327670   4.782   2.202   3.277
  136MYC    C5527671   4.681   2.118   3.106
  136MYC   H14427672   4.590   2.176   3.125
  136MYC   H14527673   4.648   2.019   3.071
  136MYC    C5427674   4.764   2.186   2.997
  136MYC   H14627675   4.845   2.119   2.967
  136MYC   H14727676   4.811   2.276   3.037
  136MYC    C5327677   4.680   2.223   2.874
  136MYC   H14827678   4.596   2.287   2.902
  136MYC   H14927679   4.638   2.130   2.832
  136MYC    C5227680   4.764   2.293   2.765
  136MYC    H9927681   4.855   2.235   2.749
  136MYC   H15027682   4.795   2.393   2.800
  136MYC    C5127683   4.687   2.307   2.633
  136MYC    H9727684   4.633   2.403   2.630
  136MYC    H9827685   4.609   2.229   2.629
  136MYC    C5027686   4.776   2.293   2.507
  136MYC    H9527687   4.852   2.216   2.525
  136MYC    H9627688   4.828   2.387   2.488
  136MYC    C4927689   4.692   2.250   2.385
  136MYC    H9327690   4.618   2.328   2.364
  136MYC    H9427691   4.637   2.159   2.410
  136MYC    C4827692   4.776   2.223   2.259
  136MYC    H9127693   4.853   2.148   2.280
  136MYC    H9227694   4.827   2.315   2.230
  136MYC    C4727695   4.686   2.173   2.144
  136MYC    H8927696   4.600   2.241   2.135
  136MYC    H9027697   4.645   2.075   2.171
  136MYC    C4627698   4.757   2.164   2.008
  136MYC    H8727699   4.833   2.085   2.010
  136MYC    H8827700   4.809   2.258   1.989
  136MYC    C4527701   4.659   2.141   1.890
  136MYC    H8527702   4.711   2.162   1.796
  136MYC    H8627703   4.580   2.217   1.897
  136MYC    C4427704   4.595   2.001   1.884
  136MYC    H8327705   4.492   2.013   1.846
  136MYC    H8427706   4.585   1.957   1.984
  136MYC    C1827707   4.671   1.905   1.793
  136MYC    H3127708   4.772   1.888   1.826
  136MYC    C1727709   4.601   1.791   1.721
  136MYC    H3027710   4.494   1.783   1.732
  136MYC    C1927711   4.649   1.912   1.644
  136MYC    H3227712   4.573   1.980   1.607
  136MYC    H3327713   4.736   1.900   1.579
  136MYC    C1627714   4.671   1.657   1.703
  136MYC    H2827715   4.776   1.664   1.733
  136MYC    H2927716   4.672   1.631   1.596
  136MYC    C1527717   4.605   1.540   1.780
  136MYC    H2627718   4.663   1.449   1.763
  136MYC    H2727719   4.505   1.522   1.739
  136MYC    C1427720   4.591   1.565   1.931
  136MYC    H2427721   4.528   1.654   1.948
  136MYC    H2527722   4.689   1.588   1.974
  136MYC    C1327723   4.529   1.446   2.007
  136MYC    H2227724   4.598   1.361   2.007
  136MYC    H2327725   4.437   1.414   1.956
  136MYC    C1227726   4.494   1.485   2.152
  136MYC    H2027727   4.422   1.567   2.149
  136MYC    H2127728   4.585   1.523   2.200
  136MYC    C1127729   4.435   1.371   2.237
  136MYC    H1827730   4.509   1.292   2.253
  136MYC    H1927731   4.351   1.326   2.182
  136MYC    C1027732   4.381   1.420   2.374
  136MYC    H1627733   4.321   1.342   2.421
  136MYC    H1727734   4.313   1.504   2.355
  136MYC     C927735   4.491   1.465   2.474
  136MYC    H1427736   4.570   1.520   2.422
  136MYC    H1527737   4.538   1.376   2.518
  136MYC     C827738   4.435   1.556   2.585
  136MYC    H1227739   4.356   1.503   2.640
  136MYC    H1327740   4.388   1.643   2.538
  136MYC     C727741   4.543   1.605   2.684
  136MYC    H1027742   4.630   1.641   2.628
  136MYC    H1127743   4.576   1.520   2.744
  136MYC     C627744   4.491   1.719   2.774
  136MYC     H827745   4.400   1.686   2.826
  136MYC     H927746   4.462   1.803   2.710
  136MYC     C527747   4.595   1.772   2.876
  136MYC     H627748   4.558   1.866   2.920
  136MYC     H727749   4.686   1.798   2.822
  136MYC     C427750   4.631   1.673   2.990
  136MYC     H427751   4.729   1.703   3.028
  136MYC     H527752   4.647   1.573   2.947
  136MYC     C227753   4.535   1.665   3.112
  136MYC     H227754   4.579   1.731   3.189
  136MYC     O327755   4.404   1.715   3.083
  136MYC     H327756   4.357   1.645   3.035
  136MYC     C127757   4.526   1.521   3.172
  136MYC     H127758   4.629   1.487   3.189
  136MYC    C8127759   4.460   1.420   3.076
  136MYC    O8227760   4.350   1.436   3.025
  136MYC    O8327761   4.523   1.301   3.070
  136MYC   H10527762   4.464   1.243   3.019
  136MYC    C2027763   4.456   1.515   3.310
  136MYC    H3427764   4.352   1.547   3.301
  136MYC    H3527765   4.454   1.409   3.341
  136MYC    C2127766   4.526   1.598   3.419
  136MYC    H3627767   4.634   1.596   3.404
  136MYC    H3727768   4.495   1.703   3.411
  136MYC    C2227769   4.495   1.546   3.561
  136MYC    H3827770   4.386   1.545   3.576
  136MYC    H3927771   4.530   1.443   3.569
  136MYC    C2327772   4.561   1.630   3.671
  136MYC    H4027773   4.669   1.636   3.653
  136MYC    H4127774   4.521   1.732   3.668
  136MYC    C2427775   4.536   1.571   3.811
  136MYC    H4227776   4.428   1.568   3.830
  136MYC    H4327777   4.571   1.467   3.813
  136MYC    C2527778   4.606   1.649   3.923
  136MYC    H4427779   4.714   1.652   3.904
  136MYC    H4527780   4.570   1.752   3.924
  136MYC    C2627781   4.581   1.584   4.061
  136MYC    H4627782   4.473   1.584   4.081
  136MYC    H4727783   4.614   1.480   4.057
  136MYC    C2727784   4.654   1.656   4.175
  136MYC    H4827785   4.762   1.656   4.155
  136MYC    H4927786   4.621   1.760   4.181
  136MYC    C2827787   4.627   1.587   4.310
  136MYC    H5027788   4.520   1.592   4.332
  136MYC    H5127789   4.653   1.481   4.303
  136MYC    C2927790   4.706   1.649   4.427
  136MYC    H5227791   4.813   1.636   4.410
  136MYC    H5327792   4.686   1.757   4.431
  136MYC    C3027793   4.667   1.586   4.562
  136MYC    H5427794   4.561   1.607   4.581
  136MYC    H5527795   4.676   1.477   4.555
  136MYC    C3127796   4.752   1.637   4.679
  136MYC    H5627797   4.855   1.603   4.667
  136MYC    H5727798   4.753   1.747   4.678
  136MYC    C3227799   4.697   1.588   4.815
  136MYC    H5827800   4.595   1.625   4.827
  136MYC    H5927801   4.692   1.479   4.815
  136MYC    C3327802   4.782   1.635   4.934
  136MYC    H6027803   4.882   1.590   4.928
  136MYC    H6127804   4.796   1.744   4.928
  136MYC    C3427805   4.717   1.600   5.069
  136MYC    H6227806   4.618   1.648   5.073
  136MYC    H6327807   4.700   1.492   5.073
  136MYC    C3527808   4.800   1.644   5.190
  136MYC    H6427809   4.894   1.587   5.192
  136MYC    H6527810   4.826   1.750   5.180
  136MYC    C3627811   4.724   1.623   5.322
  136MYC    H6627812   4.634   1.686   5.321
  136MYC    H6727813   4.690   1.519   5.328
  136MYC    C3727814   4.807   1.655   5.448
  136MYC    H6827815   4.889   1.583   5.457
  136MYC    H6927816   4.852   1.755   5.438
  136MYC    C3827817   4.720   1.652   5.575
  136MYC    H7027818   4.644   1.731   5.567
  136MYC    H7127819   4.666   1.557   5.579
  136MYC    C3927820   4.798   1.670   5.706
  136MYC    H7227821   4.866   1.585   5.719
  136MYC    H7327822   4.860   1.761   5.701
  136MYC    C4027823   4.703   1.679   5.827
  136MYC    H7427824   4.646   1.773   5.820
  136MYC    H7527825   4.631   1.597   5.822
  136MYC    C4127826   4.775   1.675   5.964
  136MYC    H7627827   4.832   1.582   5.971
  136MYC    H7727828   4.846   1.758   5.970
  136MYC    C4227829   4.675   1.683   6.081
  136MYC    H7827830   4.619   1.777   6.075
  136MYC    H7927831   4.602   1.602   6.072
  136MYC    C4327832   4.742   1.674   6.219
  136MYC    H8027833   4.667   1.679   6.298
  136MYC    H8127834   4.813   1.756   6.233
  136MYC    H8227835   4.796   1.579   6.230
  137MYC   HH1527836   5.136   2.796   6.289
  137MYC    C8027837   5.102   2.822   6.188
  137MYC   H10027838   4.995   2.803   6.182
  137MYC   H10127839   5.120   2.929   6.171
  137MYC    C7927840   5.177   2.737   6.083
  137MYC   H10227841   5.152   2.631   6.100
  137MYC   H10327842   5.285   2.747   6.098
  137MYC    C7827843   5.142   2.776   5.938
  137MYC   HH1427844   5.182   2.876   5.917
  137MYC   H10427845   5.033   2.782   5.928
  137MYC    C7727846   5.196   2.676   5.834
  137MYC   H10627847   5.154   2.577   5.853
  137MYC   H10727848   5.305   2.667   5.846
  137MYC    C7627849   5.164   2.719   5.690
  137MYC   H10827850   5.219   2.811   5.668
  137MYC   H10927851   5.057   2.743   5.683
  137MYC    C7527852   5.198   2.612   5.584
  137MYC   H11027853   5.134   2.524   5.598
  137MYC   H11127854   5.302   2.579   5.596
  137MYC    C7427855   5.178   2.669   5.442
  137MYC   H11227856   5.245   2.755   5.430
  137MYC   H11327857   5.076   2.706   5.433
  137MYC    C7327858   5.205   2.569   5.329
  137MYC   HH1327859   5.132   2.486   5.334
  137MYC   H11427860   5.305   2.525   5.339
  137MYC    C7227861   5.193   2.641   5.194
  137MYC   H11527862   5.267   2.721   5.190
  137MYC   H11627863   5.094   2.689   5.188
  137MYC    C7127864   5.210   2.551   5.070
  137MYC   H11727865   5.130   2.476   5.067
  137MYC   H11827866   5.306   2.498   5.076
  137MYC    C7027867   5.207   2.637   4.943
  137MYC   H11927868   5.294   2.703   4.942
  137MYC   H12027869   5.118   2.702   4.946
  137MYC    C6927870   5.203   2.556   4.814
  137MYC   H12127871   5.113   2.493   4.814
  137MYC   H12227872   5.290   2.490   4.808
  137MYC    C6827873   5.200   2.649   4.691
  137MYC   HH1227874   5.297   2.700   4.683
  137MYC   H12327875   5.123   2.726   4.705
  137MYC    C6727876   5.172   2.573   4.562
  137MYC   H12427877   5.073   2.526   4.570
  137MYC   H12527878   5.245   2.492   4.549
  137MYC    C6627879   5.174   2.665   4.440
  137MYC   H12627880   5.274   2.710   4.431
  137MYC   H12727881   5.102   2.747   4.453
  137MYC    C6527882   5.142   2.589   4.311
  137MYC   H12827883   5.038   2.554   4.315
  137MYC   H12927884   5.206   2.500   4.304
  137MYC    C6427885   5.162   2.675   4.186
  137MYC   H13027886   5.264   2.716   4.186
  137MYC   H13127887   5.092   2.761   4.188
  137MYC    C6327888   5.140   2.594   4.059
  137MYC   HH1127889   5.035   2.563   4.052
  137MYC   H13227890   5.201   2.502   4.063
  137MYC    C6227891   5.178   2.672   3.933
  137MYC   H13327892   5.281   2.707   3.940
  137MYC   H13427893   5.113   2.760   3.924
  137MYC    C6127894   5.163   2.585   3.808
  137MYC   H13527895   5.063   2.540   3.807
  137MYC   H13627896   5.235   2.502   3.813
  137MYC    C6027897   5.187   2.663   3.682
  137MYC   H13727898   5.288   2.701   3.674
  137MYC    C5827899   5.120   2.617   3.556
  137MYC   H13827900   5.049   2.535   3.564
  137MYC    C5927901   5.079   2.748   3.619
  137MYC   H13927902   5.108   2.840   3.569
  137MYC   H14027903   4.982   2.752   3.669
  137MYC    C5727904   5.202   2.612   3.429
  137MYC   HH1027905   5.261   2.520   3.428
  137MYC   H14127906   5.273   2.695   3.426
  137MYC    C5627907   5.114   2.616   3.304
  137MYC   H14227908   5.049   2.705   3.308
  137MYC   H14327909   5.048   2.528   3.302
  137MYC    C5527910   5.200   2.621   3.178
  137MYC   H14427911   5.266   2.533   3.175
  137MYC   H14527912   5.264   2.710   3.181
  137MYC    C5427913   5.116   2.625   3.050
  137MYC   H14627914   5.046   2.709   3.056
  137MYC   H14727915   5.057   2.532   3.043
  137MYC    C5327916   5.203   2.641   2.926
  137MYC   H14827917   5.277   2.560   2.923
  137MYC   H14927918   5.259   2.735   2.933
  137MYC    C5227919   5.122   2.640   2.796
  137MYC    H9927920   5.052   2.725   2.796
  137MYC   H15027921   5.062   2.548   2.791
  137MYC    C5127922   5.214   2.649   2.675
  137MYC    H9727923   5.282   2.562   2.676
  137MYC    H9827924   5.277   2.738   2.683
  137MYC    C5027925   5.138   2.652   2.542
  137MYC    H9527926   5.083   2.746   2.534
  137MYC    H9627927   5.065   2.570   2.538
  137MYC    C4927928   5.236   2.638   2.424
  137MYC    H9327929   5.283   2.540   2.429
  137MYC    H9427930   5.315   2.713   2.435
  137MYC    C4827931   5.169   2.656   2.288
  137MYC    H9127932   5.130   2.758   2.280
  137MYC    H9227933   5.084   2.588   2.279
  137MYC    C4727934   5.268   2.630   2.173
  137MYC    H8927935   5.299   2.524   2.175
  137MYC    H9027936   5.359   2.690   2.188
  137MYC    C4627937   5.207   2.663   2.037
  137MYC    H8727938   5.174   2.768   2.037
  137MYC    H8827939   5.118   2.601   2.024
  137MYC    C4527940   5.304   2.640   1.920
  137MYC    H8527941   5.327   2.533   1.911
  137MYC    H8627942   5.399   2.691   1.941
  137MYC    C4427943   5.250   2.693   1.786
  137MYC    H8327944   5.330   2.684   1.711
  137MYC    H8427945   5.229   2.800   1.796
  137MYC    C1827946   5.127   2.619   1.735
  137MYC    H3127947   5.150   2.516   1.708
  137MYC    C1727948   4.988   2.642   1.790
  137MYC    H3027949   4.977   2.720   1.865
  137MYC    C1927950   5.023   2.689   1.651
  137MYC    H3227951   5.032   2.796   1.637
  137MYC    H3327952   4.981   2.635   1.567
  137MYC    C1627953   4.897   2.521   1.812
  137MYC    H2827954   4.956   2.440   1.853
  137MYC    H2927955   4.861   2.485   1.715
  137MYC    C1527956   4.775   2.544   1.903
  137MYC    H2627957   4.713   2.453   1.899
  137MYC    H2727958   4.713   2.624   1.862
  137MYC    C1427959   4.804   2.575   2.051
  137MYC    H2427960   4.858   2.670   2.059
  137MYC    H2527961   4.867   2.498   2.095
  137MYC    C1327962   4.672   2.584   2.129
  137MYC    H2227963   4.625   2.485   2.133
  137MYC    H2327964   4.604   2.649   2.073
  137MYC    C1227965   4.686   2.641   2.272
  137MYC    H2027966   4.738   2.737   2.267
  137MYC    H2127967   4.747   2.574   2.333
  137MYC    C1127968   4.547   2.659   2.338
  137MYC    H1827969   4.518   2.565   2.385
  137MYC    H1927970   4.473   2.682   2.261
  137MYC    C1027971   4.540   2.772   2.442
  137MYC    H1627972   4.438   2.773   2.483
  137MYC    H1727973   4.556   2.869   2.393
  137MYC     C927974   4.640   2.754   2.557
  137MYC    H1427975   4.742   2.767   2.519
  137MYC    H1527976   4.632   2.652   2.594
  137MYC     C827977   4.617   2.855   2.672
  137MYC    H1227978   4.512   2.851   2.704
  137MYC    H1327979   4.635   2.956   2.635
  137MYC     C727980   4.709   2.827   2.793
  137MYC    H1027981   4.708   2.916   2.858
  137MYC    H1127982   4.812   2.815   2.757
  137MYC     C627983   4.666   2.705   2.876
  137MYC     H827984   4.643   2.620   2.811
  137MYC     H927985   4.573   2.729   2.928
  137MYC     C527986   4.774   2.660   2.976
  137MYC     H627987   4.815   2.747   3.029
  137MYC     H727988   4.856   2.617   2.918
  137MYC     C427989   4.726   2.554   3.078
  137MYC     H427990   4.811   2.490   3.103
  137MYC     H527991   4.652   2.490   3.029
  137MYC     C227992   4.671   2.610   3.212
  137MYC     H227993   4.757   2.642   3.271
  137MYC     O327994   4.589   2.725   3.188
  137MYC     H327995   4.507   2.694   3.144
  137MYC     C127996   4.592   2.504   3.295
  137MYC     H127997   4.658   2.420   3.318
  137MYC    C8127998   4.472   2.444   3.219
  137MYC    O8227999   4.399   2.508   3.146
  137MYC    O8328000   4.435   2.323   3.267
  137MYC   H10528001   4.354   2.301   3.218
  137MYC    C2028002   4.543   2.558   3.432
  137MYC    H3428003   4.505   2.660   3.422
  137MYC    H3528004   4.457   2.498   3.466
  137MYC    C2128005   4.650   2.553   3.542
  137MYC    H3628006   4.688   2.451   3.552
  137MYC    H3728007   4.734   2.617   3.515
  137MYC    C2228008   4.590   2.597   3.677
  137MYC    H3828009   4.537   2.693   3.663
  137MYC    H3928010   4.516   2.523   3.709
  137MYC    C2328011   4.696   2.615   3.787
  137MYC    H4028012   4.753   2.522   3.798
  137MYC    H4128013   4.766   2.693   3.758
  137MYC    C2428014   4.630   2.652   3.920
  137MYC    H4228015   4.572   2.744   3.908
  137MYC    H4328016   4.558   2.573   3.948
  137MYC    C2528017   4.731   2.670   4.034
  137MYC    H4428018   4.788   2.577   4.047
  137MYC    H4528019   4.803   2.749   4.008
  137MYC    C2628020   4.661   2.706   4.166
  137MYC    H4628021   4.611   2.803   4.155
  137MYC    H4728022   4.582   2.631   4.186
  137MYC    C2728023   4.756   2.710   4.286
  137MYC    H4828024   4.805   2.613   4.296
  137MYC    H4928025   4.835   2.785   4.268
  137MYC    C2828026   4.682   2.744   4.416
  137MYC    H5028027   4.638   2.844   4.407
  137MYC    H5128028   4.599   2.673   4.428
  137MYC    C2928029   4.772   2.738   4.540
  137MYC    H5228030   4.817   2.638   4.547
  137MYC    H5328031   4.853   2.811   4.531
  137MYC    C3028032   4.691   2.766   4.668
  137MYC    H5428033   4.649   2.867   4.662
  137MYC    H5528034   4.607   2.697   4.673
  137MYC    C3128035   4.775   2.754   4.796
  137MYC    H5628036   4.820   2.654   4.801
  137MYC    H5728037   4.857   2.827   4.794
  137MYC    C3228038   4.688   2.777   4.921
  137MYC    H5828039   4.641   2.876   4.915
  137MYC    H5928040   4.607   2.703   4.923
  137MYC    C3328041   4.768   2.768   5.053
  137MYC    H6028042   4.819   2.671   5.058
  137MYC    H6128043   4.845   2.845   5.054
  137MYC    C3428044   4.676   2.785   5.176
  137MYC    H6228045   4.623   2.880   5.167
  137MYC    H6328046   4.600   2.706   5.176
  137MYC    C3528047   4.753   2.781   5.309
  137MYC    H6428048   4.798   2.682   5.322
  137MYC    H6528049   4.835   2.854   5.306
  137MYC    C3628050   4.662   2.813   5.429
  137MYC    H6628051   4.621   2.914   5.417
  137MYC    H6728052   4.577   2.744   5.430
  137MYC    C3728053   4.736   2.803   5.564
  137MYC    H6828054   4.764   2.698   5.581
  137MYC    H6928055   4.829   2.861   5.559
  137MYC    C3828056   4.651   2.854   5.681
  137MYC    H7028057   4.634   2.962   5.670
  137MYC    H7128058   4.552   2.806   5.679
  137MYC    C3928059   4.717   2.827   5.818
  137MYC    H7228060   4.732   2.718   5.828
  137MYC    H7328061   4.816   2.873   5.820
  137MYC    C4028062   4.634   2.877   5.937
  137MYC    H7428063   4.628   2.987   5.934
  137MYC    H7528064   4.531   2.839   5.929
  137MYC    C4128065   4.694   2.832   6.072
  137MYC    H7628066   4.703   2.723   6.071
  137MYC    H7728067   4.795   2.874   6.081
  137MYC    C4228068   4.610   2.875   6.194
  137MYC    H7828069   4.609   2.984   6.201
  137MYC    H7928070   4.506   2.843   6.180
  137MYC    C4328071   4.664   2.815   6.325
  137MYC    H8028072   4.602   2.848   6.410
  137MYC    H8128073   4.767   2.847   6.343
  137MYC    H8228074   4.661   2.705   6.322
  138MYC   HH1528075   4.909   3.185   6.237
  138MYC    C8028076   4.938   3.247   6.151
  138MYC   H10028077   4.879   3.339   6.153
  138MYC   H10128078   5.044   3.273   6.162
  138MYC    C7928079   4.915   3.170   6.019
  138MYC   H10228080   4.809   3.140   6.014
  138MYC   H10328081   4.974   3.078   6.020
  138MYC    C7828082   4.950   3.254   5.895
  138MYC   HH1428083   5.052   3.292   5.904
  138MYC   H10428084   4.884   3.342   5.893
  138MYC    C7728085   4.936   3.177   5.762
  138MYC   H10628086   4.841   3.123   5.761
  138MYC   H10728087   5.016   3.103   5.755
  138MYC    C7628088   4.940   3.272   5.640
  138MYC   H10828089   5.026   3.339   5.649
  138MYC   H10928090   4.850   3.334   5.642
  138MYC    C7528091   4.947   3.199   5.505
  138MYC   H11028092   4.875   3.115   5.504
  138MYC   H11128093   5.047   3.155   5.493
  138MYC    C7428094   4.915   3.293   5.387
  138MYC   H11228095   4.975   3.384   5.395
  138MYC   H11328096   4.810   3.322   5.393
  138MYC    C7328097   4.941   3.228   5.250
  138MYC   HH1328098   4.898   3.127   5.248
  138MYC   H11428099   5.050   3.217   5.236
  138MYC    C7228100   4.883   3.309   5.133
  138MYC   H11528101   4.918   3.413   5.138
  138MYC   H11628102   4.773   3.312   5.144
  138MYC    C7128103   4.919   3.249   4.997
  138MYC   H11728104   4.899   3.141   4.998
  138MYC   H11828105   5.027   3.262   4.980
  138MYC    C7028106   4.842   3.313   4.880
  138MYC   H11928107   4.865   3.420   4.874
  138MYC   H12028108   4.734   3.303   4.898
  138MYC    C6928109   4.877   3.246   4.746
  138MYC   H12128110   4.853   3.139   4.752
  138MYC   H12228111   4.985   3.254   4.728
  138MYC    C6828112   4.802   3.307   4.626
  138MYC   HH1228113   4.837   3.410   4.611
  138MYC   H12328114   4.695   3.312   4.648
  138MYC    C6728115   4.823   3.225   4.497
  138MYC   H12428116   4.771   3.129   4.507
  138MYC   H12528117   4.930   3.203   4.485
  138MYC    C6628118   4.773   3.299   4.372
  138MYC   H12628119   4.836   3.387   4.356
  138MYC   H12728120   4.671   3.337   4.390
  138MYC    C6528121   4.771   3.211   4.246
  138MYC   H12828122   4.667   3.184   4.223
  138MYC   H12928123   4.823   3.116   4.265
  138MYC    C6428124   4.836   3.278   4.124
  138MYC   H13028125   4.945   3.275   4.135
  138MYC   H13128126   4.807   3.384   4.120
  138MYC    C6328127   4.796   3.212   3.991
  138MYC   HH1128128   4.690   3.232   3.972
  138MYC   H13228129   4.808   3.103   3.999
  138MYC    C6228130   4.880   3.263   3.872
  138MYC   H13328131   4.982   3.226   3.883
  138MYC   H13428132   4.885   3.373   3.875
  138MYC    C6128133   4.822   3.218   3.737
  138MYC   H13528134   4.726   3.268   3.721
  138MYC   H13628135   4.802   3.111   3.740
  138MYC    C6028136   4.916   3.248   3.621
  138MYC   H13728137   5.016   3.209   3.638
  138MYC    C5828138   4.863   3.239   3.481
  138MYC   H13828139   4.756   3.222   3.470
  138MYC    C5928140   4.904   3.373   3.538
  138MYC   H13928141   4.995   3.418   3.501
  138MYC   H14028142   4.826   3.444   3.564
  138MYC    C5728143   4.945   3.169   3.374
  138MYC   HH1028144   4.945   3.061   3.392
  138MYC   H14128145   5.050   3.202   3.380
  138MYC    C5628146   4.890   3.197   3.234
  138MYC   H14228147   4.875   3.305   3.222
  138MYC   H14328148   4.791   3.150   3.225
  138MYC    C5528149   4.981   3.146   3.121
  138MYC   H14428150   4.998   3.038   3.133
  138MYC   H14528151   5.079   3.196   3.128
  138MYC    C5428152   4.919   3.173   2.983
  138MYC   H14628153   4.906   3.281   2.970
  138MYC   H14728154   4.819   3.129   2.980
  138MYC    C5328155   5.002   3.118   2.865
  138MYC   H14828156   5.017   3.010   2.878
  138MYC   H14928157   5.100   3.166   2.864
  138MYC    C5228158   4.930   3.145   2.732
  138MYC    H9928159   4.922   3.254   2.718
  138MYC   H15028160   4.827   3.107   2.738
  138MYC    C5128161   4.998   3.084   2.608
  138MYC    H9728162   5.012   2.976   2.622
  138MYC    H9828163   5.097   3.129   2.595
  138MYC    C5028164   4.912   3.109   2.482
  138MYC    H9528165   4.881   3.214   2.483
  138MYC    H9628166   4.820   3.050   2.490
  138MYC    C4928167   4.981   3.079   2.348
  138MYC    H9328168   4.999   2.971   2.338
  138MYC    H9428169   5.078   3.129   2.345
  138MYC    C4828170   4.893   3.130   2.232
  138MYC    H9128171   4.871   3.235   2.251
  138MYC    H9228172   4.796   3.079   2.237
  138MYC    C4728173   4.952   3.117   2.090
  138MYC    H8928174   4.944   3.014   2.055
  138MYC    H9028175   5.058   3.140   2.091
  138MYC    C4628176   4.879   3.214   1.994
  138MYC    H8728177   4.900   3.316   2.027
  138MYC    H8828178   4.771   3.200   2.003
  138MYC    C4528179   4.918   3.200   1.845
  138MYC    H8528180   4.857   3.122   1.799
  138MYC    H8628181   5.023   3.167   1.837
  138MYC    C4428182   4.903   3.332   1.764
  138MYC    H8328183   4.921   3.310   1.658
  138MYC    H8428184   4.984   3.399   1.795
  138MYC    C1828185   4.770   3.405   1.781
  138MYC    H3128186   4.748   3.428   1.885
  138MYC    C1728187   4.726   3.505   1.678
  138MYC    H3028188   4.788   3.514   1.589
  138MYC    C1928189   4.652   3.375   1.694
  138MYC    H3228190   4.665   3.298   1.619
  138MYC    H3328191   4.553   3.379   1.739
  138MYC    C1628192   4.663   3.639   1.715
  138MYC    H2828193   4.577   3.624   1.782
  138MYC    H2928194   4.621   3.684   1.624
  138MYC    C1528195   4.761   3.740   1.779
  138MYC    H2628196   4.728   3.842   1.754
  138MYC    H2728197   4.861   3.728   1.734
  138MYC    C1428198   4.770   3.729   1.933
  138MYC    H2428199   4.803   3.628   1.962
  138MYC    H2528200   4.669   3.742   1.973
  138MYC    C1328201   4.866   3.832   1.997
  138MYC    H2228202   4.834   3.933   1.968
  138MYC    H2328203   4.966   3.817   1.956
  138MYC    C1228204   4.874   3.827   2.152
  138MYC    H2028205   4.938   3.909   2.185
  138MYC    H2128206   4.925   3.734   2.181
  138MYC    C1128207   4.737   3.836   2.222
  138MYC    H1828208   4.682   3.743   2.206
  138MYC    H1928209   4.678   3.916   2.175
  138MYC    C1028210   4.741   3.864   2.374
  138MYC    H1628211   4.639   3.856   2.412
  138MYC    H1728212   4.773   3.967   2.392
  138MYC     C928213   4.832   3.769   2.456
  138MYC    H1428214   4.937   3.785   2.430
  138MYC    H1528215   4.807   3.665   2.431
  138MYC     C828216   4.814   3.789   2.608
  138MYC    H1228217   4.707   3.779   2.632
  138MYC    H1328218   4.843   3.891   2.635
  138MYC     C728219   4.893   3.688   2.694
  138MYC    H1028220   5.001   3.710   2.686
  138MYC    H1128221   4.878   3.587   2.655
  138MYC     C628222   4.850   3.692   2.842
  138MYC     H828223   4.745   3.660   2.849
  138MYC     H928224   4.855   3.795   2.879
  138MYC     C528225   4.937   3.602   2.933
  138MYC     H628226   5.034   3.650   2.948
  138MYC     H728227   4.957   3.508   2.879
  138MYC     C428228   4.875   3.563   3.070
  138MYC     H428229   4.943   3.491   3.114
  138MYC     H528230   4.781   3.508   3.052
  138MYC     C228231   4.851   3.674   3.177
  138MYC     H228232   4.899   3.636   3.268
  138MYC     O328233   4.915   3.797   3.142
  138MYC     H328234   4.864   3.837   3.069
  138MYC     C128235   4.701   3.698   3.214
  138MYC     H128236   4.658   3.600   3.239
  138MYC    C8128237   4.616   3.754   3.097
  138MYC    O8228238   4.644   3.856   3.036
  138MYC    O8328239   4.493   3.699   3.089
  138MYC   H10528240   4.442   3.756   3.028
  138MYC    C2028241   4.680   3.786   3.340
  138MYC    H3428242   4.729   3.883   3.327
  138MYC    H3528243   4.573   3.807   3.351
  138MYC    C2128244   4.729   3.721   3.471
  138MYC    H3628245   4.688   3.619   3.478
  138MYC    H3728246   4.838   3.711   3.469
  138MYC    C2228247   4.689   3.799   3.598
  138MYC    H3828248   4.733   3.900   3.594
  138MYC    H3928249   4.580   3.810   3.600
  138MYC    C2328250   4.734   3.728   3.727
  138MYC    H4028251   4.693   3.627   3.729
  138MYC    H4128252   4.844   3.718   3.727
  138MYC    C2428253   4.690   3.803   3.855
  138MYC    H4228254   4.740   3.901   3.858
  138MYC    H4328255   4.582   3.822   3.850
  138MYC    C2528256   4.722   3.724   3.984
  138MYC    H4428257   4.670   3.628   3.980
  138MYC    H4528258   4.829   3.703   3.988
  138MYC    C2628259   4.679   3.799   4.111
  138MYC    H4628260   4.735   3.893   4.119
  138MYC    H4728261   4.573   3.825   4.105
  138MYC    C2728262   4.702   3.715   4.239
  138MYC    H4828263   4.645   3.622   4.232
  138MYC    H4928264   4.808   3.687   4.244
  138MYC    C2828265   4.663   3.789   4.368
  138MYC    H5028266   4.714   3.885   4.373
  138MYC    H5128267   4.555   3.810   4.367
  138MYC    C2928268   4.698   3.706   4.494
  138MYC    H5228269   4.651   3.607   4.486
  138MYC    H5328270   4.806   3.690   4.496
  138MYC    C3028271   4.654   3.772   4.626
  138MYC    H5428272   4.693   3.874   4.631
  138MYC    H5528273   4.545   3.778   4.629
  138MYC    C3128274   4.705   3.693   4.748
  138MYC    H5628275   4.670   3.589   4.741
  138MYC    H5728276   4.815   3.690   4.745
  138MYC    C3228277   4.661   3.750   4.884
  138MYC    H5828278   4.691   3.856   4.891
  138MYC    H5928279   4.551   3.748   4.891
  138MYC    C3328280   4.721   3.672   5.002
  138MYC    H6028281   4.688   3.568   4.997
  138MYC    H6128282   4.831   3.671   4.992
  138MYC    C3428283   4.684   3.730   5.140
  138MYC    H6228284   4.714   3.836   5.144
  138MYC    H6328285   4.576   3.727   5.153
  138MYC    C3528286   4.752   3.654   5.255
  138MYC    H6428287   4.718   3.549   5.255
  138MYC    H6528288   4.861   3.651   5.238
  138MYC    C3628289   4.724   3.716   5.393
  138MYC    H6628290   4.754   3.822   5.392
  138MYC    H6728291   4.617   3.713   5.413
  138MYC    C3728292   4.799   3.644   5.507
  138MYC    H6828293   4.765   3.540   5.513
  138MYC    H6928294   4.906   3.641   5.484
  138MYC    C3828295   4.779   3.712   5.644
  138MYC    H7028296   4.802   3.819   5.636
  138MYC    H7128297   4.673   3.704   5.673
  138MYC    C3928298   4.867   3.650   5.755
  138MYC    H7228299   4.849   3.542   5.759
  138MYC    H7328300   4.973   3.664   5.728
  138MYC    C4028301   4.840   3.711   5.894
  138MYC    H7428302   4.848   3.820   5.889
  138MYC    H7528303   4.737   3.687   5.924
  138MYC    C4128304   4.938   3.659   6.002
  138MYC    H7628305   4.947   3.550   5.993
  138MYC    H7728306   5.037   3.701   5.984
  138MYC    C4228307   4.893   3.693   6.146
  138MYC    H7828308   4.882   3.801   6.156
  138MYC    H7928309   4.795   3.648   6.164
  138MYC    C4328310   4.991   3.642   6.253
  138MYC    H8028311   5.087   3.696   6.247
  138MYC    H8128312   5.011   3.535   6.240
  138MYC    H8228313   4.950   3.656   6.353
  139MYC   HH1528314   5.435   4.069   6.062
  139MYC    C8028315   5.374   3.987   6.102
  139MYC   H10028316   5.437   3.928   6.170
  139MYC   H10128317   5.292   4.031   6.160
  139MYC    C7928318   5.320   3.899   5.988
  139MYC   H10228319   5.267   3.813   6.030
  139MYC   H10328320   5.405   3.860   5.931
  139MYC    C7828321   5.226   3.975   5.892
  139MYC   HH1428322   5.271   4.072   5.867
  139MYC   H10428323   5.131   3.996   5.944
  139MYC    C7728324   5.198   3.898   5.762
  139MYC   H10628325   5.151   3.801   5.786
  139MYC   H10728326   5.294   3.875   5.713
  139MYC    C7628327   5.108   3.976   5.663
  139MYC   H10828328   5.147   4.078   5.655
  139MYC   H10928329   5.007   3.983   5.704
  139MYC    C7528330   5.104   3.912   5.523
  139MYC   H11028331   5.053   3.816   5.528
  139MYC   H11128332   5.207   3.893   5.490
  139MYC    C7428333   5.035   4.002   5.418
  139MYC   H11228334   5.081   4.101   5.420
  139MYC   H11328335   4.929   4.015   5.446
  139MYC    C7328336   5.044   3.945   5.276
  139MYC   HH1328337   4.985   3.853   5.269
  139MYC   H11428338   5.148   3.918   5.254
  139MYC    C7228339   4.996   4.044   5.168
  139MYC   H11528340   5.059   4.134   5.171
  139MYC   H11628341   4.893   4.076   5.190
  139MYC    C7128342   5.000   3.984   5.026
  139MYC   H11728343   4.925   3.905   5.019
  139MYC   H11828344   5.098   3.937   5.009
  139MYC    C7028345   4.977   4.088   4.915
  139MYC   H11928346   5.064   4.154   4.910
  139MYC   H12028347   4.891   4.151   4.941
  139MYC    C6928348   4.952   4.023   4.778
  139MYC   H12128349   4.852   3.977   4.778
  139MYC   H12228350   5.024   3.942   4.762
  139MYC    C6828351   4.963   4.122   4.660
  139MYC   HH1228352   5.066   4.158   4.655
  139MYC   H12328353   4.899   4.209   4.679
  139MYC    C6728354   4.923   4.058   4.526
  139MYC   H12428355   4.814   4.052   4.520
  139MYC   H12528356   4.961   3.955   4.522
  139MYC    C6628357   4.978   4.135   4.405
  139MYC   H12628358   5.087   4.143   4.415
  139MYC   H12728359   4.938   4.238   4.405
  139MYC    C6528360   4.945   4.068   4.270
  139MYC   H12828361   4.838   4.080   4.249
  139MYC   H12928362   4.965   3.960   4.277
  139MYC    C6428363   5.028   4.127   4.155
  139MYC   H13028364   5.135   4.114   4.178
  139MYC   H13128365   5.010   4.235   4.149
  139MYC    C6328366   4.998   4.063   4.018
  139MYC   HH1128367   4.893   4.080   3.992
  139MYC   H13228368   5.013   3.954   4.025
  139MYC    C6228369   5.088   4.120   3.907
  139MYC   H13328370   5.193   4.102   3.933
  139MYC   H13428371   5.075   4.229   3.903
  139MYC    C6128372   5.059   4.060   3.769
  139MYC   H13528373   4.952   4.069   3.747
  139MYC   H13628374   5.082   3.953   3.771
  139MYC    C6028375   5.141   4.127   3.659
  139MYC   H13728376   5.247   4.129   3.681
  139MYC    C5828377   5.103   4.107   3.515
  139MYC   H13828378   5.012   4.049   3.497
  139MYC    C5928379   5.086   4.243   3.579
  139MYC   H13928380   5.155   4.322   3.551
  139MYC   H14028381   4.985   4.276   3.601
  139MYC    C5728382   5.210   4.081   3.410
  139MYC   HH1028383   5.259   3.985   3.432
  139MYC   H14128384   5.288   4.158   3.415
  139MYC    C5628385   5.152   4.076   3.268
  139MYC   H14228386   5.104   4.172   3.245
  139MYC   H14328387   5.073   3.999   3.264
  139MYC    C5528388   5.257   4.044   3.160
  139MYC   H14428389   5.303   3.947   3.181
  139MYC   H14528390   5.337   4.119   3.163
  139MYC    C5428391   5.195   4.042   3.019
  139MYC   H14628392   5.147   4.139   3.001
  139MYC   H14728393   5.115   3.967   3.016
  139MYC    C5328394   5.296   4.014   2.906
  139MYC   H14828395   5.340   3.915   2.920
  139MYC   H14928396   5.377   4.087   2.911
  139MYC    C5228397   5.228   4.021   2.768
  139MYC    H9928398   5.181   4.120   2.758
  139MYC   H15028399   5.147   3.947   2.764
  139MYC    C5128400   5.323   3.999   2.649
  139MYC    H9728401   5.365   3.897   2.653
  139MYC    H9828402   5.407   4.069   2.655
  139MYC    C5028403   5.248   4.018   2.515
  139MYC    H9528404   5.204   4.119   2.515
  139MYC    H9628405   5.166   3.947   2.511
  139MYC    C4928406   5.335   4.004   2.389
  139MYC    H9328407   5.377   3.903   2.385
  139MYC    H9428408   5.419   4.074   2.393
  139MYC    C4828409   5.250   4.031   2.263
  139MYC    H9128410   5.207   4.131   2.272
  139MYC    H9228411   5.166   3.960   2.262
  139MYC    C4728412   5.323   4.024   2.128
  139MYC    H8928413   5.367   3.924   2.113
  139MYC    H9028414   5.405   4.096   2.126
  139MYC    C4628415   5.225   4.055   2.013
  139MYC    H8728416   5.181   4.154   2.031
  139MYC    H8828417   5.142   3.983   2.018
  139MYC    C4528418   5.286   4.052   1.872
  139MYC    H8528419   5.300   3.948   1.840
  139MYC    H8628420   5.386   4.097   1.875
  139MYC    C4428421   5.202   4.129   1.768
  139MYC    H8328422   5.257   4.131   1.673
  139MYC    H8428423   5.196   4.234   1.800
  139MYC    C1828424   5.060   4.075   1.745
  139MYC    H3128425   5.028   4.003   1.819
  139MYC    C1728426   4.955   4.170   1.691
  139MYC    H3028427   4.987   4.269   1.663
  139MYC    C1928428   5.005   4.056   1.606
  139MYC    H3228429   5.068   4.079   1.521
  139MYC    H3328430   4.938   3.972   1.590
  139MYC    C1628431   4.812   4.166   1.744
  139MYC    H2828432   4.805   4.102   1.832
  139MYC    H2928433   4.748   4.119   1.669
  139MYC    C1528434   4.753   4.304   1.778
  139MYC    H2628435   4.644   4.292   1.785
  139MYC    H2728436   4.771   4.375   1.696
  139MYC    C1428437   4.804   4.361   1.911
  139MYC    H2428438   4.910   4.388   1.902
  139MYC    H2528439   4.798   4.284   1.988
  139MYC    C1328440   4.723   4.484   1.957
  139MYC    H2228441   4.616   4.462   1.950
  139MYC    H2328442   4.743   4.568   1.889
  139MYC    C1228443   4.755   4.527   2.101
  139MYC    H2028444   4.861   4.555   2.108
  139MYC    H2128445   4.740   4.441   2.169
  139MYC    C1128446   4.666   4.644   2.147
  139MYC    H1828447   4.563   4.609   2.160
  139MYC    H1928448   4.665   4.719   2.068
  139MYC    C1028449   4.714   4.714   2.275
  139MYC    H1628450   4.648   4.800   2.291
  139MYC    H1728451   4.815   4.753   2.259
  139MYC     C928452   4.713   4.629   2.404
  139MYC    H1428453   4.782   4.545   2.395
  139MYC    H1528454   4.612   4.588   2.420
  139MYC     C828455   4.752   4.717   2.524
  139MYC    H1228456   4.691   4.809   2.521
  139MYC    H1328457   4.856   4.749   2.512
  139MYC     C728458   4.735   4.654   2.664
  139MYC    H1028459   4.810   4.575   2.678
  139MYC    H1128460   4.636   4.608   2.672
  139MYC     C628461   4.752   4.763   2.772
  139MYC     H828462   4.674   4.839   2.758
  139MYC     H928463   4.848   4.813   2.754
  139MYC     C528464   4.748   4.717   2.919
  139MYC     H628465   4.766   4.806   2.981
  139MYC     H728466   4.832   4.649   2.938
  139MYC     C428467   4.616   4.649   2.962
  139MYC     H428468   4.625   4.541   2.947
  139MYC     H528469   4.535   4.683   2.897
  139MYC     C228470   4.576   4.677   3.110
  139MYC     H228471   4.663   4.656   3.173
  139MYC     O328472   4.543   4.815   3.121
  139MYC     H328473   4.588   4.863   3.049
  139MYC     C128474   4.457   4.590   3.161
  139MYC     H128475   4.497   4.488   3.169
  139MYC    C8128476   4.341   4.586   3.060
  139MYC    O8228477   4.266   4.679   3.037
  139MYC    O8328478   4.331   4.469   2.992
  139MYC   H10528479   4.256   4.481   2.932
  139MYC    C2028480   4.403   4.629   3.301
  139MYC    H3428481   4.368   4.733   3.300
  139MYC    H3528482   4.314   4.568   3.321
  139MYC    C2128483   4.501   4.611   3.419
  139MYC    H3628484   4.537   4.508   3.421
  139MYC    H3728485   4.588   4.676   3.406
  139MYC    C2228486   4.433   4.644   3.554
  139MYC    H3828487   4.402   4.749   3.553
  139MYC    H3928488   4.342   4.583   3.564
  139MYC    C2328489   4.522   4.619   3.677
  139MYC    H4028490   4.555   4.515   3.679
  139MYC    H4128491   4.613   4.681   3.670
  139MYC    C2428492   4.449   4.652   3.809
  139MYC    H4228493   4.413   4.756   3.805
  139MYC    H4328494   4.360   4.588   3.818
  139MYC    C2528495   4.536   4.634   3.935
  139MYC    H4428496   4.573   4.531   3.939
  139MYC    H4528497   4.625   4.699   3.927
  139MYC    C2628498   4.460   4.667   4.065
  139MYC    H4628499   4.419   4.768   4.058
  139MYC    H4728500   4.376   4.598   4.075
  139MYC    C2728501   4.550   4.658   4.190
  139MYC    H4828502   4.596   4.559   4.194
  139MYC    H4928503   4.631   4.731   4.181
  139MYC    C2828504   4.472   4.684   4.320
  139MYC    H5028505   4.423   4.782   4.314
  139MYC    H5128506   4.394   4.608   4.331
  139MYC    C2928507   4.564   4.681   4.444
  139MYC    H5228508   4.622   4.588   4.444
  139MYC    H5328509   4.635   4.764   4.439
  139MYC    C3028510   4.485   4.691   4.576
  139MYC    H5428511   4.424   4.782   4.576
  139MYC    H5528512   4.415   4.606   4.582
  139MYC    C3128513   4.575   4.691   4.700
  139MYC    H5628514   4.641   4.602   4.697
  139MYC    H5728515   4.640   4.779   4.698
  139MYC    C3228516   4.494   4.689   4.831
  139MYC    H5828517   4.425   4.774   4.832
  139MYC    H5928518   4.433   4.598   4.833
  139MYC    C3328519   4.582   4.694   4.957
  139MYC    H6028520   4.658   4.615   4.953
  139MYC    H6128521   4.635   4.790   4.961
  139MYC    C3428522   4.497   4.676   5.084
  139MYC    H6228523   4.415   4.748   5.084
  139MYC    H6328524   4.452   4.576   5.082
  139MYC    C3528525   4.577   4.693   5.215
  139MYC    H6428526   4.671   4.637   5.210
  139MYC    H6528527   4.603   4.799   5.227
  139MYC    C3628528   4.496   4.644   5.337
  139MYC    H6628529   4.390   4.670   5.324
  139MYC    H6728530   4.502   4.534   5.340
  139MYC    C3728531   4.545   4.701   5.471
  139MYC    H6828532   4.652   4.685   5.482
  139MYC    H6928533   4.528   4.810   5.470
  139MYC    C3828534   4.471   4.639   5.591
  139MYC    H7028535   4.363   4.636   5.571
  139MYC    H7128536   4.505   4.535   5.602
  139MYC    C3928537   4.496   4.715   5.722
  139MYC    H7228538   4.604   4.726   5.737
  139MYC    H7328539   4.455   4.816   5.713
  139MYC    C4028540   4.434   4.645   5.845
  139MYC    H7428541   4.325   4.641   5.834
  139MYC    H7528542   4.470   4.541   5.849
  139MYC    C4128543   4.471   4.715   5.977
  139MYC    H7628544   4.580   4.717   5.987
  139MYC    H7728545   4.438   4.820   5.973
  139MYC    C4228546   4.410   4.647   6.101
  139MYC    H7828547   4.301   4.660   6.100
  139MYC    H7928548   4.429   4.539   6.096
  139MYC    C4328549   4.468   4.701   6.233
  139MYC    H8028550   4.451   4.809   6.242
  139MYC    H8128551   4.576   4.683   6.239
  139MYC    H8228552   4.420   4.652   6.319
  140MYC   HH1528553   4.315   5.156   6.207
  140MYC    C8028554   4.389   5.183   6.131
  140MYC   H10028555   4.401   5.292   6.132
  140MYC   H10128556   4.485   5.137   6.157
  140MYC    C7928557   4.342   5.136   5.992
  140MYC   H10228558   4.248   5.186   5.968
  140MYC   H10328559   4.321   5.028   5.997
  140MYC    C7828560   4.445   5.162   5.879
  140MYC   HH1428561   4.536   5.104   5.899
  140MYC   H10428562   4.473   5.268   5.878
  140MYC    C7728563   4.387   5.123   5.741
  140MYC   H10628564   4.300   5.187   5.721
  140MYC   H10728565   4.350   5.020   5.746
  140MYC    C7628566   4.487   5.136   5.624
  140MYC   H10828567   4.572   5.068   5.640
  140MYC   H10928568   4.527   5.238   5.621
  140MYC    C7528569   4.418   5.103   5.490
  140MYC   H11028570   4.331   5.168   5.479
  140MYC   H11128571   4.380   5.000   5.494
  140MYC    C7428572   4.508   5.118   5.365
  140MYC   H11228573   4.593   5.051   5.372
  140MYC   H11328574   4.547   5.221   5.361
  140MYC    C7328575   4.427   5.088   5.237
  140MYC   HH1328576   4.339   5.153   5.235
  140MYC   H11428577   4.391   4.985   5.241
  140MYC    C7228578   4.505   5.108   5.106
  140MYC   H11528579   4.591   5.040   5.103
  140MYC   H11628580   4.545   5.211   5.102
  140MYC    C7128581   4.415   5.084   4.984
  140MYC   H11728582   4.330   5.153   4.988
  140MYC   H11828583   4.373   4.982   4.989
  140MYC    C7028584   4.487   5.101   4.849
  140MYC   H11928585   4.569   5.027   4.842
  140MYC   H12028586   4.533   5.200   4.845
  140MYC    C6928587   4.392   5.084   4.730
  140MYC   H12128588   4.312   5.158   4.737
  140MYC   H12228589   4.345   4.985   4.733
  140MYC    C6828590   4.465   5.100   4.595
  140MYC   HH1228591   4.542   5.022   4.586
  140MYC   H12328592   4.517   5.197   4.595
  140MYC    C6728593   4.371   5.094   4.473
  140MYC   H12428594   4.292   5.170   4.484
  140MYC   H12528595   4.322   4.996   4.469
  140MYC    C6628596   4.449   5.118   4.343
  140MYC   H12628597   4.525   5.040   4.332
  140MYC   H12728598   4.502   5.214   4.351
  140MYC    C6528599   4.361   5.121   4.217
  140MYC   H12828600   4.283   5.197   4.227
  140MYC   H12928601   4.311   5.024   4.205
  140MYC    C6428602   4.446   5.151   4.092
  140MYC   H13028603   4.525   5.075   4.085
  140MYC   H13128604   4.496   5.248   4.105
  140MYC    C6328605   4.367   5.153   3.960
  140MYC   HH1128606   4.290   5.232   3.964
  140MYC   H13228607   4.315   5.057   3.948
  140MYC    C6228608   4.461   5.177   3.841
  140MYC   H13328609   4.542   5.103   3.846
  140MYC   H13428610   4.507   5.276   3.849
  140MYC    C6128611   4.392   5.165   3.704
  140MYC   H13528612   4.325   5.250   3.689
  140MYC   H13628613   4.329   5.075   3.703
  140MYC    C6028614   4.494   5.154   3.592
  140MYC   H13728615   4.564   5.072   3.608
  140MYC    C5828616   4.455   5.180   3.449
  140MYC   H13828617   4.354   5.215   3.431
  140MYC    C5928618   4.549   5.275   3.520
  140MYC   H13928619   4.654   5.274   3.492
  140MYC   H14028620   4.511   5.372   3.551
  140MYC    C5728621   4.505   5.082   3.344
  140MYC   HH1028622   4.450   4.987   3.353
  140MYC   H14128623   4.609   5.057   3.365
  140MYC    C5628624   4.496   5.132   3.199
  140MYC   H14228625   4.568   5.074   3.142
  140MYC   H14328626   4.528   5.237   3.193
  140MYC    C5528627   4.358   5.114   3.132
  140MYC   H14428628   4.289   5.190   3.171
  140MYC   H14528629   4.316   5.016   3.158
  140MYC    C5428630   4.368   5.125   2.979
  140MYC   H14628631   4.435   5.046   2.941
  140MYC   H14728632   4.415   5.220   2.954
  140MYC    C5328633   4.232   5.113   2.906
  140MYC   H14828634   4.159   5.178   2.956
  140MYC   H14928635   4.194   5.011   2.917
  140MYC    C5228636   4.241   5.152   2.756
  140MYC    H9928637   4.338   5.198   2.736
  140MYC   H15028638   4.166   5.230   2.735
  140MYC    C5128639   4.219   5.036   2.657
  140MYC    H9728640   4.115   5.000   2.665
  140MYC    H9828641   4.284   4.952   2.685
  140MYC    C5028642   4.250   5.078   2.513
  140MYC    H9528643   4.355   5.111   2.509
  140MYC    H9628644   4.189   5.166   2.486
  140MYC    C4928645   4.228   4.969   2.406
  140MYC    H9328646   4.122   4.967   2.379
  140MYC    H9428647   4.253   4.870   2.447
  140MYC    C4828648   4.314   4.994   2.281
  140MYC    H9128649   4.419   4.986   2.311
  140MYC    H9228650   4.299   5.098   2.247
  140MYC    C4728651   4.289   4.899   2.162
  140MYC    H8928652   4.190   4.919   2.119
  140MYC    H9028653   4.289   4.795   2.197
  140MYC    C4628654   4.398   4.918   2.055
  140MYC    H8728655   4.495   4.890   2.099
  140MYC    H8828656   4.404   5.025   2.031
  140MYC    C4528657   4.377   4.839   1.924
  140MYC    H8528658   4.291   4.881   1.871
  140MYC    H8628659   4.351   4.735   1.948
  140MYC    C4428660   4.501   4.839   1.831
  140MYC    H8328661   4.470   4.797   1.734
  140MYC    H8428662   4.577   4.771   1.870
  140MYC    C1828663   4.563   4.977   1.810
  140MYC    H3128664   4.604   5.020   1.901
  140MYC    C1728665   4.636   5.014   1.682
  140MYC    H3028666   4.640   4.938   1.605
  140MYC    C1928667   4.499   5.071   1.712
  140MYC    H3228668   4.415   5.035   1.653
  140MYC    H3328669   4.491   5.175   1.742
  140MYC    C1628670   4.755   5.109   1.678
  140MYC    H2828671   4.743   5.189   1.752
  140MYC    H2928672   4.755   5.160   1.581
  140MYC    C1528673   4.894   5.041   1.695
  140MYC    H2628674   4.968   5.102   1.641
  140MYC    H2728675   4.893   4.944   1.645
  140MYC    C1428676   4.944   5.024   1.840
  140MYC    H2428677   5.037   4.966   1.838
  140MYC    H2528678   4.871   4.965   1.897
  140MYC    C1328679   4.970   5.158   1.913
  140MYC    H2228680   4.876   5.212   1.924
  140MYC    H2328681   5.035   5.221   1.850
  140MYC    C1228682   5.036   5.145   2.052
  140MYC    H2028683   5.141   5.118   2.040
  140MYC    H2128684   4.989   5.063   2.108
  140MYC    C1128685   5.025   5.277   2.133
  140MYC    H1828686   4.919   5.306   2.140
  140MYC    H1928687   5.074   5.357   2.076
  140MYC    C1028688   5.085   5.274   2.275
  140MYC    H1628689   5.088   5.378   2.311
  140MYC    H1728690   5.189   5.240   2.271
  140MYC     C928691   5.005   5.188   2.375
  140MYC    H1428692   5.026   5.082   2.357
  140MYC    H1528693   4.897   5.203   2.356
  140MYC     C828694   5.032   5.224   2.522
  140MYC    H1228695   5.011   5.330   2.537
  140MYC    H1328696   5.138   5.208   2.546
  140MYC     C728697   4.944   5.142   2.620
  140MYC    H1028698   4.972   5.036   2.613
  140MYC    H1128699   4.840   5.149   2.587
  140MYC     C628700   4.954   5.189   2.766
  140MYC     H828701   4.935   5.297   2.770
  140MYC     H928702   5.055   5.171   2.805
  140MYC     C528703   4.850   5.117   2.856
  140MYC     H628704   4.871   5.010   2.858
  140MYC     H728705   4.752   5.128   2.808
  140MYC     C428706   4.837   5.173   3.000
  140MYC     H428707   4.736   5.149   3.033
  140MYC     H528708   4.839   5.282   2.995
  140MYC     C228709   4.934   5.120   3.111
  140MYC     H228710   4.869   5.082   3.191
  140MYC     O328711   5.016   5.012   3.066
  140MYC     H328712   5.107   5.045   3.057
  140MYC     C128713   5.022   5.232   3.174
  140MYC     H128714   4.956   5.319   3.188
  140MYC    C8128715   5.133   5.278   3.077
  140MYC    O8228716   5.236   5.216   3.058
  140MYC    O8328717   5.098   5.384   3.001
  140MYC   H10528718   5.173   5.397   2.940
  140MYC    C2028719   5.079   5.195   3.314
  140MYC    H3428720   5.123   5.095   3.311
  140MYC    H3528721   5.160   5.265   3.339
  140MYC    C2128722   4.972   5.203   3.426
  140MYC    H3628723   4.927   5.303   3.424
  140MYC    H3728724   4.892   5.131   3.407
  140MYC    C2228725   5.028   5.177   3.567
  140MYC    H3828726   5.054   5.071   3.577
  140MYC    H3928727   5.121   5.234   3.581
  140MYC    C2328728   4.929   5.218   3.679
  140MYC    H4028729   4.908   5.325   3.669
  140MYC    H4128730   4.834   5.164   3.665
  140MYC    C2428731   4.984   5.190   3.820
  140MYC    H4228732   4.993   5.081   3.834
  140MYC    H4328733   5.085   5.232   3.828
  140MYC    C2528734   4.896   5.248   3.932
  140MYC    H4428735   4.890   5.357   3.920
  140MYC    H4528736   4.794   5.209   3.924
  140MYC    C2628737   4.953   5.216   4.072
  140MYC    H4628738   4.955   5.107   4.084
  140MYC    H4728739   5.056   5.251   4.077
  140MYC    C2728740   4.873   5.278   4.188
  140MYC    H4828741   4.873   5.387   4.178
  140MYC    H4928742   4.769   5.244   4.184
  140MYC    C2828743   4.935   5.239   4.324
  140MYC    H5028744   4.932   5.130   4.335
  140MYC    H5128745   5.041   5.268   4.324
  140MYC    C2928746   4.866   5.303   4.446
  140MYC    H5228747   4.868   5.412   4.436
  140MYC    H5328748   4.761   5.272   4.450
  140MYC    C3028749   4.937   5.263   4.577
  140MYC    H5428750   4.932   5.153   4.588
  140MYC    H5528751   5.043   5.289   4.571
  140MYC    C3128752   4.876   5.328   4.703
  140MYC    H5628753   4.882   5.437   4.694
  140MYC    H5728754   4.770   5.301   4.710
  140MYC    C3228755   4.949   5.283   4.831
  140MYC    H5828756   4.945   5.174   4.839
  140MYC    H5928757   5.056   5.310   4.824
  140MYC    C3328758   4.890   5.345   4.959
  140MYC    H6028759   4.901   5.454   4.956
  140MYC    H6128760   4.783   5.323   4.963
  140MYC    C3428761   4.957   5.291   5.087
  140MYC    H6228762   4.951   5.181   5.088
  140MYC    H6328763   5.063   5.317   5.087
  140MYC    C3528764   4.892   5.345   5.216
  140MYC    H6428765   4.902   5.454   5.218
  140MYC    H6528766   4.785   5.323   5.214
  140MYC    C3628767   4.954   5.286   5.344
  140MYC    H6628768   4.950   5.177   5.339
  140MYC    H6728769   5.060   5.315   5.350
  140MYC    C3728770   4.882   5.334   5.472
  140MYC    H6828771   4.890   5.443   5.480
  140MYC    H6928772   4.775   5.309   5.465
  140MYC    C3828773   4.939   5.270   5.600
  140MYC    H7028774   4.931   5.161   5.593
  140MYC    H7128775   5.046   5.294   5.607
  140MYC    C3928776   4.869   5.318   5.728
  140MYC    H7228777   4.890   5.425   5.742
  140MYC    H7328778   4.760   5.308   5.717
  140MYC    C4028779   4.913   5.240   5.854
  140MYC    H7428780   4.879   5.136   5.845
  140MYC    H7528781   5.022   5.238   5.859
  140MYC    C4128782   4.859   5.301   5.985
  140MYC    H7628783   4.904   5.400   5.999
  140MYC    H7728784   4.750   5.317   5.976
  140MYC    C4228785   4.887   5.213   6.108
  140MYC    H7828786   4.828   5.121   6.100
  140MYC    H7928787   4.993   5.184   6.109
  140MYC    C4328788   4.854   5.283   6.241
  140MYC    H8028789   4.867   5.214   6.325
  140MYC    H8128790   4.750   5.318   6.242
  140MYC    H8228791   4.919   5.369   6.257
  141MYC   HH1528792   5.441   6.258   6.163
  141MYC    C8028793   5.409   6.202   6.074
  141MYC   H10028794   5.444   6.099   6.084
  141MYC   H10128795   5.299   6.202   6.073
  141MYC    C7928796   5.465   6.267   5.947
  141MYC   H10228797   5.574   6.268   5.952
  141MYC   H10328798   5.432   6.372   5.943
  141MYC    C7828799   5.421   6.195   5.818
  141MYC   HH1428800   5.311   6.191   5.815
  141MYC   H10428801   5.456   6.091   5.821
  141MYC    C7728802   5.473   6.262   5.690
  141MYC   H10628803   5.582   6.257   5.688
  141MYC   H10728804   5.445   6.369   5.691
  141MYC    C7628805   5.416   6.198   5.561
  141MYC   H10828806   5.307   6.204   5.564
  141MYC   H10928807   5.444   6.092   5.559
  141MYC    C7528808   5.467   6.266   5.433
  141MYC   H11028809   5.576   6.252   5.426
  141MYC   H11128810   5.449   6.374   5.439
  141MYC    C7428811   5.400   6.211   5.306
  141MYC   H11228812   5.292   6.231   5.311
  141MYC   H11328813   5.413   6.102   5.303
  141MYC    C7328814   5.457   6.272   5.177
  141MYC   HH1328815   5.563   6.245   5.168
  141MYC   H11428816   5.452   6.382   5.182
  141MYC    C7228817   5.381   6.225   5.051
  141MYC   H11528818   5.279   6.263   5.054
  141MYC   H11628819   5.374   6.115   5.052
  141MYC    C7128820   5.450   6.269   4.920
  141MYC   H11728821   5.550   6.224   4.916
  141MYC   H11828822   5.462   6.378   4.921
  141MYC    C7028823   5.370   6.227   4.795
  141MYC   H11928824   5.274   6.280   4.795
  141MYC   H12028825   5.349   6.120   4.799
  141MYC    C6928826   5.446   6.259   4.665
  141MYC   H12128827   5.540   6.201   4.663
  141MYC   H12228828   5.474   6.365   4.664
  141MYC    C6828829   5.364   6.226   4.539
  141MYC   HH1228830   5.272   6.285   4.539
  141MYC   H12328831   5.335   6.121   4.540
  141MYC    C6728832   5.443   6.256   4.410
  141MYC   H12428833   5.535   6.197   4.409
  141MYC   H12528834   5.473   6.362   4.410
  141MYC    C6628835   5.363   6.226   4.282
  141MYC   H12628836   5.269   6.284   4.283
  141MYC   H12728837   5.335   6.120   4.280
  141MYC    C6528838   5.442   6.261   4.155
  141MYC   H12828839   5.537   6.205   4.155
  141MYC   H12928840   5.468   6.368   4.157
  141MYC    C6428841   5.365   6.230   4.026
  141MYC   H13028842   5.271   6.287   4.025
  141MYC   H13128843   5.338   6.124   4.024
  141MYC    C6328844   5.446   6.265   3.900
  141MYC   HH1128845   5.540   6.207   3.900
  141MYC   H13228846   5.473   6.371   3.903
  141MYC    C6228847   5.369   6.236   3.771
  141MYC   H13328848   5.274   6.290   3.773
  141MYC   H13428849   5.345   6.129   3.765
  141MYC    C6128850   5.447   6.276   3.644
  141MYC   H13528851   5.539   6.217   3.638
  141MYC   H13628852   5.477   6.381   3.653
  141MYC    C6028853   5.363   6.259   3.519
  141MYC   H13728854   5.268   6.311   3.526
  141MYC    C5828855   5.428   6.257   3.384
  141MYC   H13828856   5.536   6.259   3.380
  141MYC    C5928857   5.365   6.131   3.439
  141MYC   H13928858   5.271   6.098   3.396
  141MYC   H14028859   5.430   6.051   3.472
  141MYC    C5728860   5.363   6.332   3.269
  141MYC   HH1028861   5.398   6.436   3.269
  141MYC   H14128862   5.255   6.335   3.283
  141MYC    C5628863   5.394   6.267   3.133
  141MYC   H14228864   5.371   6.160   3.139
  141MYC   H14328865   5.501   6.276   3.112
  141MYC    C5528866   5.313   6.329   3.018
  141MYC   H14428867   5.342   6.434   3.004
  141MYC   H14528868   5.207   6.328   3.044
  141MYC    C5428869   5.332   6.252   2.886
  141MYC   H14628870   5.306   6.147   2.902
  141MYC   H14728871   5.438   6.255   2.857
  141MYC    C5328872   5.246   6.309   2.772
  141MYC   H14828873   5.282   6.409   2.746
  141MYC   H14928874   5.142   6.319   2.806
  141MYC    C5228875   5.249   6.218   2.648
  141MYC    H9928876   5.211   6.119   2.674
  141MYC   H15028877   5.352   6.205   2.614
  141MYC    C5128878   5.165   6.275   2.532
  141MYC    H9728879   5.203   6.375   2.506
  141MYC    H9828880   5.061   6.288   2.565
  141MYC    C5028881   5.168   6.186   2.407
  141MYC    H9528882   5.132   6.085   2.432
  141MYC    H9628883   5.273   6.175   2.375
  141MYC    C4928884   5.084   6.243   2.292
  141MYC    H9328885   5.100   6.351   2.286
  141MYC    H9428886   4.978   6.227   2.313
  141MYC    C4828887   5.120   6.181   2.156
  141MYC    H9128888   5.106   6.072   2.161
  141MYC    H9228889   5.226   6.199   2.137
  141MYC    C4728890   5.037   6.237   2.040
  141MYC    H8928891   5.045   6.347   2.038
  141MYC    H9028892   4.931   6.212   2.056
  141MYC    C4628893   5.085   6.180   1.905
  141MYC    H8728894   5.079   6.071   1.910
  141MYC    H8828895   5.191   6.205   1.893
  141MYC    C4528896   5.010   6.232   1.780
  141MYC    H8528897   5.061   6.196   1.690
  141MYC    H8628898   5.017   6.341   1.778
  141MYC    C4428899   4.860   6.192   1.771
  141MYC    H8328900   4.818   6.245   1.685
  141MYC    H8428901   4.807   6.231   1.859
  141MYC    C1828902   4.834   6.043   1.755
  141MYC    H3128903   4.913   5.980   1.795
  141MYC    C1728904   4.693   5.989   1.767
  141MYC    H3028905   4.612   6.061   1.779
  141MYC    C1928906   4.761   5.989   1.633
  141MYC    H3228907   4.721   6.058   1.560
  141MYC    H3328908   4.795   5.894   1.593
  141MYC    C1628909   4.667   5.858   1.841
  141MYC    H2828910   4.761   5.802   1.853
  141MYC    H2928911   4.602   5.794   1.778
  141MYC    C1528912   4.600   5.875   1.979
  141MYC    H2628913   4.598   5.777   2.030
  141MYC    H2728914   4.495   5.904   1.965
  141MYC    C1428915   4.668   5.978   2.072
  141MYC    H2428916   4.653   6.078   2.030
  141MYC    H2528917   4.776   5.960   2.074
  141MYC    C1328918   4.612   5.974   2.216
  141MYC    H2228919   4.648   5.882   2.264
  141MYC    H2328920   4.503   5.967   2.212
  141MYC    C1228921   4.652   6.098   2.298
  141MYC    H2028922   4.611   6.186   2.248
  141MYC    H2128923   4.761   6.110   2.298
  141MYC    C1128924   4.599   6.098   2.444
  141MYC    H1828925   4.500   6.053   2.448
  141MYC    H1928926   4.586   6.203   2.475
  141MYC    C1028927   4.692   6.032   2.549
  141MYC    H1628928   4.652   6.055   2.648
  141MYC    H1728929   4.791   6.078   2.543
  141MYC     C928930   4.707   5.878   2.537
  141MYC    H1428931   4.771   5.854   2.452
  141MYC    H1528932   4.609   5.834   2.517
  141MYC     C828933   4.764   5.811   2.664
  141MYC    H1228934   4.766   5.703   2.649
  141MYC    H1328935   4.694   5.831   2.746
  141MYC     C728936   4.906   5.859   2.704
  141MYC    H1028937   4.906   5.967   2.721
  141MYC    H1128938   4.975   5.841   2.620
  141MYC     C628939   4.963   5.790   2.830
  141MYC     H828940   5.067   5.824   2.845
  141MYC     H928941   4.968   5.681   2.812
  141MYC     C528942   4.882   5.817   2.958
  141MYC     H628943   4.780   5.781   2.944
  141MYC     H728944   4.876   5.926   2.974
  141MYC     C428945   4.943   5.751   3.084
  141MYC     H428946   5.037   5.803   3.107
  141MYC     H528947   4.970   5.648   3.062
  141MYC     C228948   4.854   5.753   3.212
  141MYC     H228949   4.925   5.747   3.296
  141MYC     O328950   4.784   5.877   3.223
  141MYC     H328951   4.717   5.879   3.152
  141MYC     C128952   4.756   5.631   3.227
  141MYC     H128953   4.819   5.541   3.228
  141MYC    C8128954   4.659   5.616   3.108
  141MYC    O8228955   4.570   5.695   3.082
  141MYC    O8328956   4.681   5.507   3.032
  141MYC   H10528957   4.613   5.510   2.962
  141MYC    C2028958   4.675   5.632   3.360
  141MYC    H3428959   4.616   5.724   3.366
  141MYC    H3528960   4.603   5.549   3.358
  141MYC    C2128961   4.762   5.617   3.487
  141MYC    H3628962   4.802   5.515   3.492
  141MYC    H3728963   4.847   5.685   3.483
  141MYC    C2228964   4.684   5.649   3.616
  141MYC    H3828965   4.645   5.751   3.610
  141MYC    H3928966   4.598   5.582   3.626
  141MYC    C2328967   4.773   5.637   3.742
  141MYC    H4028968   4.800   5.531   3.756
  141MYC    H4128969   4.866   5.693   3.727
  141MYC    C2428970   4.702   5.688   3.868
  141MYC    H4228971   4.673   5.793   3.853
  141MYC    H4328972   4.610   5.631   3.883
  141MYC    C2528973   4.790   5.679   3.995
  141MYC    H4428974   4.840   5.582   3.998
  141MYC    H4528975   4.868   5.756   3.990
  141MYC    C2628976   4.707   5.697   4.123
  141MYC    H4628977   4.644   5.786   4.114
  141MYC    H4728978   4.639   5.611   4.132
  141MYC    C2728979   4.792   5.709   4.250
  141MYC    H4828980   4.870   5.632   4.250
  141MYC    H4928981   4.843   5.807   4.250
  141MYC    C2828982   4.707   5.695   4.377
  141MYC    H5028983   4.618   5.759   4.369
  141MYC    H5128984   4.672   5.591   4.385
  141MYC    C2928985   4.783   5.732   4.505
  141MYC    H5228986   4.878   5.676   4.510
  141MYC    H5328987   4.809   5.839   4.503
  141MYC    C3028988   4.701   5.702   4.632
  141MYC    H5428989   4.603   5.750   4.624
  141MYC    H5528990   4.684   5.594   4.638
  141MYC    C3128991   4.770   5.751   4.761
  141MYC    H5628992   4.873   5.714   4.763
  141MYC    H5728993   4.774   5.860   4.761
  141MYC    C3228994   4.696   5.702   4.887
  141MYC    H5828995   4.592   5.735   4.883
  141MYC    H5928996   4.695   5.592   4.887
  141MYC    C3328997   4.760   5.752   5.018
  141MYC    H6028998   4.867   5.727   5.019
  141MYC    H6128999   4.751   5.861   5.023
  141MYC    C3429000   4.692   5.688   5.141
  141MYC    H6229001   4.584   5.706   5.135
  141MYC    H6329002   4.707   5.580   5.137
  141MYC    C3529003   4.744   5.742   5.275
  141MYC    H6429004   4.853   5.726   5.282
  141MYC    H6529005   4.726   5.850   5.281
  141MYC    C3629006   4.675   5.671   5.393
  141MYC    H6629007   4.566   5.675   5.378
  141MYC    H6729008   4.703   5.565   5.392
  141MYC    C3729009   4.707   5.731   5.531
  141MYC    H6829010   4.816   5.740   5.544
  141MYC    H6929011   4.666   5.833   5.537
  141MYC    C3829012   4.649   5.645   5.645
  141MYC    H7029013   4.546   5.617   5.621
  141MYC    H7129014   4.706   5.552   5.651
  141MYC    C3929015   4.649   5.714   5.783
  141MYC    H7229016   4.745   5.765   5.800
  141MYC    H7329017   4.571   5.791   5.784
  141MYC    C4029018   4.625   5.613   5.898
  141MYC    H7429019   4.556   5.535   5.864
  141MYC    H7529020   4.720   5.564   5.921
  141MYC    C4129021   4.567   5.677   6.026
  141MYC    H7629022   4.626   5.765   6.054
  141MYC    H7729023   4.465   5.712   6.005
  141MYC    C4229024   4.564   5.577   6.144
  141MYC    H7829025   4.523   5.482   6.110
  141MYC    H7929026   4.667   5.558   6.177
  141MYC    C4329027   4.481   5.627   6.264
  141MYC    H8029028   4.484   5.553   6.345
  141MYC    H8129029   4.376   5.642   6.235
  141MYC    H8229030   4.520   5.722   6.302
  142MYC   HH1529031   5.413   0.439   6.074
  142MYC    C8029032   5.518   0.439   6.044
  142MYC   H10029033   5.576   0.493   6.120
  142MYC   H10129034   5.553   0.336   6.041
  142MYC    C7929035   5.535   0.506   5.906
  142MYC   H10229036   5.642   0.512   5.882
  142MYC   H10329037   5.498   0.610   5.911
  142MYC    C7829038   5.461   0.431   5.794
  142MYC   HH1429039   5.353   0.432   5.814
  142MYC   H10429040   5.493   0.326   5.794
  142MYC    C7729041   5.488   0.490   5.654
  142MYC   H10629042   5.596   0.494   5.638
  142MYC   H10729043   5.451   0.594   5.650
  142MYC    C7629044   5.422   0.408   5.541
  142MYC   H10829045   5.314   0.422   5.544
  142MYC   H10929046   5.442   0.301   5.559
  142MYC    C7529047   5.476   0.445   5.401
  142MYC   H11029048   5.585   0.440   5.402
  142MYC   H11129049   5.449   0.549   5.378
  142MYC    C7429050   5.422   0.352   5.291
  142MYC   H11229051   5.313   0.367   5.282
  142MYC   H11329052   5.438   0.248   5.321
  142MYC    C7329053   5.489   0.376   5.155
  142MYC   HH1329054   5.597   0.359   5.164
  142MYC   H11429055   5.475   0.481   5.126
  142MYC    C7229056   5.432   0.285   5.045
  142MYC   H11529057   5.325   0.306   5.036
  142MYC   H11629058   5.442   0.180   5.074
  142MYC    C7129059   5.500   0.307   4.909
  142MYC   H11729060   5.594   0.251   4.905
  142MYC   H11829061   5.526   0.413   4.897
  142MYC    C7029062   5.410   0.266   4.791
  142MYC   H11929063   5.314   0.319   4.801
  142MYC   H12029064   5.387   0.158   4.797
  142MYC    C6929065   5.471   0.299   4.654
  142MYC   H12129066   5.556   0.232   4.635
  142MYC   H12229067   5.510   0.402   4.656
  142MYC    C6829068   5.368   0.287   4.541
  142MYC   HH1229069   5.281   0.349   4.565
  142MYC   H12329070   5.333   0.184   4.533
  142MYC    C6729071   5.425   0.332   4.405
  142MYC   H12429072   5.505   0.263   4.376
  142MYC   H12529073   5.470   0.431   4.415
  142MYC    C6629074   5.318   0.337   4.294
  142MYC   H12629075   5.245   0.416   4.317
  142MYC   H12729076   5.263   0.242   4.291
  142MYC    C6529077   5.381   0.364   4.157
  142MYC   H12829078   5.454   0.285   4.136
  142MYC   H12929079   5.436   0.459   4.160
  142MYC    C6429080   5.279   0.368   4.042
  142MYC   H13029081   5.211   0.453   4.056
  142MYC   H13129082   5.218   0.277   4.043
  142MYC    C6329083   5.350   0.381   3.906
  142MYC   HH1129084   5.426   0.301   3.898
  142MYC   H13229085   5.405   0.476   3.902
  142MYC    C6229086   5.257   0.370   3.784
  142MYC   H13329087   5.179   0.448   3.790
  142MYC   H13429088   5.205   0.273   3.787
  142MYC    C6129089   5.335   0.384   3.653
  142MYC   H13529090   5.426   0.323   3.659
  142MYC   H13629091   5.368   0.488   3.641
  142MYC    C6029092   5.255   0.341   3.531
  142MYC   H13729093   5.162   0.395   3.521
  142MYC    C5829094   5.328   0.307   3.403
  142MYC   H13829095   5.437   0.304   3.407
  142MYC    C5929096   5.257   0.199   3.480
  142MYC   H13929097   5.167   0.157   3.437
  142MYC   H14029098   5.319   0.127   3.534
  142MYC    C5729099   5.277   0.359   3.270
  142MYC   HH1029100   5.169   0.378   3.276
  142MYC   H14129101   5.292   0.283   3.193
  142MYC    C5629102   5.346   0.490   3.227
  142MYC   H14229103   5.455   0.475   3.229
  142MYC   H14329104   5.323   0.569   3.300
  142MYC    C5529105   5.305   0.535   3.086
  142MYC   H14429106   5.196   0.544   3.080
  142MYC   H14529107   5.334   0.456   3.015
  142MYC    C5429108   5.369   0.670   3.045
  142MYC   H14629109   5.475   0.670   3.071
  142MYC   H14729110   5.322   0.750   3.104
  142MYC    C5329111   5.355   0.704   2.895
  142MYC   H14829112   5.381   0.809   2.880
  142MYC   H14929113   5.250   0.693   2.866
  142MYC    C5229114   5.444   0.616   2.804
  142MYC    H9929115   5.419   0.511   2.817
  142MYC   H15029116   5.549   0.628   2.833
  142MYC    C5129117   5.428   0.651   2.655
  142MYC    H9729118   5.460   0.755   2.638
  142MYC    H9829119   5.322   0.646   2.629
  142MYC    C5029120   5.508   0.558   2.562
  142MYC    H9529121   5.483   0.453   2.586
  142MYC    H9629122   5.615   0.570   2.580
  142MYC    C4929123   5.476   0.584   2.414
  142MYC    H9329124   5.509   0.685   2.386
  142MYC    H9429125   5.367   0.582   2.400
  142MYC    C4829126   5.538   0.481   2.317
  142MYC    H9129127   5.503   0.381   2.345
  142MYC    H9229128   5.647   0.481   2.328
  142MYC    C4729129   5.501   0.510   2.170
  142MYC    H8929130   5.561   0.595   2.134
  142MYC    H9029131   5.396   0.541   2.165
  142MYC    C4629132   5.520   0.389   2.077
  142MYC    H8729133   5.451   0.309   2.108
  142MYC    H8829134   5.621   0.350   2.090
  142MYC    C4529135   5.496   0.423   1.929
  142MYC    H8529136   5.553   0.513   1.901
  142MYC    H8629137   5.390   0.447   1.915
  142MYC    C4429138   5.533   0.308   1.832
  142MYC    H8329139   5.489   0.330   1.734
  142MYC    H8429140   5.487   0.215   1.867
  142MYC    C1829141   5.684   0.289   1.817
  142MYC    H3129142   5.733   0.265   1.911
  142MYC    C1729143   5.743   0.224   1.694
  142MYC    H3029144   5.674   0.198   1.615
  142MYC    C1929145   5.763   0.372   1.719
  142MYC    H3229146   5.708   0.441   1.656
  142MYC    H3329147   5.860   0.408   1.750
  142MYC    C1629148   5.860   0.126   1.705
  142MYC    H2829149   5.926   0.153   1.788
  142MYC    H2929150   5.922   0.134   1.615
  142MYC    C1529151   5.814   6.429   1.718
  142MYC    H2629152   5.902   6.363   1.715
  142MYC    H2729153   5.753   6.404   1.631
  142MYC    C1429154   5.732   6.397   1.845
  142MYC    H2429155   5.691   6.296   1.837
  142MYC    H2529156   5.646   0.014   1.850
  142MYC    C1329157   5.812   6.406   1.977
  142MYC    H2229158   5.873   0.047   1.979
  142MYC    H2329159   5.881   6.321   1.985
  142MYC    C1229160   5.719   6.408   2.100
  142MYC    H2029161   5.657   6.318   2.101
  142MYC    H2129162   5.651   0.044   2.089
  142MYC    C1129163   5.793   6.420   2.235
  142MYC    H1829164   5.871   0.047   2.227
  142MYC    H1929165   5.844   6.326   2.258
  142MYC    C1029166   5.696   0.008   2.348
  142MYC    H1629167   5.622   6.377   2.360
  142MYC    H1729168   5.640   0.098   2.318
  142MYC     C929169   5.763   0.036   2.484
  142MYC    H1429170   5.837   0.117   2.471
  142MYC    H1529171   5.818   6.397   2.518
  142MYC     C829172   5.659   0.078   2.590
  142MYC    H1229173   5.599   6.441   2.618
  142MYC    H1329174   5.590   0.151   2.544
  142MYC     C729175   5.720   0.143   2.716
  142MYC    H1029176   5.785   0.226   2.685
  142MYC    H1129177   5.783   0.070   2.768
  142MYC     C629178   5.611   0.196   2.812
  142MYC     H829179   5.566   0.112   2.866
  142MYC     H929180   5.531   0.242   2.753
  142MYC     C529181   5.663   0.303   2.911
  142MYC     H629182   5.577   0.352   2.958
  142MYC     H729183   5.714   0.381   2.853
  142MYC     C429184   5.759   0.252   3.021
  142MYC     H429185   5.826   0.335   3.045
  142MYC     H529186   5.822   0.171   2.984
  142MYC     C229187   5.687   0.210   3.152
  142MYC     H229188   5.626   0.296   3.183
  142MYC     O329189   5.602   0.099   3.128
  142MYC     H329190   5.540   0.123   3.058
  142MYC     C129191   5.785   0.180   3.270
  142MYC     H129192   5.865   0.256   3.261
  142MYC    C8129193   5.853   0.042   3.259
  142MYC    O8229194   5.800   6.386   3.288
  142MYC    O8329195   5.979   0.046   3.209
  142MYC   H10529196   6.007   6.402   3.203
  142MYC    C2029197   5.716   0.202   3.406
  142MYC    H3429198   5.674   0.304   3.406
  142MYC    H3529199   5.631   0.133   3.417
  142MYC    C2129200   5.808   0.190   3.529
  142MYC    H3629201   5.827   0.084   3.550
  142MYC    H3729202   5.905   0.237   3.508
  142MYC    C2229203   5.746   0.258   3.653
  142MYC    H3829204   5.733   0.364   3.631
  142MYC    H3929205   5.646   0.217   3.672
  142MYC    C2329206   5.831   0.246   3.781
  142MYC    H4029207   5.937   0.263   3.758
  142MYC    H4129208   5.801   0.327   3.849
  142MYC    C2429209   5.815   0.111   3.855
  142MYC    H4229210   5.709   0.096   3.877
  142MYC    H4329211   5.848   0.028   3.792
  142MYC    C2529212   5.895   0.110   3.987
  142MYC    H4429213   6.001   0.097   3.966
  142MYC    H4529214   5.884   0.207   4.036
  142MYC    C2629215   5.848   0.002   4.087
  142MYC    H4629216   5.740   0.013   4.103
  142MYC    H4729217   5.865   6.351   4.046
  142MYC    C2729218   5.921   0.015   4.223
  142MYC    H4829219   6.021   6.420   4.215
  142MYC    H4929220   5.936   0.122   4.244
  142MYC    C2829221   5.845   6.403   4.342
  142MYC    H5029222   5.742   6.440   4.341
  142MYC    H5129223   5.841   6.294   4.331
  142MYC    C2929224   5.911   6.441   4.476
  142MYC    H5229225   6.011   6.397   4.481
  142MYC    H5329226   5.924   0.100   4.479
  142MYC    C3029227   5.830   6.399   4.600
  142MYC    H5429228   5.729   6.441   4.593
  142MYC    H5529229   5.819   6.289   4.601
  142MYC    C3129230   5.897   6.446   4.730
  142MYC    H5629231   5.998   6.405   4.735
  142MYC    H5729232   5.907   0.106   4.727
  142MYC    C3229233   5.820   6.407   4.857
  142MYC    H5829234   5.719   0.001   4.855
  142MYC    H5929235   5.807   6.298   4.859
  142MYC    C3329236   5.893   0.003   4.985
  142MYC    H6029237   5.995   6.411   4.985
  142MYC    H6129238   5.904   0.112   4.983
  142MYC    C3429239   5.822   6.410   5.115
  142MYC    H6229240   5.721   0.003   5.117
  142MYC    H6329241   5.811   6.301   5.115
  142MYC    C3529242   5.899   0.004   5.240
  142MYC    H6429243   6.002   6.415   5.235
  142MYC    H6529244   5.907   0.114   5.241
  142MYC    C3629245   5.834   6.406   5.371
  142MYC    H6629246   5.733   6.448   5.379
  142MYC    H6729247   5.825   6.297   5.369
  142MYC    C3729248   5.916   6.447   5.496
  142MYC    H6829249   6.017   6.407   5.488
  142MYC    H6929250   5.925   0.107   5.498
  142MYC    C3829251   5.852   6.399   5.628
  142MYC    H7029252   5.750   6.439   5.635
  142MYC    H7129253   5.844   6.289   5.626
  142MYC    C3929254   5.933   6.443   5.752
  142MYC    H7229255   6.034   6.402   5.746
  142MYC    H7329256   5.942   0.102   5.751
  142MYC    C4029257   5.867   6.398   5.884
  142MYC    H7429258   5.763   6.432   5.886
  142MYC    H7529259   5.865   6.288   5.888
  142MYC    C4129260   5.940   0.002   6.009
  142MYC    H7629261   6.045   6.418   6.007
  142MYC    H7729262   5.943   0.112   6.004
  142MYC    C4229263   5.873   6.410   6.142
  142MYC    H7829264   5.838   0.051   6.194
  142MYC    H7929265   5.784   6.350   6.121
  142MYC    C4329266   5.966   6.332   6.236
  142MYC    H8029267   5.908   6.294   6.321
  142MYC    H8129268   6.046   6.396   6.273
  142MYC    H8229269   6.011   6.246   6.184
  143MYC   HH1529270   5.614   1.387   6.215
  143MYC    C8029271   5.671   1.339   6.134
  143MYC   H10029272   5.778   1.359   6.151
  143MYC   H10129273   5.654   1.231   6.140
  143MYC    C7929274   5.626   1.394   5.998
  143MYC   H10229275   5.638   1.503   5.998
  143MYC   H10329276   5.520   1.373   5.983
  143MYC    C7829277   5.707   1.335   5.880
  143MYC   HH1429278   5.694   1.226   5.878
  143MYC   H10429279   5.813   1.354   5.896
  143MYC    C7729280   5.665   1.394   5.744
  143MYC   H10629281   5.663   1.503   5.751
  143MYC   H10729282   5.563   1.361   5.720
  143MYC    C7629283   5.760   1.353   5.629
  143MYC   H10829284   5.761   1.244   5.618
  143MYC   H10929285   5.862   1.384   5.654
  143MYC    C7529286   5.720   1.418   5.495
  143MYC   H11029287   5.713   1.527   5.507
  143MYC   H11129288   5.620   1.382   5.467
  143MYC    C7429289   5.819   1.386   5.381
  143MYC   H11229290   5.823   1.277   5.367
  143MYC   H11329291   5.920   1.419   5.409
  143MYC    C7329292   5.779   1.455   5.248
  143MYC   HH1329293   5.839   1.546   5.236
  143MYC   H11429294   5.674   1.487   5.252
  143MYC    C7229295   5.798   1.365   5.125
  143MYC   H11529296   5.737   1.275   5.137
  143MYC   H11629297   5.903   1.333   5.118
  143MYC    C7129298   5.758   1.436   4.995
  143MYC   H11729299   5.826   1.520   4.977
  143MYC   H11829300   5.657   1.479   5.006
  143MYC    C7029301   5.758   1.343   4.873
  143MYC   H11929302   5.681   1.265   4.887
  143MYC   H12029303   5.855   1.291   4.866
  143MYC    C6929304   5.731   1.418   4.742
  143MYC   H12129305   5.818   1.482   4.720
  143MYC   H12229306   5.644   1.484   4.753
  143MYC    C6829307   5.706   1.323   4.623
  143MYC   HH1229308   5.612   1.270   4.640
  143MYC   H12329309   5.786   1.247   4.620
  143MYC    C6729310   5.701   1.396   4.488
  143MYC   H12429311   5.799   1.443   4.469
  143MYC   H12529312   5.627   1.477   4.493
  143MYC    C6629313   5.667   1.301   4.372
  143MYC   H12629314   5.568   1.258   4.390
  143MYC   H12729315   5.739   1.218   4.371
  143MYC    C6529316   5.669   1.371   4.235
  143MYC   H12829317   5.768   1.415   4.217
  143MYC   H12929318   5.597   1.454   4.236
  143MYC    C6429319   5.634   1.275   4.121
  143MYC   H13029320   5.536   1.228   4.142
  143MYC   H13129321   5.708   1.194   4.118
  143MYC    C6329322   5.628   1.343   3.983
  143MYC   HH1129323   5.726   1.384   3.959
  143MYC   H13229324   5.557   1.427   3.988
  143MYC    C6229325   5.583   1.245   3.873
  143MYC   H13329326   5.486   1.203   3.900
  143MYC   H13429327   5.654   1.162   3.868
  143MYC    C6129328   5.573   1.311   3.735
  143MYC   H13529329   5.672   1.348   3.705
  143MYC   H13629330   5.508   1.399   3.741
  143MYC    C6029331   5.518   1.215   3.630
  143MYC   H13729332   5.415   1.187   3.651
  143MYC    C5829333   5.558   1.229   3.486
  143MYC   H13829334   5.632   1.305   3.463
  143MYC    C5929335   5.605   1.110   3.567
  143MYC   H13929336   5.560   1.013   3.546
  143MYC   H14029337   5.710   1.106   3.595
  143MYC    C5729338   5.455   1.213   3.375
  143MYC   HH1029339   5.395   1.304   3.368
  143MYC   H14129340   5.386   1.131   3.398
  143MYC    C5629341   5.523   1.185   3.240
  143MYC   H14229342   5.580   1.092   3.245
  143MYC   H14329343   5.594   1.266   3.219
  143MYC    C5529344   5.423   1.176   3.123
  143MYC   H14429345   5.361   1.267   3.123
  143MYC   H14529346   5.355   1.091   3.137
  143MYC    C5429347   5.494   1.163   2.987
  143MYC   H14629348   5.535   1.062   2.975
  143MYC   H14729349   5.579   1.232   2.985
  143MYC    C5329350   5.402   1.197   2.867
  143MYC   H14829351   5.349   1.291   2.890
  143MYC   H14929352   5.325   1.119   2.856
  143MYC    C5229353   5.480   1.214   2.735
  143MYC    H9929354   5.507   1.115   2.695
  143MYC   H15029355   5.574   1.266   2.756
  143MYC    C5129356   5.402   1.295   2.630
  143MYC    H9729357   5.365   1.387   2.676
  143MYC    H9829358   5.315   1.238   2.596
  143MYC    C5029359   5.489   1.333   2.508
  143MYC    H9529360   5.511   1.242   2.450
  143MYC    H9629361   5.586   1.370   2.543
  143MYC    C4929362   5.426   1.441   2.418
  143MYC    H9329363   5.489   1.531   2.422
  143MYC    H9429364   5.328   1.472   2.458
  143MYC    C4829365   5.409   1.400   2.270
  143MYC    H9129366   5.336   1.319   2.263
  143MYC    H9229367   5.504   1.361   2.232
  143MYC    C4729368   5.364   1.518   2.182
  143MYC    H8929369   5.436   1.600   2.193
  143MYC    H9029370   5.267   1.556   2.219
  143MYC    C4629371   5.352   1.483   2.032
  143MYC    H8729372   5.278   1.403   2.019
  143MYC    H8829373   5.448   1.444   1.998
  143MYC    C4529374   5.311   1.606   1.947
  143MYC    H8529375   5.380   1.688   1.968
  143MYC    H8629376   5.212   1.638   1.980
  143MYC    C4429377   5.308   1.581   1.795
  143MYC    H8329378   5.254   1.664   1.748
  143MYC    H8429379   5.248   1.491   1.774
  143MYC    C1829380   5.446   1.571   1.731
  143MYC    H3129381   5.506   1.660   1.748
  143MYC    C1729382   5.522   1.441   1.725
  143MYC    H3029383   5.471   1.354   1.765
  143MYC    C1929384   5.465   1.501   1.599
  143MYC    H3229385   5.378   1.453   1.554
  143MYC    H3329386   5.533   1.547   1.527
  143MYC    C1629387   5.673   1.440   1.750
  143MYC    H2829388   5.695   1.494   1.842
  143MYC    H2929389   5.723   1.495   1.670
  143MYC    C1529390   5.734   1.298   1.758
  143MYC    H2629391   5.842   1.306   1.738
  143MYC    H2729392   5.692   1.235   1.679
  143MYC    C1429393   5.714   1.231   1.895
  143MYC    H2429394   5.607   1.221   1.917
  143MYC    H2529395   5.757   1.295   1.974
  143MYC    C1329396   5.781   1.092   1.904
  143MYC    H2229397   5.889   1.103   1.887
  143MYC    H2329398   5.742   1.029   1.823
  143MYC    C1229399   5.756   1.023   2.039
  143MYC    H2029400   5.649   1.005   2.051
  143MYC    H2129401   5.787   1.089   2.120
  143MYC    C1129402   5.831   0.888   2.050
  143MYC    H1829403   5.938   0.907   2.039
  143MYC    H1929404   5.801   0.826   1.965
  143MYC    C1029405   5.804   0.809   2.180
  143MYC    H1629406   5.852   0.710   2.170
  143MYC    H1729407   5.697   0.791   2.189
  143MYC     C929408   5.857   0.876   2.308
  143MYC    H1429409   5.814   0.976   2.317
  143MYC    H1529410   5.966   0.887   2.303
  143MYC     C829411   5.820   0.797   2.435
  143MYC    H1229412   5.862   0.695   2.429
  143MYC    H1329413   5.711   0.786   2.440
  143MYC     C729414   5.869   0.865   2.564
  143MYC    H1029415   5.834   0.969   2.565
  143MYC    H1129416   5.978   0.868   2.564
  143MYC     C629417   5.819   0.795   2.692
  143MYC     H829418   5.850   0.690   2.691
  143MYC     H929419   5.710   0.798   2.695
  143MYC     C529420   5.874   0.864   2.818
  143MYC     H629421   5.845   0.969   2.817
  143MYC     H729422   5.984   0.861   2.815
  143MYC     C429423   5.827   0.799   2.950
  143MYC     H429424   5.856   0.693   2.950
  143MYC     H529425   5.717   0.802   2.955
  143MYC     C229426   5.887   0.869   3.073
  143MYC     H229427   5.995   0.878   3.056
  143MYC     O329428   5.830   1.001   3.083
  143MYC     H329429   5.901   1.062   3.108
  143MYC     C129430   5.870   0.791   3.205
  143MYC     H129431   5.926   0.697   3.192
  143MYC    C8129432   5.723   0.751   3.233
  143MYC    O8229433   5.635   0.829   3.262
  143MYC    O8329434   5.699   0.618   3.227
  143MYC   H10529435   5.605   0.608   3.247
  143MYC    C2029436   5.934   0.866   3.325
  143MYC    H3429437   6.037   0.893   3.299
  143MYC    H3529438   5.879   0.960   3.341
  143MYC    C2129439   5.934   0.786   3.456
  143MYC    H3629440   5.832   0.752   3.478
  143MYC    H3729441   5.996   0.696   3.445
  143MYC    C2229442   5.984   0.870   3.574
  143MYC    H3829443   6.090   0.896   3.560
  143MYC    H3929444   5.928   0.964   3.578
  143MYC    C2329445   5.967   0.797   3.708
  143MYC    H4029446   5.866   0.755   3.714
  143MYC    H4129447   6.038   0.713   3.713
  143MYC    C2429448   5.988   0.890   3.829
  143MYC    H4229449   6.089   0.933   3.827
  143MYC    H4329450   5.917   0.973   3.823
  143MYC    C2529451   5.968   0.815   3.962
  143MYC    H4429452   5.881   0.748   3.954
  143MYC    H4529453   6.055   0.752   3.981
  143MYC    C2629454   5.946   0.910   4.081
  143MYC    H4629455   6.032   0.978   4.089
  143MYC    H4729456   5.857   0.971   4.062
  143MYC    C2729457   5.929   0.834   4.212
  143MYC    H4829458   5.844   0.764   4.204
  143MYC    H4929459   6.018   0.773   4.231
  143MYC    C2829460   5.905   0.927   4.332
  143MYC    H5029461   5.986   1.001   4.337
  143MYC    H5129462   5.811   0.983   4.316
  143MYC    C2929463   5.897   0.850   4.464
  143MYC    H5229464   5.810   0.784   4.463
  143MYC    H5329465   5.986   0.787   4.474
  143MYC    C3029466   5.888   0.944   4.586
  143MYC    H5429467   5.974   1.012   4.586
  143MYC    H5529468   5.797   1.004   4.579
  143MYC    C3129469   5.888   0.865   4.718
  143MYC    H5629470   5.801   0.797   4.719
  143MYC    H5729471   5.978   0.802   4.722
  143MYC    C3229472   5.883   0.955   4.842
  143MYC    H5829473   5.971   1.021   4.842
  143MYC    H5929474   5.794   1.018   4.839
  143MYC    C3329475   5.883   0.871   4.971
  143MYC    H6029476   5.794   0.807   4.971
  143MYC    H6129477   5.970   0.805   4.971
  143MYC    C3429478   5.884   0.956   5.099
  143MYC    H6229479   5.971   1.023   5.098
  143MYC    H6329480   5.794   1.019   5.103
  143MYC    C3529481   5.890   0.866   5.224
  143MYC    H6429482   5.804   0.798   5.223
  143MYC    H6529483   5.980   0.804   5.219
  143MYC    C3629484   5.890   0.944   5.357
  143MYC    H6629485   5.972   1.017   5.356
  143MYC    H6729486   5.796   1.000   5.367
  143MYC    C3729487   5.907   0.849   5.476
  143MYC    H6829488   5.826   0.775   5.476
  143MYC    H6929489   6.001   0.793   5.463
  143MYC    C3829490   5.911   0.920   5.613
  143MYC    H7029491   5.990   0.996   5.612
  143MYC    H7129492   5.816   0.972   5.630
  143MYC    C3929493   5.936   0.820   5.727
  143MYC    H7229494   5.852   0.750   5.733
  143MYC    H7329495   6.025   0.761   5.703
  143MYC    C4029496   5.957   0.887   5.865
  143MYC    H7429497   6.042   0.956   5.858
  143MYC    H7529498   5.869   0.946   5.891
  143MYC    C4129499   5.985   0.783   5.975
  143MYC    H7629500   5.894   0.724   5.992
  143MYC    H7729501   6.062   0.714   5.940
  143MYC    C4229502   6.031   0.845   6.108
  143MYC    H7829503   6.118   0.909   6.090
  143MYC    H7929504   5.952   0.910   6.149
  143MYC    C4329505   6.069   0.739   6.213
  143MYC    H8029506   5.981   0.680   6.242
  143MYC    H8129507   6.112   0.786   6.302
  143MYC    H8229508   6.145   0.670   6.172
  144MYC   HH1529509   5.249   2.056   6.147
  144MYC    C8029510   5.286   2.009   6.055
  144MYC   H10029511   5.387   1.972   6.074
  144MYC   H10129512   5.221   1.924   6.032
  144MYC    C7929513   5.286   2.111   5.939
  144MYC   H10229514   5.357   2.191   5.961
  144MYC   H10329515   5.187   2.157   5.932
  144MYC    C7829516   5.321   2.046   5.804
  144MYC   HH1429517   5.246   1.969   5.781
  144MYC   H10429518   5.418   1.995   5.811
  144MYC    C7729519   5.326   2.148   5.687
  144MYC   H10629520   5.411   2.216   5.703
  144MYC   H10729521   5.235   2.209   5.687
  144MYC    C7629522   5.340   2.078   5.551
  144MYC   H10829523   5.252   2.015   5.534
  144MYC   H10929524   5.428   2.012   5.553
  144MYC    C7529525   5.355   2.176   5.433
  144MYC   H11029526   5.448   2.233   5.445
  144MYC   H11129527   5.272   2.248   5.434
  144MYC    C7429528   5.357   2.102   5.298
  144MYC   H11229529   5.260   2.054   5.282
  144MYC   H11329530   5.433   2.023   5.302
  144MYC    C7329531   5.389   2.194   5.179
  144MYC   HH1329532   5.485   2.244   5.195
  144MYC   H11429533   5.312   2.272   5.171
  144MYC    C7229534   5.395   2.115   5.047
  144MYC   H11529535   5.299   2.065   5.031
  144MYC   H11629536   5.471   2.037   5.055
  144MYC    C7129537   5.426   2.204   4.925
  144MYC   H11729538   5.524   2.250   4.937
  144MYC   H11829539   5.352   2.284   4.919
  144MYC    C7029540   5.423   2.123   4.794
  144MYC   H11929541   5.328   2.067   4.788
  144MYC   H12029542   5.504   2.048   4.796
  144MYC    C6929543   5.438   2.210   4.669
  144MYC   H12129544   5.534   2.263   4.671
  144MYC   H12229545   5.359   2.286   4.668
  144MYC    C6829546   5.428   2.127   4.540
  144MYC   HH1229547   5.334   2.071   4.540
  144MYC   H12329548   5.510   2.054   4.537
  144MYC    C6729549   5.434   2.213   4.413
  144MYC   H12429550   5.527   2.271   4.411
  144MYC   H12529551   5.351   2.286   4.415
  144MYC    C6629552   5.423   2.129   4.285
  144MYC   H12629553   5.333   2.067   4.290
  144MYC   H12729554   5.509   2.061   4.278
  144MYC    C6529555   5.417   2.215   4.158
  144MYC   H12829556   5.509   2.273   4.148
  144MYC   H12929557   5.334   2.287   4.168
  144MYC    C6429558   5.395   2.132   4.031
  144MYC   H13029559   5.312   2.062   4.048
  144MYC   H13129560   5.484   2.071   4.011
  144MYC    C6329561   5.362   2.219   3.909
  144MYC   HH1129562   5.448   2.283   3.886
  144MYC   H13229563   5.279   2.286   3.934
  144MYC    C6229564   5.324   2.137   3.785
  144MYC   H13329565   5.246   2.065   3.811
  144MYC   H13429566   5.412   2.079   3.752
  144MYC    C6129567   5.275   2.226   3.670
  144MYC   H13529568   5.353   2.299   3.647
  144MYC   H13629569   5.187   2.283   3.703
  144MYC    C6029570   5.239   2.146   3.546
  144MYC   H13729571   5.146   2.091   3.557
  144MYC    C5829572   5.270   2.205   3.411
  144MYC   H13829573   5.326   2.298   3.411
  144MYC    C5929574   5.345   2.083   3.460
  144MYC   H13929575   5.323   1.987   3.413
  144MYC   H14029576   5.449   2.097   3.488
  144MYC    C5729577   5.173   2.196   3.295
  144MYC   HH1029578   5.102   2.279   3.300
  144MYC   H14129579   5.115   2.103   3.299
  144MYC    C5629580   5.251   2.203   3.163
  144MYC   H14229581   5.317   2.116   3.157
  144MYC   H14329582   5.315   2.291   3.165
  144MYC    C5529583   5.163   2.208   3.038
  144MYC   H14429584   5.090   2.290   3.046
  144MYC   H14529585   5.107   2.114   3.028
  144MYC    C5429586   5.251   2.230   2.914
  144MYC   H14629587   5.328   2.151   2.912
  144MYC   H14729588   5.304   2.325   2.924
  144MYC    C5329589   5.175   2.229   2.781
  144MYC   H14829590   5.103   2.312   2.778
  144MYC   H14929591   5.118   2.135   2.773
  144MYC    C5229592   5.273   2.239   2.663
  144MYC    H9929593   5.345   2.157   2.672
  144MYC   H15029594   5.331   2.332   2.672
  144MYC    C5129595   5.206   2.233   2.526
  144MYC    H9729596   5.156   2.328   2.504
  144MYC    H9829597   5.129   2.155   2.526
  144MYC    C5029598   5.309   2.200   2.416
  144MYC    H9529599   5.357   2.105   2.441
  144MYC    H9629600   5.388   2.277   2.415
  144MYC    C4929601   5.248   2.190   2.276
  144MYC    H9329602   5.224   2.291   2.242
  144MYC    H9429603   5.154   2.133   2.282
  144MYC    C4829604   5.342   2.120   2.176
  144MYC    H9129605   5.362   2.018   2.211
  144MYC    H9229606   5.438   2.173   2.174
  144MYC    C4729607   5.284   2.114   2.034
  144MYC    H8929608   5.283   2.216   1.993
  144MYC    H9029609   5.180   2.079   2.038
  144MYC    C4629610   5.364   2.024   1.939
  144MYC    H8729611   5.352   1.919   1.971
  144MYC    H8829612   5.470   2.047   1.947
  144MYC    C4529613   5.318   2.037   1.793
  144MYC    H8529614   5.307   2.143   1.767
  144MYC    H8629615   5.219   1.991   1.783
  144MYC    C4429616   5.413   1.971   1.692
  144MYC    H8329617   5.357   1.941   1.603
  144MYC    H8429618   5.452   1.879   1.736
  144MYC    C1829619   5.529   2.062   1.651
  144MYC    H3129620   5.551   2.141   1.722
  144MYC    C1729621   5.648   1.998   1.584
  144MYC    H3029622   5.638   1.892   1.565
  144MYC    C1929623   5.559   2.091   1.506
  144MYC    H3229624   5.495   2.047   1.430
  144MYC    H3329625   5.597   2.190   1.481
  144MYC    C1629626   5.791   2.037   1.619
  144MYC    H2829627   5.800   2.145   1.635
  144MYC    H2929628   5.856   2.013   1.535
  144MYC    C1529629   5.846   1.962   1.743
  144MYC    H2629630   5.955   1.974   1.745
  144MYC    H2729631   5.825   1.855   1.731
  144MYC    C1429632   5.788   2.010   1.877
  144MYC    H2429633   5.681   1.990   1.878
  144MYC    H2529634   5.802   2.118   1.886
  144MYC    C1329635   5.853   1.940   1.998
  144MYC    H2229636   5.960   1.965   2.002
  144MYC    H2329637   5.845   1.832   1.985
  144MYC    C1229638   5.786   1.979   2.132
  144MYC    H2029639   5.681   1.947   2.129
  144MYC    H2129640   5.786   2.089   2.141
  144MYC    C1129641   5.857   1.918   2.254
  144MYC    H1829642   5.952   1.969   2.271
  144MYC    H1929643   5.880   1.813   2.233
  144MYC    C1029644   5.773   1.921   2.384
  144MYC    H1629645   5.831   1.874   2.464
  144MYC    H1729646   5.683   1.859   2.370
  144MYC     C929647   5.730   2.063   2.430
  144MYC    H1429648   5.675   2.111   2.348
  144MYC    H1529649   5.818   2.124   2.450
  144MYC     C829650   5.637   2.062   2.553
  144MYC    H1229651   5.553   1.995   2.533
  144MYC    H1329652   5.595   2.162   2.565
  144MYC     C729653   5.704   2.021   2.686
  144MYC    H1029654   5.781   2.094   2.712
  144MYC    H1129655   5.754   1.924   2.676
  144MYC     C629656   5.600   2.013   2.800
  144MYC     H829657   5.524   1.938   2.774
  144MYC     H929658   5.548   2.109   2.805
  144MYC     C529659   5.655   1.981   2.940
  144MYC     H629660   5.574   2.002   3.010
  144MYC     H729661   5.736   2.052   2.965
  144MYC     C429662   5.706   1.837   2.963
  144MYC     H429663   5.808   1.828   2.924
  144MYC     H529664   5.644   1.767   2.905
  144MYC     C229665   5.702   1.796   3.113
  144MYC     H229666   5.753   1.875   3.170
  144MYC     O329667   5.565   1.790   3.155
  144MYC     H329668   5.516   1.740   3.089
  144MYC     C129669   5.775   1.662   3.148
  144MYC     H129670   5.883   1.683   3.142
  144MYC    C8129671   5.749   1.550   3.045
  144MYC    O8229672   5.837   1.498   2.978
  144MYC    O8329673   5.620   1.510   3.035
  144MYC   H10529674   5.620   1.438   2.970
  144MYC    C2029675   5.747   1.610   3.293
  144MYC    H3429676   5.642   1.580   3.301
  144MYC    H3529677   5.806   1.519   3.308
  144MYC    C2129678   5.780   1.709   3.407
  144MYC    H3629679   5.886   1.738   3.402
  144MYC    H3729680   5.721   1.801   3.395
  144MYC    C2229681   5.750   1.649   3.547
  144MYC    H3829682   5.644   1.618   3.550
  144MYC    H3929683   5.810   1.559   3.561
  144MYC    C2329684   5.776   1.747   3.664
  144MYC    H4029685   5.880   1.781   3.659
  144MYC    H4129686   5.712   1.835   3.652
  144MYC    C2429687   5.750   1.682   3.802
  144MYC    H4229688   5.646   1.646   3.806
  144MYC    H4329689   5.814   1.594   3.813
  144MYC    C2529690   5.774   1.778   3.921
  144MYC    H4429691   5.877   1.815   3.916
  144MYC    H4529692   5.708   1.864   3.911
  144MYC    C2629693   5.751   1.711   4.058
  144MYC    H4629694   5.649   1.672   4.062
  144MYC    H4729695   5.818   1.625   4.068
  144MYC    C2729696   5.774   1.807   4.177
  144MYC    H4829697   5.875   1.848   4.171
  144MYC    H4929698   5.705   1.892   4.168
  144MYC    C2829699   5.755   1.740   4.315
  144MYC    H5029700   5.654   1.697   4.321
  144MYC    H5129701   5.825   1.656   4.324
  144MYC    C2929702   5.775   1.837   4.433
  144MYC    H5229703   5.874   1.885   4.423
  144MYC    H5329704   5.701   1.917   4.427
  144MYC    C3029705   5.766   1.769   4.571
  144MYC    H5429706   5.668   1.719   4.580
  144MYC    H5529707   5.842   1.691   4.577
  144MYC    C3129708   5.784   1.867   4.689
  144MYC    H5629709   5.878   1.921   4.677
  144MYC    H5729710   5.703   1.942   4.686
  144MYC    C3229711   5.783   1.796   4.826
  144MYC    H5829712   5.692   1.736   4.835
  144MYC    H5929713   5.868   1.726   4.830
  144MYC    C3329714   5.790   1.892   4.947
  144MYC    H6029715   5.879   1.956   4.937
  144MYC    H6129716   5.703   1.958   4.946
  144MYC    C3429717   5.796   1.817   5.082
  144MYC    H6229718   5.712   1.747   5.087
  144MYC    H6329719   5.888   1.756   5.085
  144MYC    C3529720   5.792   1.909   5.206
  144MYC    H6429721   5.878   1.977   5.203
  144MYC    H6529722   5.701   1.970   5.202
  144MYC    C3629723   5.795   1.829   5.338
  144MYC    H6629724   5.712   1.757   5.338
  144MYC    H6729725   5.888   1.771   5.343
  144MYC    C3729726   5.784   1.917   5.464
  144MYC    H6829727   5.869   1.986   5.468
  144MYC    H6929728   5.693   1.979   5.456
  144MYC    C3829729   5.777   1.836   5.595
  144MYC    H7029730   5.691   1.768   5.591
  144MYC    H7129731   5.867   1.773   5.603
  144MYC    C3929732   5.766   1.925   5.720
  144MYC    H7229733   5.853   1.991   5.725
  144MYC    H7329734   5.678   1.990   5.710
  144MYC    C4029735   5.754   1.846   5.852
  144MYC    H7429736   5.664   1.783   5.849
  144MYC    H7529737   5.840   1.778   5.861
  144MYC    C4129738   5.749   1.938   5.976
  144MYC    H7629739   5.843   1.995   5.982
  144MYC    H7729740   5.668   2.011   5.963
  144MYC    C4229741   5.727   1.862   6.109
  144MYC    H7829742   5.630   1.812   6.106
  144MYC    H7929743   5.804   1.785   6.120
  144MYC    C4329744   5.732   1.956   6.231
  144MYC    H8029745   5.703   1.901   6.322
  144MYC    H8129746   5.663   2.040   6.219
  144MYC    H8229747   5.833   1.995   6.246
  145MYC   HH1529748   5.457   3.091   6.197
  145MYC    C8029749   5.496   3.048   6.104
  145MYC   H10029750   5.606   3.050   6.108
  145MYC   H10129751   5.463   2.944   6.097
  145MYC    C7929752   5.446   3.129   5.983
  145MYC   H10229753   5.478   3.233   5.994
  145MYC   H10329754   5.336   3.129   5.982
  145MYC    C7829755   5.498   3.075   5.848
  145MYC   HH1429756   5.470   2.969   5.839
  145MYC   H10429757   5.607   3.080   5.846
  145MYC    C7729758   5.441   3.151   5.727
  145MYC   H10629759   5.469   3.257   5.734
  145MYC   H10729760   5.331   3.147   5.730
  145MYC    C7629761   5.489   3.095   5.592
  145MYC   H10829762   5.472   2.987   5.590
  145MYC   H10929763   5.598   3.111   5.583
  145MYC    C7529764   5.418   3.160   5.472
  145MYC   H11029765   5.441   3.267   5.467
  145MYC   H11129766   5.309   3.151   5.486
  145MYC    C7429767   5.456   3.093   5.338
  145MYC   H11229768   5.444   2.985   5.347
  145MYC   H11329769   5.562   3.112   5.317
  145MYC    C7329770   5.371   3.143   5.220
  145MYC   HH1329771   5.391   3.250   5.203
  145MYC   H11429772   5.265   3.134   5.246
  145MYC    C7229773   5.397   3.063   5.091
  145MYC   H11529774   5.373   2.958   5.108
  145MYC   H11629775   5.504   3.068   5.067
  145MYC    C7129776   5.317   3.115   4.971
  145MYC   H11729777   5.345   3.219   4.951
  145MYC   H11829778   5.210   3.115   4.995
  145MYC    C7029779   5.340   3.029   4.845
  145MYC   H11929780   5.284   2.935   4.854
  145MYC   H12029781   5.446   3.003   4.838
  145MYC    C6929782   5.299   3.101   4.715
  145MYC   H12129783   5.354   3.196   4.709
  145MYC   H12229784   5.192   3.125   4.718
  145MYC    C6829785   5.330   3.017   4.590
  145MYC   HH1229786   5.261   2.932   4.586
  145MYC   H12329787   5.431   2.975   4.598
  145MYC    C6729788   5.321   3.099   4.460
  145MYC   H12429789   5.388   3.185   4.467
  145MYC   H12529790   5.219   3.138   4.449
  145MYC    C6629791   5.358   3.016   4.337
  145MYC   H12629792   5.287   2.932   4.327
  145MYC   H12729793   5.458   2.973   4.350
  145MYC    C6529794   5.356   3.099   4.208
  145MYC   H12829795   5.429   3.180   4.216
  145MYC   H12929796   5.257   3.146   4.197
  145MYC    C6429797   5.386   3.015   4.083
  145MYC   H13029798   5.308   2.938   4.072
  145MYC   H13129799   5.482   2.963   4.095
  145MYC    C6329800   5.391   3.101   3.956
  145MYC   HH1129801   5.476   3.169   3.961
  145MYC   H13229802   5.300   3.162   3.950
  145MYC    C6229803   5.401   3.015   3.828
  145MYC   H13329804   5.313   2.951   3.821
  145MYC   H13429805   5.489   2.950   3.834
  145MYC    C6129806   5.410   3.102   3.702
  145MYC   H13529807   5.503   3.161   3.705
  145MYC   H13629808   5.327   3.174   3.702
  145MYC    C6029809   5.404   3.020   3.575
  145MYC   H13729810   5.317   2.954   3.573
  145MYC    C5829811   5.445   3.080   3.444
  145MYC   H13829812   5.490   3.180   3.447
  145MYC    C5929813   5.528   2.969   3.505
  145MYC   H13929814   5.523   2.871   3.459
  145MYC   H14029815   5.624   2.995   3.547
  145MYC    C5729816   5.359   3.058   3.321
  145MYC   HH1029817   5.285   3.139   3.313
  145MYC   H14129818   5.303   2.965   3.329
  145MYC    C5629819   5.444   3.054   3.193
  145MYC   H14229820   5.515   2.971   3.200
  145MYC   H14329821   5.502   3.147   3.186
  145MYC    C5529822   5.359   3.039   3.066
  145MYC   H14429823   5.302   3.132   3.051
  145MYC   H14529824   5.287   2.958   3.078
  145MYC    C5429825   5.446   3.012   2.942
  145MYC   H14629826   5.489   2.911   2.950
  145MYC   H14729827   5.530   3.083   2.940
  145MYC    C5329828   5.367   3.024   2.811
  145MYC   H14829829   5.325   3.125   2.805
  145MYC   H14929830   5.282   2.954   2.812
  145MYC    C5229831   5.453   2.999   2.687
  145MYC    H9929832   5.492   2.896   2.689
  145MYC   H15029833   5.540   3.066   2.688
  145MYC    C5129834   5.373   3.021   2.558
  145MYC    H9729835   5.333   3.123   2.559
  145MYC    H9829836   5.288   2.952   2.555
  145MYC    C5029837   5.458   3.003   2.431
  145MYC    H9529838   5.501   2.902   2.428
  145MYC    H9629839   5.541   3.074   2.433
  145MYC    C4929840   5.374   3.027   2.305
  145MYC    H9329841   5.325   3.125   2.313
  145MYC    H9429842   5.294   2.952   2.299
  145MYC    C4829843   5.457   3.024   2.176
  145MYC    H9129844   5.504   2.926   2.164
  145MYC    H9229845   5.537   3.098   2.184
  145MYC    C4729846   5.371   3.056   2.053
  145MYC    H8929847   5.324   3.154   2.067
  145MYC    H9029848   5.290   2.983   2.044
  145MYC    C4629849   5.451   3.058   1.922
  145MYC    H8729850   5.472   2.955   1.892
  145MYC    H8829851   5.548   3.108   1.940
  145MYC    C4529852   5.378   3.134   1.810
  145MYC    H8529853   5.383   3.241   1.830
  145MYC    H8629854   5.271   3.107   1.810
  145MYC    C4429855   5.434   3.106   1.669
  145MYC    H8329856   5.397   3.182   1.600
  145MYC    H8429857   5.393   3.011   1.635
  145MYC    C1829858   5.586   3.099   1.662
  145MYC    H3129859   5.635   3.186   1.706
  145MYC    C1729860   5.660   2.967   1.667
  145MYC    H3029861   5.600   2.876   1.673
  145MYC    C1929862   5.650   3.044   1.539
  145MYC    H3229863   5.583   3.009   1.461
  145MYC    H3329864   5.741   3.091   1.504
  145MYC    C1629865   5.796   2.955   1.736
  145MYC    H2829866   5.804   3.033   1.813
  145MYC    H2929867   5.875   2.979   1.663
  145MYC    C1529868   5.830   2.818   1.798
  145MYC    H2629869   5.927   2.827   1.848
  145MYC    H2729870   5.843   2.744   1.718
  145MYC    C1429871   5.726   2.764   1.899
  145MYC    H2429872   5.637   2.731   1.845
  145MYC    H2529873   5.695   2.844   1.966
  145MYC    C1329874   5.779   2.646   1.983
  145MYC    H2229875   5.873   2.676   2.032
  145MYC    H2329876   5.802   2.562   1.917
  145MYC    C1229877   5.678   2.603   2.090
  145MYC    H2029878   5.583   2.577   2.042
  145MYC    H2129879   5.659   2.688   2.157
  145MYC    C1129880   5.726   2.482   2.173
  145MYC    H1829881   5.821   2.506   2.223
  145MYC    H1929882   5.747   2.398   2.107
  145MYC    C1029883   5.623   2.439   2.280
  145MYC    H1629884   5.654   2.341   2.320
  145MYC    H1729885   5.525   2.423   2.233
  145MYC     C929886   5.609   2.541   2.395
  145MYC    H1429887   5.513   2.591   2.388
  145MYC    H1529888   5.685   2.620   2.385
  145MYC     C829889   5.625   2.478   2.535
  145MYC    H1229890   5.715   2.414   2.535
  145MYC    H1329891   5.540   2.412   2.556
  145MYC     C729892   5.639   2.583   2.646
  145MYC    H1029893   5.547   2.643   2.652
  145MYC    H1129894   5.721   2.651   2.620
  145MYC     C629895   5.669   2.519   2.783
  145MYC     H829896   5.751   2.448   2.771
  145MYC     H929897   5.581   2.462   2.815
  145MYC     C529898   5.708   2.623   2.890
  145MYC     H629899   5.626   2.694   2.907
  145MYC     H729900   5.793   2.682   2.851
  145MYC     C429901   5.753   2.559   3.023
  145MYC     H429902   5.826   2.627   3.069
  145MYC     H529903   5.806   2.466   3.002
  145MYC     C229904   5.642   2.534   3.129
  145MYC     H229905   5.623   2.631   3.177
  145MYC     O329906   5.521   2.489   3.067
  145MYC     H329907   5.532   2.394   3.048
  145MYC     C129908   5.690   2.433   3.238
  145MYC     H129909   5.790   2.463   3.269
  145MYC    C8129910   5.702   2.288   3.186
  145MYC    O8229911   5.610   2.227   3.134
  145MYC    O8329912   5.813   2.224   3.229
  145MYC   H10529913   5.799   2.131   3.205
  145MYC    C2029914   5.601   2.434   3.364
  145MYC    H3429915   5.495   2.435   3.336
  145MYC    H3529916   5.618   2.340   3.418
  145MYC    C2129917   5.631   2.551   3.461
  145MYC    H3629918   5.739   2.569   3.465
  145MYC    H3729919   5.583   2.643   3.424
  145MYC    C2229920   5.581   2.518   3.602
  145MYC    H3829921   5.472   2.505   3.601
  145MYC    H3929922   5.624   2.422   3.632
  145MYC    C2329923   5.619   2.623   3.709
  145MYC    H4029924   5.723   2.656   3.695
  145MYC    H4129925   5.554   2.711   3.698
  145MYC    C2429926   5.604   2.562   3.849
  145MYC    H4229927   5.506   2.515   3.857
  145MYC    H4329928   5.679   2.483   3.860
  145MYC    C2529929   5.619   2.662   3.965
  145MYC    H4429930   5.713   2.717   3.956
  145MYC    H4529931   5.537   2.735   3.961
  145MYC    C2629932   5.616   2.586   4.099
  145MYC    H4629933   5.530   2.518   4.099
  145MYC    H4729934   5.706   2.524   4.106
  145MYC    C2729935   5.607   2.677   4.222
  145MYC    H4829936   5.691   2.747   4.223
  145MYC    H4929937   5.515   2.736   4.218
  145MYC    C2829938   5.608   2.592   4.350
  145MYC    H5029939   5.523   2.523   4.348
  145MYC    H5129940   5.699   2.531   4.351
  145MYC    C2929941   5.602   2.675   4.479
  145MYC    H5229942   5.686   2.746   4.481
  145MYC    H5329943   5.509   2.733   4.482
  145MYC    C3029944   5.610   2.583   4.602
  145MYC    H5429945   5.524   2.515   4.602
  145MYC    H5529946   5.700   2.521   4.595
  145MYC    C3129947   5.615   2.660   4.735
  145MYC    H5629948   5.703   2.725   4.737
  145MYC    H5729949   5.526   2.724   4.744
  145MYC    C3229950   5.620   2.563   4.854
  145MYC    H5829951   5.531   2.499   4.853
  145MYC    H5929952   5.707   2.496   4.843
  145MYC    C3329953   5.630   2.634   4.990
  145MYC    H6029954   5.721   2.696   4.992
  145MYC    H6129955   5.544   2.702   5.002
  145MYC    C3429956   5.633   2.534   5.106
  145MYC    H6229957   5.545   2.469   5.100
  145MYC    H6329958   5.722   2.470   5.097
  145MYC    C3529959   5.635   2.603   5.244
  145MYC    H6429960   5.724   2.668   5.251
  145MYC    H6529961   5.547   2.667   5.253
  145MYC    C3629962   5.637   2.502   5.359
  145MYC    H6629963   5.556   2.430   5.345
  145MYC    H6729964   5.731   2.445   5.356
  145MYC    C3729965   5.622   2.569   5.497
  145MYC    H6829966   5.699   2.646   5.509
  145MYC    H6929967   5.525   2.620   5.500
  145MYC    C3829968   5.631   2.468   5.613
  145MYC    H7029969   5.564   2.383   5.593
  145MYC    H7129970   5.733   2.428   5.618
  145MYC    C3929971   5.593   2.531   5.748
  145MYC    H7229972   5.651   2.623   5.763
  145MYC    H7329973   5.487   2.560   5.745
  145MYC    C4029974   5.616   2.436   5.867
  145MYC    H7429975   5.568   2.339   5.847
  145MYC    H7529976   5.723   2.418   5.878
  145MYC    C4129977   5.560   2.493   5.999
  145MYC    H7629978   5.594   2.596   6.012
  145MYC    H7729979   5.450   2.497   5.993
  145MYC    C4229980   5.601   2.410   6.123
  145MYC    H7829981   5.572   2.305   6.108
  145MYC    H7929982   5.710   2.412   6.132
  145MYC    C4329983   5.538   2.462   6.253
  145MYC    H8029984   5.576   2.405   6.339
  145MYC    H8129985   5.429   2.451   6.251
  145MYC    H8229986   5.562   2.568   6.269
  146MYC   HH1529987   5.342   3.492   6.238
  146MYC    C8029988   5.399   3.505   6.146
  146MYC   H10029989   5.447   3.604   6.149
  146MYC   H10129990   5.478   3.429   6.144
  146MYC    C7929991   5.307   3.492   6.024
  146MYC   H10229992   5.224   3.563   6.035
  146MYC   H10329993   5.263   3.392   6.022
  146MYC    C7829994   5.379   3.520   5.890
  146MYC   HH1429995   5.463   3.451   5.879
  146MYC   H10429996   5.420   3.621   5.891
  146MYC    C7729997   5.285   3.504   5.769
  146MYC   H10629998   5.195   3.565   5.785
  146MYC   H10729999   5.251   3.400   5.763
  146MYC    C7630000   5.349   3.544   5.635
  146MYC   H10830001   5.435   3.479   5.615
  146MYC   H10930002   5.388   3.647   5.643
  146MYC    C7530003   5.250   3.536   5.518
  146MYC   H11030004   5.161   3.595   5.542
  146MYC   H11130005   5.216   3.432   5.507
  146MYC    C7430006   5.308   3.584   5.384
  146MYC   H11230007   5.392   3.519   5.357
  146MYC   H11330008   5.348   3.686   5.396
  146MYC    C7330009   5.203   3.583   5.272
  146MYC   HH1330010   5.121   3.650   5.297
  146MYC   H11430011   5.161   3.482   5.264
  146MYC    C7230012   5.263   3.623   5.135
  146MYC   H11530013   5.351   3.560   5.117
  146MYC   H11630014   5.297   3.727   5.139
  146MYC    C7130015   5.163   3.605   5.019
  146MYC   H11730016   5.085   3.682   5.025
  146MYC   H11830017   5.114   3.508   5.029
  146MYC    C7030018   5.234   3.611   4.883
  146MYC   H11930019   5.316   3.537   4.883
  146MYC   H12030020   5.280   3.709   4.869
  146MYC    C6930021   5.142   3.581   4.764
  146MYC   H12130022   5.076   3.667   4.746
  146MYC   H12230023   5.078   3.494   4.787
  146MYC    C6830024   5.223   3.550   4.637
  146MYC   HH1230025   5.279   3.456   4.652
  146MYC   H12330026   5.297   3.629   4.622
  146MYC    C6730027   5.138   3.537   4.510
  146MYC   H12430028   5.081   3.630   4.496
  146MYC   H12530029   5.065   3.456   4.522
  146MYC    C6630030   5.225   3.510   4.386
  146MYC   H12630031   5.269   3.410   4.394
  146MYC   H12730032   5.309   3.581   4.385
  146MYC    C6530033   5.148   3.523   4.254
  146MYC   H12830034   5.099   3.621   4.250
  146MYC   H12930035   5.069   3.447   4.251
  146MYC    C6430036   5.240   3.508   4.132
  146MYC   H13030037   5.290   3.410   4.136
  146MYC   H13130038   5.319   3.584   4.138
  146MYC    C6330039   5.166   3.523   3.999
  146MYC   HH1130040   5.113   3.619   3.997
  146MYC   H13230041   5.090   3.444   3.992
  146MYC    C6230042   5.261   3.514   3.879
  146MYC   H13330043   5.319   3.421   3.885
  146MYC   H13430044   5.333   3.597   3.883
  146MYC    C6130045   5.187   3.518   3.744
  146MYC   H13530046   5.132   3.613   3.735
  146MYC   H13630047   5.112   3.438   3.742
  146MYC    C6030048   5.282   3.501   3.627
  146MYC   H13730049   5.333   3.405   3.629
  146MYC    C5830050   5.250   3.557   3.491
  146MYC   H13830051   5.159   3.616   3.483
  146MYC    C5930052   5.362   3.618   3.573
  146MYC   H13930053   5.464   3.597   3.544
  146MYC   H14030054   5.345   3.716   3.617
  146MYC    C5730055   5.278   3.476   3.366
  146MYC   HH1030056   5.199   3.401   3.352
  146MYC   H14130057   5.372   3.420   3.378
  146MYC    C5630058   5.288   3.564   3.241
  146MYC   H14230059   5.368   3.638   3.254
  146MYC   H14330060   5.194   3.620   3.229
  146MYC    C5530061   5.313   3.483   3.112
  146MYC   H14430062   5.228   3.415   3.095
  146MYC   H14530063   5.402   3.420   3.125
  146MYC    C5430064   5.333   3.573   2.989
  146MYC   H14630065   5.429   3.626   2.999
  146MYC   H14730066   5.255   3.650   2.987
  146MYC    C5330067   5.330   3.495   2.857
  146MYC   H14830068   5.235   3.441   2.849
  146MYC   H14930069   5.410   3.420   2.858
  146MYC    C5230070   5.347   3.586   2.733
  146MYC    H9930071   5.443   3.638   2.740
  146MYC   H15030072   5.269   3.663   2.733
  146MYC    C5130073   5.339   3.506   2.601
  146MYC    H9730074   5.236   3.472   2.587
  146MYC    H9830075   5.400   3.415   2.611
  146MYC    C5030076   5.389   3.584   2.477
  146MYC    H9530077   5.467   3.523   2.430
  146MYC    H9630078   5.437   3.678   2.506
  146MYC    C4930079   5.279   3.614   2.372
  146MYC    H9330080   5.219   3.699   2.403
  146MYC    H9430081   5.212   3.528   2.366
  146MYC    C4830082   5.339   3.639   2.231
  146MYC    H9130083   5.403   3.553   2.206
  146MYC    H9230084   5.404   3.726   2.234
  146MYC    C4730085   5.235   3.657   2.119
  146MYC    H8930086   5.198   3.760   2.118
  146MYC    H9030087   5.148   3.594   2.139
  146MYC    C4630088   5.291   3.620   1.980
  146MYC    H8730089   5.337   3.520   1.986
  146MYC    H8830090   5.371   3.690   1.953
  146MYC    C4530091   5.184   3.618   1.869
  146MYC    H8530092   5.157   3.721   1.843
  146MYC    H8630093   5.093   3.570   1.908
  146MYC    C4430094   5.228   3.542   1.741
  146MYC    H8330095   5.143   3.542   1.671
  146MYC    H8430096   5.246   3.437   1.766
  146MYC    C1830097   5.349   3.602   1.672
  146MYC    H3130098   5.367   3.706   1.698
  146MYC    C1730099   5.470   3.517   1.638
  146MYC    H3030100   5.466   3.410   1.657
  146MYC    C1930101   5.380   3.567   1.528
  146MYC    H3230102   5.315   3.494   1.479
  146MYC    H3330103   5.416   3.646   1.463
  146MYC    C1630104   5.610   3.575   1.652
  146MYC    H2830105   5.605   3.681   1.677
  146MYC    H2930106   5.660   3.570   1.554
  146MYC    C1530107   5.701   3.504   1.754
  146MYC    H2630108   5.791   3.566   1.764
  146MYC    H2730109   5.734   3.408   1.714
  146MYC    C1430110   5.644   3.481   1.896
  146MYC    H2430111   5.575   3.396   1.895
  146MYC    H2530112   5.587   3.570   1.928
  146MYC    C1330113   5.757   3.456   1.999
  146MYC    H2230114   5.805   3.552   2.022
  146MYC    H2330115   5.834   3.394   1.951
  146MYC    C1230116   5.715   3.385   2.130
  146MYC    H2030117   5.683   3.284   2.106
  146MYC    H2130118   5.629   3.435   2.175
  146MYC    C1130119   5.834   3.380   2.231
  146MYC    H1830120   5.855   3.480   2.270
  146MYC    H1930121   5.923   3.350   2.175
  146MYC    C1030122   5.819   3.280   2.348
  146MYC    H1630123   5.917   3.266   2.393
  146MYC    H1730124   5.790   3.183   2.307
  146MYC     C930125   5.719   3.316   2.460
  146MYC    H1430126   5.715   3.230   2.528
  146MYC    H1530127   5.618   3.326   2.419
  146MYC     C830128   5.754   3.442   2.543
  146MYC    H1230129   5.717   3.531   2.490
  146MYC    H1330130   5.863   3.454   2.548
  146MYC     C730131   5.696   3.441   2.686
  146MYC    H1030132   5.613   3.370   2.692
  146MYC    H1130133   5.654   3.540   2.709
  146MYC     C630134   5.801   3.406   2.794
  146MYC     H830135   5.872   3.489   2.800
  146MYC     H930136   5.857   3.318   2.763
  146MYC     C530137   5.742   3.380   2.935
  146MYC     H630138   5.683   3.288   2.933
  146MYC     H730139   5.674   3.462   2.963
  146MYC     C430140   5.854   3.370   3.041
  146MYC     H430141   5.906   3.466   3.045
  146MYC     H530142   5.928   3.296   3.006
  146MYC     C230143   5.808   3.332   3.184
  146MYC     H230144   5.723   3.396   3.210
  146MYC     O330145   5.768   3.195   3.186
  146MYC     H330146   5.738   3.171   3.097
  146MYC     C130147   5.921   3.357   3.289
  146MYC     H130148   5.942   3.464   3.282
  146MYC    C8130149   6.051   3.281   3.252
  146MYC    O8230150   6.066   3.161   3.263
  146MYC    O8330151   6.149   3.360   3.203
  146MYC   H10530152   6.224   3.300   3.183
  146MYC    C2030153   5.879   3.329   3.436
  146MYC    H3430154   5.781   3.374   3.456
  146MYC    H3530155   5.869   3.221   3.451
  146MYC    C2130156   5.982   3.386   3.537
  146MYC    H3630157   6.084   3.367   3.500
  146MYC    H3730158   5.971   3.495   3.542
  146MYC    C2230159   5.975   3.327   3.680
  146MYC    H3830160   5.965   3.218   3.674
  146MYC    H3930161   6.072   3.346   3.728
  146MYC    C2330162   5.864   3.385   3.769
  146MYC    H4030163   5.878   3.494   3.778
  146MYC    H4130164   5.766   3.369   3.723
  146MYC    C2430165   5.866   3.324   3.910
  146MYC    H4230166   5.843   3.216   3.903
  146MYC    H4330167   5.967   3.332   3.951
  146MYC    C2530168   5.767   3.390   4.008
  146MYC    H4430169   5.789   3.498   4.013
  146MYC    H4530170   5.665   3.379   3.971
  146MYC    C2630171   5.778   3.331   4.150
  146MYC    H4630172   5.750   3.225   4.148
  146MYC    H4730173   5.882   3.336   4.183
  146MYC    C2730174   5.690   3.404   4.254
  146MYC    H4830175   5.713   3.512   4.251
  146MYC    H4930176   5.584   3.394   4.227
  146MYC    C2830177   5.713   3.352   4.397
  146MYC    H5030178   5.681   3.247   4.403
  146MYC    H5130179   5.820   3.354   4.417
  146MYC    C2930180   5.640   3.434   4.505
  146MYC    H5230181   5.660   3.541   4.490
  146MYC    H5330182   5.531   3.420   4.496
  146MYC    C3030183   5.687   3.395   4.646
  146MYC    H5430184   5.663   3.289   4.665
  146MYC    H5530185   5.797   3.403   4.649
  146MYC    C3130186   5.628   3.480   4.760
  146MYC    H5630187   5.629   3.586   4.731
  146MYC    H5730188   5.524   3.451   4.778
  146MYC    C3230189   5.712   3.464   4.889
  146MYC    H5830190   5.727   3.357   4.908
  146MYC    H5930191   5.811   3.507   4.872
  146MYC    C3330192   5.650   3.526   5.015
  146MYC    H6030193   5.618   3.629   4.995
  146MYC    H6130194   5.560   3.469   5.042
  146MYC    C3430195   5.750   3.525   5.133
  146MYC    H6230196   5.811   3.434   5.127
  146MYC    H6330197   5.820   3.610   5.121
  146MYC    C3530198   5.685   3.530   5.272
  146MYC    H6430199   5.625   3.621   5.282
  146MYC    H6530200   5.616   3.445   5.280
  146MYC    C3630201   5.789   3.522   5.386
  146MYC    H6630202   5.860   3.442   5.363
  146MYC    H6730203   5.846   3.616   5.390
  146MYC    C3730204   5.724   3.493   5.522
  146MYC    H6830205   5.657   3.576   5.549
  146MYC    H6930206   5.662   3.403   5.514
  146MYC    C3830207   5.826   3.472   5.636
  146MYC    H7030208   5.900   3.397   5.605
  146MYC    H7130209   5.881   3.566   5.654
  146MYC    C3930210   5.758   3.425   5.765
  146MYC    H7230211   5.680   3.497   5.792
  146MYC    H7330212   5.708   3.329   5.746
  146MYC    C4030213   5.853   3.409   5.886
  146MYC    H7430214   5.935   3.341   5.859
  146MYC    H7530215   5.898   3.506   5.909
  146MYC    C4130216   5.779   3.353   6.009
  146MYC    H7630217   5.686   3.410   6.024
  146MYC    H7730218   5.750   3.249   5.990
  146MYC    C4230219   5.861   3.360   6.140
  146MYC    H7830220   5.956   3.305   6.127
  146MYC    H7930221   5.887   3.465   6.160
  146MYC    C4330222   5.786   3.303   6.261
  146MYC    H8030223   5.846   3.313   6.352
  146MYC    H8130224   5.764   3.196   6.246
  146MYC    H8230225   5.691   3.356   6.276
  147MYC   HH1530226   5.744   3.744   6.235
  147MYC    C8030227   5.770   3.822   6.162
  147MYC   H10030228   5.729   3.917   6.196
  147MYC   H10130229   5.880   3.831   6.159
  147MYC    C7930230   5.715   3.785   6.023
  147MYC   H10230231   5.607   3.773   6.029
  147MYC   H10330232   5.756   3.688   5.993
  147MYC    C7830233   5.750   3.890   5.916
  147MYC   HH1430234   5.859   3.900   5.909
  147MYC   H10430235   5.711   3.988   5.946
  147MYC    C7730236   5.694   3.855   5.776
  147MYC   H10630237   5.585   3.853   5.779
  147MYC   H10730238   5.728   3.754   5.749
  147MYC    C7630239   5.740   3.955   5.668
  147MYC   H10830240   5.850   3.958   5.666
  147MYC   H10930241   5.705   4.056   5.693
  147MYC    C7530242   5.689   3.916   5.528
  147MYC   H11030243   5.580   3.930   5.524
  147MYC   H11130244   5.708   3.810   5.511
  147MYC    C7430245   5.756   3.997   5.415
  147MYC   H11230246   5.864   3.983   5.421
  147MYC   H11330247   5.735   4.104   5.428
  147MYC    C7330248   5.706   3.952   5.277
  147MYC   HH1330249   5.603   3.987   5.262
  147MYC   H11430250   5.703   3.843   5.274
  147MYC    C7230251   5.795   3.999   5.160
  147MYC   H11530252   5.896   3.958   5.173
  147MYC   H11630253   5.803   4.109   5.161
  147MYC    C7130254   5.736   3.953   5.027
  147MYC   H11730255   5.644   4.009   5.007
  147MYC   H11830256   5.708   3.847   5.035
  147MYC    C7030257   5.831   3.968   4.907
  147MYC   H11930258   5.921   3.907   4.922
  147MYC   H12030259   5.863   4.072   4.897
  147MYC    C6930260   5.760   3.923   4.778
  147MYC   H12130261   5.668   3.982   4.768
  147MYC   H12230262   5.730   3.818   4.789
  147MYC    C6830263   5.843   3.938   4.650
  147MYC   HH1230264   5.930   3.872   4.654
  147MYC   H12330265   5.880   4.041   4.642
  147MYC    C6730266   5.756   3.905   4.529
  147MYC   H12430267   5.665   3.967   4.531
  147MYC   H12530268   5.722   3.801   4.537
  147MYC    C6630269   5.824   3.925   4.393
  147MYC   H12630270   5.915   3.863   4.388
  147MYC   H12730271   5.855   4.030   4.383
  147MYC    C6530272   5.728   3.887   4.280
  147MYC   H12830273   5.638   3.949   4.287
  147MYC   H12930274   5.697   3.783   4.294
  147MYC    C6430275   5.788   3.903   4.140
  147MYC   H13030276   5.886   3.853   4.136
  147MYC   H13130277   5.805   4.009   4.119
  147MYC    C6330278   5.695   3.842   4.034
  147MYC   HH1130279   5.598   3.893   4.037
  147MYC   H13230280   5.677   3.737   4.058
  147MYC    C6230281   5.753   3.851   3.893
  147MYC   H13330282   5.850   3.802   3.891
  147MYC   H13430283   5.769   3.957   3.868
  147MYC    C6130284   5.661   3.787   3.788
  147MYC   H13530285   5.573   3.851   3.773
  147MYC   H13630286   5.623   3.691   3.826
  147MYC    C6030287   5.734   3.763   3.657
  147MYC   H13730288   5.775   3.663   3.650
  147MYC    C5830289   5.683   3.826   3.530
  147MYC   H13830290   5.601   3.896   3.537
  147MYC    C5930291   5.814   3.872   3.590
  147MYC   H13930292   5.906   3.843   3.540
  147MYC   H14030293   5.815   3.971   3.635
  147MYC    C5730294   5.682   3.748   3.400
  147MYC   HH1030295   5.580   3.714   3.379
  147MYC   H14130296   5.745   3.658   3.408
  147MYC    C5630297   5.732   3.836   3.285
  147MYC   H14230298   5.837   3.862   3.302
  147MYC   H14330299   5.675   3.929   3.285
  147MYC    C5530300   5.719   3.769   3.148
  147MYC   H14430301   5.614   3.739   3.133
  147MYC   H14530302   5.780   3.677   3.145
  147MYC    C5430303   5.762   3.866   3.038
  147MYC   H14630304   5.871   3.881   3.044
  147MYC   H14730305   5.715   3.963   3.056
  147MYC    C5330306   5.725   3.818   2.897
  147MYC   H14830307   5.618   3.794   2.894
  147MYC   H14930308   5.780   3.727   2.873
  147MYC    C5230309   5.754   3.927   2.794
  147MYC    H9930310   5.861   3.951   2.796
  147MYC   H15030311   5.700   4.019   2.821
  147MYC    C5130312   5.715   3.886   2.652
  147MYC    H9730313   5.608   3.859   2.650
  147MYC    H9830314   5.771   3.795   2.625
  147MYC    C5030315   5.742   3.996   2.548
  147MYC    H9530316   5.845   4.031   2.557
  147MYC    H9630317   5.676   4.082   2.568
  147MYC    C4930318   5.718   3.943   2.407
  147MYC    H9330319   5.615   3.904   2.401
  147MYC    H9430320   5.785   3.858   2.392
  147MYC    C4830321   5.740   4.043   2.293
  147MYC    H9130322   5.844   4.078   2.295
  147MYC    H9230323   5.676   4.131   2.306
  147MYC    C4730324   5.710   3.976   2.157
  147MYC    H8930325   5.605   3.946   2.155
  147MYC    H9030326   5.769   3.883   2.150
  147MYC    C4630327   5.741   4.062   2.034
  147MYC    H8730328   5.848   4.089   2.035
  147MYC    H8830329   5.684   4.155   2.038
  147MYC    C4530330   5.709   3.986   1.903
  147MYC    H8530331   5.600   3.972   1.895
  147MYC    H8630332   5.752   3.885   1.909
  147MYC    C4430333   5.762   4.053   1.775
  147MYC    H8330334   5.750   3.983   1.692
  147MYC    H8430335   5.870   4.069   1.785
  147MYC    C1830336   5.691   4.183   1.740
  147MYC    H3130337   5.586   4.167   1.717
  147MYC    C1730338   5.726   4.315   1.805
  147MYC    H3030339   5.808   4.313   1.876
  147MYC    C1930340   5.760   4.290   1.659
  147MYC    H3230341   5.864   4.273   1.633
  147MYC    H3330342   5.702   4.341   1.583
  147MYC    C1630343   5.614   4.410   1.845
  147MYC    H2830344   5.539   4.356   1.903
  147MYC    H2930345   5.564   4.446   1.755
  147MYC    C1530346   5.658   4.535   1.925
  147MYC    H2630347   5.572   4.603   1.928
  147MYC    H2730348   5.737   4.589   1.871
  147MYC    C1430349   5.703   4.505   2.070
  147MYC    H2430350   5.807   4.471   2.069
  147MYC    H2530351   5.642   4.423   2.111
  147MYC    C1330352   5.691   4.628   2.163
  147MYC    H2230353   5.586   4.661   2.163
  147MYC    H2330354   5.751   4.710   2.123
  147MYC    C1230355   5.733   4.598   2.309
  147MYC    H2030356   5.839   4.571   2.311
  147MYC    H2130357   5.676   4.512   2.345
  147MYC    C1130358   5.709   4.719   2.402
  147MYC    H1830359   5.605   4.752   2.391
  147MYC    H1930360   5.772   4.803   2.369
  147MYC    C1030361   5.736   4.693   2.552
  147MYC    H1630362   5.731   4.789   2.605
  147MYC    H1730363   5.838   4.655   2.565
  147MYC     C930364   5.635   4.595   2.617
  147MYC    H1430365   5.651   4.494   2.577
  147MYC    H1530366   5.533   4.625   2.590
  147MYC     C830367   5.646   4.590   2.771
  147MYC    H1230368   5.632   4.691   2.811
  147MYC    H1330369   5.747   4.558   2.799
  147MYC     C730370   5.542   4.496   2.835
  147MYC    H1030371   5.557   4.394   2.797
  147MYC    H1130372   5.441   4.527   2.804
  147MYC     C630373   5.549   4.494   2.989
  147MYC     H830374   5.543   4.596   3.027
  147MYC     H930375   5.647   4.454   3.018
  147MYC     C530376   5.437   4.409   3.053
  147MYC     H630377   5.437   4.308   3.011
  147MYC     H730378   5.340   4.453   3.025
  147MYC     C430379   5.442   4.401   3.208
  147MYC     H430380   5.346   4.360   3.241
  147MYC     H530381   5.445   4.503   3.249
  147MYC     C230382   5.554   4.314   3.275
  147MYC     H230383   5.502   4.248   3.346
  147MYC     O330384   5.620   4.231   3.178
  147MYC     H330385   5.675   4.289   3.123
  147MYC     C130386   5.658   4.394   3.359
  147MYC     H130387   5.598   4.456   3.427
  147MYC    C8130388   5.744   4.492   3.275
  147MYC    O8230389   5.832   4.458   3.199
  147MYC    O8330390   5.718   4.623   3.300
  147MYC   H10530391   5.782   4.673   3.247
  147MYC    C2030392   5.748   4.301   3.446
  147MYC    H3430393   5.746   4.198   3.407
  147MYC    H3530394   5.853   4.332   3.440
  147MYC    C2130395   5.708   4.296   3.596
  147MYC    H3630396   5.600   4.280   3.605
  147MYC    H3730397   5.756   4.209   3.642
  147MYC    C2230398   5.750   4.423   3.674
  147MYC    H3830399   5.859   4.436   3.665
  147MYC    H3930400   5.703   4.511   3.629
  147MYC    C2330401   5.712   4.416   3.823
  147MYC    H4030402   5.603   4.415   3.832
  147MYC    H4130403   5.749   4.321   3.865
  147MYC    C2430404   5.769   4.533   3.905
  147MYC    H4230405   5.879   4.529   3.903
  147MYC    H4330406   5.739   4.628   3.860
  147MYC    C2530407   5.720   4.529   4.051
  147MYC    H4430408   5.610   4.536   4.051
  147MYC    H4530409   5.745   4.432   4.095
  147MYC    C2630410   5.778   4.641   4.141
  147MYC    H4630411   5.886   4.625   4.153
  147MYC    H4730412   5.764   4.738   4.093
  147MYC    C2730413   5.709   4.641   4.278
  147MYC    H4830414   5.602   4.660   4.264
  147MYC    H4930415   5.717   4.541   4.322
  147MYC    C2830416   5.764   4.744   4.379
  147MYC    H5030417   5.871   4.725   4.394
  147MYC    H5130418   5.753   4.845   4.339
  147MYC    C2930419   5.690   4.732   4.514
  147MYC    H5230420   5.584   4.755   4.498
  147MYC    H5330421   5.696   4.628   4.548
  147MYC    C3030422   5.745   4.824   4.625
  147MYC    H5430423   5.853   4.809   4.634
  147MYC    H5530424   5.728   4.929   4.599
  147MYC    C3130425   5.677   4.792   4.760
  147MYC    H5630426   5.570   4.814   4.753
  147MYC    H5730427   5.686   4.685   4.780
  147MYC    C3230428   5.736   4.869   4.879
  147MYC    H5830429   5.845   4.855   4.881
  147MYC    H5930430   5.717   4.976   4.867
  147MYC    C3330431   5.677   4.821   5.013
  147MYC    H6030432   5.569   4.837   5.012
  147MYC    H6130433   5.694   4.714   5.023
  147MYC    C3430434   5.737   4.893   5.135
  147MYC    H6230435   5.846   4.881   5.136
  147MYC    H6330436   5.717   5.001   5.128
  147MYC    C3530437   5.679   4.839   5.267
  147MYC    H6430438   5.570   4.848   5.264
  147MYC    H6530439   5.701   4.732   5.274
  147MYC    C3630440   5.732   4.910   5.393
  147MYC    H6630441   5.840   4.894   5.400
  147MYC    H6730442   5.715   5.018   5.384
  147MYC    C3730443   5.663   4.857   5.520
  147MYC    H6830444   5.555   4.875   5.512
  147MYC    H6930445   5.676   4.748   5.525
  147MYC    C3830446   5.715   4.920   5.650
  147MYC    H7030447   5.820   4.892   5.664
  147MYC    H7130448   5.711   5.030   5.642
  147MYC    C3930449   5.632   4.874   5.772
  147MYC    H7230450   5.531   4.915   5.764
  147MYC    H7330451   5.623   4.765   5.770
  147MYC    C4030452   5.693   4.916   5.907
  147MYC    H7430453   5.795   4.876   5.913
  147MYC    H7530454   5.701   5.025   5.911
  147MYC    C4130455   5.610   4.865   6.026
  147MYC    H7630456   5.513   4.915   6.026
  147MYC    H7730457   5.592   4.758   6.014
  147MYC    C4230458   5.679   4.888   6.162
  147MYC    H7830459   5.781   4.847   6.159
  147MYC    H7930460   5.688   4.996   6.181
  147MYC    C4330461   5.604   4.822   6.279
  147MYC    H8030462   5.655   4.842   6.374
  147MYC    H8130463   5.597   4.714   6.265
  147MYC    H8230464   5.502   4.862   6.286
  148MYC   HH1530465   5.336   5.265   6.279
  148MYC    C8030466   5.403   5.267   6.192
  148MYC   H10030467   5.457   5.362   6.192
  148MYC   H10130468   5.475   5.185   6.204
  148MYC    C7930469   5.323   5.249   6.062
  148MYC   H10230470   5.248   5.329   6.055
  148MYC   H10330471   5.268   5.154   6.066
  148MYC    C7830472   5.411   5.251   5.935
  148MYC   HH1430473   5.483   5.168   5.940
  148MYC   H10430474   5.470   5.344   5.933
  148MYC    C7730475   5.329   5.240   5.806
  148MYC   H10630476   5.264   5.328   5.796
  148MYC   H10730477   5.263   5.152   5.813
  148MYC    C7630478   5.415   5.226   5.678
  148MYC   H10830479   5.476   5.135   5.687
  148MYC   H10930480   5.484   5.311   5.670
  148MYC    C7530481   5.329   5.217   5.551
  148MYC   H11030482   5.286   5.316   5.530
  148MYC   H11130483   5.245   5.149   5.568
  148MYC    C7430484   5.406   5.168   5.427
  148MYC   H11230485   5.441   5.066   5.445
  148MYC   H11330486   5.495   5.231   5.411
  148MYC    C7330487   5.319   5.169   5.300
  148MYC   HH1330488   5.293   5.273   5.276
  148MYC   H11430489   5.225   5.116   5.320
  148MYC    C7230490   5.387   5.104   5.178
  148MYC   H11530491   5.398   4.996   5.196
  148MYC   H11630492   5.487   5.145   5.166
  148MYC    C7130493   5.306   5.126   5.049
  148MYC   H11730494   5.293   5.234   5.034
  148MYC   H11830495   5.206   5.083   5.059
  148MYC    C7030496   5.374   5.066   4.924
  148MYC   H11930497   5.373   4.957   4.931
  148MYC   H12030498   5.479   5.098   4.922
  148MYC    C6930499   5.306   5.110   4.793
  148MYC   H12130500   5.302   5.220   4.790
  148MYC   H12230501   5.202   5.074   4.792
  148MYC    C6830502   5.379   5.059   4.668
  148MYC   HH1230503   5.373   4.949   4.665
  148MYC   H12330504   5.485   5.085   4.675
  148MYC    C6730505   5.322   5.118   4.538
  148MYC   H12430506   5.330   5.227   4.542
  148MYC   H12530507   5.215   5.094   4.531
  148MYC    C6630508   5.395   5.065   4.414
  148MYC   H12630509   5.375   4.957   4.404
  148MYC   H12730510   5.503   5.076   4.427
  148MYC    C6530511   5.353   5.136   4.284
  148MYC   H12830512   5.378   5.242   4.292
  148MYC   H12930513   5.244   5.129   4.272
  148MYC    C6430514   5.422   5.076   4.160
  148MYC   H13030515   5.404   4.968   4.160
  148MYC   H13130516   5.530   5.091   4.168
  148MYC    C6330517   5.371   5.135   4.027
  148MYC   HH1130518   5.391   5.243   4.025
  148MYC   H13230519   5.262   5.121   4.022
  148MYC    C6230520   5.437   5.067   3.906
  148MYC   H13330521   5.441   4.959   3.923
  148MYC   H13430522   5.541   5.101   3.898
  148MYC    C6130523   5.364   5.093   3.773
  148MYC   H13530524   5.361   5.201   3.753
  148MYC   H13630525   5.260   5.059   3.782
  148MYC    C6030526   5.430   5.019   3.658
  148MYC   H13730527   5.447   4.914   3.681
  148MYC    C5830528   5.396   5.051   3.515
  148MYC   H13830529   5.329   5.134   3.498
  148MYC    C5930530   5.533   5.086   3.570
  148MYC   H13930531   5.618   5.027   3.537
  148MYC   H14030532   5.554   5.192   3.587
  148MYC    C5730533   5.379   4.939   3.413
  148MYC   HH1030534   5.272   4.916   3.403
  148MYC   H14130535   5.428   4.847   3.447
  148MYC    C5630536   5.437   4.980   3.277
  148MYC   H14230537   5.547   4.982   3.284
  148MYC   H14330538   5.404   5.082   3.254
  148MYC    C5530539   5.395   4.889   3.160
  148MYC   H14430540   5.286   4.895   3.149
  148MYC   H14530541   5.420   4.784   3.183
  148MYC    C5430542   5.464   4.931   3.029
  148MYC   H14630543   5.564   4.886   3.025
  148MYC   H14730544   5.480   5.040   3.030
  148MYC    C5330545   5.385   4.897   2.902
  148MYC   H14830546   5.283   4.936   2.912
  148MYC   H14930547   5.379   4.788   2.891
  148MYC    C5230548   5.451   4.960   2.778
  148MYC    H9930549   5.553   4.922   2.768
  148MYC   H15030550   5.458   5.068   2.791
  148MYC    C5130551   5.373   4.930   2.648
  148MYC    H9730552   5.272   4.972   2.656
  148MYC    H9830553   5.363   4.822   2.637
  148MYC    C5030554   5.443   4.989   2.524
  148MYC    H9530555   5.547   4.955   2.523
  148MYC    H9630556   5.445   5.098   2.532
  148MYC    C4930557   5.375   4.947   2.393
  148MYC    H9330558   5.273   4.988   2.389
  148MYC    H9430559   5.366   4.838   2.391
  148MYC    C4830560   5.454   4.994   2.270
  148MYC    H9130561   5.559   4.966   2.283
  148MYC    H9230562   5.451   5.103   2.264
  148MYC    C4730563   5.403   4.934   2.137
  148MYC    H8930564   5.301   4.967   2.118
  148MYC    H9030565   5.401   4.824   2.145
  148MYC    C4630566   5.496   4.974   2.021
  148MYC    H8730567   5.598   4.944   2.047
  148MYC    H8830568   5.495   5.083   2.014
  148MYC    C4530569   5.459   4.913   1.884
  148MYC    H8530570   5.368   4.960   1.846
  148MYC    H8630571   5.437   4.806   1.897
  148MYC    C4430572   5.574   4.927   1.780
  148MYC    H8330573   5.545   4.873   1.689
  148MYC    H8430574   5.663   4.876   1.819
  148MYC    C1830575   5.607   5.072   1.744
  148MYC    H3130576   5.525   5.118   1.689
  148MYC    C1730577   5.686   5.162   1.836
  148MYC    H3030578   5.727   5.118   1.926
  148MYC    C1930579   5.747   5.115   1.706
  148MYC    H3230580   5.827   5.041   1.713
  148MYC    H3330581   5.759   5.188   1.627
  148MYC    C1630582   5.636   5.305   1.857
  148MYC    H2830583   5.557   5.304   1.934
  148MYC    H2930584   5.588   5.341   1.766
  148MYC    C1530585   5.743   5.407   1.898
  148MYC    H2630586   5.695   5.506   1.905
  148MYC    H2730587   5.817   5.415   1.818
  148MYC    C1430588   5.814   5.381   2.032
  148MYC    H2430589   5.873   5.470   2.055
  148MYC    H2530590   5.886   5.298   2.020
  148MYC    C1330591   5.722   5.353   2.152
  148MYC    H2230592   5.687   5.249   2.147
  148MYC    H2330593   5.633   5.417   2.147
  148MYC    C1230594   5.794   5.377   2.285
  148MYC    H2030595   5.813   5.485   2.296
  148MYC    H2130596   5.892   5.328   2.283
  148MYC    C1130597   5.717   5.328   2.409
  148MYC    H1830598   5.702   5.220   2.402
  148MYC    H1930599   5.617   5.375   2.412
  148MYC    C1030600   5.794   5.361   2.538
  148MYC    H1630601   5.803   5.469   2.548
  148MYC    H1730602   5.895   5.321   2.529
  148MYC     C930603   5.730   5.304   2.667
  148MYC    H1430604   5.712   5.196   2.654
  148MYC    H1530605   5.632   5.351   2.684
  148MYC     C830606   5.822   5.326   2.788
  148MYC    H1230607   5.838   5.433   2.803
  148MYC    H1330608   5.920   5.283   2.765
  148MYC     C730609   5.773   5.263   2.920
  148MYC    H1030610   5.857   5.265   2.990
  148MYC    H1130611   5.749   5.157   2.904
  148MYC     C630612   5.652   5.334   2.985
  148MYC     H830613   5.564   5.317   2.923
  148MYC     H930614   5.669   5.443   2.985
  148MYC     C530615   5.623   5.283   3.129
  148MYC     H630616   5.693   5.203   3.155
  148MYC     H730617   5.525   5.235   3.125
  148MYC     C430618   5.616   5.391   3.241
  148MYC     H430619   5.526   5.367   3.301
  148MYC     H530620   5.595   5.489   3.198
  148MYC     C230621   5.734   5.402   3.343
  148MYC     H230622   5.687   5.442   3.434
  148MYC     O330623   5.788   5.274   3.374
  148MYC     H330624   5.717   5.208   3.362
  148MYC     C130625   5.847   5.503   3.306
  148MYC     H130626   5.795   5.597   3.287
  148MYC    C8130627   5.922   5.467   3.176
  148MYC    O8230628   6.013   5.386   3.170
  148MYC    O8330629   5.889   5.543   3.069
  148MYC   H10530630   5.948   5.513   2.998
  148MYC    C2030631   5.950   5.528   3.421
  148MYC    H3430632   6.012   5.438   3.435
  148MYC    H3530633   6.019   5.606   3.387
  148MYC    C2130634   5.891   5.571   3.557
  148MYC    H3630635   5.953   5.651   3.598
  148MYC    H3730636   5.791   5.613   3.542
  148MYC    C2230637   5.884   5.459   3.662
  148MYC    H3830638   5.824   5.375   3.625
  148MYC    H3930639   5.986   5.421   3.679
  148MYC    C2330640   5.826   5.507   3.797
  148MYC    H4030641   5.876   5.599   3.827
  148MYC    H4130642   5.719   5.530   3.785
  148MYC    C2430643   5.843   5.402   3.908
  148MYC    H4230644   5.783   5.313   3.885
  148MYC    H4330645   5.948   5.370   3.909
  148MYC    C2530646   5.806   5.453   4.049
  148MYC    H4430647   5.849   5.552   4.065
  148MYC    H4530648   5.697   5.462   4.057
  148MYC    C2630649   5.859   5.358   4.158
  148MYC    H4630650   5.821   5.257   4.139
  148MYC    H4730651   5.969   5.352   4.148
  148MYC    C2730652   5.825   5.399   4.302
  148MYC    H4830653   5.855   5.503   4.320
  148MYC    H4930654   5.717   5.392   4.317
  148MYC    C2830655   5.898   5.308   4.402
  148MYC    H5030656   5.882   5.203   4.373
  148MYC    H5130657   6.006   5.326   4.395
  148MYC    C2930658   5.855   5.324   4.549
  148MYC    H5230659   5.871   5.427   4.583
  148MYC    H5330660   5.747   5.303   4.557
  148MYC    C3030661   5.933   5.226   4.639
  148MYC    H5430662   5.939   5.128   4.590
  148MYC    H5530663   6.036   5.262   4.649
  148MYC    C3130664   5.874   5.203   4.779
  148MYC    H5630665   5.766   5.185   4.770
  148MYC    H5730666   5.918   5.111   4.818
  148MYC    C3230667   5.899   5.316   4.881
  148MYC    H5830668   6.007   5.335   4.887
  148MYC    H5930669   5.851   5.409   4.848
  148MYC    C3330670   5.846   5.276   5.020
  148MYC    H6030671   5.737   5.271   5.017
  148MYC    H6130672   5.882   5.174   5.042
  148MYC    C3430673   5.890   5.368   5.136
  148MYC    H6230674   5.999   5.382   5.131
  148MYC    H6330675   5.843   5.466   5.125
  148MYC    C3530676   5.853   5.305   5.271
  148MYC    H6430677   5.745   5.287   5.274
  148MYC    H6530678   5.902   5.206   5.278
  148MYC    C3630679   5.894   5.388   5.394
  148MYC    H6630680   6.000   5.415   5.388
  148MYC    H6730681   5.836   5.481   5.396
  148MYC    C3730682   5.870   5.309   5.524
  148MYC    H6830683   5.767   5.269   5.523
  148MYC    H6930684   5.937   5.222   5.526
  148MYC    C3830685   5.889   5.390   5.653
  148MYC    H7030686   5.990   5.432   5.656
  148MYC    H7130687   5.818   5.474   5.653
  148MYC    C3930688   5.865   5.303   5.779
  148MYC    H7230689   5.769   5.251   5.768
  148MYC    H7330690   5.943   5.226   5.784
  148MYC    C4030691   5.863   5.383   5.911
  148MYC    H7430692   5.959   5.435   5.923
  148MYC    H7530693   5.785   5.460   5.905
  148MYC    C4130694   5.837   5.292   6.033
  148MYC    H7630695   5.747   5.233   6.014
  148MYC    H7730696   5.921   5.222   6.044
  148MYC    C4230697   5.818   5.370   6.164
  148MYC    H7830698   5.905   5.434   6.183
  148MYC    H7930699   5.731   5.436   6.154
  148MYC    C4330700   5.796   5.277   6.285
  148MYC    H8030701   5.779   5.335   6.376
  148MYC    H8130702   5.884   5.213   6.301
  148MYC    H8230703   5.709   5.212   6.269
  149MYC   HH1530704   5.436   5.650   6.286
  149MYC    C8030705   5.482   5.674   6.190
  149MYC   H10030706   5.526   5.774   6.196
  149MYC   H10130707   5.562   5.602   6.171
  149MYC    C7930708   5.376   5.668   6.078
  149MYC   H10230709   5.298   5.742   6.098
  149MYC   H10330710   5.328   5.569   6.079
  149MYC    C7830711   5.435   5.693   5.937
  149MYC   HH1430712   5.517   5.622   5.919
  149MYC   H10430713   5.479   5.794   5.934
  149MYC    C7730714   5.330   5.679   5.825
  149MYC   H10630715   5.249   5.750   5.842
  149MYC   H10730716   5.286   5.578   5.831
  149MYC    C7630717   5.389   5.700   5.684
  149MYC   H10830718   5.477   5.636   5.672
  149MYC   H10930719   5.423   5.804   5.675
  149MYC    C7530720   5.287   5.669   5.572
  149MYC   H11030721   5.198   5.731   5.585
  149MYC   H11130722   5.255   5.564   5.582
  149MYC    C7430723   5.346   5.691   5.432
  149MYC   H11230724   5.437   5.632   5.421
  149MYC   H11330725   5.374   5.796   5.421
  149MYC    C7330726   5.247   5.653   5.319
  149MYC   HH1330727   5.156   5.713   5.327
  149MYC   H11430728   5.217   5.548   5.331
  149MYC    C7230729   5.309   5.671   5.180
  149MYC   H11530730   5.398   5.607   5.172
  149MYC   H11630731   5.344   5.775   5.169
  149MYC    C7130732   5.212   5.639   5.064
  149MYC   H11730733   5.134   5.715   5.061
  149MYC   H11830734   5.164   5.542   5.083
  149MYC    C7030735   5.285   5.633   4.929
  149MYC   H11930736   5.354   5.547   4.930
  149MYC   H12030737   5.347   5.723   4.917
  149MYC    C6930738   5.191   5.621   4.808
  149MYC   H12130739   5.137   5.716   4.795
  149MYC   H12230740   5.116   5.544   4.826
  149MYC    C6830741   5.268   5.588   4.679
  149MYC   HH1230742   5.312   5.488   4.688
  149MYC   H12330743   5.351   5.658   4.667
  149MYC    C6730744   5.181   5.593   4.552
  149MYC   H12430745   5.146   5.696   4.537
  149MYC   H12530746   5.093   5.530   4.565
  149MYC    C6630747   5.258   5.547   4.427
  149MYC   H12630748   5.285   5.441   4.437
  149MYC   H12730749   5.353   5.603   4.420
  149MYC    C6530750   5.179   5.567   4.297
  149MYC   H12830751   5.159   5.675   4.284
  149MYC   H12930752   5.082   5.517   4.305
  149MYC    C6430753   5.253   5.514   4.173
  149MYC   H13030754   5.252   5.404   4.175
  149MYC   H13130755   5.358   5.546   4.176
  149MYC    C6330756   5.190   5.563   4.042
  149MYC   HH1130757   5.193   5.672   4.040
  149MYC   H13230758   5.085   5.533   4.038
  149MYC    C6230759   5.262   5.509   3.917
  149MYC   H13330760   5.245   5.401   3.909
  149MYC   H13430761   5.370   5.524   3.927
  149MYC    C6130762   5.213   5.579   3.789
  149MYC   H13530763   5.231   5.687   3.799
  149MYC   H13630764   5.105   5.565   3.780
  149MYC    C6030765   5.281   5.526   3.663
  149MYC   H13730766   5.255   5.423   3.643
  149MYC    C5830767   5.298   5.618   3.546
  149MYC   H13830768   5.272   5.723   3.560
  149MYC    C5930769   5.420   5.569   3.621
  149MYC   H13930770   5.483   5.495   3.573
  149MYC   H14030771   5.473   5.640   3.684
  149MYC    C5730772   5.263   5.569   3.407
  149MYC   HH1030773   5.154   5.573   3.394
  149MYC   H14130774   5.291   5.463   3.397
  149MYC    C5630775   5.330   5.650   3.295
  149MYC   H14230776   5.439   5.648   3.309
  149MYC   H14330777   5.298   5.754   3.300
  149MYC    C5530778   5.295   5.592   3.157
  149MYC   H14430779   5.186   5.592   3.146
  149MYC   H14530780   5.328   5.488   3.152
  149MYC    C5430781   5.356   5.669   3.038
  149MYC   H14630782   5.466   5.671   3.049
  149MYC   H14730783   5.322   5.773   3.040
  149MYC    C5330784   5.320   5.605   2.903
  149MYC   H14830785   5.211   5.601   2.894
  149MYC   H14930786   5.356   5.501   2.901
  149MYC    C5230787   5.376   5.681   2.782
  149MYC    H9930788   5.485   5.689   2.792
  149MYC   H15030789   5.335   5.782   2.782
  149MYC    C5130790   5.344   5.612   2.648
  149MYC    H9730791   5.236   5.594   2.641
  149MYC    H9830792   5.393   5.514   2.645
  149MYC    C5030793   5.389   5.696   2.527
  149MYC    H9530794   5.496   5.717   2.536
  149MYC    H9630795   5.337   5.793   2.531
  149MYC    C4930796   5.362   5.629   2.391
  149MYC    H9330797   5.255   5.608   2.382
  149MYC    H9430798   5.415   5.534   2.386
  149MYC    C4830799   5.407   5.719   2.273
  149MYC    H9130800   5.515   5.734   2.280
  149MYC    H9230801   5.360   5.817   2.282
  149MYC    C4730802   5.373   5.660   2.135
  149MYC    H8930803   5.264   5.654   2.124
  149MYC    H9030804   5.411   5.557   2.130
  149MYC    C4630805   5.433   5.741   2.018
  149MYC    H8730806   5.542   5.737   2.026
  149MYC    H8830807   5.404   5.847   2.029
  149MYC    C4530808   5.388   5.690   1.879
  149MYC    H8530809   5.292   5.735   1.853
  149MYC    H8630810   5.371   5.582   1.886
  149MYC    C4430811   5.491   5.713   1.766
  149MYC    H8330812   5.455   5.661   1.676
  149MYC    H8430813   5.585   5.664   1.793
  149MYC    C1830814   5.519   5.859   1.732
  149MYC    H3130815   5.492   5.928   1.811
  149MYC    C1730816   5.644   5.896   1.654
  149MYC    H3030817   5.707   5.815   1.620
  149MYC    C1930818   5.508   5.908   1.589
  149MYC    H3230819   5.483   5.835   1.512
  149MYC    H3330820   5.469   6.008   1.572
  149MYC    C1630821   5.723   6.021   1.689
  149MYC    H2830822   5.654   6.100   1.723
  149MYC    H2930823   5.771   6.059   1.599
  149MYC    C1530824   5.831   6.000   1.797
  149MYC    H2630825   5.875   6.097   1.823
  149MYC    H2730826   5.912   5.940   1.752
  149MYC    C1430827   5.782   5.928   1.924
  149MYC    H2430828   5.749   5.827   1.897
  149MYC    H2530829   5.695   5.981   1.966
  149MYC    C1330830   5.891   5.917   2.032
  149MYC    H2230831   5.896   6.011   2.088
  149MYC    H2330832   5.988   5.902   1.985
  149MYC    C1230833   5.866   5.799   2.129
  149MYC    H2030834   5.869   5.706   2.071
  149MYC    H2130835   5.766   5.805   2.173
  149MYC    C1130836   5.973   5.790   2.239
  149MYC    H1830837   6.071   5.812   2.195
  149MYC    H1930838   5.978   5.687   2.277
  149MYC    C1030839   5.951   5.885   2.358
  149MYC    H1630840   5.921   5.984   2.321
  149MYC    H1730841   6.047   5.899   2.410
  149MYC     C930842   5.847   5.833   2.460
  149MYC    H1430843   5.885   5.740   2.503
  149MYC    H1530844   5.753   5.809   2.410
  149MYC     C830845   5.821   5.936   2.572
  149MYC    H1230846   5.756   6.016   2.533
  149MYC    H1330847   5.916   5.983   2.601
  149MYC     C730848   5.757   5.873   2.697
  149MYC    H1030849   5.820   5.790   2.732
  149MYC    H1130850   5.659   5.832   2.672
  149MYC     C630851   5.742   5.976   2.812
  149MYC     H830852   5.665   6.050   2.785
  149MYC     H930853   5.836   6.030   2.824
  149MYC     C530854   5.706   5.910   2.946
  149MYC     H630855   5.788   5.843   2.974
  149MYC     H730856   5.617   5.847   2.932
  149MYC     C430857   5.677   6.013   3.058
  149MYC     H430858   5.577   6.052   3.042
  149MYC     H530859   5.745   6.099   3.048
  149MYC     C230860   5.686   5.959   3.203
  149MYC     H230861   5.619   6.021   3.264
  149MYC     O330862   5.638   5.824   3.208
  149MYC     H330863   5.690   5.772   3.143
  149MYC     C130864   5.828   5.970   3.269
  149MYC     H130865   5.845   6.078   3.279
  149MYC    C8130866   5.942   5.917   3.180
  149MYC    O8230867   5.973   5.799   3.171
  149MYC    O8330868   6.006   6.011   3.108
  149MYC   H10530869   6.074   5.963   3.058
  149MYC    C2030870   5.837   5.906   3.409
  149MYC    H3430871   5.802   5.802   3.403
  149MYC    H3530872   5.943   5.900   3.439
  149MYC    C2130873   5.760   5.979   3.520
  149MYC    H3630874   5.811   6.073   3.543
  149MYC    H3730875   5.659   6.004   3.486
  149MYC    C2230876   5.751   5.892   3.646
  149MYC    H3830877   5.692   5.802   3.622
  149MYC    H3930878   5.852   5.859   3.674
  149MYC    C2330879   5.685   5.960   3.766
  149MYC    H4030880   5.740   6.053   3.790
  149MYC    H4130881   5.582   5.987   3.742
  149MYC    C2430882   5.688   5.866   3.888
  149MYC    H4230883   5.639   5.771   3.861
  149MYC    H4330884   5.793   5.842   3.911
  149MYC    C2530885   5.621   5.924   4.013
  149MYC    H4430886   5.662   6.023   4.033
  149MYC    H4530887   5.513   5.934   3.996
  149MYC    C2630888   5.647   5.833   4.134
  149MYC    H4630889   5.615   5.730   4.112
  149MYC    H4730890   5.756   5.828   4.150
  149MYC    C2730891   5.579   5.880   4.263
  149MYC    H4830892   5.581   5.989   4.269
  149MYC    H4930893   5.474   5.849   4.262
  149MYC    C2830894   5.651   5.823   4.386
  149MYC    H5030895   5.664   5.715   4.374
  149MYC    H5130896   5.751   5.867   4.390
  149MYC    C2930897   5.579   5.850   4.519
  149MYC    H5230898   5.541   5.952   4.521
  149MYC    H5330899   5.492   5.783   4.526
  149MYC    C3030900   5.673   5.828   4.638
  149MYC    H5430901   5.730   5.735   4.624
  149MYC    H5530902   5.746   5.910   4.639
  149MYC    C3130903   5.602   5.822   4.773
  149MYC    H5630904   5.526   5.901   4.779
  149MYC    H5730905   5.550   5.726   4.781
  149MYC    C3230906   5.700   5.837   4.890
  149MYC    H5830907   5.782   5.765   4.878
  149MYC    H5930908   5.745   5.937   4.885
  149MYC    C3330909   5.635   5.818   5.027
  149MYC    H6030910   5.547   5.884   5.036
  149MYC    H6130911   5.599   5.715   5.036
  149MYC    C3430912   5.733   5.849   5.141
  149MYC    H6230913   5.822   5.786   5.130
  149MYC    H6330914   5.766   5.953   5.132
  149MYC    C3530915   5.673   5.827   5.280
  149MYC    H6430916   5.581   5.885   5.290
  149MYC    H6530917   5.647   5.721   5.292
  149MYC    C3630918   5.772   5.868   5.391
  149MYC    H6630919   5.866   5.814   5.377
  149MYC    H6730920   5.794   5.975   5.380
  149MYC    C3730921   5.719   5.842   5.533
  149MYC    H6830922   5.624   5.894   5.547
  149MYC    H6930923   5.701   5.734   5.545
  149MYC    C3830924   5.820   5.890   5.639
  149MYC    H7030925   5.918   5.847   5.618
  149MYC    H7130926   5.830   5.999   5.631
  149MYC    C3930927   5.780   5.853   5.783
  149MYC    H7230928   5.680   5.894   5.804
  149MYC    H7330929   5.774   5.744   5.793
  149MYC    C4030930   5.880   5.910   5.885
  149MYC    H7430931   5.981   5.872   5.862
  149MYC    H7530932   5.883   6.019   5.874
  149MYC    C4130933   5.847   5.874   6.032
  149MYC    H7630934   5.738   5.879   6.047
  149MYC    H7730935   5.878   5.771   6.052
  149MYC    C4230936   5.915   5.971   6.131
  149MYC    H7830937   6.022   5.978   6.108
  149MYC    H7930938   5.872   6.071   6.116
  149MYC    C4330939   5.898   5.931   6.278
  149MYC    H8030940   5.933   6.012   6.343
  149MYC    H8130941   5.956   5.841   6.301
  149MYC    H8230942   5.792   5.912   6.301
  150SOL     OW30943   2.356   6.079  12.723
  150SOL    HW130944   2.398   6.162  12.749
  150SOL    HW230945   2.262   6.096  12.730
  151SOL     OW30946   4.195   2.333  12.683
  151SOL    HW130947   4.269   2.383  12.718
  151SOL    HW230948   4.119   2.389  12.698
  152SOL     OW30949   4.195   4.183  12.669
  152SOL    HW130950   4.270   4.214  12.720
  152SOL    HW230951   4.126   4.247  12.686
  153SOL     OW30952   4.203   6.068  12.717
  153SOL    HW130953   4.257   6.143  12.742
  153SOL    HW230954   4.113   6.097  12.730
  154SOL     OW30955   6.109   0.580  12.800
  154SOL    HW130956   6.155   0.567  12.717
  154SOL    HW230957   6.016   0.587  12.776
  155SOL     OW30958   6.104   2.450  12.804
  155SOL    HW130959   6.149   2.424  12.723
  155SOL    HW230960   6.012   2.454  12.779
  156SOL     OW30961   6.104   4.307  12.802
  156SOL    HW130962   6.148   4.285  12.720
  156SOL    HW230963   6.011   4.312  12.778
  157SOL     OW30964   6.102   6.126  12.710
  157SOL    HW130965   6.130   6.167  12.791
  157SOL    HW230966   6.006   6.133  12.711
  158SOL     OW30967   1.538   0.989  12.748
  158SOL    HW130968   1.470   0.932  12.713
  158SOL    HW230969   1.573   0.942  12.824
  159SOL     OW30970   1.536   2.849  12.748
  159SOL    HW130971   1.467   2.792  12.711
  159SOL    HW230972   1.567   2.801  12.825
  160SOL     OW30973   1.537   4.712  12.747
  160SOL    HW130974   1.469   4.654  12.713
  160SOL    HW230975   1.573   4.666  12.823
  161SOL     OW30976   3.400   0.989  12.748
  161SOL    HW130977   3.332   0.932  12.712
  161SOL    HW230978   3.435   0.941  12.823
  162SOL     OW30979   3.405   2.830  12.757
  162SOL    HW130980   3.340   2.765  12.731
  162SOL    HW230981   3.450   2.789  12.832
  163SOL     OW30982   3.374   4.749  12.795
  163SOL    HW130983   3.323   4.681  12.751
  163SOL    HW230984   3.436   4.700  12.849
  164SOL     OW30985   5.261   0.990  12.750
  164SOL    HW130986   5.194   0.932  12.714
  164SOL    HW230987   5.298   0.942  12.824
  165SOL     OW30988   5.263   2.851  12.750
  165SOL    HW130989   5.197   2.791  12.717
  165SOL    HW230990   5.302   2.806  12.825
  166SOL     OW30991   5.261   4.715  12.752
  166SOL    HW130992   5.196   4.653  12.719
  166SOL    HW230993   5.303   4.670  12.826
  167SOL     OW30994   0.123   0.638   0.065
  167SOL    HW130995   0.078   0.560   0.098
  167SOL    HW230996   0.097   0.708   0.125
  168SOL     OW30997   0.120   2.502   0.068
  168SOL    HW130998   0.070   2.427   0.100
  168SOL    HW230999   0.094   2.574   0.125
  169SOL     OW31000   0.122   4.363   0.072
  169SOL    HW131001   0.071   4.288   0.102
  169SOL    HW231002   0.094   4.435   0.129
  170SOL     OW31003   0.101   6.225   0.051
  170SOL    HW131004   0.055   6.149   0.086
  170SOL    HW231005   0.114   6.282   0.126
  171SOL     OW31006   1.964   0.654   0.079
  171SOL    HW131007   1.944   0.567   0.114
  171SOL    HW231008   1.968   0.711   0.155
  172SOL     OW31009   1.967   2.511   0.074
  172SOL    HW131010   1.942   2.425   0.109
  172SOL    HW231011   1.971   2.568   0.151
  173SOL     OW31012   1.969   4.377   0.072
  173SOL    HW131013   1.927   4.296   0.100
  173SOL    HW231014   1.963   4.434   0.148
  174SOL     OW31015   1.942   6.246   0.112
  174SOL    HW131016   1.938   6.152   0.127
  174SOL    HW231017   2.033   6.270   0.130
  175SOL     OW31018   3.816   0.658   0.080
  175SOL    HW131019   3.799   0.570   0.115
  175SOL    HW231020   3.825   0.713   0.158
  176SOL     OW31021   3.816   2.516   0.076
  176SOL    HW131022   3.796   2.429   0.111
  176SOL    HW231023   3.824   2.572   0.153
  177SOL     OW31024   3.825   4.397   0.061
  177SOL    HW131025   3.825   4.305   0.088
  177SOL    HW231026   3.829   4.446   0.143
  178SOL     OW31027   3.794   6.249   0.148
  178SOL    HW131028   3.796   6.153   0.140
  178SOL    HW231029   3.880   6.277   0.118
  179SOL     OW31030   5.677   0.658   0.077
  179SOL    HW131031   5.664   0.570   0.113
  179SOL    HW231032   5.689   0.713   0.154
  180SOL     OW31033   5.681   2.515   0.073
  180SOL    HW131034   5.661   2.429   0.110
  180SOL    HW231035   5.690   2.572   0.149
  181SOL     OW31036   5.677   4.379   0.073
  181SOL    HW131037   5.660   4.292   0.110
  181SOL    HW231038   5.689   4.435   0.150
  182SOL     OW31039   5.660   6.245   0.133
  182SOL    HW131040   5.658   6.149   0.135
  182SOL    HW231041   5.752   6.267   0.124
  183SOL     OW31042   1.705   1.657   0.051
  183SOL    HW131043   1.636   1.684  12.852
  183SOL    HW231044   1.658   1.609   0.120
  184SOL     OW31045   1.707   3.520   0.047
  184SOL    HW131046   1.635   3.550  12.853
  184SOL    HW231047   1.663   3.476   0.120
  185SOL     OW31048   1.709   5.377   0.051
  185SOL    HW131049   1.642   5.414  12.856
  185SOL    HW231050   1.659   5.331   0.119
  186SOL     OW31051   3.567   1.657   0.050
  186SOL    HW131052   3.498   1.683  12.850
  186SOL    HW231053   3.520   1.610   0.119
  187SOL     OW31054   3.617   3.543   0.050
  187SOL    HW131055   3.528   3.532   0.017
  187SOL    HW231056   3.606   3.580   0.138
  188SOL     OW31057   3.573   5.370   0.051
  188SOL    HW131058   3.509   5.420   0.001
  188SOL    HW231059   3.522   5.327   0.120
  189SOL     OW31060   5.431   1.655   0.052
  189SOL    HW131061   5.364   1.688  12.854
  189SOL    HW231062   5.382   1.608   0.119
  190SOL     OW31063   5.431   3.517   0.051
  190SOL    HW131064   5.363   3.549  12.854
  190SOL    HW231065   5.383   3.470   0.120
  191SOL     OW31066   5.433   5.378   0.051
  191SOL    HW131067   5.366   5.414  12.855
  191SOL    HW231068   5.385   5.332   0.119
  192SOL     OW31069   0.500   1.410  12.713
  192SOL    HW131070   0.406   1.419  12.727
  192SOL    HW231071   0.509   1.369  12.627
  193SOL     OW31072   0.501   3.272  12.715
  193SOL    HW131073   0.407   3.282  12.728
  193SOL    HW231074   0.509   3.231  12.628
  194SOL     OW31075   0.500   5.134  12.716
  194SOL    HW131076   0.406   5.150  12.727
  194SOL    HW231077   0.508   5.094  12.630
  195SOL     OW31078   2.360   1.404  12.710
  195SOL    HW131079   2.265   1.400  12.726
  195SOL    HW231080   2.371   1.363  12.625
  196SOL     OW31081   2.306   3.223  12.734
  196SOL    HW131082   2.223   3.205  12.690
  196SOL    HW231083   2.373   3.196  12.671
  197SOL     OW31084   2.356   5.127  12.713
  197SOL    HW131085   2.261   5.138  12.725
  197SOL    HW231086   2.364   5.085  12.627
  198SOL     OW31087   4.222   1.403  12.712
  198SOL    HW131088   4.127   1.401  12.726
  198SOL    HW231089   4.234   1.362  12.627
  199SOL     OW31090   4.225   3.269  12.711
  199SOL    HW131091   4.137   3.244  12.738
  199SOL    HW231092   4.236   3.228  12.625
  200SOL     OW31093   4.223   5.128  12.718
  200SOL    HW131094   4.128   5.126  12.729
  200SOL    HW231095   4.239   5.085  12.634
  201SOL     OW31096   6.072   1.393  12.713
  201SOL    HW131097   5.977   1.388  12.720
  201SOL    HW231098   6.093   1.348  12.631
  202SOL     OW31099   6.073   3.254  12.712
  202SOL    HW131100   5.978   3.251  12.721
  202SOL    HW231101   6.091   3.210  12.629
  203SOL     OW31102   6.073   5.116  12.713
  203SOL    HW131103   5.978   5.114  12.721
  203SOL    HW231104   6.092   5.072  12.630
  204SOL     OW31105   0.308   0.052  12.725
  204SOL    HW131106   0.341   0.059  12.815
  204SOL    HW231107   0.312   6.408  12.706
  205SOL     OW31108   0.321   1.907  12.732
  205SOL    HW131109   0.403   1.951  12.709
  205SOL    HW231110   0.323   1.903  12.828
  206SOL     OW31111   0.322   3.770  12.732
  206SOL    HW131112   0.402   3.817  12.710
  206SOL    HW231113   0.322   3.765  12.827
  207SOL     OW31114   0.319   5.628  12.732
  207SOL    HW131115   0.392   5.684  12.706
  207SOL    HW231116   0.325   5.623  12.827
  208SOL     OW31117   2.190   0.010  12.753
  208SOL    HW131118   2.197   0.099  12.720
  208SOL    HW231119   2.193   0.019  12.848
  209SOL     OW31120   2.180   1.880  12.728
  209SOL    HW131121   2.208   1.964  12.691
  209SOL    HW231122   2.185   1.894  12.823
  210SOL     OW31123   2.166   3.719  12.725
  210SOL    HW131124   2.163   3.785  12.794
  210SOL    HW231125   2.168   3.635  12.772
  211SOL     OW31126   2.182   5.602  12.728
  211SOL    HW131127   2.207   5.686  12.690
  211SOL    HW231128   2.186   5.616  12.822
  212SOL     OW31129   4.027   0.005  12.755
  212SOL    HW131130   4.054   0.088  12.715
  212SOL    HW231131   4.043   0.017  12.849
  213SOL     OW31132   4.042   1.883  12.729
  213SOL    HW131133   4.076   1.965  12.694
  213SOL    HW231134   4.045   1.894  12.824
  214SOL     OW31135   4.048   3.794  12.719
  214SOL    HW131136   4.143   3.809  12.715
  214SOL    HW231137   4.029   3.782  12.812
  215SOL     OW31138   4.037   5.605  12.729
  215SOL    HW131139   4.075   5.685  12.694
  215SOL    HW231140   4.042   5.615  12.824
  216SOL     OW31141   5.907   1.880  12.731
  216SOL    HW131142   5.968   1.949  12.704
  216SOL    HW231143   5.903   1.888  12.827
  217SOL     OW31144   5.908   3.742  12.731
  217SOL    HW131145   5.972   3.809  12.706
  217SOL    HW231146   5.902   3.750  12.826
  218SOL     OW31147   5.905   5.601  12.731
  218SOL    HW131148   5.953   5.676  12.697
  218SOL    HW231149   5.905   5.612  12.826
  219SOL     OW31150   1.381   0.023  12.732
  219SOL    HW131151   1.386   6.383  12.701
  219SOL    HW231152   1.326   0.018  12.811
  220SOL     OW31153   1.371   1.868  12.745
  220SOL    HW131154   1.426   1.798  12.709
  220SOL    HW231155   1.287   1.857  12.700
  221SOL     OW31156   1.369   3.732  12.742
  221SOL    HW131157   1.424   3.661  12.709
  221SOL    HW231158   1.286   3.721  12.696
  222SOL     OW31159   1.370   5.591  12.748
  222SOL    HW131160   1.425   5.522  12.710
  222SOL    HW231161   1.287   5.584  12.701
  223SOL     OW31162   3.242   0.024  12.732
  223SOL    HW131163   3.249   6.384  12.700
  223SOL    HW231164   3.183   0.018  12.807
  224SOL     OW31165   3.234   1.869  12.743
  224SOL    HW131166   3.289   1.799  12.708
  224SOL    HW231167   3.149   1.856  12.700
  225SOL     OW31168   3.313   3.582  12.778
  225SOL    HW131169   3.293   3.656  12.721
  225SOL    HW231170   3.265   3.508  12.741
  226SOL     OW31171   3.230   5.593  12.751
  226SOL    HW131172   3.280   5.522  12.711
  226SOL    HW231173   3.147   5.594  12.703
  227SOL     OW31174   5.105   0.022  12.734
  227SOL    HW131175   5.113   6.382  12.701
  227SOL    HW231176   5.044   0.015  12.807
  228SOL     OW31177   5.096   1.866  12.748
  228SOL    HW131178   5.150   1.797  12.710
  228SOL    HW231179   5.012   1.858  12.702
  229SOL     OW31180   5.098   3.727  12.749
  229SOL    HW131181   5.154   3.659  12.711
  229SOL    HW231182   5.014   3.717  12.703
  230SOL     OW31183   5.096   5.590  12.750
  230SOL    HW131184   5.150   5.521  12.711
  230SOL    HW231185   5.013   5.586  12.702
  231SOL     OW31186   1.273   1.791   0.161
  231SOL    HW131187   1.309   1.825   0.080
  231SOL    HW231188   1.220   1.863   0.196
  232SOL     OW31189   1.269   3.655   0.147
  232SOL    HW131190   1.305   3.691   0.066
  232SOL    HW231191   1.218   3.727   0.184
  233SOL     OW31192   3.134   1.791   0.161
  233SOL    HW131193   3.172   1.825   0.080
  233SOL    HW231194   3.082   1.864   0.196
  234SOL     OW31195   3.262   3.581   0.203
  234SOL    HW131196   3.286   3.588   0.111
  234SOL    HW231197   3.189   3.643   0.214
  235SOL     OW31198   3.133   5.515   0.158
  235SOL    HW131199   3.169   5.551   0.077
  235SOL    HW231200   3.078   5.585   0.193
  236SOL     OW31201   4.996   1.790   0.160
  236SOL    HW131202   5.034   1.824   0.079
  236SOL    HW231203   4.945   1.863   0.195
  237SOL     OW31204   4.995   3.652   0.159
  237SOL    HW131205   5.036   3.685   0.079
  237SOL    HW231206   4.948   3.727   0.196
  238SOL     OW31207   4.997   5.511   0.157
  238SOL    HW131208   5.035   5.544   0.076
  238SOL    HW231209   4.948   5.586   0.192
  239SOL     OW31210   0.716   1.577  12.715
  239SOL    HW131211   0.710   1.617  12.628
  239SOL    HW231212   0.636   1.525  12.724
  240SOL     OW31213   0.717   3.439  12.715
  240SOL    HW131214   0.710   3.479  12.629
  240SOL    HW231215   0.637   3.388  12.724
  241SOL     OW31216   0.717   5.300  12.716
  241SOL    HW131217   0.711   5.340  12.629
  241SOL    HW231218   0.637   5.249  12.725
  242SOL     OW31219   2.576   1.573  12.716
  242SOL    HW131220   2.569   1.617  12.631
  242SOL    HW231221   2.495   1.523  12.723
  243SOL     OW31222   2.462   3.396   0.014
  243SOL    HW131223   2.488   3.453  12.803
  243SOL    HW231224   2.399   3.335  12.837
  244SOL     OW31225   2.578   5.289  12.715
  244SOL    HW131226   2.570   5.337  12.633
  244SOL    HW231227   2.495   5.242  12.723
  245SOL     OW31228   4.438   1.572  12.716
  245SOL    HW131229   4.431   1.616  12.631
  245SOL    HW231230   4.357   1.522  12.724
  246SOL     OW31231   4.437   3.442  12.713
  246SOL    HW131232   4.432   3.480  12.625
  246SOL    HW231233   4.358   3.390  12.721
  247SOL     OW31234   4.440   5.297  12.717
  247SOL    HW131235   4.433   5.340  12.632
  247SOL    HW231236   4.358   5.248  12.726
  248SOL     OW31237   6.251   1.601  12.702
  248SOL    HW131238   6.243   1.628  12.610
  248SOL    HW231239   6.182   1.535  12.714
  249SOL     OW31240   6.252   3.463  12.703
  249SOL    HW131241   6.243   3.491  12.612
  249SOL    HW231242   6.183   3.397  12.714
  250SOL     OW31243   6.251   5.326  12.704
  250SOL    HW131244   6.243   5.354  12.613
  250SOL    HW231245   6.182   5.260  12.715
  251SOL     OW31246   1.713   0.908   0.125
  251SOL    HW131247   1.793   0.857   0.141
  251SOL    HW231248   1.745   0.996   0.105
  252SOL     OW31249   1.720   2.773   0.137
  252SOL    HW131250   1.798   2.720   0.152
  252SOL    HW231251   1.753   2.853   0.096
  253SOL     OW31252   1.711   4.633   0.120
  253SOL    HW131253   1.791   4.586   0.146
  253SOL    HW231254   1.740   4.722   0.101
  254SOL     OW31255   3.575   0.908   0.126
  254SOL    HW131256   3.654   0.855   0.139
  254SOL    HW231257   3.608   0.996   0.105
  255SOL     OW31258   3.575   2.767   0.118
  255SOL    HW131259   3.655   2.717   0.136
  255SOL    HW231260   3.602   2.858   0.120
  256SOL     OW31261   3.608   4.659   0.092
  256SOL    HW131262   3.673   4.591   0.107
  256SOL    HW231263   3.652   4.741   0.115
  257SOL     OW31264   5.437   0.907   0.125
  257SOL    HW131265   5.515   0.853   0.138
  257SOL    HW231266   5.472   0.994   0.106
  258SOL     OW31267   5.439   2.773   0.122
  258SOL    HW131268   5.516   2.719   0.142
  258SOL    HW231269   5.475   2.860   0.105
  259SOL     OW31270   5.437   4.634   0.120
  259SOL    HW131271   5.513   4.578   0.137
  259SOL    HW231272   5.474   4.722   0.108
  260SOL     OW31273   0.032   0.037  12.696
  260SOL    HW131274   0.123   0.066  12.702
  260SOL    HW231275   0.027   6.414  12.759
  261SOL     OW31276   0.032   1.954  12.752
  261SOL    HW131277   0.060   2.017  12.685
  261SOL    HW231278   0.113   1.911  12.780
  262SOL     OW31279   0.032   3.814  12.749
  262SOL    HW131280   0.059   3.879  12.683
  262SOL    HW231281   0.113   3.774  12.778
  263SOL     OW31282   0.038   5.673  12.754
  263SOL    HW131283   0.056   5.740  12.689
  263SOL    HW231284   0.123   5.633  12.773
  264SOL     OW31285   0.366   0.037   0.140
  264SOL    HW131286   0.359   0.126   0.173
  264SOL    HW231287   0.287   6.443   0.171
  265SOL     OW31288   0.319   1.916   0.139
  265SOL    HW131289   0.305   2.006   0.169
  265SOL    HW231290   0.331   1.865   0.219
  266SOL     OW31291   0.319   3.778   0.138
  266SOL    HW131292   0.305   3.868   0.168
  266SOL    HW231293   0.330   3.727   0.218
  267SOL     OW31294   0.326   5.639   0.139
  267SOL    HW131295   0.313   5.728   0.171
  267SOL    HW231296   0.334   5.586   0.218
  268SOL     OW31297   2.208   0.021   0.175
  268SOL    HW131298   2.188   0.114   0.185
  268SOL    HW231299   2.197   6.434   0.262
  269SOL     OW31300   2.192   3.861   0.087
  269SOL    HW131301   2.166   3.945   0.125
  269SOL    HW231302   2.180   3.798   0.157
  270SOL     OW31303   2.194   5.645   0.135
  270SOL    HW131304   2.179   5.734   0.166
  270SOL    HW231305   2.196   5.592   0.214
  271SOL     OW31306   4.069   0.020   0.173
  271SOL    HW131307   4.050   0.113   0.185
  271SOL    HW231308   4.054   6.432   0.260
  272SOL     OW31309   4.051   1.923   0.137
  272SOL    HW131310   4.035   2.012   0.169
  272SOL    HW231311   4.057   1.870   0.216
  273SOL     OW31312   4.040   3.780   0.126
  273SOL    HW131313   4.044   3.869   0.163
  273SOL    HW231314   4.056   3.723   0.201
  274SOL     OW31315   4.050   5.641   0.137
  274SOL    HW131316   4.037   5.731   0.168
  274SOL    HW231317   4.056   5.589   0.217
  275SOL     OW31318   5.938   0.022   0.177
  275SOL    HW131319   5.912   0.113   0.186
  275SOL    HW231320   5.921   6.434   0.263
  276SOL     OW31321   5.903   1.921   0.138
  276SOL    HW131322   5.891   2.010   0.170
  276SOL    HW231323   5.914   1.868   0.217
  277SOL     OW31324   5.902   3.782   0.138
  277SOL    HW131325   5.890   3.871   0.170
  277SOL    HW231326   5.913   3.729   0.217
  278SOL     OW31327   5.905   5.645   0.137
  278SOL    HW131328   5.896   5.735   0.170
  278SOL    HW231329   5.914   5.591   0.216
  279SOL     OW31330   1.558   0.223  12.692
  279SOL    HW131331   1.494   0.155  12.712
  279SOL    HW231332   1.562   0.276  12.772
  280SOL     OW31333   1.507   2.110  12.696
  280SOL    HW131334   1.458   2.033  12.724
  280SOL    HW231335   1.565   2.130  12.769
  281SOL     OW31336   1.512   3.971  12.698
  281SOL    HW131337   1.459   3.895  12.723
  281SOL    HW231338   1.564   3.991  12.775
  282SOL     OW31339   1.507   5.835  12.697
  282SOL    HW131340   1.458   5.758  12.728
  282SOL    HW231341   1.568   5.855  12.768
  283SOL     OW31342   3.420   0.223  12.692
  283SOL    HW131343   3.355   0.155  12.712
  283SOL    HW231344   3.426   0.275  12.772
  284SOL     OW31345   3.367   2.114  12.698
  284SOL    HW131346   3.318   2.037  12.725
  284SOL    HW231347   3.431   2.128  12.768
  285SOL     OW31348   3.499   4.003  12.676
  285SOL    HW131349   3.510   3.950  12.755
  285SOL    HW231350   3.580   4.054  12.670
  286SOL     OW31351   3.372   5.835  12.696
  286SOL    HW131352   3.323   5.761  12.731
  286SOL    HW231353   3.433   5.859  12.766
  287SOL     OW31354   5.231   2.110  12.695
  287SOL    HW131355   5.183   2.034  12.727
  287SOL    HW231356   5.291   2.132  12.766
  288SOL     OW31357   5.231   3.973  12.695
  288SOL    HW131358   5.185   3.896  12.729
  288SOL    HW231359   5.294   3.995  12.764
  289SOL     OW31360   5.232   5.836  12.696
  289SOL    HW131361   5.184   5.760  12.730
  289SOL    HW231362   5.297   5.856  12.764
  290SOL     OW31363   0.586   0.987  12.679
  290SOL    HW131364   0.646   1.044  12.629
  290SOL    HW231365   0.630   0.975  12.763
  291SOL     OW31366   0.587   2.847  12.677
  291SOL    HW131367   0.645   2.905  12.628
  291SOL    HW231368   0.628   2.839  12.763
  292SOL     OW31369   0.589   4.707  12.675
  292SOL    HW131370   0.646   4.766  12.626
  292SOL    HW231371   0.629   4.701  12.762
  293SOL     OW31372   2.458   0.979  12.678
  293SOL    HW131373   2.512   1.042  12.629
  293SOL    HW231374   2.500   0.974  12.764
  294SOL     OW31375   2.454   2.807  12.712
  294SOL    HW131376   2.501   2.863  12.650
  294SOL    HW231377   2.499   2.822  12.796
  295SOL     OW31378   2.463   4.697  12.682
  295SOL    HW131379   2.509   4.767  12.635
  295SOL    HW231380   2.502   4.698  12.770
  296SOL     OW31381   4.316   0.979  12.678
  296SOL    HW131382   4.372   1.037  12.626
  296SOL    HW231383   4.363   0.970  12.762
  297SOL     OW31384   4.312   2.850  12.683
  297SOL    HW131385   4.373   2.901  12.629
  297SOL    HW231386   4.362   2.827  12.761
  298SOL     OW31387   4.314   4.712  12.681
  298SOL    HW131388   4.372   4.766  12.627
  298SOL    HW231389   4.367   4.688  12.756
  299SOL     OW31390   6.231   0.941  12.678
  299SOL    HW131391   6.259   1.023  12.639
  299SOL    HW231392   6.239   0.954  12.772
  300SOL     OW31393   6.244   2.801  12.682
  300SOL    HW131394   6.269   2.885  12.643
  300SOL    HW231395   6.245   2.817  12.776
  301SOL     OW31396   6.243   4.664  12.682
  301SOL    HW131397   6.269   4.747  12.645
  301SOL    HW231398   6.243   4.679  12.777
  302SOL     OW31399   1.163   1.339  12.674
  302SOL    HW131400   1.069   1.340  12.654
  302SOL    HW231401   1.169   1.295  12.758
  303SOL     OW31402   1.162   3.202  12.674
  303SOL    HW131403   1.068   3.203  12.654
  303SOL    HW231404   1.168   3.152  12.756
  304SOL     OW31405   1.162   5.063  12.673
  304SOL    HW131406   1.069   5.064  12.653
  304SOL    HW231407   1.169   5.020  12.758
  305SOL     OW31408   3.023   1.341  12.675
  305SOL    HW131409   2.930   1.341  12.655
  305SOL    HW231410   3.031   1.289  12.754
  306SOL     OW31411   3.105   3.147  12.741
  306SOL    HW131412   3.063   3.069  12.704
  306SOL    HW231413   3.063   3.159  12.826
  307SOL     OW31414   4.888   1.336  12.673
  307SOL    HW131415   4.794   1.335  12.654
  307SOL    HW231416   4.894   1.307  12.764
  308SOL     OW31417   4.891   3.195  12.675
  308SOL    HW131418   4.797   3.189  12.657
  308SOL    HW231419   4.899   3.177  12.768
  309SOL     OW31420   4.889   5.059  12.673
  309SOL    HW131421   4.796   5.057  12.653
  309SOL    HW231422   4.894   5.047  12.767
  310SOL     OW31423   0.065   1.582  12.735
  310SOL    HW131424   0.070   1.495  12.695
  310SOL    HW231425   6.421   1.603  12.735
  311SOL     OW31426   0.680   0.128  12.654
  311SOL    HW131427   0.652   0.090  12.737
  311SOL    HW231428   0.620   0.092  12.589
  312SOL     OW31429   0.066   3.446  12.732
  312SOL    HW131430   0.069   3.357  12.698
  312SOL    HW231431   6.423   3.469  12.734
  313SOL     OW31432   0.066   5.308  12.730
  313SOL    HW131433   0.066   5.218  12.697
  313SOL    HW231434   6.424   5.332  12.734
  314SOL     OW31435   0.649   3.851  12.654
  314SOL    HW131436   0.686   3.776  12.701
  314SOL    HW231437   0.601   3.812  12.581
  315SOL     OW31438   0.655   5.707  12.658
  315SOL    HW131439   0.687   5.631  12.707
  315SOL    HW231440   0.604   5.669  12.586
  316SOL     OW31441   1.877   1.573  12.710
  316SOL    HW131442   1.808   1.513  12.681
  316SOL    HW231443   1.842   1.611  12.791
  317SOL     OW31444   2.542   0.129  12.658
  317SOL    HW131445   2.514   0.091  12.741
  317SOL    HW231446   2.486   0.088  12.592
  318SOL     OW31447   1.877   3.432  12.712
  318SOL    HW131448   1.809   3.373  12.680
  318SOL    HW231449   1.840   3.470  12.792
  319SOL     OW31450   2.528   1.986  12.652
  319SOL    HW131451   2.528   1.922  12.722
  319SOL    HW231452   2.471   1.948  12.584
  320SOL     OW31453   1.881   5.288  12.713
  320SOL    HW131454   1.809   5.231  12.682
  320SOL    HW231455   1.846   5.328  12.792
  321SOL     OW31456   2.442   3.724  12.730
  321SOL    HW131457   2.455   3.792  12.796
  321SOL    HW231458   2.350   3.731  12.706
  322SOL     OW31459   2.537   5.694  12.651
  322SOL    HW131460   2.521   5.638  12.727
  322SOL    HW231461   2.474   5.663  12.586
  323SOL     OW31462   3.740   1.572  12.711
  323SOL    HW131463   3.670   1.512  12.682
  323SOL    HW231464   3.706   1.611  12.791
  324SOL     OW31465   4.412   0.115  12.649
  324SOL    HW131466   4.378   0.091  12.735
  324SOL    HW231467   4.348   0.078  12.588
  325SOL     OW31468   3.786   3.449  12.718
  325SOL    HW131469   3.705   3.415  12.679
  325SOL    HW231470   3.759   3.486  12.802
  326SOL     OW31471   4.397   1.980  12.651
  326SOL    HW131472   4.396   1.914  12.719
  326SOL    HW231473   4.337   1.947  12.584
  327SOL     OW31474   3.745   5.275  12.713
  327SOL    HW131475   3.672   5.223  12.681
  327SOL    HW231476   3.712   5.318  12.792
  328SOL     OW31477   4.394   5.696  12.652
  328SOL    HW131478   4.400   5.627  12.717
  328SOL    HW231479   4.333   5.663  12.586
  329SOL     OW31480   5.603   1.570  12.711
  329SOL    HW131481   5.533   1.512  12.681
  329SOL    HW231482   5.570   1.609  12.792
  330SOL     OW31483   6.215   0.113  12.697
  330SOL    HW131484   6.309   0.093  12.701
  330SOL    HW231485   6.192   0.104  12.605
  331SOL     OW31486   5.604   3.432  12.711
  331SOL    HW131487   5.534   3.374  12.682
  331SOL    HW231488   5.570   3.471  12.792
  332SOL     OW31489   6.234   2.035  12.659
  332SOL    HW131490   6.303   1.988  12.706
  332SOL    HW231491   6.199   1.971  12.597
  333SOL     OW31492   5.604   5.289  12.711
  333SOL    HW131493   5.533   5.232  12.683
  333SOL    HW231494   5.572   5.330  12.792
  334SOL     OW31495   6.230   3.892  12.662
  334SOL    HW131496   6.301   3.846  12.707
  334SOL    HW231497   6.198   3.830  12.597
  335SOL     OW31498   6.245   5.756  12.653
  335SOL    HW131499   6.308   5.705  12.704
  335SOL    HW231500   6.202   5.693  12.596
  336SOL     OW31501   0.272   0.621  12.692
  336SOL    HW131502   0.226   0.629  12.775
  336SOL    HW231503   0.202   0.611  12.627
  337SOL     OW31504   0.252   2.458  12.690
  337SOL    HW131505   0.219   2.473  12.779
  337SOL    HW231506   0.181   2.484  12.633
  338SOL     OW31507   0.249   4.316  12.691
  338SOL    HW131508   0.219   4.331  12.780
  338SOL    HW231509   0.179   4.350  12.636
  339SOL     OW31510   0.271   6.232  12.696
  339SOL    HW131511   0.213   6.219  12.771
  339SOL    HW231512   0.233   6.178  12.627
  340SOL     OW31513   2.146   0.613  12.706
  340SOL    HW131514   2.076   0.631  12.769
  340SOL    HW231515   2.101   0.597  12.624
  341SOL     OW31516   2.141   2.496  12.701
  341SOL    HW131517   2.075   2.501  12.770
  341SOL    HW231518   2.095   2.463  12.625
  342SOL     OW31519   2.141   4.374  12.709
  342SOL    HW131520   2.075   4.376  12.778
  342SOL    HW231521   2.095   4.339  12.633
  343SOL     OW31522   2.095   6.151  12.712
  343SOL    HW131523   2.059   6.232  12.747
  343SOL    HW231524   2.085   6.160  12.617
  344SOL     OW31525   3.984   0.618  12.715
  344SOL    HW131526   3.915   0.639  12.779
  344SOL    HW231527   3.937   0.607  12.632
  345SOL     OW31528   3.979   2.490  12.711
  345SOL    HW131529   3.914   2.504  12.781
  345SOL    HW231530   3.927   2.470  12.634
  346SOL     OW31531   3.992   4.353  12.708
  346SOL    HW131532   3.930   4.381  12.776
  346SOL    HW231533   3.941   4.354  12.627
  347SOL     OW31534   3.953   6.178  12.711
  347SOL    HW131535   3.956   6.273  12.725
  347SOL    HW231536   3.944   6.168  12.617
  348SOL     OW31537   5.855   0.606  12.708
  348SOL    HW131538   5.783   0.627  12.767
  348SOL    HW231539   5.813   0.589  12.624
  349SOL     OW31540   5.851   2.467  12.710
  349SOL    HW131541   5.782   2.488  12.773
  349SOL    HW231542   5.804   2.454  12.627
  350SOL     OW31543   5.850   4.329  12.711
  350SOL    HW131544   5.781   4.351  12.773
  350SOL    HW231545   5.804   4.317  12.628
  351SOL     OW31546   5.830   6.164  12.706
  351SOL    HW131547   5.795   6.251  12.727
  351SOL    HW231548   5.819   6.156  12.611
  352SOL     OW31549   0.860   0.454   0.187
  352SOL    HW131550   0.813   0.526   0.146
  352SOL    HW231551   0.836   0.377   0.135
  353SOL     OW31552   0.862   2.333   0.186
  353SOL    HW131553   0.796   2.395   0.156
  353SOL    HW231554   0.884   2.281   0.108
  354SOL     OW31555   0.861   4.197   0.186
  354SOL    HW131556   0.794   4.260   0.159
  354SOL    HW231557   0.881   4.148   0.106
  355SOL     OW31558   0.871   6.063   0.169
  355SOL    HW131559   0.797   6.119   0.145
  355SOL    HW231560   0.880   6.002   0.097
  356SOL     OW31561   2.721   0.457   0.186
  356SOL    HW131562   2.670   0.528   0.148
  356SOL    HW231563   2.698   0.380   0.134
  357SOL     OW31564   2.722   2.332   0.184
  357SOL    HW131565   2.655   2.392   0.152
  357SOL    HW231566   2.740   2.274   0.110
  358SOL     OW31567   2.516   4.165   0.143
  358SOL    HW131568   2.497   4.258   0.155
  358SOL    HW231569   2.502   4.149   0.050
  359SOL     OW31570   2.724   6.063   0.169
  359SOL    HW131571   2.648   6.118   0.150
  359SOL    HW231572   2.727   6.001   0.095
  360SOL     OW31573   4.581   0.454   0.188
  360SOL    HW131574   4.530   0.525   0.148
  360SOL    HW231575   4.560   0.377   0.134
  361SOL     OW31576   4.582   2.331   0.187
  361SOL    HW131577   4.517   2.395   0.156
  361SOL    HW231578   4.602   2.278   0.110
  362SOL     OW31579   4.590   4.194   0.188
  362SOL    HW131580   4.532   4.259   0.149
  362SOL    HW231581   4.620   4.141   0.113
  363SOL     OW31582   4.590   6.060   0.169
  363SOL    HW131583   4.514   6.115   0.146
  363SOL    HW231584   4.599   6.001   0.095
  364SOL     OW31585   6.431   0.409   0.175
  364SOL    HW131586   6.340   0.432   0.155
  364SOL    HW231587   6.436   0.314   0.160
  365SOL     OW31588   6.426   2.271   0.163
  365SOL    HW131589   6.331   2.279   0.157
  365SOL    HW231590   6.447   2.189   0.119
  366SOL     OW31591   6.422   4.135   0.162
  366SOL    HW131592   6.327   4.144   0.157
  366SOL    HW231593   6.441   4.052   0.119
  367SOL     OW31594   6.422   5.995   0.156
  367SOL    HW131595   6.326   6.001   0.156
  367SOL    HW231596   6.440   5.914   0.109
  368SOL     OW31597   1.880   0.400   0.173
  368SOL    HW131598   1.791   0.408   0.207
  368SOL    HW231599   1.871   0.351   0.091
  369SOL     OW31600   1.880   2.263   0.178
  369SOL    HW131601   1.791   2.270   0.214
  369SOL    HW231602   1.872   2.197   0.109
  370SOL     OW31603   1.849   4.138   0.159
  370SOL    HW131604   1.763   4.145   0.201
  370SOL    HW231605   1.836   4.072   0.091
  371SOL     OW31606   1.891   5.973   0.172
  371SOL    HW131607   1.802   5.977   0.206
  371SOL    HW231608   1.884   5.922   0.092
  372SOL     OW31609   3.743   0.402   0.172
  372SOL    HW131610   3.653   0.407   0.204
  372SOL    HW231611   3.737   0.350   0.092
  373SOL     OW31612   3.742   2.265   0.177
  373SOL    HW131613   3.653   2.269   0.213
  373SOL    HW231614   3.738   2.195   0.112
  374SOL     OW31615   3.807   4.128   0.130
  374SOL    HW131616   3.713   4.125   0.144
  374SOL    HW231617   3.823   4.064   0.061
  375SOL     OW31618   3.754   5.968   0.170
  375SOL    HW131619   3.665   5.971   0.203
  375SOL    HW231620   3.747   5.920   0.087
  376SOL     OW31621   5.608   0.400   0.170
  376SOL    HW131622   5.518   0.405   0.202
  376SOL    HW231623   5.602   0.350   0.088
  377SOL     OW31624   5.606   2.264   0.177
  377SOL    HW131625   5.517   2.268   0.212
  377SOL    HW231626   5.602   2.198   0.108
  378SOL     OW31627   5.606   4.126   0.176
  378SOL    HW131628   5.517   4.128   0.210
  378SOL    HW231629   5.605   4.058   0.109
  379SOL     OW31630   5.618   5.968   0.170
  379SOL    HW131631   5.528   5.969   0.204
  379SOL    HW231632   5.613   5.914   0.091
  380SOL     OW31633   0.601   0.698   0.189
  380SOL    HW131634   0.633   0.788   0.196
  380SOL    HW231635   0.536   0.701   0.119
  381SOL     OW31636   0.612   2.560   0.184
  381SOL    HW131637   0.641   2.651   0.192
  381SOL    HW231638   0.541   2.564   0.119
  382SOL     OW31639   0.614   4.421   0.183
  382SOL    HW131640   0.644   4.512   0.192
  382SOL    HW231641   0.542   4.425   0.121
  383SOL     OW31642   2.466   0.697   0.188
  383SOL    HW131643   2.497   0.787   0.194
  383SOL    HW231644   2.402   0.698   0.117
  384SOL     OW31645   2.472   2.557   0.178
  384SOL    HW131646   2.505   2.647   0.177
  384SOL    HW231647   2.405   2.554   0.110
  385SOL     OW31648   2.449   4.429   0.181
  385SOL    HW131649   2.491   4.515   0.184
  385SOL    HW231650   2.374   4.440   0.123
  386SOL     OW31651   4.327   0.697   0.191
  386SOL    HW131652   4.361   0.786   0.198
  386SOL    HW231653   4.255   0.703   0.128
  387SOL     OW31654   4.337   2.560   0.182
  387SOL    HW131655   4.371   2.649   0.190
  387SOL    HW231656   4.256   2.569   0.133
  388SOL     OW31657   6.165   0.691   0.182
  388SOL    HW131658   6.195   0.780   0.164
  388SOL    HW231659   6.141   0.656   0.096
  389SOL     OW31660   6.166   2.561   0.183
  389SOL    HW131661   6.195   2.650   0.161
  389SOL    HW231662   6.140   2.523   0.099
  390SOL     OW31663   6.164   4.422   0.182
  390SOL    HW131664   6.191   4.512   0.161
  390SOL    HW231665   6.138   4.385   0.098
  391SOL     OW31666   6.169   6.313   0.182
  391SOL    HW131667   6.236   6.382   0.182
  391SOL    HW231668   6.087   6.360   0.168
  392SOL     OW31669   0.126   1.203   0.156
  392SOL    HW131670   0.052   1.223   0.214
  392SOL    HW231671   0.117   1.109   0.138
  393SOL     OW31672   0.125   3.065   0.155
  393SOL    HW131673   0.053   3.091   0.213
  393SOL    HW231674   0.116   2.971   0.145
  394SOL     OW31675   0.126   4.930   0.156
  394SOL    HW131676   0.059   4.959   0.219
  394SOL    HW231677   0.123   4.834   0.161
  395SOL     OW31678   1.930   1.202   0.197
  395SOL    HW131679   1.969   1.159   0.274
  395SOL    HW231680   2.005   1.234   0.147
  396SOL     OW31681   1.927   3.066   0.192
  396SOL    HW131682   1.972   3.029   0.268
  396SOL    HW231683   1.997   3.102   0.138
  397SOL     OW31684   1.929   4.925   0.196
  397SOL    HW131685   1.978   4.883   0.267
  397SOL    HW231686   1.996   4.969   0.144
  398SOL     OW31687   3.794   1.200   0.197
  398SOL    HW131688   3.838   1.156   0.270
  398SOL    HW231689   3.864   1.240   0.147
  399SOL     OW31690   3.804   3.057   0.196
  399SOL    HW131691   3.838   3.007   0.271
  399SOL    HW231692   3.879   3.109   0.166
  400SOL     OW31693   3.800   4.910   0.189
  400SOL    HW131694   3.848   4.868   0.261
  400SOL    HW231695   3.863   4.971   0.151
  401SOL     OW31696   5.656   1.200   0.198
  401SOL    HW131697   5.701   1.156   0.270
  401SOL    HW231698   5.726   1.240   0.146
  402SOL     OW31699   5.653   3.061   0.197
  402SOL    HW131700   5.693   3.016   0.272
  402SOL    HW231701   5.727   3.103   0.153
  403SOL     OW31702   5.656   4.922   0.198
  403SOL    HW131703   5.702   4.877   0.269
  403SOL    HW231704   5.725   4.968   0.150
  404SOL     OW31705   1.662   1.235   0.228
  404SOL    HW131706   1.755   1.234   0.205
  404SOL    HW231707   1.633   1.323   0.204
  405SOL     OW31708   1.657   3.100   0.226
  405SOL    HW131709   1.750   3.095   0.204
  405SOL    HW231710   1.631   3.189   0.200
  406SOL     OW31711   1.662   4.959   0.231
  406SOL    HW131712   1.755   4.957   0.207
  406SOL    HW231713   1.632   5.047   0.207
  407SOL     OW31714   3.525   1.235   0.230
  407SOL    HW131715   3.618   1.233   0.207
  407SOL    HW231716   3.497   1.323   0.205
  408SOL     OW31717   3.535   3.084   0.216
  408SOL    HW131718   3.629   3.085   0.196
  408SOL    HW231719   3.506   3.174   0.204
  409SOL     OW31720   3.533   4.959   0.234
  409SOL    HW131721   3.624   4.958   0.204
  409SOL    HW231722   3.502   5.046   0.212
  410SOL     OW31723   5.387   1.236   0.230
  410SOL    HW131724   5.480   1.233   0.208
  410SOL    HW231725   5.359   1.324   0.205
  411SOL     OW31726   5.385   3.098   0.228
  411SOL    HW131727   5.478   3.095   0.206
  411SOL    HW231728   5.358   3.187   0.205
  412SOL     OW31729   5.388   4.960   0.232
  412SOL    HW131730   5.481   4.956   0.209
  412SOL    HW231731   5.361   5.048   0.207
  413SOL     OW31732   1.129   2.880  12.676
  413SOL    HW131733   1.090   2.908  12.593
  413SOL    HW231734   1.192   2.812  12.652
  414SOL     OW31735   1.124   4.735  12.677
  414SOL    HW131736   1.088   4.767  12.594
  414SOL    HW231737   1.191   4.672  12.651
  415SOL     OW31738   2.994   1.025  12.677
  415SOL    HW131739   2.952   1.050  12.595
  415SOL    HW231740   3.056   0.956  12.654
  416SOL     OW31741   3.021   2.914  12.640
  416SOL    HW131742   2.945   2.899  12.583
  416SOL    HW231743   3.063   2.828  12.647
  417SOL     OW31744   2.952   4.704  12.680
  417SOL    HW131745   2.936   4.758  12.602
  417SOL    HW231746   3.042   4.675  12.670
  418SOL     OW31747   4.821   0.986  12.667
  418SOL    HW131748   4.803   1.034  12.587
  418SOL    HW231749   4.903   0.939  12.648
  419SOL     OW31750   4.807   2.826  12.653
  419SOL    HW131751   4.799   2.888  12.580
  419SOL    HW231752   4.895   2.791  12.645
  420SOL     OW31753   4.795   4.665  12.643
  420SOL    HW131754   4.790   4.737  12.581
  420SOL    HW231755   4.887   4.639  12.642
  421SOL     OW31756   0.681   0.962   0.202
  421SOL    HW131757   0.760   0.967   0.256
  421SOL    HW231758   0.626   1.033   0.233
  422SOL     OW31759   0.683   2.826   0.200
  422SOL    HW131760   0.761   2.833   0.255
  422SOL    HW231761   0.626   2.897   0.230
  423SOL     OW31762   0.684   4.687   0.200
  423SOL    HW131763   0.762   4.694   0.255
  423SOL    HW231764   0.627   4.758   0.229
  424SOL     OW31765   0.722   0.112   0.214
  424SOL    HW131766   0.808   0.114   0.257
  424SOL    HW231767   0.664   0.158   0.274
  425SOL     OW31768   2.549   0.960   0.200
  425SOL    HW131769   2.628   0.963   0.254
  425SOL    HW231770   2.497   1.035   0.229
  426SOL     OW31771   2.556   2.820   0.172
  426SOL    HW131772   2.630   2.818   0.232
  426SOL    HW231773   2.497   2.886   0.209
  427SOL     OW31774   2.547   4.683   0.194
  427SOL    HW131775   2.623   4.691   0.252
  427SOL    HW231776   2.490   4.756   0.219
  428SOL     OW31777   2.579   0.108   0.218
  428SOL    HW131778   2.666   0.111   0.256
  428SOL    HW231779   2.524   0.156   0.279
  429SOL     OW31780   4.412   2.825   0.201
  429SOL    HW131781   4.491   2.827   0.254
  429SOL    HW231782   4.361   2.900   0.230
  430SOL     OW31783   4.411   4.690   0.203
  430SOL    HW131784   4.491   4.692   0.256
  430SOL    HW231785   4.360   4.765   0.233
  431SOL     OW31786   4.439   0.108   0.217
  431SOL    HW131787   4.527   0.110   0.256
  431SOL    HW231788   4.384   0.156   0.279
  432SOL     OW31789   6.280   0.958   0.171
  432SOL    HW131790   6.355   0.923   0.220
  432SOL    HW231791   6.241   1.022   0.229
  433SOL     OW31792   6.280   2.827   0.162
  433SOL    HW131793   6.351   2.790   0.215
  433SOL    HW231794   6.238   2.890   0.220
  434SOL     OW31795   6.272   4.689   0.155
  434SOL    HW131796   6.348   4.657   0.204
  434SOL    HW231797   6.233   4.755   0.213
  435SOL     OW31798   6.299   0.122   0.201
  435SOL    HW131799   6.259   0.157   0.280
  435SOL    HW231800   6.238   0.146   0.131
  436SOL     OW31801   1.655   1.423  12.654
  436SOL    HW131802   1.597   1.499  12.643
  436SOL    HW231803   1.598   1.348  12.637
  437SOL     OW31804   1.656   3.283  12.651
  437SOL    HW131805   1.599   3.360  12.643
  437SOL    HW231806   1.598   3.209  12.636
  438SOL     OW31807   1.655   5.145  12.652
  438SOL    HW131808   1.599   5.222  12.642
  438SOL    HW231809   1.597   5.071  12.635
  439SOL     OW31810   3.516   1.423  12.654
  439SOL    HW131811   3.459   1.499  12.643
  439SOL    HW231812   3.459   1.348  12.638
  440SOL     OW31813   3.575   3.184  12.573
  440SOL    HW131814   3.557   3.273  12.604
  440SOL    HW231815   3.501   3.133  12.604
  441SOL     OW31816   3.517   5.139  12.649
  441SOL    HW131817   3.465   5.218  12.642
  441SOL    HW231818   3.455   5.067  12.636
  442SOL     OW31819   5.380   1.423  12.653
  442SOL    HW131820   5.323   1.499  12.643
  442SOL    HW231821   5.322   1.348  12.637
  443SOL     OW31822   5.380   3.284  12.653
  443SOL    HW131823   5.323   3.360  12.642
  443SOL    HW231824   5.323   3.209  12.637
  444SOL     OW31825   5.380   5.145  12.654
  444SOL    HW131826   5.324   5.222  12.643
  444SOL    HW231827   5.322   5.071  12.636
  445SOL     OW31828   1.417   0.587  12.645
  445SOL    HW131829   1.409   0.547  12.731
  445SOL    HW231830   1.510   0.578  12.622
  446SOL     OW31831   1.422   2.440  12.640
  446SOL    HW131832   1.409   2.374  12.708
  446SOL    HW231833   1.515   2.435  12.619
  447SOL     OW31834   1.426   4.303  12.637
  447SOL    HW131835   1.412   4.241  12.708
  447SOL    HW231836   1.519   4.296  12.617
  448SOL     OW31837   1.424   6.188  12.656
  448SOL    HW131838   1.419   6.113  12.714
  448SOL    HW231839   1.515   6.187  12.624
  449SOL     OW31840   3.288   2.429  12.652
  449SOL    HW131841   3.277   2.355  12.711
  449SOL    HW231842   3.381   2.427  12.629
  450SOL     OW31843   3.284   4.351  12.732
  450SOL    HW131844   3.247   4.352  12.820
  450SOL    HW231845   3.371   4.314  12.743
  451SOL     OW31846   3.287   6.193  12.656
  451SOL    HW131847   3.280   6.118  12.716
  451SOL    HW231848   3.376   6.189  12.623
  452SOL     OW31849   5.141   0.589  12.645
  452SOL    HW131850   5.133   0.543  12.728
  452SOL    HW231851   5.234   0.580  12.622
  453SOL     OW31852   5.145   2.444  12.641
  453SOL    HW131853   5.133   2.379  12.710
  453SOL    HW231854   5.238   2.438  12.618
  454SOL     OW31855   5.144   4.306  12.641
  454SOL    HW131856   5.133   4.241  12.710
  454SOL    HW231857   5.237   4.301  12.618
  455SOL     OW31858   5.148   6.189  12.657
  455SOL    HW131859   5.142   6.112  12.713
  455SOL    HW231860   5.238   6.188  12.624
  456SOL     OW31861   1.286   0.945   0.187
  456SOL    HW131862   1.360   0.893   0.219
  456SOL    HW231863   1.306   0.960   0.094
  457SOL     OW31864   1.285   2.809   0.189
  457SOL    HW131865   1.359   2.758   0.221
  457SOL    HW231866   1.303   2.819   0.095
  458SOL     OW31867   1.283   4.670   0.185
  458SOL    HW131868   1.358   4.620   0.218
  458SOL    HW231869   1.302   4.684   0.092
  459SOL     OW31870   1.274   0.037   0.139
  459SOL    HW131871   1.334   6.436   0.194
  459SOL    HW231872   1.292   0.128   0.163
  460SOL     OW31873   3.148   0.946   0.187
  460SOL    HW131874   3.222   0.894   0.219
  460SOL    HW231875   3.168   0.961   0.094
  461SOL     OW31876   3.159   2.802   0.179
  461SOL    HW131877   3.228   2.749   0.219
  461SOL    HW231878   3.190   2.818   0.090
  462SOL     OW31879   3.197   4.762   0.162
  462SOL    HW131880   3.264   4.703   0.196
  462SOL    HW231881   3.233   4.795   0.080
  463SOL     OW31882   3.132   0.038   0.145
  463SOL    HW131883   3.194   6.437   0.198
  463SOL    HW231884   3.155   0.129   0.163
  464SOL     OW31885   5.011   0.946   0.187
  464SOL    HW131886   5.084   0.894   0.221
  464SOL    HW231887   5.033   0.960   0.095
  465SOL     OW31888   5.012   2.808   0.189
  465SOL    HW131889   5.084   2.756   0.225
  465SOL    HW231890   5.036   2.821   0.097
  466SOL     OW31891   5.013   4.669   0.188
  466SOL    HW131892   5.084   4.617   0.225
  466SOL    HW231893   5.040   4.686   0.098
  467SOL     OW31894   4.991   0.039   0.149
  467SOL    HW131895   5.053   6.437   0.200
  467SOL    HW231896   5.017   0.130   0.163
  468SOL     OW31897   0.828   1.583   0.209
  468SOL    HW131898   0.834   1.594   0.115
  468SOL    HW231899   0.757   1.520   0.222
  469SOL     OW31900   0.829   3.445   0.209
  469SOL    HW131901   0.833   3.457   0.114
  469SOL    HW231902   0.758   3.382   0.222
  470SOL     OW31903   0.831   5.305   0.210
  470SOL    HW131904   0.835   5.318   0.115
  470SOL    HW231905   0.758   5.244   0.222
  471SOL     OW31906   2.693   1.584   0.209
  471SOL    HW131907   2.698   1.595   0.114
  471SOL    HW231908   2.622   1.521   0.222
  472SOL     OW31909   2.652   3.424   0.228
  472SOL    HW131910   2.610   3.449   0.146
  472SOL    HW231911   2.595   3.355   0.264
  473SOL     OW31912   2.696   5.304   0.210
  473SOL    HW131913   2.700   5.323   0.116
  473SOL    HW231914   2.622   5.244   0.219
  474SOL     OW31915   4.556   1.583   0.210
  474SOL    HW131916   4.561   1.597   0.116
  474SOL    HW231917   4.484   1.521   0.222
  475SOL     OW31918   4.558   3.445   0.211
  475SOL    HW131919   4.562   3.457   0.116
  475SOL    HW231920   4.486   3.383   0.224
  476SOL     OW31921   4.557   5.306   0.212
  476SOL    HW131922   4.563   5.322   0.118
  476SOL    HW231923   4.484   5.245   0.221
  477SOL     OW31924   6.448   1.596   0.238
  477SOL    HW131925   0.022   1.625   0.150
  477SOL    HW231926   6.361   1.558   0.227
  478SOL     OW31927   6.448   3.457   0.240
  478SOL    HW131928   0.021   3.490   0.153
  478SOL    HW231929   6.360   3.420   0.230
  479SOL     OW31930   6.446   5.322   0.241
  479SOL    HW131931   0.021   5.353   0.154
  479SOL    HW231932   6.359   5.284   0.229
  480SOL     OW31933   1.345   0.470   0.216
  480SOL    HW131934   1.290   0.548   0.210
  480SOL    HW231935   1.317   0.428   0.298
  481SOL     OW31936   1.348   2.340   0.222
  481SOL    HW131937   1.289   2.415   0.215
  481SOL    HW231938   1.321   2.296   0.302
  482SOL     OW31939   1.361   6.045   0.221
  482SOL    HW131940   1.296   6.111   0.198
  482SOL    HW231941   1.330   6.008   0.304
  483SOL     OW31942   3.207   0.471   0.216
  483SOL    HW131943   3.152   0.549   0.210
  483SOL    HW231944   3.179   0.429   0.297
  484SOL     OW31945   3.210   2.336   0.220
  484SOL    HW131946   3.152   2.411   0.211
  484SOL    HW231947   3.183   2.294   0.302
  485SOL     OW31948   3.213   4.355   0.133
  485SOL    HW131949   3.181   4.432   0.179
  485SOL    HW231950   3.173   4.281   0.179
  486SOL     OW31951   3.224   6.045   0.222
  486SOL    HW131952   3.159   6.112   0.199
  486SOL    HW231953   3.193   6.009   0.304
  487SOL     OW31954   5.069   0.472   0.218
  487SOL    HW131955   5.014   0.549   0.211
  487SOL    HW231956   5.041   0.429   0.299
  488SOL     OW31957   5.071   2.339   0.222
  488SOL    HW131958   5.013   2.415   0.215
  488SOL    HW231959   5.045   2.296   0.303
  489SOL     OW31960   5.070   4.202   0.223
  489SOL    HW131961   5.012   4.277   0.217
  489SOL    HW231962   5.045   4.158   0.304
  490SOL     OW31963   5.087   6.046   0.223
  490SOL    HW131964   5.021   6.111   0.199
  490SOL    HW231965   5.055   6.009   0.305
  491SOL     OW31966   1.086   1.122   0.254
  491SOL    HW131967   1.014   1.069   0.287
  491SOL    HW231968   1.152   1.058   0.227
  492SOL     OW31969   1.087   2.988   0.257
  492SOL    HW131970   1.014   2.936   0.289
  492SOL    HW231971   1.152   2.924   0.229
  493SOL     OW31972   1.085   4.848   0.254
  493SOL    HW131973   1.012   4.795   0.287
  493SOL    HW231974   1.150   4.784   0.226
  494SOL     OW31975   2.948   1.122   0.255
  494SOL    HW131976   2.875   1.069   0.287
  494SOL    HW231977   3.014   1.059   0.227
  495SOL     OW31978   2.939   2.957   0.218
  495SOL    HW131979   2.871   2.897   0.251
  495SOL    HW231980   3.015   2.900   0.201
  496SOL     OW31981   2.924   4.871   0.231
  496SOL    HW131982   2.861   4.808   0.265
  496SOL    HW231983   2.989   4.818   0.184
  497SOL     OW31984   4.810   1.122   0.253
  497SOL    HW131985   4.738   1.069   0.286
  497SOL    HW231986   4.877   1.059   0.227
  498SOL     OW31987   4.809   2.984   0.250
  498SOL    HW131988   4.738   2.931   0.286
  498SOL    HW231989   4.877   2.921   0.227
  499SOL     OW31990   4.810   4.846   0.250
  499SOL    HW131991   4.738   4.793   0.286
  499SOL    HW231992   4.877   4.782   0.226
  500SOL     OW31993   1.555   1.506   0.237
  500SOL    HW131994   1.542   1.484   0.330
  500SOL    HW231995   1.468   1.525   0.204
  501SOL     OW31996   1.559   3.373   0.236
  501SOL    HW131997   1.544   3.348   0.327
  501SOL    HW231998   1.473   3.398   0.203
  502SOL     OW31999   1.556   5.230   0.238
  502SOL    HW132000   1.541   5.208   0.330
  502SOL    HW232001   1.469   5.253   0.205
  503SOL     OW32002   3.419   1.506   0.236
  503SOL    HW132003   3.405   1.484   0.328
  503SOL    HW232004   3.331   1.526   0.203
  504SOL     OW32005   3.451   3.354   0.246
  504SOL    HW132006   3.423   3.332   0.335
  504SOL    HW232007   3.410   3.438   0.228
  505SOL     OW32008   3.420   5.228   0.244
  505SOL    HW132009   3.405   5.211   0.337
  505SOL    HW232010   3.334   5.249   0.209
  506SOL     OW32011   5.279   1.507   0.236
  506SOL    HW132012   5.266   1.484   0.328
  506SOL    HW232013   5.191   1.527   0.203
  507SOL     OW32014   5.280   3.369   0.237
  507SOL    HW132015   5.268   3.347   0.329
  507SOL    HW232016   5.192   3.389   0.205
  508SOL     OW32017   5.281   5.231   0.236
  508SOL    HW132018   5.267   5.209   0.328
  508SOL    HW232019   5.195   5.254   0.203
  509SOL     OW32020   1.496   1.653  12.611
  509SOL    HW132021   1.405   1.631  12.594
  509SOL    HW232022   1.538   1.654  12.525
  510SOL     OW32023   1.496   3.515  12.615
  510SOL    HW132024   1.405   3.493  12.598
  510SOL    HW232025   1.537   3.518  12.528
  511SOL     OW32026   1.497   5.376  12.611
  511SOL    HW132027   1.405   5.355  12.594
  511SOL    HW232028   1.538   5.377  12.524
  512SOL     OW32029   3.358   1.654  12.611
  512SOL    HW132030   3.267   1.631  12.594
  512SOL    HW232031   3.399   1.654  12.524
  513SOL     OW32032   3.521   3.444  12.638
  513SOL    HW132033   3.454   3.494  12.685
  513SOL    HW232034   3.543   3.498  12.562
  514SOL     OW32035   3.361   5.369  12.609
  514SOL    HW132036   3.269   5.352  12.592
  514SOL    HW232037   3.401   5.372  12.522
  515SOL     OW32038   5.220   1.653  12.610
  515SOL    HW132039   5.129   1.631  12.593
  515SOL    HW232040   5.262   1.653  12.524
  516SOL     OW32041   5.220   3.514  12.609
  516SOL    HW132042   5.128   3.492  12.592
  516SOL    HW232043   5.261   3.515  12.523
  517SOL     OW32044   5.221   5.375  12.610
  517SOL    HW132045   5.129   5.355  12.592
  517SOL    HW232046   5.263   5.377  12.524
  518SOL     OW32047   1.338   0.849  12.615
  518SOL    HW132048   1.356   0.755  12.619
  518SOL    HW232049   1.353   0.872  12.523
  519SOL     OW32050   1.340   2.704  12.617
  519SOL    HW132051   1.359   2.610  12.622
  519SOL    HW232052   1.353   2.726  12.524
  520SOL     OW32053   1.341   4.567  12.615
  520SOL    HW132054   1.361   4.473  12.619
  520SOL    HW232055   1.354   4.590  12.524
  521SOL     OW32056   3.201   0.848  12.615
  521SOL    HW132057   3.218   0.754  12.619
  521SOL    HW232058   3.215   0.871  12.523
  522SOL     OW32059   3.191   2.687  12.635
  522SOL    HW132060   3.214   2.594  12.647
  522SOL    HW232061   3.196   2.700  12.541
  523SOL     OW32062   3.206   4.599  12.636
  523SOL    HW132063   3.223   4.506  12.654
  523SOL    HW232064   3.204   4.605  12.540
  524SOL     OW32065   5.062   0.851  12.616
  524SOL    HW132066   5.080   0.757  12.621
  524SOL    HW232067   5.077   0.873  12.524
  525SOL     OW32068   5.062   2.709  12.619
  525SOL    HW132069   5.081   2.615  12.624
  525SOL    HW232070   5.078   2.731  12.527
  526SOL     OW32071   1.461   1.222  12.610
  526SOL    HW132072   1.488   1.145  12.660
  526SOL    HW232073   1.370   1.236  12.635
  527SOL     OW32074   3.323   1.222  12.611
  527SOL    HW132075   3.351   1.145  12.661
  527SOL    HW232076   3.232   1.234  12.635
  528SOL     OW32077   3.333   3.053  12.620
  528SOL    HW132078   3.357   2.976  12.672
  528SOL    HW232079   3.259   3.092  12.667
  529SOL     OW32080   3.309   4.952  12.614
  529SOL    HW132081   3.335   4.883  12.675
  529SOL    HW232082   3.221   4.977  12.642
  530SOL     OW32083   5.186   1.222  12.610
  530SOL    HW132084   5.213   1.146  12.661
  530SOL    HW232085   5.095   1.237  12.636
  531SOL     OW32086   5.187   3.083  12.611
  531SOL    HW132087   5.215   3.006  12.661
  531SOL    HW232088   5.096   3.098  12.638
  532SOL     OW32089   5.185   4.946  12.610
  532SOL    HW132090   5.212   4.869  12.662
  532SOL    HW232091   5.095   4.962  12.638
  533SOL     OW32092   0.093   0.348  12.617
  533SOL    HW132093   0.003   0.355  12.651
  533SOL    HW232094   0.099   0.417  12.552
  534SOL     OW32095   0.069   2.162  12.569
  534SOL    HW132096   6.427   2.171  12.597
  534SOL    HW232097   0.089   2.245  12.525
  535SOL     OW32098   0.068   4.025  12.568
  535SOL    HW132099   6.427   4.035  12.597
  535SOL    HW232100   0.089   4.107  12.524
  536SOL     OW32101   0.072   5.881  12.573
  536SOL    HW132102   6.428   5.891  12.588
  536SOL    HW232103   0.099   5.964  12.535
  537SOL     OW32104   1.955   0.343  12.607
  537SOL    HW132105   1.867   0.315  12.580
  537SOL    HW232106   1.974   0.418  12.551
  538SOL     OW32107   1.956   2.180  12.571
  538SOL    HW132108   1.874   2.165  12.524
  538SOL    HW232109   1.988   2.264  12.537
  539SOL     OW32110   1.895   4.087  12.624
  539SOL    HW132111   1.804   4.116  12.610
  539SOL    HW232112   1.948   4.153  12.579
  540SOL     OW32113   1.957   5.892  12.556
  540SOL    HW132114   1.880   5.891  12.500
  540SOL    HW232115   1.990   5.982  12.551
  541SOL     OW32116   3.820   0.341  12.606
  541SOL    HW132117   3.733   0.311  12.577
  541SOL    HW232118   3.838   0.417  12.551
  542SOL     OW32119   3.824   2.178  12.574
  542SOL    HW132120   3.743   2.158  12.526
  542SOL    HW232121   3.853   2.261  12.537
  543SOL     OW32122   3.773   4.091  12.645
  543SOL    HW132123   3.752   4.039  12.568
  543SOL    HW232124   3.854   4.136  12.622
  544SOL     OW32125   3.820   5.895  12.556
  544SOL    HW132126   3.744   5.895  12.498
  544SOL    HW232127   3.854   5.984  12.550
  545SOL     OW32128   5.685   0.341  12.602
  545SOL    HW132129   5.598   0.312  12.574
  545SOL    HW232130   5.707   0.412  12.542
  546SOL     OW32131   5.685   2.180  12.563
  546SOL    HW132132   5.603   2.167  12.514
  546SOL    HW232133   5.720   2.262  12.529
  547SOL     OW32134   5.685   4.042  12.562
  547SOL    HW132135   5.605   4.030  12.510
  547SOL    HW232136   5.722   4.124  12.530
  548SOL     OW32137   5.681   5.899  12.553
  548SOL    HW132138   5.603   5.899  12.498
  548SOL    HW232139   5.723   5.983  12.535
  549SOL     OW32140   1.229   1.604  12.592
  549SOL    HW132141   1.205   1.518  12.628
  549SOL    HW232142   1.158   1.625  12.532
  550SOL     OW32143   1.229   3.466  12.593
  550SOL    HW132144   1.204   3.381  12.629
  550SOL    HW232145   1.159   3.488  12.532
  551SOL     OW32146   1.230   5.328  12.592
  551SOL    HW132147   1.205   5.242  12.627
  551SOL    HW232148   1.159   5.350  12.531
  552SOL     OW32149   3.091   1.604  12.593
  552SOL    HW132150   3.067   1.519  12.629
  552SOL    HW232151   3.019   1.625  12.533
  553SOL     OW32152   3.185   3.391  12.640
  553SOL    HW132153   3.169   3.307  12.683
  553SOL    HW232154   3.123   3.393  12.567
  554SOL     OW32155   3.094   5.333  12.587
  554SOL    HW132156   3.060   5.250  12.622
  554SOL    HW232157   3.025   5.363  12.528
  555SOL     OW32158   4.953   1.603  12.591
  555SOL    HW132159   4.928   1.517  12.625
  555SOL    HW232160   4.882   1.627  12.531
  556SOL     OW32161   4.952   3.465  12.590
  556SOL    HW132162   4.927   3.379  12.623
  556SOL    HW232163   4.882   3.489  12.530
  557SOL     OW32164   4.954   5.328  12.589
  557SOL    HW132165   4.926   5.242  12.619
  557SOL    HW232166   4.886   5.356  12.528
  558SOL     OW32167   1.178   0.691   0.248
  558SOL    HW132168   1.203   0.777   0.215
  558SOL    HW232169   1.123   0.709   0.324
  559SOL     OW32170   1.176   2.556   0.250
  559SOL    HW132171   1.200   2.643   0.217
  559SOL    HW232172   1.120   2.574   0.326
  560SOL     OW32173   1.172   4.420   0.249
  560SOL    HW132174   1.198   4.506   0.215
  560SOL    HW232175   1.118   4.440   0.326
  561SOL     OW32176   3.041   0.692   0.248
  561SOL    HW132177   3.065   0.778   0.216
  561SOL    HW232178   2.985   0.710   0.324
  562SOL     OW32179   3.039   2.553   0.241
  562SOL    HW132180   3.068   2.638   0.210
  562SOL    HW232181   2.990   2.571   0.321
  563SOL     OW32182   3.089   4.546   0.287
  563SOL    HW132183   3.104   4.633   0.248
  563SOL    HW232184   3.017   4.560   0.349
  564SOL     OW32185   4.902   0.692   0.249
  564SOL    HW132186   4.927   0.778   0.215
  564SOL    HW232187   4.846   0.711   0.324
  565SOL     OW32188   4.899   2.556   0.250
  565SOL    HW132189   4.925   2.641   0.216
  565SOL    HW232190   4.844   2.575   0.326
  566SOL     OW32191   4.896   4.418   0.249
  566SOL    HW132192   4.924   4.503   0.215
  566SOL    HW232193   4.843   4.440   0.326
  567SOL     OW32194   0.270   0.271   0.256
  567SOL    HW132195   0.242   0.357   0.225
  567SOL    HW232196   0.257   0.273   0.350
  568SOL     OW32197   0.276   2.159   0.255
  568SOL    HW132198   0.248   2.248   0.234
  568SOL    HW232199   0.261   2.150   0.349
  569SOL     OW32200   0.278   4.020   0.256
  569SOL    HW132201   0.247   4.109   0.238
  569SOL    HW232202   0.262   4.008   0.350
  570SOL     OW32203   0.289   5.877   0.265
  570SOL    HW132204   0.259   5.965   0.242
  570SOL    HW232205   0.259   5.864   0.355
  571SOL     OW32206   2.121   0.271   0.250
  571SOL    HW132207   2.048   0.327   0.224
  571SOL    HW232208   2.127   0.281   0.345
  572SOL     OW32209   2.129   2.159   0.265
  572SOL    HW132210   2.053   2.209   0.236
  572SOL    HW232211   2.123   2.158   0.360
  573SOL     OW32212   2.114   4.089   0.206
  573SOL    HW132213   2.025   4.119   0.187
  573SOL    HW232214   2.116   4.078   0.301
  574SOL     OW32215   2.136   5.876   0.264
  574SOL    HW132216   2.058   5.922   0.233
  574SOL    HW232217   2.127   5.878   0.359
  575SOL     OW32218   3.982   0.270   0.252
  575SOL    HW132219   3.910   0.328   0.226
  575SOL    HW232220   3.988   0.280   0.347
  576SOL     OW32221   3.991   2.157   0.262
  576SOL    HW132222   3.917   2.211   0.235
  576SOL    HW232223   3.987   2.156   0.358
  577SOL     OW32224   4.036   4.018   0.257
  577SOL    HW132225   3.967   4.077   0.224
  577SOL    HW232226   4.020   4.013   0.351
  578SOL     OW32227   3.999   5.874   0.265
  578SOL    HW132228   3.922   5.920   0.232
  578SOL    HW232229   3.991   5.879   0.360
  579SOL     OW32230   5.846   0.269   0.254
  579SOL    HW132231   5.776   0.326   0.225
  579SOL    HW232232   5.850   0.282   0.349
  580SOL     OW32233   5.854   2.156   0.267
  580SOL    HW132234   5.781   2.209   0.236
  580SOL    HW232235   5.847   2.158   0.362
  581SOL     OW32236   5.854   4.017   0.267
  581SOL    HW132237   5.782   4.072   0.237
  581SOL    HW232238   5.849   4.019   0.362
  582SOL     OW32239   5.864   5.881   0.268
  582SOL    HW132240   5.785   5.923   0.234
  582SOL    HW232241   5.852   5.881   0.363
  583SOL     OW32242   0.624   1.395   0.246
  583SOL    HW132243   0.583   1.313   0.275
  583SOL    HW232244   0.602   1.401   0.153
  584SOL     OW32245   0.625   3.257   0.246
  584SOL    HW132246   0.584   3.176   0.275
  584SOL    HW232247   0.601   3.264   0.153
  585SOL     OW32248   0.625   5.120   0.244
  585SOL    HW132249   0.585   5.038   0.272
  585SOL    HW232250   0.601   5.128   0.151
  586SOL     OW32251   2.486   1.399   0.243
  586SOL    HW132252   2.451   1.313   0.265
  586SOL    HW232253   2.461   1.413   0.151
  587SOL     OW32254   2.484   3.212   0.232
  587SOL    HW132255   2.432   3.131   0.231
  587SOL    HW232256   2.480   3.244   0.142
  588SOL     OW32257   2.486   5.125   0.240
  588SOL    HW132258   2.454   5.038   0.261
  588SOL    HW232259   2.455   5.141   0.151
  589SOL     OW32260   4.347   1.400   0.240
  589SOL    HW132261   4.312   1.314   0.262
  589SOL    HW232262   4.323   1.414   0.149
  590SOL     OW32263   4.351   3.260   0.244
  590SOL    HW132264   4.314   3.175   0.266
  590SOL    HW232265   4.327   3.274   0.152
  591SOL     OW32266   4.346   5.125   0.238
  591SOL    HW132267   4.309   5.040   0.261
  591SOL    HW232268   4.324   5.137   0.146
  592SOL     OW32269   6.200   1.410   0.234
  592SOL    HW132270   6.161   1.324   0.250
  592SOL    HW232271   6.179   1.429   0.142
  593SOL     OW32272   6.197   5.135   0.234
  593SOL    HW132273   6.159   5.048   0.250
  593SOL    HW232274   6.179   5.153   0.142
  594SOL     OW32275   1.491   0.795   0.268
  594SOL    HW132276   1.503   0.728   0.334
  594SOL    HW232277   1.580   0.813   0.235
  595SOL     OW32278   1.491   2.662   0.274
  595SOL    HW132279   1.499   2.588   0.333
  595SOL    HW232280   1.579   2.674   0.239
  596SOL     OW32281   1.489   4.525   0.270
  596SOL    HW132282   1.499   4.452   0.330
  596SOL    HW232283   1.577   4.538   0.233
  597SOL     OW32284   1.452   6.371   0.311
  597SOL    HW132285   1.458   6.298   0.373
  597SOL    HW232286   1.541   6.406   0.307
  598SOL     OW32287   3.353   0.798   0.269
  598SOL    HW132288   3.365   0.729   0.334
  598SOL    HW232289   3.441   0.814   0.236
  599SOL     OW32290   3.358   2.652   0.270
  599SOL    HW132291   3.367   2.578   0.331
  599SOL    HW232292   3.445   2.663   0.233
  600SOL     OW32293   3.388   4.598   0.254
  600SOL    HW132294   3.405   4.536   0.325
  600SOL    HW232295   3.473   4.609   0.211
  601SOL     OW32296   3.315   6.371   0.311
  601SOL    HW132297   3.320   6.300   0.375
  601SOL    HW232298   3.405   6.404   0.305
  602SOL     OW32299   5.215   0.798   0.271
  602SOL    HW132300   5.227   0.729   0.336
  602SOL    HW232301   5.303   0.814   0.237
  603SOL     OW32302   5.215   2.660   0.275
  603SOL    HW132303   5.223   2.587   0.337
  603SOL    HW232304   5.303   2.671   0.239
  604SOL     OW32305   5.214   4.522   0.278
  604SOL    HW132306   5.223   4.449   0.340
  604SOL    HW232307   5.302   4.533   0.241
  605SOL     OW32308   5.176   6.371   0.312
  605SOL    HW132309   5.181   6.299   0.375
  605SOL    HW232310   5.267   6.400   0.302
  606SOL     OW32311   1.054   0.559  12.562
  606SOL    HW132312   0.990   0.627  12.545
  606SOL    HW232313   1.098   0.587  12.643
  607SOL     OW32314   0.894   1.393  12.612
  607SOL    HW132315   0.838   1.449  12.666
  607SOL    HW232316   0.917   1.448  12.536
  608SOL     OW32317   1.058   2.416  12.558
  608SOL    HW132318   0.993   2.485  12.542
  608SOL    HW232319   1.107   2.447  12.634
  609SOL     OW32320   0.894   3.255  12.611
  609SOL    HW132321   0.839   3.311  12.666
  609SOL    HW232322   0.917   3.310  12.536
  610SOL     OW32323   1.057   4.279  12.558
  610SOL    HW132324   0.992   4.347  12.541
  610SOL    HW232325   1.106   4.311  12.634
  611SOL     OW32326   0.894   5.117  12.611
  611SOL    HW132327   0.839   5.173  12.666
  611SOL    HW232328   0.918   5.172  12.537
  612SOL     OW32329   1.051   6.133  12.564
  612SOL    HW132330   0.987   6.201  12.545
  612SOL    HW232331   1.118   6.176  12.617
  613SOL     OW32332   2.917   0.559  12.562
  613SOL    HW132333   2.852   0.628  12.545
  613SOL    HW232334   2.960   0.587  12.643
  614SOL     OW32335   2.754   1.393  12.610
  614SOL    HW132336   2.698   1.448  12.665
  614SOL    HW232337   2.779   1.448  12.537
  615SOL     OW32338   2.919   2.422  12.555
  615SOL    HW132339   2.855   2.492  12.546
  615SOL    HW232340   2.963   2.439  12.638
  616SOL     OW32341   2.591   3.206  12.633
  616SOL    HW132342   2.562   3.297  12.627
  616SOL    HW232343   2.683   3.209  12.606
  617SOL     OW32344   2.833   4.363  12.629
  617SOL    HW132345   2.784   4.442  12.610
  617SOL    HW232346   2.901   4.390  12.691
  618SOL     OW32347   2.760   5.113  12.612
  618SOL    HW132348   2.702   5.167  12.666
  618SOL    HW232349   2.781   5.170  12.537
  619SOL     OW32350   2.915   6.134  12.561
  619SOL    HW132351   2.848   6.200  12.543
  619SOL    HW232352   2.974   6.176  12.624
  620SOL     OW32353   4.779   0.559  12.564
  620SOL    HW132354   4.715   0.628  12.547
  620SOL    HW232355   4.826   0.589  12.642
  621SOL     OW32356   4.617   1.391  12.612
  621SOL    HW132357   4.561   1.447  12.665
  621SOL    HW232358   4.641   1.446  12.537
  622SOL     OW32359   4.783   2.416  12.557
  622SOL    HW132360   4.719   2.487  12.544
  622SOL    HW232361   4.833   2.443  12.634
  623SOL     OW32362   4.615   3.253  12.613
  623SOL    HW132363   4.560   3.311  12.666
  623SOL    HW232364   4.641   3.307  12.538
  624SOL     OW32365   4.780   4.277  12.559
  624SOL    HW132366   4.716   4.347  12.544
  624SOL    HW232367   4.838   4.311  12.627
  625SOL     OW32368   4.619   5.115  12.613
  625SOL    HW132369   4.563   5.172  12.667
  625SOL    HW232370   4.643   5.170  12.538
  626SOL     OW32371   4.777   6.132  12.566
  626SOL    HW132372   4.711   6.199  12.548
  626SOL    HW232373   4.845   6.178  12.615
  627SOL     OW32374   1.612   0.435   0.271
  627SOL    HW132375   1.525   0.445   0.233
  627SOL    HW232376   1.618   0.506   0.335
  628SOL     OW32377   1.612   2.291   0.277
  628SOL    HW132378   1.527   2.302   0.235
  628SOL    HW232379   1.615   2.358   0.345
  629SOL     OW32380   1.597   4.163   0.274
  629SOL    HW132381   1.512   4.172   0.230
  629SOL    HW232382   1.595   4.228   0.344
  630SOL     OW32383   1.625   6.003   0.270
  630SOL    HW132384   1.536   6.015   0.237
  630SOL    HW232385   1.646   6.085   0.314
  631SOL     OW32386   3.475   0.434   0.269
  631SOL    HW132387   3.387   0.444   0.232
  631SOL    HW232388   3.482   0.506   0.332
  632SOL     OW32389   3.475   2.287   0.276
  632SOL    HW132390   3.390   2.300   0.234
  632SOL    HW232391   3.478   2.353   0.346
  633SOL     OW32392   3.485   4.329   0.138
  633SOL    HW132393   3.392   4.350   0.132
  633SOL    HW232394   3.512   4.366   0.222
  634SOL     OW32395   3.488   6.001   0.267
  634SOL    HW132396   3.398   6.015   0.237
  634SOL    HW232397   3.515   6.087   0.301
  635SOL     OW32398   5.338   0.433   0.268
  635SOL    HW132399   5.250   0.444   0.232
  635SOL    HW232400   5.348   0.506   0.329
  636SOL     OW32401   5.336   2.287   0.276
  636SOL    HW132402   5.251   2.301   0.235
  636SOL    HW232403   5.343   2.356   0.342
  637SOL     OW32404   5.336   4.148   0.275
  637SOL    HW132405   5.250   4.163   0.236
  637SOL    HW232406   5.346   4.218   0.339
  638SOL     OW32407   5.351   6.000   0.267
  638SOL    HW132408   5.261   6.014   0.237
  638SOL    HW232409   5.377   6.085   0.302
  639SOL     OW32410   0.480   1.154   0.263
  639SOL    HW132411   0.416   1.132   0.331
  639SOL    HW232412   0.436   1.130   0.181
  640SOL     OW32413   0.485   4.878   0.260
  640SOL    HW132414   0.424   4.859   0.331
  640SOL    HW232415   0.437   4.857   0.180
  641SOL     OW32416   2.353   1.157   0.249
  641SOL    HW132417   2.287   1.140   0.316
  641SOL    HW232418   2.320   1.114   0.170
  642SOL     OW32419   2.338   2.986   0.234
  642SOL    HW132420   2.273   2.978   0.305
  642SOL    HW232421   2.296   2.943   0.159
  643SOL     OW32422   2.355   4.880   0.243
  643SOL    HW132423   2.288   4.867   0.310
  643SOL    HW232424   2.313   4.853   0.162
  644SOL     OW32425   4.215   1.158   0.248
  644SOL    HW132426   4.147   1.140   0.314
  644SOL    HW232427   4.182   1.116   0.168
  645SOL     OW32428   4.214   3.021   0.246
  645SOL    HW132429   4.148   3.002   0.313
  645SOL    HW232430   4.184   2.972   0.169
  646SOL     OW32431   4.211   4.884   0.250
  646SOL    HW132432   4.142   4.866   0.313
  646SOL    HW232433   4.183   4.841   0.169
  647SOL     OW32434   6.077   1.162   0.247
  647SOL    HW132435   6.011   1.144   0.313
  647SOL    HW232436   6.052   1.108   0.172
  648SOL     OW32437   6.076   3.022   0.246
  648SOL    HW132438   6.012   3.006   0.315
  648SOL    HW232439   6.046   2.971   0.172
  649SOL     OW32440   6.075   4.886   0.245
  649SOL    HW132441   6.010   4.869   0.314
  649SOL    HW232442   6.044   4.835   0.170
  650SOL     OW32443   0.987   0.069   0.305
  650SOL    HW132444   1.027   0.073   0.219
  650SOL    HW232445   0.999   6.428   0.333
  651SOL     OW32446   1.037   1.934   0.290
  651SOL    HW132447   0.975   1.931   0.217
  651SOL    HW232448   1.018   1.854   0.340
  652SOL     OW32449   1.038   3.796   0.289
  652SOL    HW132450   0.975   3.796   0.217
  652SOL    HW232451   1.019   3.716   0.338
  653SOL     OW32452   1.037   5.654   0.285
  653SOL    HW132453   0.975   5.651   0.212
  653SOL    HW232454   1.017   5.575   0.336
  654SOL     OW32455   2.848   0.069   0.304
  654SOL    HW132456   2.895   0.076   0.220
  654SOL    HW232457   2.857   6.427   0.329
  655SOL     OW32458   2.896   1.933   0.291
  655SOL    HW132459   2.837   1.930   0.216
  655SOL    HW232460   2.876   1.854   0.341
  656SOL     OW32461   2.933   3.598   0.300
  656SOL    HW132462   2.859   3.560   0.253
  656SOL    HW232463   2.926   3.563   0.389
  657SOL     OW32464   2.900   5.654   0.286
  657SOL    HW132465   2.835   5.658   0.216
  657SOL    HW232466   2.877   5.576   0.336
  658SOL     OW32467   4.709   0.070   0.304
  658SOL    HW132468   4.755   0.077   0.220
  658SOL    HW232469   4.724   6.430   0.332
  659SOL     OW32470   4.759   1.934   0.291
  659SOL    HW132471   4.699   1.932   0.217
  659SOL    HW232472   4.738   1.854   0.341
  660SOL     OW32473   4.758   3.797   0.293
  660SOL    HW132474   4.699   3.792   0.218
  660SOL    HW232475   4.739   3.718   0.344
  661SOL     OW32476   4.758   5.655   0.288
  661SOL    HW132477   4.699   5.653   0.213
  661SOL    HW232478   4.737   5.576   0.338
  662SOL     OW32479   1.765   0.976  12.567
  662SOL    HW132480   1.728   0.903  12.517
  662SOL    HW232481   1.698   0.996  12.633
  663SOL     OW32482   1.762   2.834  12.569
  663SOL    HW132483   1.726   2.761  12.518
  663SOL    HW232484   1.694   2.854  12.633
  664SOL     OW32485   1.764   4.699  12.567
  664SOL    HW132486   1.727   4.626  12.517
  664SOL    HW232487   1.697   4.719  12.632
  665SOL     OW32488   1.753   0.111  12.533
  665SOL    HW132489   1.705   0.037  12.496
  665SOL    HW232490   1.696   0.144  12.603
  666SOL     OW32491   3.627   0.974  12.567
  666SOL    HW132492   3.590   0.902  12.517
  666SOL    HW232493   3.560   0.995  12.633
  667SOL     OW32494   3.616   2.842  12.554
  667SOL    HW132495   3.581   2.765  12.508
  667SOL    HW232496   3.564   2.848  12.634
  668SOL     OW32497   3.663   4.682  12.620
  668SOL    HW132498   3.593   4.700  12.557
  668SOL    HW232499   3.625   4.702  12.705
  669SOL     OW32500   3.615   0.111  12.532
  669SOL    HW132501   3.566   0.037  12.495
  669SOL    HW232502   3.559   0.143  12.602
  670SOL     OW32503   5.491   0.975  12.567
  670SOL    HW132504   5.453   0.903  12.517
  670SOL    HW232505   5.424   0.995  12.633
  671SOL     OW32506   5.491   2.835  12.566
  671SOL    HW132507   5.453   2.762  12.516
  671SOL    HW232508   5.425   2.855  12.632
  672SOL     OW32509   5.491   4.697  12.566
  672SOL    HW132510   5.453   4.625  12.516
  672SOL    HW232511   5.425   4.718  12.632
  673SOL     OW32512   5.477   0.112  12.531
  673SOL    HW132513   5.429   0.038  12.495
  673SOL    HW232514   5.421   0.146  12.600
  674SOL     OW32515   0.182   1.752  12.555
  674SOL    HW132516   0.130   1.704  12.619
  674SOL    HW232517   0.237   1.811  12.607
  675SOL     OW32518   0.183   3.616  12.551
  675SOL    HW132519   0.130   3.568  12.615
  675SOL    HW232520   0.237   3.675  12.604
  676SOL     OW32521   0.182   5.477  12.548
  676SOL    HW132522   0.129   5.429  12.611
  676SOL    HW232523   0.236   5.536  12.601
  677SOL     OW32524   2.014   1.755  12.557
  677SOL    HW132525   1.958   1.701  12.613
  677SOL    HW232526   2.071   1.801  12.618
  678SOL     OW32527   1.981   3.623  12.546
  678SOL    HW132528   1.935   3.566  12.607
  678SOL    HW232529   2.039   3.676  12.600
  679SOL     OW32530   2.015   5.474  12.558
  679SOL    HW132531   1.960   5.421  12.616
  679SOL    HW232532   2.072   5.522  12.618
  680SOL     OW32533   3.876   1.756  12.559
  680SOL    HW132534   3.822   1.702  12.616
  680SOL    HW232535   3.934   1.804  12.619
  681SOL     OW32536   3.880   3.647  12.555
  681SOL    HW132537   3.838   3.586  12.616
  681SOL    HW232538   3.936   3.702  12.611
  682SOL     OW32539   3.873   5.474  12.561
  682SOL    HW132540   3.821   5.420  12.620
  682SOL    HW232541   3.929   5.525  12.619
  683SOL     OW32542   5.739   1.758  12.560
  683SOL    HW132543   5.685   1.704  12.617
  683SOL    HW232544   5.796   1.806  12.619
  684SOL     OW32545   5.740   3.620  12.560
  684SOL    HW132546   5.686   3.566  12.618
  684SOL    HW232547   5.797   3.669  12.619
  685SOL     OW32548   5.738   5.479  12.559
  685SOL    HW132549   5.684   5.424  12.617
  685SOL    HW232550   5.795   5.527  12.618
  686SOL     OW32551   0.219   1.295  12.561
  686SOL    HW132552   0.185   1.242  12.489
  686SOL    HW232553   0.182   1.256  12.640
  687SOL     OW32554   0.221   3.161  12.566
  687SOL    HW132555   0.169   3.129  12.491
  687SOL    HW232556   0.184   3.116  12.642
  688SOL     OW32557   0.221   5.026  12.568
  688SOL    HW132558   0.164   4.999  12.495
  688SOL    HW232559   0.185   4.982  12.644
  689SOL     OW32560   2.081   1.298  12.570
  689SOL    HW132561   2.052   1.220  12.523
  689SOL    HW232562   2.004   1.325  12.621
  690SOL     OW32563   2.065   3.165  12.589
  690SOL    HW132564   2.034   3.089  12.540
  690SOL    HW232565   1.987   3.199  12.632
  691SOL     OW32566   2.079   5.026  12.571
  691SOL    HW132567   2.048   4.948  12.525
  691SOL    HW232568   2.003   5.057  12.621
  692SOL     OW32569   3.943   1.297  12.569
  692SOL    HW132570   3.914   1.219  12.523
  692SOL    HW232571   3.867   1.325  12.620
  693SOL     OW32572   3.948   3.151  12.575
  693SOL    HW132573   3.921   3.072  12.527
  693SOL    HW232574   3.871   3.175  12.627
  694SOL     OW32575   3.945   5.036  12.587
  694SOL    HW132576   3.901   4.959  12.551
  694SOL    HW232577   3.876   5.083  12.634
  695SOL     OW32578   5.795   1.300  12.571
  695SOL    HW132579   5.766   1.220  12.527
  695SOL    HW232580   5.718   1.330  12.620
  696SOL     OW32581   5.796   3.161  12.571
  696SOL    HW132582   5.766   3.082  12.527
  696SOL    HW232583   5.720   3.191  12.621
  697SOL     OW32584   5.796   5.024  12.572
  697SOL    HW132585   5.765   4.945  12.528
  697SOL    HW232586   5.720   5.055  12.621
  698SOL     OW32587   1.663   0.561  12.546
  698SOL    HW132588   1.666   0.643  12.496
  698SOL    HW232589   1.709   0.498  12.490
  699SOL     OW32590   1.669   2.419  12.537
  699SOL    HW132591   1.669   2.501  12.489
  699SOL    HW232592   1.720   2.359  12.483
  700SOL     OW32593   1.675   4.277  12.530
  700SOL    HW132594   1.670   4.365  12.491
  700SOL    HW232595   1.714   4.223  12.461
  701SOL     OW32596   1.660   6.161  12.526
  701SOL    HW132597   1.660   6.237  12.469
  701SOL    HW232598   1.717   6.098  12.481
  702SOL     OW32599   3.527   0.563  12.546
  702SOL    HW132600   3.529   0.644  12.496
  702SOL    HW232601   3.573   0.499  12.491
  703SOL     OW32602   3.533   2.415  12.541
  703SOL    HW132603   3.533   2.498  12.493
  703SOL    HW232604   3.587   2.356  12.489
  704SOL     OW32605   3.607   4.309  12.576
  704SOL    HW132606   3.640   4.364  12.647
  704SOL    HW232607   3.670   4.236  12.571
  705SOL     OW32608   3.521   6.160  12.524
  705SOL    HW132609   3.521   6.237  12.468
  705SOL    HW232610   3.580   6.099  12.482
  706SOL     OW32611   5.387   0.561  12.545
  706SOL    HW132612   5.391   0.643  12.495
  706SOL    HW232613   5.433   0.498  12.490
  707SOL     OW32614   5.391   2.419  12.535
  707SOL    HW132615   5.393   2.501  12.487
  707SOL    HW232616   5.446   2.360  12.485
  708SOL     OW32617   5.388   4.280  12.534
  708SOL    HW132618   5.391   4.363  12.486
  708SOL    HW232619   5.446   4.222  12.485
  709SOL     OW32620   5.383   6.162  12.526
  709SOL    HW132621   5.382   6.238  12.468
  709SOL    HW232622   5.439   6.099  12.481
  710SOL     OW32623   0.878   0.762  12.521
  710SOL    HW132624   0.858   0.834  12.580
  710SOL    HW232625   0.903   0.805  12.439
  711SOL     OW32626   0.880   2.619  12.519
  711SOL    HW132627   0.854   2.691  12.577
  711SOL    HW232628   0.904   2.663  12.437
  712SOL     OW32629   0.878   4.480  12.518
  712SOL    HW132630   0.853   4.551  12.577
  712SOL    HW232631   0.902   4.525  12.437
  713SOL     OW32632   0.879   6.341  12.523
  713SOL    HW132633   0.896   6.429  12.556
  713SOL    HW232634   0.855   6.354  12.431
  714SOL     OW32635   2.739   0.762  12.520
  714SOL    HW132636   2.703   0.832  12.575
  714SOL    HW232637   2.765   0.806  12.439
  715SOL     OW32638   2.736   2.624  12.528
  715SOL    HW132639   2.669   2.684  12.561
  715SOL    HW232640   2.759   2.659  12.442
  716SOL     OW32641   2.706   4.572  12.521
  716SOL    HW132642   2.682   4.655  12.562
  716SOL    HW232643   2.746   4.596  12.438
  717SOL     OW32644   2.742   6.345  12.531
  717SOL    HW132645   2.767   6.435  12.550
  717SOL    HW232646   2.701   6.349  12.445
  718SOL     OW32647   4.605   0.765  12.525
  718SOL    HW132648   4.609   0.837  12.588
  718SOL    HW232649   4.626   0.806  12.441
  719SOL     OW32650   4.614   2.629  12.532
  719SOL    HW132651   4.644   2.697  12.594
  719SOL    HW232652   4.628   2.668  12.446
  720SOL     OW32653   4.612   4.489  12.526
  720SOL    HW132654   4.654   4.550  12.587
  720SOL    HW232655   4.623   4.530  12.440
  721SOL     OW32656   4.602   6.339  12.527
  721SOL    HW132657   4.608   6.428  12.561
  721SOL    HW232658   4.588   6.350  12.433
  722SOL     OW32659   6.406   0.759  12.539
  722SOL    HW132660   6.349   0.821  12.585
  722SOL    HW232661   0.007   0.813  12.479
  723SOL     OW32662   6.418   2.627  12.545
  723SOL    HW132663   6.356   2.678  12.598
  723SOL    HW232664   0.009   2.692  12.488
  724SOL     OW32665   6.417   4.492  12.544
  724SOL    HW132666   6.355   4.541  12.598
  724SOL    HW232667   0.009   4.559  12.489
  725SOL     OW32668   0.076   0.850   0.294
  725SOL    HW132669   0.099   0.765   0.331
  725SOL    HW232670   0.136   0.912   0.336
  726SOL     OW32671   0.078   2.710   0.291
  726SOL    HW132672   0.108   2.625   0.324
  726SOL    HW232673   0.124   2.774   0.345
  727SOL     OW32674   0.084   4.579   0.291
  727SOL    HW132675   0.153   4.515   0.311
  727SOL    HW232676   0.074   4.630   0.371
  728SOL     OW32677   0.136   6.397   0.263
  728SOL    HW132678   0.175   6.385   0.349
  728SOL    HW232679   0.068   0.014   0.277
  729SOL     OW32680   1.953   2.687   0.296
  729SOL    HW132681   2.033   2.675   0.347
  729SOL    HW232682   1.904   2.754   0.344
  730SOL     OW32683   3.814   0.829   0.301
  730SOL    HW132684   3.894   0.819   0.352
  730SOL    HW232685   3.765   0.897   0.346
  731SOL     OW32686   3.812   2.693   0.295
  731SOL    HW132687   3.892   2.681   0.346
  731SOL    HW232688   3.764   2.762   0.342
  732SOL     OW32689   3.813   4.549   0.292
  732SOL    HW132690   3.892   4.542   0.345
  732SOL    HW232691   3.760   4.616   0.336
  733SOL     OW32692   5.675   0.829   0.301
  733SOL    HW132693   5.756   0.819   0.350
  733SOL    HW232694   5.626   0.897   0.347
  734SOL     OW32695   5.674   2.692   0.296
  734SOL    HW132696   5.755   2.680   0.345
  734SOL    HW232697   5.626   2.759   0.344
  735SOL     OW32698   5.673   4.554   0.297
  735SOL    HW132699   5.754   4.542   0.346
  735SOL    HW232700   5.626   4.621   0.345
  736SOL     OW32701   1.257   1.563   0.312
  736SOL    HW132702   1.255   1.638   0.253
  736SOL    HW232703   1.297   1.598   0.392
  737SOL     OW32704   1.262   3.439   0.317
  737SOL    HW132705   1.249   3.502   0.245
  737SOL    HW232706   1.316   3.486   0.380
  738SOL     OW32707   1.258   5.290   0.314
  738SOL    HW132708   1.255   5.362   0.251
  738SOL    HW232709   1.295   5.328   0.393
  739SOL     OW32710   3.117   1.565   0.315
  739SOL    HW132711   3.115   1.639   0.254
  739SOL    HW232712   3.161   1.600   0.393
  740SOL     OW32713   3.127   3.387   0.396
  740SOL    HW132714   3.151   3.453   0.331
  740SOL    HW232715   3.210   3.359   0.434
  741SOL     OW32716   3.124   5.291   0.311
  741SOL    HW132717   3.120   5.365   0.251
  741SOL    HW232718   3.162   5.327   0.391
  742SOL     OW32719   4.977   1.566   0.315
  742SOL    HW132720   4.976   1.639   0.254
  742SOL    HW232721   5.022   1.601   0.393
  743SOL     OW32722   4.978   3.426   0.313
  743SOL    HW132723   4.977   3.501   0.253
  743SOL    HW232724   5.022   3.460   0.391
  744SOL     OW32725   4.972   5.292   0.319
  744SOL    HW132726   4.973   5.364   0.255
  744SOL    HW232727   5.021   5.326   0.394
  745SOL     OW32728   0.358   0.938  12.521
  745SOL    HW132729   0.429   0.950  12.584
  745SOL    HW232730   0.386   0.864  12.467
  746SOL     OW32731   0.357   2.801  12.521
  746SOL    HW132732   0.429   2.815  12.583
  746SOL    HW232733   0.388   2.730  12.464
  747SOL     OW32734   0.357   4.663  12.521
  747SOL    HW132735   0.429   4.677  12.583
  747SOL    HW232736   0.388   4.594  12.463
  748SOL     OW32737   2.226   0.939  12.519
  748SOL    HW132738   2.298   0.943  12.582
  748SOL    HW232739   2.252   0.870  12.458
  749SOL     OW32740   2.224   2.797  12.527
  749SOL    HW132741   2.281   2.778  12.602
  749SOL    HW232742   2.246   2.729  12.463
  750SOL     OW32743   2.225   4.672  12.522
  750SOL    HW132744   2.296   4.664  12.587
  750SOL    HW232745   2.244   4.604  12.458
  751SOL     OW32746   4.087   0.934  12.519
  751SOL    HW132747   4.160   0.943  12.581
  751SOL    HW232748   4.116   0.866  12.458
  752SOL     OW32749   4.092   2.799  12.518
  752SOL    HW132750   4.162   2.809  12.582
  752SOL    HW232751   4.121   2.728  12.461
  753SOL     OW32752   4.099   4.654  12.516
  753SOL    HW132753   4.168   4.673  12.580
  753SOL    HW232754   4.136   4.585  12.461
  754SOL     OW32755   5.955   0.924  12.520
  754SOL    HW132756   6.026   0.917  12.584
  754SOL    HW232757   5.976   0.858  12.453
  755SOL     OW32758   5.954   2.785  12.518
  755SOL    HW132759   6.022   2.775  12.585
  755SOL    HW232760   5.975   2.719  12.452
  756SOL     OW32761   5.953   4.646  12.518
  756SOL    HW132762   6.022   4.637  12.584
  756SOL    HW232763   5.975   4.580  12.452
  757SOL     OW32764   0.745   1.166  12.536
  757SOL    HW132765   0.791   1.245  12.564
  757SOL    HW232766   0.665   1.199  12.494
  758SOL     OW32767   0.745   3.028  12.536
  758SOL    HW132768   0.791   3.107  12.564
  758SOL    HW232769   0.665   3.061  12.493
  759SOL     OW32770   2.605   1.167  12.535
  759SOL    HW132771   2.651   1.246  12.563
  759SOL    HW232772   2.527   1.199  12.489
  760SOL     OW32773   2.571   2.964  12.516
  760SOL    HW132774   2.584   3.047  12.562
  760SOL    HW232775   2.485   2.972  12.476
  761SOL     OW32776   2.607   4.887  12.535
  761SOL    HW132777   2.650   4.967  12.565
  761SOL    HW232778   2.528   4.917  12.490
  762SOL     OW32779   4.466   1.166  12.535
  762SOL    HW132780   4.513   1.244  12.564
  762SOL    HW232781   4.389   1.199  12.490
  763SOL     OW32782   4.469   3.027  12.534
  763SOL    HW132783   4.514   3.105  12.564
  763SOL    HW232784   4.389   3.060  12.491
  764SOL     OW32785   4.466   4.893  12.533
  764SOL    HW132786   4.514   4.970  12.563
  764SOL    HW232787   4.390   4.928  12.487
  765SOL     OW32788   6.307   1.155  12.526
  765SOL    HW132789   6.344   1.237  12.492
  765SOL    HW232790   6.215   1.158  12.500
  766SOL     OW32791   6.314   3.018  12.522
  766SOL    HW132792   6.340   3.104  12.491
  766SOL    HW232793   6.222   3.010  12.498
  767SOL     OW32794   6.316   4.879  12.521
  767SOL    HW132795   6.340   4.967  12.491
  767SOL    HW232796   6.224   4.870  12.498
  768SOL     OW32797   0.340   0.286  12.505
  768SOL    HW132798   0.418   0.330  12.539
  768SOL    HW232799   0.271   0.306  12.568
  769SOL     OW32800   0.335   2.124  12.483
  769SOL    HW132801   0.382   2.186  12.539
  769SOL    HW232802   0.249   2.116  12.523
  770SOL     OW32803   0.334   3.986  12.481
  770SOL    HW132804   0.382   4.047  12.537
  770SOL    HW232805   0.248   3.978  12.522
  771SOL     OW32806   0.336   5.832  12.483
  771SOL    HW132807   0.370   5.919  12.505
  771SOL    HW232808   0.251   5.829  12.528
  772SOL     OW32809   2.204   0.251  12.554
  772SOL    HW132810   2.265   0.325  12.555
  772SOL    HW232811   2.122   0.288  12.587
  773SOL     OW32812   2.216   2.097  12.543
  773SOL    HW132813   2.255   2.184  12.555
  773SOL    HW232814   2.122   2.111  12.555
  774SOL     OW32815   2.081   3.932  12.496
  774SOL    HW132816   2.151   3.972  12.546
  774SOL    HW232817   2.001   3.960  12.540
  775SOL     OW32818   2.226   5.824  12.553
  775SOL    HW132819   2.267   5.903  12.589
  775SOL    HW232820   2.132   5.842  12.555
  776SOL     OW32821   4.078   0.258  12.572
  776SOL    HW132822   4.140   0.323  12.606
  776SOL    HW232823   3.992   0.293  12.593
  777SOL     OW32824   4.094   2.107  12.555
  777SOL    HW132825   4.138   2.182  12.596
  777SOL    HW232826   4.001   2.126  12.566
  778SOL     OW32827   4.085   3.986  12.515
  778SOL    HW132828   4.135   4.054  12.559
  778SOL    HW232829   4.044   3.937  12.586
  779SOL     OW32830   4.089   5.825  12.540
  779SOL    HW132831   4.131   5.901  12.581
  779SOL    HW232832   3.995   5.842  12.548
  780SOL     OW32833   5.943   0.263  12.539
  780SOL    HW132834   6.000   0.339  12.553
  780SOL    HW232835   5.861   0.287  12.581
  781SOL     OW32836   5.947   2.101  12.524
  781SOL    HW132837   5.990   2.174  12.569
  781SOL    HW232838   5.854   2.112  12.544
  782SOL     OW32839   5.947   3.963  12.522
  782SOL    HW132840   5.991   4.034  12.570
  782SOL    HW232841   5.855   3.974  12.543
  783SOL     OW32842   5.947   5.819  12.538
  783SOL    HW132843   5.989   5.898  12.573
  783SOL    HW232844   5.853   5.836  12.548
  784SOL     OW32845   1.017   0.137  12.433
  784SOL    HW132846   1.073   0.214  12.426
  784SOL    HW232847   1.052   0.075  12.368
  785SOL     OW32848   1.016   1.996  12.455
  785SOL    HW132849   1.071   2.072  12.436
  785SOL    HW232850   1.068   1.921  12.425
  786SOL     OW32851   1.017   3.857  12.456
  786SOL    HW132852   1.071   3.933  12.437
  786SOL    HW232853   1.068   3.782  12.425
  787SOL     OW32854   1.020   5.713  12.458
  787SOL    HW132855   1.072   5.791  12.439
  787SOL    HW232856   1.073   5.640  12.425
  788SOL     OW32857   2.879   0.137  12.435
  788SOL    HW132858   2.935   0.214  12.428
  788SOL    HW232859   2.914   0.076  12.369
  789SOL     OW32860   2.883   1.995  12.450
  789SOL    HW132861   2.938   2.072  12.432
  789SOL    HW232862   2.935   1.921  12.421
  790SOL     OW32863   2.956   3.644  12.483
  790SOL    HW132864   3.006   3.684  12.554
  790SOL    HW232865   2.866   3.641  12.516
  791SOL     OW32866   2.885   5.713  12.457
  791SOL    HW132867   2.936   5.792  12.439
  791SOL    HW232868   2.940   5.642  12.424
  792SOL     OW32869   4.740   0.138  12.431
  792SOL    HW132870   4.797   0.214  12.424
  792SOL    HW232871   4.776   0.075  12.369
  793SOL     OW32872   4.741   1.995  12.449
  793SOL    HW132873   4.797   2.072  12.433
  793SOL    HW232874   4.795   1.921  12.421
  794SOL     OW32875   4.734   3.857  12.451
  794SOL    HW132876   4.790   3.933  12.434
  794SOL    HW232877   4.786   3.782  12.421
  795SOL     OW32878   4.744   5.712  12.456
  795SOL    HW132879   4.796   5.790  12.439
  795SOL    HW232880   4.798   5.640  12.423
  796SOL     OW32881   1.091   1.353   0.393
  796SOL    HW132882   1.096   1.277   0.334
  796SOL    HW232883   1.152   1.416   0.354
  797SOL     OW32884   1.094   3.222   0.393
  797SOL    HW132885   1.099   3.147   0.333
  797SOL    HW232886   1.156   3.285   0.356
  798SOL     OW32887   1.095   5.077   0.394
  798SOL    HW132888   1.097   5.003   0.335
  798SOL    HW232889   1.154   5.142   0.355
  799SOL     OW32890   2.943   3.144   0.404
  799SOL    HW132891   2.944   3.080   0.332
  799SOL    HW232892   3.020   3.198   0.389
  800SOL     OW32893   2.956   5.085   0.393
  800SOL    HW132894   2.952   5.014   0.328
  800SOL    HW232895   3.018   5.148   0.356
  801SOL     OW32896   4.816   1.352   0.395
  801SOL    HW132897   4.820   1.277   0.335
  801SOL    HW232898   4.874   1.417   0.356
  802SOL     OW32899   4.815   5.074   0.395
  802SOL    HW132900   4.821   5.001   0.334
  802SOL    HW232901   4.873   5.141   0.358
  803SOL     OW32902   0.241   1.371   0.364
  803SOL    HW132903   0.234   1.277   0.348
  803SOL    HW232904   0.233   1.410   0.277
  804SOL     OW32905   0.248   3.231   0.361
  804SOL    HW132906   0.238   3.137   0.351
  804SOL    HW232907   0.230   3.266   0.273
  805SOL     OW32908   0.248   5.092   0.364
  805SOL    HW132909   0.247   4.996   0.365
  805SOL    HW232910   0.235   5.115   0.272
  806SOL     OW32911   1.859   1.557   0.390
  806SOL    HW132912   1.810   1.529   0.313
  806SOL    HW232913   1.823   1.504   0.461
  807SOL     OW32914   1.857   3.396   0.384
  807SOL    HW132915   1.793   3.371   0.317
  807SOL    HW232916   1.863   3.319   0.441
  808SOL     OW32917   1.859   5.278   0.389
  808SOL    HW132918   1.804   5.258   0.313
  808SOL    HW232919   1.818   5.231   0.461
  809SOL     OW32920   3.723   1.555   0.387
  809SOL    HW132921   3.671   1.530   0.311
  809SOL    HW232922   3.684   1.506   0.459
  810SOL     OW32923   3.727   3.403   0.366
  810SOL    HW132924   3.656   3.396   0.303
  810SOL    HW232925   3.700   3.350   0.440
  811SOL     OW32926   3.721   5.275   0.387
  811SOL    HW132927   3.659   5.260   0.316
  811SOL    HW232928   3.681   5.231   0.463
  812SOL     OW32929   5.586   1.557   0.389
  812SOL    HW132930   5.538   1.532   0.309
  812SOL    HW232931   5.551   1.500   0.457
  813SOL     OW32932   5.588   3.417   0.388
  813SOL    HW132933   5.536   3.392   0.311
  813SOL    HW232934   5.551   3.364   0.459
  814SOL     OW32935   5.587   5.279   0.387
  814SOL    HW132936   5.536   5.255   0.310
  814SOL    HW232937   5.550   5.226   0.458
  815SOL     OW32938   0.363   1.813   0.397
  815SOL    HW132939   0.409   1.730   0.410
  815SOL    HW232940   0.429   1.881   0.414
  816SOL     OW32941   0.363   3.675   0.395
  816SOL    HW132942   0.410   3.592   0.410
  816SOL    HW232943   0.428   3.742   0.413
  817SOL     OW32944   0.363   5.535   0.397
  817SOL    HW132945   0.409   5.452   0.411
  817SOL    HW232946   0.429   5.602   0.415
  818SOL     OW32947   2.226   1.815   0.392
  818SOL    HW132948   2.272   1.731   0.401
  818SOL    HW232949   2.294   1.881   0.410
  819SOL     OW32950   2.208   3.650   0.270
  819SOL    HW132951   2.228   3.558   0.283
  819SOL    HW232952   2.284   3.696   0.305
  820SOL     OW32953   2.225   5.539   0.395
  820SOL    HW132954   2.274   5.457   0.404
  820SOL    HW232955   2.290   5.607   0.412
  821SOL     OW32956   4.088   1.815   0.397
  821SOL    HW132957   4.136   1.733   0.403
  821SOL    HW232958   4.154   1.883   0.413
  822SOL     OW32959   4.100   3.672   0.374
  822SOL    HW132960   4.142   3.588   0.397
  822SOL    HW232961   4.164   3.738   0.401
  823SOL     OW32962   4.088   5.538   0.399
  823SOL    HW132963   4.138   5.457   0.405
  823SOL    HW232964   4.152   5.607   0.414
  824SOL     OW32965   5.950   3.680   0.396
  824SOL    HW132966   6.000   3.600   0.405
  824SOL    HW232967   6.014   3.750   0.408
  825SOL     OW32968   5.948   5.541   0.397
  825SOL    HW132969   5.998   5.460   0.404
  825SOL    HW232970   6.013   5.611   0.408
  826SOL     OW32971   0.790   0.291  12.466
  826SOL    HW132972   0.873   0.244  12.456
  826SOL    HW232973   0.747   0.246  12.539
  827SOL     OW32974   0.782   2.140  12.461
  827SOL    HW132975   0.865   2.092  12.460
  827SOL    HW232976   0.735   2.103  12.535
  828SOL     OW32977   0.782   4.000  12.459
  828SOL    HW132978   0.865   3.953  12.460
  828SOL    HW232979   0.734   3.965  12.534
  829SOL     OW32980   0.783   5.849  12.458
  829SOL    HW132981   0.867   5.804  12.460
  829SOL    HW232982   0.736   5.816  12.535
  830SOL     OW32983   2.651   0.289  12.466
  830SOL    HW132984   2.734   0.243  12.457
  830SOL    HW232985   2.608   0.246  12.541
  831SOL     OW32986   2.647   2.134  12.456
  831SOL    HW132987   2.731   2.087  12.453
  831SOL    HW232988   2.601   2.096  12.530
  832SOL     OW32989   2.592   4.137  12.280
  832SOL    HW132990   2.665   4.178  12.326
  832SOL    HW232991   2.516   4.191  12.302
  833SOL     OW32992   2.646   5.846  12.452
  833SOL    HW132993   2.731   5.803  12.453
  833SOL    HW232994   2.600   5.812  12.529
  834SOL     OW32995   4.513   0.291  12.466
  834SOL    HW132996   4.597   0.245  12.455
  834SOL    HW232997   4.470   0.246  12.539
  835SOL     OW32998   4.507   2.139  12.455
  835SOL    HW132999   4.591   2.092  12.453
  835SOL    HW233000   4.461   2.102  12.530
  836SOL     OW33001   4.499   4.001  12.458
  836SOL    HW133002   4.583   3.954  12.458
  836SOL    HW233003   4.453   3.968  12.535
  837SOL     OW33004   4.505   5.848  12.453
  837SOL    HW133005   4.590   5.804  12.454
  837SOL    HW233006   4.460   5.814  12.530
  838SOL     OW33007   0.891   0.974   0.388
  838SOL    HW133008   0.942   0.902   0.423
  838SOL    HW233009   0.848   1.013   0.464
  839SOL     OW33010   0.891   2.838   0.388
  839SOL    HW133011   0.941   2.764   0.423
  839SOL    HW233012   0.846   2.876   0.464
  840SOL     OW33013   0.890   4.699   0.389
  840SOL    HW133014   0.940   4.626   0.425
  840SOL    HW233015   0.846   4.738   0.464
  841SOL     OW33016   2.753   0.974   0.389
  841SOL    HW133017   2.804   0.902   0.425
  841SOL    HW233018   2.709   1.012   0.465
  842SOL     OW33019   2.762   2.802   0.362
  842SOL    HW133020   2.817   2.733   0.400
  842SOL    HW233021   2.722   2.845   0.438
  843SOL     OW33022   2.744   4.712   0.382
  843SOL    HW133023   2.806   4.654   0.427
  843SOL    HW233024   2.702   4.762   0.452
  844SOL     OW33025   4.615   0.974   0.388
  844SOL    HW133026   4.666   0.902   0.424
  844SOL    HW233027   4.571   1.012   0.464
  845SOL     OW33028   4.616   2.836   0.388
  845SOL    HW133029   4.667   2.763   0.425
  845SOL    HW233030   4.571   2.874   0.463
  846SOL     OW33031   4.616   4.699   0.389
  846SOL    HW133032   4.667   4.626   0.425
  846SOL    HW233033   4.572   4.737   0.465
  847SOL     OW33034   0.559   0.512   0.389
  847SOL    HW133035   0.570   0.568   0.312
  847SOL    HW233036   0.623   0.546   0.452
  848SOL     OW33037   0.553   2.385   0.391
  848SOL    HW133038   0.571   2.438   0.314
  848SOL    HW233039   0.620   2.411   0.454
  849SOL     OW33040   0.557   4.245   0.391
  849SOL    HW133041   0.574   4.299   0.313
  849SOL    HW233042   0.622   4.273   0.455
  850SOL     OW33043   0.560   6.120   0.386
  850SOL    HW133044   0.568   6.179   0.311
  850SOL    HW233045   0.630   6.149   0.445
  851SOL     OW33046   2.415   0.517   0.391
  851SOL    HW133047   2.429   0.571   0.314
  851SOL    HW233048   2.478   0.549   0.455
  852SOL     OW33049   2.412   2.392   0.393
  852SOL    HW133050   2.432   2.442   0.315
  852SOL    HW233051   2.482   2.413   0.455
  853SOL     OW33052   2.453   4.285   0.422
  853SOL    HW133053   2.453   4.332   0.339
  853SOL    HW233054   2.469   4.352   0.488
  854SOL     OW33055   2.419   6.121   0.386
  854SOL    HW133056   2.428   6.179   0.310
  854SOL    HW233057   2.487   6.151   0.446
  855SOL     OW33058   4.277   0.515   0.393
  855SOL    HW133059   4.292   0.568   0.315
  855SOL    HW233060   4.340   0.547   0.457
  856SOL     OW33061   4.275   2.388   0.392
  856SOL    HW133062   4.299   2.438   0.314
  856SOL    HW233063   4.341   2.412   0.457
  857SOL     OW33064   4.290   4.251   0.380
  857SOL    HW133065   4.310   4.305   0.304
  857SOL    HW233066   4.355   4.277   0.445
  858SOL     OW33067   4.280   6.124   0.388
  858SOL    HW133068   4.289   6.181   0.311
  858SOL    HW233069   4.349   6.153   0.447
  859SOL     OW33070   6.149   0.509   0.384
  859SOL    HW133071   6.149   0.567   0.307
  859SOL    HW233072   6.205   0.554   0.447
  860SOL     OW33073   6.155   2.373   0.380
  860SOL    HW133074   6.154   2.434   0.306
  860SOL    HW233075   6.210   2.416   0.446
  861SOL     OW33076   6.155   4.232   0.378
  861SOL    HW133077   6.153   4.294   0.305
  861SOL    HW233078   6.209   4.275   0.444
  862SOL     OW33079   6.156   6.109   0.368
  862SOL    HW133080   6.157   6.172   0.296
  862SOL    HW233081   6.214   6.148   0.434
  863SOL     OW33082   0.314   1.540  12.440
  863SOL    HW133083   0.264   1.609  12.483
  863SOL    HW233084   0.277   1.458  12.474
  864SOL     OW33085   0.318   3.402  12.444
  864SOL    HW133086   0.267   3.473  12.484
  864SOL    HW233087   0.282   3.322  12.483
  865SOL     OW33088   0.323   5.264  12.448
  865SOL    HW133089   0.270   5.336  12.484
  865SOL    HW233090   0.286   5.185  12.486
  866SOL     OW33091   2.107   1.539  12.418
  866SOL    HW133092   2.083   1.609  12.479
  866SOL    HW233093   2.118   1.461  12.473
  867SOL     OW33094   2.082   3.405  12.413
  867SOL    HW133095   2.057   3.478  12.469
  867SOL    HW233096   2.105   3.335  12.474
  868SOL     OW33097   2.110   5.262  12.416
  868SOL    HW133098   2.085   5.333  12.476
  868SOL    HW233099   2.117   5.185  12.473
  869SOL     OW33100   3.968   1.540  12.418
  869SOL    HW133101   3.946   1.610  12.479
  869SOL    HW233102   3.980   1.463  12.474
  870SOL     OW33103   4.013   3.406  12.455
  870SOL    HW133104   3.985   3.470  12.521
  870SOL    HW233105   4.013   3.322  12.502
  871SOL     OW33106   3.974   5.267  12.419
  871SOL    HW133107   3.949   5.340  12.477
  871SOL    HW233108   3.990   5.194  12.478
  872SOL     OW33109   5.830   1.542  12.421
  872SOL    HW133110   5.807   1.613  12.481
  872SOL    HW233111   5.839   1.465  12.478
  873SOL     OW33112   5.830   3.403  12.422
  873SOL    HW133113   5.807   3.475  12.481
  873SOL    HW233114   5.837   3.326  12.478
  874SOL     OW33115   5.830   5.264  12.420
  874SOL    HW133116   5.807   5.336  12.479
  874SOL    HW233117   5.839   5.188  12.477
  875SOL     OW33118   1.465   1.156   0.403
  875SOL    HW133119   1.401   1.092   0.370
  875SOL    HW233120   1.525   1.170   0.330
  876SOL     OW33121   1.467   3.012   0.402
  876SOL    HW133122   1.403   2.950   0.365
  876SOL    HW233123   1.526   3.031   0.330
  877SOL     OW33124   1.464   4.877   0.404
  877SOL    HW133125   1.400   4.815   0.368
  877SOL    HW233126   1.524   4.894   0.331
  878SOL     OW33127   3.325   1.154   0.401
  878SOL    HW133128   3.263   1.092   0.364
  878SOL    HW233129   3.388   1.170   0.330
  879SOL     OW33130   3.330   3.013   0.389
  879SOL    HW133131   3.276   2.938   0.365
  879SOL    HW233132   3.392   3.022   0.316
  880SOL     OW33133   3.329   4.894   0.410
  880SOL    HW133134   3.270   4.821   0.387
  880SOL    HW233135   3.387   4.902   0.335
  881SOL     OW33136   5.189   1.155   0.402
  881SOL    HW133137   5.127   1.092   0.366
  881SOL    HW233138   5.251   1.171   0.331
  882SOL     OW33139   5.188   3.018   0.402
  882SOL    HW133140   5.128   2.951   0.368
  882SOL    HW233141   5.249   3.034   0.330
  883SOL     OW33142   5.188   4.880   0.401
  883SOL    HW133143   5.129   4.813   0.365
  883SOL    HW233144   5.251   4.896   0.332
  884SOL     OW33145   0.508   0.058  12.458
  884SOL    HW133146   0.482   0.013  12.377
  884SOL    HW233147   0.436   0.119  12.476
  885SOL     OW33148   0.502   1.900  12.449
  885SOL    HW133149   0.461   1.841  12.386
  885SOL    HW233150   0.445   1.977  12.452
  886SOL     OW33151   0.502   3.761  12.447
  886SOL    HW133152   0.460   3.702  12.384
  886SOL    HW233153   0.444   3.837  12.450
  887SOL     OW33154   2.377   0.053  12.456
  887SOL    HW133155   2.367   0.045  12.361
  887SOL    HW233156   2.307   0.112  12.483
  888SOL     OW33157   2.371   1.888  12.450
  888SOL    HW133158   2.320   1.837  12.388
  888SOL    HW233159   2.313   1.960  12.475
  889SOL     OW33160   2.272   3.757  12.400
  889SOL    HW133161   2.232   3.693  12.341
  889SOL    HW233162   2.197   3.800  12.443
  890SOL     OW33163   2.368   5.609  12.453
  890SOL    HW133164   2.314   5.564  12.388
  890SOL    HW233165   2.315   5.685  12.479
  891SOL     OW33166   4.228   0.054  12.456
  891SOL    HW133167   4.238   0.066  12.361
  891SOL    HW233168   4.170   0.126  12.483
  892SOL     OW33169   4.234   1.891  12.451
  892SOL    HW133170   4.180   1.843  12.388
  892SOL    HW233171   4.181   1.967  12.475
  893SOL     OW33172   4.235   3.755  12.443
  893SOL    HW133173   4.182   3.702  12.383
  893SOL    HW233174   4.187   3.838  12.451
  894SOL     OW33175   4.231   5.607  12.450
  894SOL    HW133176   4.179   5.562  12.384
  894SOL    HW233177   4.180   5.684  12.472
  895SOL     OW33178   6.127   0.093  12.432
  895SOL    HW133179   6.080   0.018  12.396
  895SOL    HW233180   6.058   0.151  12.464
  896SOL     OW33181   6.103   3.758  12.446
  896SOL    HW133182   6.049   3.706  12.387
  896SOL    HW233183   6.048   3.833  12.470
  897SOL     OW33184   6.103   5.619  12.447
  897SOL    HW133185   6.047   5.569  12.387
  897SOL    HW233186   6.049   5.693  12.475
  898SOL     OW33187   1.805   1.042   0.417
  898SOL    HW133188   1.752   1.078   0.346
  898SOL    HW233189   1.747   1.045   0.493
  899SOL     OW33190   1.801   2.894   0.417
  899SOL    HW133191   1.748   2.909   0.339
  899SOL    HW233192   1.738   2.898   0.489
  900SOL     OW33193   1.797   4.759   0.413
  900SOL    HW133194   1.749   4.805   0.344
  900SOL    HW233195   1.741   4.766   0.490
  901SOL     OW33196   3.668   1.042   0.419
  901SOL    HW133197   3.618   1.078   0.347
  901SOL    HW233198   3.607   1.043   0.493
  902SOL     OW33199   3.667   2.907   0.411
  902SOL    HW133200   3.616   2.953   0.345
  902SOL    HW233201   3.611   2.905   0.489
  903SOL     OW33202   3.652   4.752   0.402
  903SOL    HW133203   3.612   4.813   0.340
  903SOL    HW233204   3.604   4.764   0.483
  904SOL     OW33205   5.529   1.042   0.421
  904SOL    HW133206   5.480   1.079   0.348
  904SOL    HW233207   5.468   1.044   0.495
  905SOL     OW33208   5.528   2.903   0.418
  905SOL    HW133209   5.476   2.938   0.346
  905SOL    HW233210   5.469   2.906   0.494
  906SOL     OW33211   5.528   4.765   0.421
  906SOL    HW133212   5.480   4.806   0.349
  906SOL    HW233213   5.468   4.766   0.495
  907SOL     OW33214   1.488   0.243  12.426
  907SOL    HW133215   1.524   0.249  12.514
  907SOL    HW233216   1.420   0.175  12.432
  908SOL     OW33217   1.525   2.086  12.425
  908SOL    HW133218   1.530   2.100  12.520
  908SOL    HW233219   1.462   2.014  12.415
  909SOL     OW33220   1.525   3.948  12.426
  909SOL    HW133221   1.532   3.962  12.521
  909SOL    HW233222   1.463   3.876  12.417
  910SOL     OW33223   1.522   5.811  12.427
  910SOL    HW133224   1.528   5.823  12.521
  910SOL    HW233225   1.453   5.747  12.415
  911SOL     OW33226   3.351   0.243  12.425
  911SOL    HW133227   3.387   0.249  12.514
  911SOL    HW233228   3.283   0.177  12.431
  912SOL     OW33229   3.389   2.084  12.428
  912SOL    HW133230   3.392   2.100  12.522
  912SOL    HW233231   3.333   2.007  12.418
  913SOL     OW33232   3.434   3.799  12.507
  913SOL    HW133233   3.470   3.867  12.564
  913SOL    HW233234   3.342   3.822  12.497
  914SOL     OW33235   5.211   0.242  12.424
  914SOL    HW133236   5.248   0.248  12.512
  914SOL    HW233237   5.147   0.171  12.430
  915SOL     OW33238   5.249   2.085  12.425
  915SOL    HW133239   5.254   2.100  12.519
  915SOL    HW233240   5.186   2.013  12.416
  916SOL     OW33241   5.250   3.948  12.426
  916SOL    HW133242   5.254   3.964  12.520
  916SOL    HW233243   5.192   3.872  12.417
  917SOL     OW33244   5.247   5.813  12.426
  917SOL    HW133245   5.253   5.824  12.521
  917SOL    HW233246   5.178   5.748  12.414
  918SOL     OW33247   1.615   0.198   0.421
  918SOL    HW133248   1.557   0.220   0.494
  918SOL    HW233249   1.613   0.275   0.364
  919SOL     OW33250   1.593   2.046   0.420
  919SOL    HW133251   1.541   2.074   0.495
  919SOL    HW233252   1.593   2.121   0.361
  920SOL     OW33253   1.569   3.915   0.405
  920SOL    HW133254   1.523   3.937   0.486
  920SOL    HW233255   1.571   3.997   0.355
  921SOL     OW33256   1.594   5.766   0.419
  921SOL    HW133257   1.543   5.798   0.494
  921SOL    HW233258   1.599   5.842   0.361
  922SOL     OW33259   3.479   0.199   0.421
  922SOL    HW133260   3.419   0.219   0.493
  922SOL    HW233261   3.476   0.275   0.364
  923SOL     OW33262   3.476   3.889   0.456
  923SOL    HW133263   3.454   3.905   0.547
  923SOL    HW233264   3.451   3.970   0.411
  924SOL     OW33265   3.455   5.767   0.419
  924SOL    HW133266   3.405   5.799   0.493
  924SOL    HW233267   3.461   5.842   0.360
  925SOL     OW33268   5.342   0.200   0.423
  925SOL    HW133269   5.282   0.221   0.494
  925SOL    HW233270   5.339   0.276   0.364
  926SOL     OW33271   5.315   3.906   0.420
  926SOL    HW133272   5.265   3.937   0.495
  926SOL    HW233273   5.318   3.981   0.361
  927SOL     OW33274   5.318   5.766   0.419
  927SOL    HW133275   5.267   5.799   0.494
  927SOL    HW233276   5.324   5.841   0.360
  928SOL     OW33277   0.491   1.274  12.459
  928SOL    HW133278   0.465   1.289  12.368
  928SOL    HW233279   0.411   1.245  12.503
  929SOL     OW33280   0.490   4.997  12.460
  929SOL    HW133281   0.463   5.011  12.369
  929SOL    HW233282   0.409   4.972  12.505
  930SOL     OW33283   2.344   1.280  12.454
  930SOL    HW133284   2.315   1.288  12.363
  930SOL    HW233285   2.267   1.250  12.502
  931SOL     OW33286   2.326   3.083  12.451
  931SOL    HW133287   2.280   3.122  12.376
  931SOL    HW233288   2.257   3.045  12.504
  932SOL     OW33289   2.344   5.000  12.456
  932SOL    HW133290   2.316   5.008  12.365
  932SOL    HW233291   2.265   4.971  12.503
  933SOL     OW33292   4.205   1.282  12.455
  933SOL    HW133293   4.177   1.288  12.363
  933SOL    HW233294   4.126   1.257  12.502
  934SOL     OW33295   4.211   3.142  12.459
  934SOL    HW133296   4.178   3.154  12.369
  934SOL    HW233297   4.136   3.106  12.506
  935SOL     OW33298   4.201   5.010  12.457
  935SOL    HW133299   4.172   5.012  12.366
  935SOL    HW233300   4.123   4.990  12.508
  936SOL     OW33301   6.052   1.266  12.460
  936SOL    HW133302   6.032   1.279  12.367
  936SOL    HW233303   5.966   1.257  12.502
  937SOL     OW33304   6.053   3.130  12.459
  937SOL    HW133305   6.032   3.142  12.366
  937SOL    HW233306   5.967   3.120  12.501
  938SOL     OW33307   6.052   4.989  12.461
  938SOL    HW133308   6.033   5.001  12.368
  938SOL    HW233309   5.967   4.980  12.503
  939SOL     OW33310   0.138   1.060  12.419
  939SOL    HW133311   0.061   1.046  12.475
  939SOL    HW233312   0.208   1.011  12.463
  940SOL     OW33313   0.119   2.873  12.407
  940SOL    HW133314   0.055   2.907  12.469
  940SOL    HW233315   0.197   2.854  12.460
  941SOL     OW33316   0.114   4.725  12.410
  941SOL    HW133317   0.052   4.769  12.468
  941SOL    HW233318   0.192   4.713  12.462
  942SOL     OW33319   0.129   0.122  12.426
  942SOL    HW133320   0.071   0.109  12.501
  942SOL    HW233321   0.203   0.171  12.461
  943SOL     OW33322   1.998   1.064  12.443
  943SOL    HW133323   1.921   1.029  12.488
  943SOL    HW233324   2.071   1.011  12.476
  944SOL     OW33325   1.996   2.925  12.451
  944SOL    HW133326   1.918   2.889  12.493
  944SOL    HW233327   2.068   2.871  12.484
  945SOL     OW33328   1.995   4.791  12.446
  945SOL    HW133329   1.918   4.755  12.489
  945SOL    HW233330   2.068   4.740  12.480
  946SOL     OW33331   1.994   0.113  12.409
  946SOL    HW133332   1.911   0.113  12.457
  946SOL    HW233333   2.059   0.144  12.472
  947SOL     OW33334   3.861   1.062  12.444
  947SOL    HW133335   3.783   1.027  12.488
  947SOL    HW233336   3.933   1.009  12.477
  948SOL     OW33337   3.864   2.917  12.444
  948SOL    HW133338   3.788   2.880  12.489
  948SOL    HW233339   3.938   2.867  12.478
  949SOL     OW33340   3.860   4.736  12.433
  949SOL    HW133341   3.798   4.717  12.503
  949SOL    HW233342   3.945   4.713  12.470
  950SOL     OW33343   3.859   0.112  12.414
  950SOL    HW133344   3.775   0.112  12.460
  950SOL    HW233345   3.922   0.139  12.481
  951SOL     OW33346   5.727   1.060  12.446
  951SOL    HW133347   5.649   1.025  12.489
  951SOL    HW233348   5.799   1.006  12.479
  952SOL     OW33349   5.727   2.923  12.447
  952SOL    HW133350   5.648   2.887  12.489
  952SOL    HW233351   5.798   2.868  12.479
  953SOL     OW33352   5.727   4.784  12.445
  953SOL    HW133353   5.649   4.748  12.488
  953SOL    HW233354   5.799   4.730  12.477
  954SOL     OW33355   5.722   0.106  12.413
  954SOL    HW133356   5.639   0.109  12.460
  954SOL    HW233357   5.787   0.137  12.477
  955SOL     OW33358   0.588   0.235   0.417
  955SOL    HW133359   0.590   0.232   0.513
  955SOL    HW233360   0.569   0.327   0.397
  956SOL     OW33361   0.559   2.025   0.435
  956SOL    HW133362   0.568   2.059   0.524
  956SOL    HW233363   0.542   2.103   0.381
  957SOL     OW33364   0.560   3.887   0.435
  957SOL    HW133365   0.568   3.922   0.524
  957SOL    HW233366   0.540   3.964   0.381
  958SOL     OW33367   0.559   5.747   0.438
  958SOL    HW133368   0.568   5.785   0.526
  958SOL    HW233369   0.536   5.822   0.382
  959SOL     OW33370   2.453   0.241   0.421
  959SOL    HW133371   2.448   0.236   0.516
  959SOL    HW233372   2.428   0.331   0.399
  960SOL     OW33373   2.421   2.020   0.436
  960SOL    HW133374   2.426   2.057   0.524
  960SOL    HW233375   2.401   2.096   0.380
  961SOL     OW33376   2.336   4.036   0.374
  961SOL    HW133377   2.386   4.103   0.421
  961SOL    HW233378   2.347   4.058   0.282
  962SOL     OW33379   2.420   5.744   0.440
  962SOL    HW133380   2.425   5.781   0.528
  962SOL    HW233381   2.398   5.818   0.383
  963SOL     OW33382   4.311   0.238   0.422
  963SOL    HW133383   4.308   0.235   0.517
  963SOL    HW233384   4.288   0.328   0.400
  964SOL     OW33385   4.282   2.020   0.438
  964SOL    HW133386   4.287   2.056   0.527
  964SOL    HW233387   4.266   2.096   0.383
  965SOL     OW33388   4.280   5.744   0.439
  965SOL    HW133389   4.287   5.785   0.525
  965SOL    HW233390   4.261   5.817   0.379
  966SOL     OW33391   6.190   0.236   0.423
  966SOL    HW133392   6.183   0.229   0.518
  966SOL    HW233393   6.165   0.326   0.404
  967SOL     OW33394   6.136   2.028   0.428
  967SOL    HW133395   6.144   2.065   0.516
  967SOL    HW233396   6.119   2.103   0.372
  968SOL     OW33397   6.137   3.889   0.430
  968SOL    HW133398   6.144   3.924   0.519
  968SOL    HW233399   6.121   3.966   0.375
  969SOL     OW33400   6.135   5.749   0.428
  969SOL    HW133401   6.144   5.785   0.516
  969SOL    HW233402   6.113   5.824   0.373
  970SOL     OW33403   0.264   1.070   0.420
  970SOL    HW133404   0.290   0.985   0.453
  970SOL    HW233405   0.202   1.103   0.485
  971SOL     OW33406   0.269   2.936   0.423
  971SOL    HW133407   0.292   2.848   0.452
  971SOL    HW233408   0.206   2.967   0.488
  972SOL     OW33409   0.276   4.806   0.425
  972SOL    HW133410   0.292   4.714   0.444
  972SOL    HW233411   0.210   4.833   0.490
  973SOL     OW33412   2.144   1.090   0.405
  973SOL    HW133413   2.143   1.001   0.441
  973SOL    HW233414   2.091   1.141   0.466
  974SOL     OW33415   2.134   2.946   0.407
  974SOL    HW133416   2.138   2.857   0.442
  974SOL    HW233417   2.079   2.994   0.470
  975SOL     OW33418   2.132   4.828   0.389
  975SOL    HW133419   2.131   4.738   0.420
  975SOL    HW233420   2.082   4.877   0.455
  976SOL     OW33421   4.003   1.089   0.402
  976SOL    HW133422   4.005   1.001   0.438
  976SOL    HW233423   3.952   1.140   0.465
  977SOL     OW33424   4.006   2.947   0.401
  977SOL    HW133425   4.009   2.859   0.438
  977SOL    HW233426   3.957   2.998   0.465
  978SOL     OW33427   3.991   4.812   0.394
  978SOL    HW133428   3.999   4.725   0.433
  978SOL    HW233429   3.943   4.862   0.460
  979SOL     OW33430   5.861   1.092   0.397
  979SOL    HW133431   5.865   1.004   0.435
  979SOL    HW233432   5.813   1.144   0.462
  980SOL     OW33433   5.863   2.953   0.401
  980SOL    HW133434   5.865   2.865   0.438
  980SOL    HW233435   5.814   3.005   0.464
  981SOL     OW33436   5.859   4.816   0.397
  981SOL    HW133437   5.864   4.728   0.434
  981SOL    HW233438   5.813   4.867   0.463
  982SOL     OW33439   0.154   0.528  12.426
  982SOL    HW133440   0.241   0.501  12.398
  982SOL    HW233441   0.142   0.615  12.387
  983SOL     OW33442   0.148   2.377  12.418
  983SOL    HW133443   0.243   2.368  12.423
  983SOL    HW233444   0.134   2.465  12.382
  984SOL     OW33445   0.149   4.239  12.417
  984SOL    HW133446   0.243   4.235  12.432
  984SOL    HW233447   0.135   4.326  12.380
  985SOL     OW33448   0.182   6.105  12.452
  985SOL    HW133449   0.235   6.158  12.393
  985SOL    HW233450   0.092   6.132  12.435
  986SOL     OW33451   2.060   0.529  12.435
  986SOL    HW133452   2.105   0.481  12.365
  986SOL    HW233453   2.028   0.609  12.393
  987SOL     OW33454   2.064   2.387  12.433
  987SOL    HW133455   2.109   2.340  12.363
  987SOL    HW233456   2.030   2.466  12.391
  988SOL     OW33457   2.041   4.255  12.459
  988SOL    HW133458   2.067   4.196  12.389
  988SOL    HW233459   2.016   4.336  12.414
  989SOL     OW33460   2.070   6.115  12.437
  989SOL    HW133461   2.139   6.075  12.384
  989SOL    HW233462   2.039   6.189  12.385
  990SOL     OW33463   3.914   0.536  12.442
  990SOL    HW133464   3.978   0.493  12.385
  990SOL    HW233465   3.886   0.613  12.392
  991SOL     OW33466   3.917   2.390  12.440
  991SOL    HW133467   3.994   2.355  12.395
  991SOL    HW233468   3.892   2.466  12.387
  992SOL     OW33469   3.905   4.250  12.452
  992SOL    HW133470   3.977   4.198  12.417
  992SOL    HW233471   3.900   4.326  12.393
  993SOL     OW33472   3.937   6.118  12.439
  993SOL    HW133473   4.014   6.083  12.393
  993SOL    HW233474   3.908   6.191  12.386
  994SOL     OW33475   5.791   0.527  12.432
  994SOL    HW133476   5.857   0.491  12.373
  994SOL    HW233477   5.757   0.604  12.385
  995SOL     OW33478   5.792   2.389  12.430
  995SOL    HW133479   5.868   2.362  12.379
  995SOL    HW233480   5.758   2.466  12.384
  996SOL     OW33481   5.793   4.251  12.430
  996SOL    HW133482   5.869   4.224  12.379
  996SOL    HW233483   5.760   4.328  12.384
  997SOL     OW33484   5.814   6.110  12.433
  997SOL    HW133485   5.888   6.075  12.383
  997SOL    HW233486   5.780   6.181  12.379
  998SOL     OW33487   1.003   1.109  12.437
  998SOL    HW133488   0.913   1.127  12.464
  998SOL    HW233489   0.997   1.032  12.381
  999SOL     OW33490   1.004   2.968  12.439
  999SOL    HW133491   0.913   2.987  12.464
  999SOL    HW233492   0.997   2.892  12.382
 1000SOL     OW33493   1.004   4.831  12.439
 1000SOL    HW133494   0.914   4.850  12.465
 1000SOL    HW233495   0.997   4.754  12.382
 1001SOL     OW33496   2.865   1.108  12.440
 1001SOL    HW133497   2.775   1.126  12.466
 1001SOL    HW233498   2.858   1.031  12.382
 1002SOL     OW33499   2.838   2.944  12.425
 1002SOL    HW133500   2.746   2.955  12.451
 1002SOL    HW233501   2.838   2.865  12.372
 1003SOL     OW33502   2.873   4.840  12.441
 1003SOL    HW133503   2.782   4.861  12.463
 1003SOL    HW233504   2.866   4.767  12.380
 1004SOL     OW33505   4.726   1.111  12.434
 1004SOL    HW133506   4.636   1.127  12.461
 1004SOL    HW233507   4.720   1.033  12.378
 1005SOL     OW33508   4.726   2.975  12.429
 1005SOL    HW133509   4.636   2.989  12.459
 1005SOL    HW233510   4.721   2.896  12.376
 1006SOL     OW33511   4.724   4.837  12.430
 1006SOL    HW133512   4.634   4.852  12.459
 1006SOL    HW233513   4.719   4.759  12.376
 1007SOL     OW33514   0.695   1.677  12.454
 1007SOL    HW133515   0.629   1.747  12.443
 1007SOL    HW233516   0.768   1.704  12.398
 1008SOL     OW33517   0.695   3.539  12.453
 1008SOL    HW133518   0.631   3.609  12.443
 1008SOL    HW233519   0.769   3.566  12.399
 1009SOL     OW33520   0.695   5.400  12.455
 1009SOL    HW133521   0.630   5.470  12.448
 1009SOL    HW233522   0.768   5.430  12.401
 1010SOL     OW33523   2.553   1.672  12.452
 1010SOL    HW133524   2.492   1.745  12.450
 1010SOL    HW233525   2.628   1.702  12.400
 1011SOL     OW33526   2.507   3.472  12.611
 1011SOL    HW133527   2.434   3.532  12.596
 1011SOL    HW233528   2.585   3.527  12.605
 1012SOL     OW33529   2.548   5.396  12.454
 1012SOL    HW133530   2.482   5.466  12.456
 1012SOL    HW233531   2.622   5.434  12.406
 1013SOL     OW33532   4.415   1.673  12.453
 1013SOL    HW133533   4.353   1.746  12.450
 1013SOL    HW233534   4.492   1.704  12.406
 1014SOL     OW33535   4.420   3.536  12.449
 1014SOL    HW133536   4.362   3.611  12.437
 1014SOL    HW233537   4.499   3.559  12.399
 1015SOL     OW33538   4.415   5.395  12.454
 1015SOL    HW133539   4.353   5.468  12.450
 1015SOL    HW233540   4.493   5.429  12.409
 1016SOL     OW33541   6.264   1.676  12.425
 1016SOL    HW133542   6.216   1.754  12.453
 1016SOL    HW233543   6.268   1.684  12.329
 1017SOL     OW33544   6.264   3.538  12.424
 1017SOL    HW133545   6.215   3.616  12.452
 1017SOL    HW233546   6.270   3.546  12.329
 1018SOL     OW33547   6.264   5.400  12.427
 1018SOL    HW133548   6.215   5.477  12.453
 1018SOL    HW233549   6.274   5.409  12.332
 1019SOL     OW33550   0.945   0.511   0.439
 1019SOL    HW133551   0.920   0.496   0.348
 1019SOL    HW233552   0.971   0.424   0.471
 1020SOL     OW33553   0.945   2.373   0.440
 1020SOL    HW133554   0.919   2.362   0.349
 1020SOL    HW233555   0.974   2.286   0.468
 1021SOL     OW33556   0.946   4.235   0.440
 1021SOL    HW133557   0.919   4.226   0.348
 1021SOL    HW233558   0.972   4.147   0.466
 1022SOL     OW33559   0.944   6.086   0.431
 1022SOL    HW133560   0.922   6.080   0.338
 1022SOL    HW233561   0.978   5.999   0.453
 1023SOL     OW33562   2.806   0.512   0.438
 1023SOL    HW133563   2.781   0.498   0.346
 1023SOL    HW233564   2.831   0.426   0.469
 1024SOL     OW33565   2.806   2.371   0.438
 1024SOL    HW133566   2.780   2.361   0.346
 1024SOL    HW233567   2.834   2.284   0.465
 1025SOL     OW33568   2.743   4.343   0.528
 1025SOL    HW133569   2.683   4.291   0.474
 1025SOL    HW233570   2.794   4.278   0.576
 1026SOL     OW33571   2.808   6.089   0.427
 1026SOL    HW133572   2.782   6.082   0.335
 1026SOL    HW233573   2.840   6.002   0.450
 1027SOL     OW33574   4.667   0.512   0.438
 1027SOL    HW133575   4.642   0.497   0.347
 1027SOL    HW233576   4.693   0.426   0.471
 1028SOL     OW33577   4.668   2.373   0.440
 1028SOL    HW133578   4.642   2.363   0.349
 1028SOL    HW233579   4.698   2.287   0.467
 1029SOL     OW33580   4.667   4.234   0.444
 1029SOL    HW133581   4.642   4.223   0.352
 1029SOL    HW233582   4.698   4.148   0.471
 1030SOL     OW33583   4.666   6.086   0.429
 1030SOL    HW133584   4.643   6.079   0.337
 1030SOL    HW233585   4.701   5.999   0.451
 1031SOL     OW33586   0.100   0.554   0.377
 1031SOL    HW133587   0.055   0.498   0.314
 1031SOL    HW233588   0.073   0.520   0.462
 1032SOL     OW33589   0.103   2.405   0.370
 1032SOL    HW133590   0.051   2.353   0.309
 1032SOL    HW233591   0.071   2.380   0.457
 1033SOL     OW33592   0.110   6.078   0.380
 1033SOL    HW133593   0.057   6.060   0.302
 1033SOL    HW233594   0.069   6.027   0.450
 1034SOL     OW33595   0.726   0.554  12.398
 1034SOL    HW133596   0.769   0.614  12.458
 1034SOL    HW233597   0.748   0.467  12.431
 1035SOL     OW33598   0.724   2.410  12.398
 1035SOL    HW133599   0.771   2.468  12.458
 1035SOL    HW233600   0.745   2.322  12.428
 1036SOL     OW33601   0.722   4.272  12.397
 1036SOL    HW133602   0.769   4.331  12.456
 1036SOL    HW233603   0.745   4.184  12.428
 1037SOL     OW33604   0.745   6.117  12.396
 1037SOL    HW133605   0.766   6.166  12.475
 1037SOL    HW233606   0.758   6.025  12.420
 1038SOL     OW33607   2.595   0.551  12.393
 1038SOL    HW133608   2.635   0.612  12.456
 1038SOL    HW233609   2.614   0.464  12.429
 1039SOL     OW33610   2.603   2.401  12.395
 1039SOL    HW133611   2.641   2.453  12.466
 1039SOL    HW233612   2.616   2.310  12.423
 1040SOL     OW33613   2.516   4.383  12.406
 1040SOL    HW133614   2.497   4.453  12.469
 1040SOL    HW233615   2.611   4.378  12.404
 1041SOL     OW33616   2.612   6.116  12.399
 1041SOL    HW133617   2.612   6.157  12.485
 1041SOL    HW233618   2.620   6.022  12.417
 1042SOL     OW33619   4.456   0.556  12.396
 1042SOL    HW133620   4.498   0.616  12.457
 1042SOL    HW233621   4.474   0.469  12.431
 1043SOL     OW33622   4.460   2.413  12.395
 1043SOL    HW133623   4.500   2.467  12.463
 1043SOL    HW233624   4.474   2.323  12.426
 1044SOL     OW33625   4.450   4.280  12.399
 1044SOL    HW133626   4.495   4.337  12.462
 1044SOL    HW233627   4.466   4.191  12.430
 1045SOL     OW33628   6.283   2.425  12.420
 1045SOL    HW133629   6.325   2.495  12.470
 1045SOL    HW233630   6.356   2.377  12.381
 1046SOL     OW33631   6.291   4.282  12.423
 1046SOL    HW133632   6.328   4.356  12.471
 1046SOL    HW233633   6.367   4.239  12.383
 1047SOL     OW33634   6.359   6.143  12.441
 1047SOL    HW133635   6.319   6.201  12.505
 1047SOL    HW233636   6.286   6.101  12.396
 1048SOL     OW33637   0.954   1.706   0.418
 1048SOL    HW133638   1.019   1.646   0.453
 1048SOL    HW233639   0.911   1.657   0.347
 1049SOL     OW33640   0.956   3.568   0.416
 1049SOL    HW133641   1.022   3.507   0.449
 1049SOL    HW233642   0.912   3.520   0.346
 1050SOL     OW33643   0.955   5.430   0.418
 1050SOL    HW133644   1.021   5.369   0.453
 1050SOL    HW233645   0.912   5.381   0.348
 1051SOL     OW33646   2.813   1.706   0.421
 1051SOL    HW133647   2.882   1.648   0.452
 1051SOL    HW233648   2.772   1.659   0.348
 1052SOL     OW33649   2.846   3.406   0.470
 1052SOL    HW133650   2.935   3.377   0.452
 1052SOL    HW233651   2.794   3.374   0.396
 1053SOL     OW33652   2.814   5.431   0.420
 1053SOL    HW133653   2.884   5.375   0.453
 1053SOL    HW233654   2.773   5.382   0.349
 1054SOL     OW33655   4.675   1.706   0.422
 1054SOL    HW133656   4.746   1.649   0.451
 1054SOL    HW233657   4.635   1.658   0.349
 1055SOL     OW33658   4.677   3.568   0.423
 1055SOL    HW133659   4.746   3.511   0.455
 1055SOL    HW233660   4.637   3.520   0.350
 1056SOL     OW33661   4.677   5.429   0.423
 1056SOL    HW133662   4.753   5.376   0.448
 1056SOL    HW233663   4.636   5.381   0.351
 1057SOL     OW33664   0.996   1.562  12.416
 1057SOL    HW133665   0.975   1.607  12.334
 1057SOL    HW233666   1.048   1.486  12.389
 1058SOL     OW33667   0.995   3.424  12.416
 1058SOL    HW133668   0.973   3.468  12.334
 1058SOL    HW233669   1.048   3.348  12.388
 1059SOL     OW33670   0.996   5.285  12.416
 1059SOL    HW133671   0.975   5.330  12.335
 1059SOL    HW233672   1.049   5.209  12.389
 1060SOL     OW33673   2.858   1.561  12.417
 1060SOL    HW133674   2.835   1.606  12.335
 1060SOL    HW233675   2.910   1.486  12.389
 1061SOL     OW33676   2.838   3.196  12.530
 1061SOL    HW133677   2.901   3.261  12.498
 1061SOL    HW233678   2.859   3.117  12.481
 1062SOL     OW33679   2.855   5.284  12.416
 1062SOL    HW133680   2.836   5.329  12.333
 1062SOL    HW233681   2.911   5.211  12.391
 1063SOL     OW33682   4.718   1.560  12.416
 1063SOL    HW133683   4.696   1.606  12.335
 1063SOL    HW233684   4.771   1.486  12.389
 1064SOL     OW33685   4.714   3.421  12.416
 1064SOL    HW133686   4.694   3.467  12.335
 1064SOL    HW233687   4.770   3.348  12.389
 1065SOL     OW33688   0.513   1.580   0.435
 1065SOL    HW133689   0.583   1.642   0.455
 1065SOL    HW233690   0.552   1.521   0.370
 1066SOL     OW33691   0.515   3.443   0.436
 1066SOL    HW133692   0.585   3.506   0.456
 1066SOL    HW233693   0.553   3.385   0.370
 1067SOL     OW33694   0.513   5.302   0.437
 1067SOL    HW133695   0.582   5.365   0.455
 1067SOL    HW233696   0.550   5.244   0.369
 1068SOL     OW33697   2.360   1.570   0.429
 1068SOL    HW133698   2.428   1.631   0.458
 1068SOL    HW233699   2.403   1.514   0.365
 1069SOL     OW33700   2.301   3.399   0.345
 1069SOL    HW133701   2.351   3.412   0.425
 1069SOL    HW233702   2.354   3.338   0.294
 1070SOL     OW33703   2.361   5.293   0.430
 1070SOL    HW133704   2.428   5.356   0.457
 1070SOL    HW233705   2.404   5.238   0.364
 1071SOL     OW33706   4.223   1.569   0.430
 1071SOL    HW133707   4.290   1.630   0.458
 1071SOL    HW233708   4.265   1.514   0.364
 1072SOL     OW33709   4.226   3.429   0.433
 1072SOL    HW133710   4.293   3.490   0.462
 1072SOL    HW233711   4.270   3.373   0.369
 1073SOL     OW33712   4.224   5.292   0.432
 1073SOL    HW133713   4.292   5.354   0.458
 1073SOL    HW233714   4.266   5.239   0.364
 1074SOL     OW33715   6.090   1.579   0.432
 1074SOL    HW133716   6.159   1.639   0.461
 1074SOL    HW233717   6.130   1.525   0.364
 1075SOL     OW33718   6.089   3.441   0.431
 1075SOL    HW133719   6.158   3.501   0.460
 1075SOL    HW233720   6.130   3.387   0.364
 1076SOL     OW33721   6.088   5.303   0.432
 1076SOL    HW133722   6.158   5.362   0.460
 1076SOL    HW233723   6.129   5.249   0.364
 1077SOL     OW33724   1.152   1.339  12.390
 1077SOL    HW133725   1.188   1.338  12.479
 1077SOL    HW233726   1.104   1.257  12.383
 1078SOL     OW33727   1.152   3.200  12.391
 1078SOL    HW133728   1.186   3.200  12.481
 1078SOL    HW233729   1.105   3.117  12.384
 1079SOL     OW33730   1.153   5.062  12.390
 1079SOL    HW133731   1.188   5.062  12.479
 1079SOL    HW233732   1.105   4.979  12.383
 1080SOL     OW33733   3.015   1.338  12.392
 1080SOL    HW133734   3.049   1.339  12.481
 1080SOL    HW233735   2.968   1.256  12.384
 1081SOL     OW33736   3.078   3.081  12.376
 1081SOL    HW133737   3.128   3.074  12.458
 1081SOL    HW233738   3.006   3.018  12.387
 1082SOL     OW33739   3.020   5.068  12.392
 1082SOL    HW133740   3.056   5.070  12.481
 1082SOL    HW233741   2.971   4.986  12.388
 1083SOL     OW33742   4.877   1.339  12.390
 1083SOL    HW133743   4.913   1.338  12.479
 1083SOL    HW233744   4.829   1.257  12.382
 1084SOL     OW33745   4.877   3.203  12.392
 1084SOL    HW133746   4.915   3.199  12.480
 1084SOL    HW233747   4.829   3.121  12.383
 1085SOL     OW33748   4.878   5.063  12.388
 1085SOL    HW133749   4.918   5.060  12.475
 1085SOL    HW233750   4.828   4.982  12.381
 1086SOL     OW33751   0.838   1.376   0.483
 1086SOL    HW133752   0.926   1.370   0.446
 1086SOL    HW233753   0.782   1.393   0.408
 1087SOL     OW33754   0.840   3.237   0.483
 1087SOL    HW133755   0.927   3.235   0.444
 1087SOL    HW233756   0.782   3.256   0.409
 1088SOL     OW33757   0.841   5.099   0.484
 1088SOL    HW133758   0.928   5.094   0.445
 1088SOL    HW233759   0.783   5.120   0.410
 1089SOL     OW33760   2.701   1.377   0.486
 1089SOL    HW133761   2.789   1.371   0.447
 1089SOL    HW233762   2.644   1.396   0.412
 1090SOL     OW33763   2.665   3.183   0.440
 1090SOL    HW133764   2.755   3.177   0.408
 1090SOL    HW233765   2.612   3.186   0.360
 1091SOL     OW33766   2.703   5.114   0.479
 1091SOL    HW133767   2.791   5.107   0.443
 1091SOL    HW233768   2.648   5.135   0.404
 1092SOL     OW33769   4.563   1.375   0.485
 1092SOL    HW133770   4.651   1.370   0.448
 1092SOL    HW233771   4.506   1.397   0.411
 1093SOL     OW33772   4.564   3.237   0.485
 1093SOL    HW133773   4.651   3.232   0.447
 1093SOL    HW233774   4.506   3.257   0.412
 1094SOL     OW33775   4.563   5.098   0.485
 1094SOL    HW133776   4.651   5.092   0.448
 1094SOL    HW233777   4.508   5.123   0.411
 1095SOL     OW33778   6.406   1.343   0.412
 1095SOL    HW133779   0.022   1.411   0.402
 1095SOL    HW233780   6.331   1.375   0.362
 1096SOL     OW33781   6.410   3.201   0.405
 1096SOL    HW133782   0.020   3.275   0.400
 1096SOL    HW233783   6.330   3.232   0.362
 1097SOL     OW33784   6.410   5.064   0.404
 1097SOL    HW133785   0.022   5.137   0.400
 1097SOL    HW233786   6.331   5.097   0.362
 1098SOL     OW33787   0.093   1.772   0.441
 1098SOL    HW133788   0.065   1.709   0.374
 1098SOL    HW233789   0.185   1.790   0.421
 1099SOL     OW33790   0.094   3.632   0.444
 1099SOL    HW133791   0.066   3.570   0.377
 1099SOL    HW233792   0.185   3.652   0.422
 1100SOL     OW33793   0.094   5.500   0.442
 1100SOL    HW133794   0.065   5.436   0.376
 1100SOL    HW233795   0.186   5.514   0.421
 1101SOL     OW33796   1.974   1.779   0.485
 1101SOL    HW133797   1.940   1.702   0.440
 1101SOL    HW233798   2.058   1.796   0.443
 1102SOL     OW33799   1.923   3.659   0.338
 1102SOL    HW133800   1.896   3.568   0.351
 1102SOL    HW233801   2.013   3.653   0.304
 1103SOL     OW33802   1.973   5.500   0.486
 1103SOL    HW133803   1.941   5.423   0.440
 1103SOL    HW233804   2.057   5.520   0.444
 1104SOL     OW33805   3.832   1.781   0.481
 1104SOL    HW133806   3.801   1.702   0.436
 1104SOL    HW233807   3.918   1.798   0.443
 1105SOL     OW33808   3.839   3.644   0.441
 1105SOL    HW133809   3.804   3.570   0.391
 1105SOL    HW233810   3.929   3.654   0.410
 1106SOL     OW33811   3.832   5.501   0.482
 1106SOL    HW133812   3.802   5.423   0.436
 1106SOL    HW233813   3.918   5.520   0.444
 1107SOL     OW33814   5.698   1.779   0.488
 1107SOL    HW133815   5.665   1.702   0.442
 1107SOL    HW233816   5.782   1.798   0.447
 1108SOL     OW33817   5.697   3.642   0.483
 1108SOL    HW133818   5.665   3.564   0.437
 1108SOL    HW233819   5.782   3.660   0.443
 1109SOL     OW33820   5.695   5.504   0.484
 1109SOL    HW133821   5.664   5.426   0.438
 1109SOL    HW233822   5.781   5.522   0.444
 1110SOL     OW33823   1.153   0.375  12.389
 1110SOL    HW133824   1.103   0.432  12.447
 1110SOL    HW233825   1.237   0.420  12.379
 1111SOL     OW33826   1.152   2.227  12.385
 1111SOL    HW133827   1.104   2.287  12.443
 1111SOL    HW233828   1.238   2.268  12.376
 1112SOL     OW33829   1.152   4.089  12.386
 1112SOL    HW133830   1.103   4.149  12.443
 1112SOL    HW233831   1.237   4.130  12.376
 1113SOL     OW33832   1.151   5.946  12.390
 1113SOL    HW133833   1.098   6.004  12.444
 1113SOL    HW233834   1.236   5.990  12.383
 1114SOL     OW33835   3.015   0.375  12.389
 1114SOL    HW133836   2.965   0.432  12.447
 1114SOL    HW233837   3.099   0.419  12.379
 1115SOL     OW33838   3.013   2.231  12.380
 1115SOL    HW133839   2.964   2.291  12.437
 1115SOL    HW233840   3.102   2.268  12.379
 1116SOL     OW33841   2.785   4.304  12.377
 1116SOL    HW133842   2.805   4.310  12.470
 1116SOL    HW233843   2.842   4.370  12.336
 1117SOL     OW33844   3.015   5.946  12.389
 1117SOL    HW133845   2.960   6.004  12.442
 1117SOL    HW233846   3.099   5.991  12.383
 1118SOL     OW33847   4.876   0.376  12.389
 1118SOL    HW133848   4.827   0.433  12.448
 1118SOL    HW233849   4.961   0.420  12.379
 1119SOL     OW33850   4.877   2.227  12.383
 1119SOL    HW133851   4.828   2.286  12.441
 1119SOL    HW233852   4.963   2.268  12.376
 1120SOL     OW33853   4.874   4.088  12.385
 1120SOL    HW133854   4.826   4.148  12.443
 1120SOL    HW233855   4.961   4.127  12.377
 1121SOL     OW33856   4.875   5.945  12.391
 1121SOL    HW133857   4.821   6.003  12.444
 1121SOL    HW233858   4.959   5.990  12.383
 1122SOL     OW33859   1.398   0.498  12.378
 1122SOL    HW133860   1.403   0.539  12.464
 1122SOL    HW233861   1.446   0.416  12.388
 1123SOL     OW33862   1.402   4.200  12.378
 1123SOL    HW133863   1.407   4.246  12.462
 1123SOL    HW233864   1.457   4.122  12.390
 1124SOL     OW33865   1.396   6.068  12.392
 1124SOL    HW133866   1.404   6.120  12.472
 1124SOL    HW233867   1.457   5.996  12.404
 1125SOL     OW33868   3.260   0.498  12.377
 1125SOL    HW133869   3.265   0.539  12.463
 1125SOL    HW233870   3.310   0.417  12.387
 1126SOL     OW33871   3.266   2.334  12.388
 1126SOL    HW133872   3.272   2.379  12.472
 1126SOL    HW233873   3.321   2.256  12.398
 1127SOL     OW33874   3.417   4.074  12.406
 1127SOL    HW133875   3.399   4.083  12.500
 1127SOL    HW233876   3.512   4.057  12.402
 1128SOL     OW33877   3.257   6.071  12.393
 1128SOL    HW133878   3.263   6.124  12.472
 1128SOL    HW233879   3.322   6.002  12.406
 1129SOL     OW33880   5.122   0.497  12.377
 1129SOL    HW133881   5.129   0.539  12.463
 1129SOL    HW233882   5.170   0.415  12.386
 1130SOL     OW33883   5.127   2.339  12.380
 1130SOL    HW133884   5.132   2.385  12.464
 1130SOL    HW233885   5.182   2.262  12.391
 1131SOL     OW33886   5.124   4.199  12.380
 1131SOL    HW133887   5.132   4.246  12.463
 1131SOL    HW233888   5.181   4.123  12.390
 1132SOL     OW33889   5.119   6.069  12.392
 1132SOL    HW133890   5.128   6.121  12.471
 1132SOL    HW233891   5.181   5.997  12.404
 1133SOL     OW33892   1.637   0.792  12.404
 1133SOL    HW133893   1.549   0.829  12.390
 1133SOL    HW233894   1.689   0.827  12.331
 1134SOL     OW33895   1.637   2.652  12.401
 1134SOL    HW133896   1.549   2.689  12.390
 1134SOL    HW233897   1.688   2.687  12.329
 1135SOL     OW33898   1.636   4.515  12.403
 1135SOL    HW133899   1.549   4.554  12.390
 1135SOL    HW233900   1.689   4.551  12.331
 1136SOL     OW33901   1.613   6.377  12.362
 1136SOL    HW133902   1.535   6.347  12.316
 1136SOL    HW233903   1.647   6.449  12.308
 1137SOL     OW33904   3.499   0.793  12.403
 1137SOL    HW133905   3.412   0.829  12.389
 1137SOL    HW233906   3.551   0.827  12.330
 1138SOL     OW33907   3.495   2.645  12.402
 1138SOL    HW133908   3.403   2.662  12.382
 1138SOL    HW233909   3.543   2.682  12.328
 1139SOL     OW33910   3.487   4.714  12.418
 1139SOL    HW133911   3.424   4.783  12.397
 1139SOL    HW233912   3.544   4.709  12.341
 1140SOL     OW33913   3.474   6.378  12.360
 1140SOL    HW133914   3.396   6.348  12.315
 1140SOL    HW233915   3.508   6.449  12.305
 1141SOL     OW33916   5.361   0.794  12.404
 1141SOL    HW133917   5.273   0.830  12.390
 1141SOL    HW233918   5.413   0.828  12.331
 1142SOL     OW33919   5.362   2.653  12.400
 1142SOL    HW133920   5.274   2.691  12.389
 1142SOL    HW233921   5.413   2.690  12.329
 1143SOL     OW33922   5.360   4.515  12.401
 1143SOL    HW133923   5.273   4.554  12.389
 1143SOL    HW233924   5.413   4.552  12.330
 1144SOL     OW33925   5.335   6.378  12.361
 1144SOL    HW133926   5.257   6.349  12.313
 1144SOL    HW233927   5.371   6.449  12.308
 1145SOL     OW33928   1.282   0.364   0.459
 1145SOL    HW133929   1.194   0.334   0.481
 1145SOL    HW233930   1.339   0.317   0.521
 1146SOL     OW33931   1.295   2.236   0.471
 1146SOL    HW133932   1.205   2.205   0.481
 1146SOL    HW233933   1.346   2.180   0.529
 1147SOL     OW33934   1.291   4.102   0.472
 1147SOL    HW133935   1.201   4.071   0.480
 1147SOL    HW233936   1.342   4.045   0.530
 1148SOL     OW33937   1.292   5.954   0.470
 1148SOL    HW133938   1.202   5.924   0.481
 1148SOL    HW233939   1.344   5.897   0.527
 1149SOL     OW33940   3.146   0.364   0.459
 1149SOL    HW133941   3.057   0.336   0.479
 1149SOL    HW233942   3.201   0.315   0.520
 1150SOL     OW33943   3.156   2.235   0.471
 1150SOL    HW133944   3.066   2.203   0.481
 1150SOL    HW233945   3.207   2.179   0.529
 1151SOL     OW33946   3.110   4.162   0.288
 1151SOL    HW133947   3.037   4.170   0.349
 1151SOL    HW233948   3.184   4.136   0.343
 1152SOL     OW33949   3.156   5.955   0.471
 1152SOL    HW133950   3.065   5.925   0.482
 1152SOL    HW233951   3.207   5.898   0.528
 1153SOL     OW33952   5.006   0.364   0.460
 1153SOL    HW133953   4.918   0.334   0.480
 1153SOL    HW233954   5.062   0.316   0.521
 1154SOL     OW33955   5.019   2.235   0.471
 1154SOL    HW133956   4.929   2.204   0.481
 1154SOL    HW233957   5.070   2.180   0.530
 1155SOL     OW33958   5.017   4.096   0.471
 1155SOL    HW133959   4.928   4.064   0.482
 1155SOL    HW233960   5.070   4.041   0.530
 1156SOL     OW33961   5.016   5.954   0.471
 1156SOL    HW133962   4.926   5.924   0.483
 1156SOL    HW233963   5.068   5.898   0.528
 1157SOL     OW33964   0.332   0.813   0.486
 1157SOL    HW133965   0.427   0.822   0.493
 1157SOL    HW233966   0.316   0.719   0.497
 1158SOL     OW33967   0.331   2.674   0.484
 1158SOL    HW133968   0.426   2.683   0.491
 1158SOL    HW233969   0.315   2.581   0.495
 1159SOL     OW33970   0.331   4.533   0.471
 1159SOL    HW133971   0.425   4.546   0.484
 1159SOL    HW233972   0.316   4.441   0.492
 1160SOL     OW33973   0.306   6.379   0.490
 1160SOL    HW133974   0.388   6.417   0.461
 1160SOL    HW233975   0.327   6.287   0.507
 1161SOL     OW33976   2.180   0.814   0.470
 1161SOL    HW133977   2.274   0.831   0.479
 1161SOL    HW233978   2.170   0.723   0.499
 1162SOL     OW33979   2.178   2.674   0.472
 1162SOL    HW133980   2.273   2.690   0.477
 1162SOL    HW233981   2.168   2.583   0.501
 1163SOL     OW33982   2.167   4.559   0.453
 1163SOL    HW133983   2.257   4.588   0.466
 1163SOL    HW233984   2.168   4.466   0.475
 1164SOL     OW33985   2.184   6.385   0.435
 1164SOL    HW133986   2.231   6.440   0.498
 1164SOL    HW233987   2.181   6.299   0.477
 1165SOL     OW33988   4.043   0.814   0.471
 1165SOL    HW133989   4.137   0.832   0.481
 1165SOL    HW233990   4.033   0.724   0.500
 1166SOL     OW33991   4.044   2.675   0.467
 1166SOL    HW133992   4.137   2.693   0.481
 1166SOL    HW233993   4.033   2.584   0.496
 1167SOL     OW33994   4.046   4.536   0.463
 1167SOL    HW133995   4.137   4.559   0.476
 1167SOL    HW233996   4.040   4.445   0.492
 1168SOL     OW33997   4.044   6.388   0.436
 1168SOL    HW133998   4.100   6.441   0.492
 1168SOL    HW233999   4.043   6.302   0.478
 1169SOL     OW34000   5.903   2.677   0.469
 1169SOL    HW134001   5.995   2.702   0.479
 1169SOL    HW234002   5.901   2.585   0.494
 1170SOL     OW34003   5.904   4.541   0.468
 1170SOL    HW134004   5.996   4.565   0.480
 1170SOL    HW234005   5.900   4.448   0.493
 1171SOL     OW34006   5.908   6.385   0.439
 1171SOL    HW134007   5.954   6.437   0.505
 1171SOL    HW234008   5.909   6.296   0.473
 1172SOL     OW34009   1.400   0.926  12.360
 1172SOL    HW134010   1.419   1.020  12.352
 1172SOL    HW234011   1.390   0.896  12.269
 1173SOL     OW34012   1.400   2.785  12.362
 1173SOL    HW134013   1.417   2.879  12.355
 1173SOL    HW234014   1.391   2.756  12.271
 1174SOL     OW34015   1.400   4.649  12.360
 1174SOL    HW134016   1.418   4.743  12.354
 1174SOL    HW234017   1.390   4.620  12.270
 1175SOL     OW34018   3.262   0.926  12.359
 1175SOL    HW134019   3.281   1.020  12.352
 1175SOL    HW234020   3.252   0.896  12.269
 1176SOL     OW34021   3.225   2.739  12.370
 1176SOL    HW134022   3.269   2.824  12.368
 1176SOL    HW234023   3.229   2.708  12.279
 1177SOL     OW34024   3.194   4.668  12.359
 1177SOL    HW134025   3.188   4.763  12.371
 1177SOL    HW234026   3.233   4.658  12.272
 1178SOL     OW34027   5.123   0.928  12.361
 1178SOL    HW134028   5.143   1.021  12.352
 1178SOL    HW234029   5.115   0.897  12.271
 1179SOL     OW34030   5.124   2.789  12.363
 1179SOL    HW134031   5.144   2.882  12.355
 1179SOL    HW234032   5.115   2.758  12.273
 1180SOL     OW34033   5.123   4.651  12.363
 1180SOL    HW134034   5.143   4.744  12.355
 1180SOL    HW234035   5.115   4.621  12.272
 1181SOL     OW34036   1.486   1.416   0.488
 1181SOL    HW134037   1.418   1.436   0.552
 1181SOL    HW234038   1.470   1.325   0.463
 1182SOL     OW34039   0.685   1.780   0.471
 1182SOL    HW134040   0.661   1.871   0.454
 1182SOL    HW234041   0.780   1.778   0.457
 1183SOL     OW34042   1.489   3.273   0.480
 1183SOL    HW134043   1.417   3.298   0.538
 1183SOL    HW234044   1.469   3.182   0.456
 1184SOL     OW34045   0.687   3.643   0.471
 1184SOL    HW134046   0.660   3.733   0.454
 1184SOL    HW234047   0.782   3.643   0.455
 1185SOL     OW34048   1.487   5.137   0.487
 1185SOL    HW134049   1.418   5.160   0.549
 1185SOL    HW234050   1.469   5.047   0.462
 1186SOL     OW34051   0.685   5.502   0.467
 1186SOL    HW134052   0.658   5.593   0.455
 1186SOL    HW234053   0.780   5.503   0.456
 1187SOL     OW34054   3.349   1.414   0.485
 1187SOL    HW134055   3.281   1.436   0.549
 1187SOL    HW234056   3.332   1.324   0.461
 1188SOL     OW34057   2.538   1.769   0.472
 1188SOL    HW134058   2.515   1.861   0.456
 1188SOL    HW234059   2.633   1.766   0.460
 1189SOL     OW34060   3.362   3.265   0.488
 1189SOL    HW134061   3.310   3.261   0.569
 1189SOL    HW234062   3.357   3.177   0.452
 1190SOL     OW34063   2.432   3.432   0.573
 1190SOL    HW134064   2.420   3.516   0.618
 1190SOL    HW234065   2.508   3.392   0.614
 1191SOL     OW34066   3.343   5.149   0.498
 1191SOL    HW134067   3.273   5.165   0.561
 1191SOL    HW234068   3.328   5.058   0.470
 1192SOL     OW34069   2.537   5.493   0.469
 1192SOL    HW134070   2.511   5.584   0.458
 1192SOL    HW234071   2.632   5.494   0.460
 1193SOL     OW34072   5.210   1.416   0.486
 1193SOL    HW134073   5.142   1.436   0.550
 1193SOL    HW234074   5.194   1.325   0.461
 1194SOL     OW34075   4.399   1.769   0.471
 1194SOL    HW134076   4.376   1.860   0.457
 1194SOL    HW234077   4.494   1.766   0.461
 1195SOL     OW34078   5.210   3.278   0.486
 1195SOL    HW134079   5.143   3.298   0.551
 1195SOL    HW234080   5.194   3.187   0.462
 1196SOL     OW34081   4.403   3.629   0.471
 1196SOL    HW134082   4.380   3.721   0.457
 1196SOL    HW234083   4.498   3.626   0.461
 1197SOL     OW34084   5.210   5.140   0.485
 1197SOL    HW134085   5.142   5.160   0.550
 1197SOL    HW234086   5.193   5.049   0.461
 1198SOL     OW34087   4.399   5.493   0.470
 1198SOL    HW134088   4.375   5.585   0.457
 1198SOL    HW234089   4.495   5.492   0.461
 1199SOL     OW34090   6.265   1.783   0.481
 1199SOL    HW134091   6.235   1.871   0.457
 1199SOL    HW234092   6.360   1.788   0.477
 1200SOL     OW34093   6.265   3.644   0.477
 1200SOL    HW134094   6.235   3.733   0.457
 1200SOL    HW234095   6.360   3.650   0.477
 1201SOL     OW34096   6.265   5.505   0.477
 1201SOL    HW134097   6.234   5.593   0.456
 1201SOL    HW234098   6.360   5.512   0.476
 1202SOL     OW34099   1.424   3.636   0.448
 1202SOL    HW134100   1.452   3.708   0.392
 1202SOL    HW234101   1.500   3.618   0.504
 1203SOL     OW34102   1.501   5.517   0.526
 1203SOL    HW134103   1.523   5.590   0.467
 1203SOL    HW234104   1.586   5.486   0.558
 1204SOL     OW34105   3.362   1.793   0.527
 1204SOL    HW134106   3.385   1.865   0.468
 1204SOL    HW234107   3.447   1.758   0.555
 1205SOL     OW34108   3.549   3.672   0.278
 1205SOL    HW134109   3.565   3.749   0.223
 1205SOL    HW234110   3.515   3.708   0.360
 1206SOL     OW34111   3.364   5.518   0.525
 1206SOL    HW134112   3.385   5.591   0.468
 1206SOL    HW234113   3.448   5.487   0.558
 1207SOL     OW34114   5.221   1.794   0.523
 1207SOL    HW134115   5.245   1.868   0.467
 1207SOL    HW234116   5.305   1.753   0.545
 1208SOL     OW34117   5.223   3.655   0.523
 1208SOL    HW134118   5.248   3.729   0.468
 1208SOL    HW234119   5.306   3.616   0.550
 1209SOL     OW34120   5.224   5.516   0.523
 1209SOL    HW134121   5.247   5.590   0.467
 1209SOL    HW234122   5.308   5.480   0.551
 1210SOL     OW34123   1.864   0.132   0.506
 1210SOL    HW134124   1.898   0.065   0.447
 1210SOL    HW234125   1.780   0.157   0.470
 1211SOL     OW34126   1.854   2.026   0.499
 1211SOL    HW134127   1.888   1.939   0.476
 1211SOL    HW234128   1.767   2.029   0.459
 1212SOL     OW34129   1.830   3.877   0.464
 1212SOL    HW134130   1.864   3.800   0.420
 1212SOL    HW234131   1.740   3.884   0.434
 1213SOL     OW34132   1.855   5.749   0.501
 1213SOL    HW134133   1.889   5.663   0.477
 1213SOL    HW234134   1.769   5.753   0.459
 1214SOL     OW34135   3.726   0.126   0.508
 1214SOL    HW134136   3.762   0.062   0.447
 1214SOL    HW234137   3.642   0.152   0.469
 1215SOL     OW34138   3.715   2.027   0.498
 1215SOL    HW134139   3.749   1.940   0.475
 1215SOL    HW234140   3.628   2.029   0.457
 1216SOL     OW34141   3.737   3.879   0.516
 1216SOL    HW134142   3.773   3.795   0.487
 1216SOL    HW234143   3.645   3.876   0.491
 1217SOL     OW34144   3.717   5.750   0.499
 1217SOL    HW134145   3.751   5.664   0.474
 1217SOL    HW234146   3.631   5.754   0.457
 1218SOL     OW34147   5.590   0.130   0.510
 1218SOL    HW134148   5.626   0.065   0.450
 1218SOL    HW234149   5.506   0.155   0.471
 1219SOL     OW34150   5.580   2.027   0.498
 1219SOL    HW134151   5.614   1.941   0.475
 1219SOL    HW234152   5.493   2.031   0.458
 1220SOL     OW34153   5.580   3.890   0.496
 1220SOL    HW134154   5.615   3.804   0.473
 1220SOL    HW234155   5.493   3.892   0.456
 1221SOL     OW34156   5.581   5.752   0.498
 1221SOL    HW134157   5.616   5.665   0.476
 1221SOL    HW234158   5.495   5.754   0.457
 1222SOL     OW34159   1.043   2.622   0.493
 1222SOL    HW134160   1.026   2.637   0.586
 1222SOL    HW234161   1.016   2.531   0.479
 1223SOL     OW34162   1.043   4.483   0.494
 1223SOL    HW134163   1.026   4.499   0.587
 1223SOL    HW234164   1.016   4.393   0.479
 1224SOL     OW34165   2.906   0.759   0.493
 1224SOL    HW134166   2.889   0.775   0.586
 1224SOL    HW234167   2.878   0.669   0.478
 1225SOL     OW34168   2.920   2.611   0.491
 1225SOL    HW134169   2.902   2.628   0.583
 1225SOL    HW234170   2.888   2.522   0.477
 1226SOL     OW34171   2.922   4.544   0.501
 1226SOL    HW134172   2.928   4.581   0.589
 1226SOL    HW234173   2.866   4.467   0.511
 1227SOL     OW34174   4.767   0.759   0.493
 1227SOL    HW134175   4.751   0.775   0.586
 1227SOL    HW234176   4.739   0.669   0.479
 1228SOL     OW34177   4.766   2.622   0.495
 1228SOL    HW134178   4.750   2.637   0.588
 1228SOL    HW234179   4.740   2.531   0.481
 1229SOL     OW34180   4.764   4.484   0.495
 1229SOL    HW134181   4.750   4.499   0.588
 1229SOL    HW234182   4.739   4.392   0.481
 1230SOL     OW34183   1.767   0.377  12.371
 1230SOL    HW134184   1.753   0.398  12.279
 1230SOL    HW234185   1.748   0.284  12.378
 1231SOL     OW34186   1.760   2.218  12.364
 1231SOL    HW134187   1.752   2.236  12.270
 1231SOL    HW234188   1.683   2.165  12.384
 1232SOL     OW34189   1.755   4.092  12.347
 1232SOL    HW134190   1.737   4.105  12.254
 1232SOL    HW234191   1.690   4.028  12.376
 1233SOL     OW34192   1.757   5.945  12.367
 1233SOL    HW134193   1.751   5.961  12.273
 1233SOL    HW234194   1.679   5.894  12.388
 1234SOL     OW34195   3.627   0.377  12.372
 1234SOL    HW134196   3.616   0.397  12.279
 1234SOL    HW234197   3.605   0.284  12.380
 1235SOL     OW34198   3.624   2.218  12.364
 1235SOL    HW134199   3.616   2.237  12.270
 1235SOL    HW234200   3.546   2.165  12.383
 1236SOL     OW34201   3.677   4.000  12.412
 1236SOL    HW134202   3.704   4.046  12.332
 1236SOL    HW234203   3.661   3.910  12.384
 1237SOL     OW34204   3.621   5.944  12.367
 1237SOL    HW134205   3.614   5.961  12.273
 1237SOL    HW234206   3.542   5.894  12.388
 1238SOL     OW34207   5.491   0.377  12.371
 1238SOL    HW134208   5.477   0.398  12.278
 1238SOL    HW234209   5.475   0.283  12.377
 1239SOL     OW34210   5.486   2.215  12.365
 1239SOL    HW134211   5.478   2.234  12.271
 1239SOL    HW234212   5.407   2.164  12.385
 1240SOL     OW34213   5.487   4.077  12.365
 1240SOL    HW134214   5.480   4.096  12.271
 1240SOL    HW234215   5.408   4.027  12.385
 1241SOL     OW34216   5.480   5.949  12.367
 1241SOL    HW134217   5.475   5.964  12.272
 1241SOL    HW234218   5.403   5.895  12.387
 1242SOL     OW34219   1.028   0.240   0.523
 1242SOL    HW134220   1.006   0.198   0.440
 1242SOL    HW234221   1.026   0.169   0.587
 1243SOL     OW34222   1.040   2.110   0.509
 1243SOL    HW134223   1.040   2.066   0.424
 1243SOL    HW234224   1.034   2.038   0.572
 1244SOL     OW34225   1.040   3.972   0.508
 1244SOL    HW134226   1.040   3.928   0.423
 1244SOL    HW234227   1.031   3.901   0.572
 1245SOL     OW34228   1.041   5.831   0.500
 1245SOL    HW134229   1.041   5.782   0.417
 1245SOL    HW234230   1.035   5.763   0.567
 1246SOL     OW34231   2.890   0.245   0.519
 1246SOL    HW134232   2.866   0.201   0.437
 1246SOL    HW234233   2.890   0.175   0.584
 1247SOL     OW34234   2.901   2.110   0.509
 1247SOL    HW134235   2.900   2.066   0.423
 1247SOL    HW234236   2.896   2.039   0.572
 1248SOL     OW34237   2.844   4.091   0.580
 1248SOL    HW134238   2.831   4.032   0.506
 1248SOL    HW234239   2.778   4.063   0.644
 1249SOL     OW34240   2.904   5.832   0.500
 1249SOL    HW134241   2.905   5.783   0.418
 1249SOL    HW234242   2.896   5.765   0.568
 1250SOL     OW34243   4.751   0.243   0.521
 1250SOL    HW134244   4.728   0.201   0.439
 1250SOL    HW234245   4.751   0.172   0.585
 1251SOL     OW34246   4.764   2.111   0.509
 1251SOL    HW134247   4.763   2.067   0.424
 1251SOL    HW234248   4.758   2.039   0.572
 1252SOL     OW34249   4.763   3.972   0.512
 1252SOL    HW134250   4.761   3.929   0.426
 1252SOL    HW234251   4.758   3.900   0.575
 1253SOL     OW34252   4.764   5.832   0.502
 1253SOL    HW134253   4.764   5.783   0.420
 1253SOL    HW234254   4.758   5.764   0.570
 1254SOL     OW34255   1.487   1.187  12.331
 1254SOL    HW134256   1.482   1.212  12.424
 1254SOL    HW234257   1.577   1.208  12.306
 1255SOL     OW34258   1.483   3.047  12.333
 1255SOL    HW134259   1.480   3.074  12.425
 1255SOL    HW234260   1.573   3.067  12.305
 1256SOL     OW34261   1.487   4.910  12.331
 1256SOL    HW134262   1.481   4.936  12.423
 1256SOL    HW234263   1.576   4.933  12.305
 1257SOL     OW34264   3.349   1.187  12.332
 1257SOL    HW134265   3.345   1.212  12.424
 1257SOL    HW234266   3.439   1.208  12.305
 1258SOL     OW34267   3.383   2.960  12.368
 1258SOL    HW134268   3.365   2.993  12.456
 1258SOL    HW234269   3.478   2.966  12.359
 1259SOL     OW34270   3.340   4.933  12.336
 1259SOL    HW134271   3.332   4.963  12.426
 1259SOL    HW234272   3.426   4.963  12.307
 1260SOL     OW34273   5.211   1.189  12.331
 1260SOL    HW134274   5.207   1.213  12.424
 1260SOL    HW234275   5.301   1.209  12.305
 1261SOL     OW34276   5.212   4.911  12.332
 1261SOL    HW134277   5.208   4.937  12.424
 1261SOL    HW234278   5.301   4.933  12.304
 1262SOL     OW34279   1.623   1.633  12.367
 1262SOL    HW134280   1.613   1.667  12.278
 1262SOL    HW234281   1.701   1.578  12.364
 1263SOL     OW34282   1.619   3.501  12.370
 1263SOL    HW134283   1.606   3.532  12.280
 1263SOL    HW234284   1.693   3.441  12.364
 1264SOL     OW34285   1.623   5.356  12.366
 1264SOL    HW134286   1.614   5.390  12.278
 1264SOL    HW234287   1.702   5.301  12.362
 1265SOL     OW34288   3.485   1.634  12.366
 1265SOL    HW134289   3.475   1.666  12.277
 1265SOL    HW234290   3.563   1.579  12.364
 1266SOL     OW34291   3.606   3.547  12.399
 1266SOL    HW134292   3.601   3.608  12.325
 1266SOL    HW234293   3.688   3.499  12.385
 1267SOL     OW34294   3.485   5.351  12.362
 1267SOL    HW134295   3.476   5.389  12.274
 1267SOL    HW234296   3.567   5.303  12.359
 1268SOL     OW34297   5.347   1.632  12.365
 1268SOL    HW134298   5.338   1.667  12.276
 1268SOL    HW234299   5.426   1.578  12.362
 1269SOL     OW34300   5.345   3.494  12.364
 1269SOL    HW134301   5.338   3.528  12.275
 1269SOL    HW234302   5.425   3.440  12.362
 1270SOL     OW34303   5.347   5.354  12.364
 1270SOL    HW134304   5.338   5.391  12.276
 1270SOL    HW234305   5.426   5.301  12.361
 1271SOL     OW34306   0.707   1.415  12.341
 1271SOL    HW134307   0.624   1.377  12.370
 1271SOL    HW234308   0.705   1.505  12.374
 1272SOL     OW34309   0.706   3.277  12.341
 1272SOL    HW134310   0.623   3.240  12.372
 1272SOL    HW234311   0.705   3.367  12.374
 1273SOL     OW34312   0.705   5.139  12.341
 1273SOL    HW134313   0.622   5.102  12.371
 1273SOL    HW234314   0.705   5.229  12.374
 1274SOL     OW34315   2.562   1.413  12.339
 1274SOL    HW134316   2.481   1.376  12.373
 1274SOL    HW234317   2.564   1.503  12.373
 1275SOL     OW34318   2.513   3.156  12.255
 1275SOL    HW134319   2.469   3.112  12.328
 1275SOL    HW234320   2.451   3.224  12.228
 1276SOL     OW34321   2.564   5.136  12.347
 1276SOL    HW134322   2.480   5.101  12.378
 1276SOL    HW234323   2.564   5.227  12.378
 1277SOL     OW34324   4.424   1.412  12.339
 1277SOL    HW134325   4.343   1.377  12.374
 1277SOL    HW234326   4.427   1.503  12.371
 1278SOL     OW34327   4.424   3.274  12.334
 1278SOL    HW134328   4.345   3.237  12.374
 1278SOL    HW234329   4.427   3.364  12.367
 1279SOL     OW34330   4.421   5.136  12.340
 1279SOL    HW134331   4.339   5.104  12.376
 1279SOL    HW234332   4.427   5.227  12.371
 1280SOL     OW34333   6.316   1.404  12.413
 1280SOL    HW134334   6.229   1.378  12.382
 1280SOL    HW234335   6.312   1.500  12.418
 1281SOL     OW34336   6.316   3.266  12.413
 1281SOL    HW134337   6.229   3.240  12.385
 1281SOL    HW234338   6.313   3.362  12.419
 1282SOL     OW34339   6.318   5.128  12.415
 1282SOL    HW134340   6.232   5.103  12.381
 1282SOL    HW234341   6.314   5.224  12.421
 1283SOL     OW34342   1.489   0.609   0.483
 1283SOL    HW134343   1.423   0.541   0.492
 1283SOL    HW234344   1.541   0.603   0.563
 1284SOL     OW34345   1.486   2.468   0.485
 1284SOL    HW134346   1.420   2.399   0.491
 1284SOL    HW234347   1.535   2.461   0.567
 1285SOL     OW34348   1.482   4.330   0.476
 1285SOL    HW134349   1.413   4.263   0.487
 1285SOL    HW234350   1.529   4.329   0.560
 1286SOL     OW34351   1.458   6.186   0.514
 1286SOL    HW134352   1.404   6.108   0.510
 1286SOL    HW234353   1.522   6.168   0.583
 1287SOL     OW34354   3.352   2.459   0.483
 1287SOL    HW134355   3.286   2.390   0.492
 1287SOL    HW234356   3.402   2.455   0.564
 1288SOL     OW34357   3.457   4.361   0.414
 1288SOL    HW134358   3.402   4.289   0.445
 1288SOL    HW234359   3.510   4.385   0.490
 1289SOL     OW34360   3.315   6.190   0.517
 1289SOL    HW134361   3.264   6.109   0.510
 1289SOL    HW234362   3.382   6.170   0.583
 1290SOL     OW34363   5.213   0.610   0.484
 1290SOL    HW134364   5.148   0.541   0.492
 1290SOL    HW234365   5.265   0.603   0.564
 1291SOL     OW34366   5.209   2.468   0.485
 1291SOL    HW134367   5.144   2.398   0.491
 1291SOL    HW234368   5.260   2.461   0.566
 1292SOL     OW34369   5.209   4.331   0.488
 1292SOL    HW134370   5.145   4.260   0.494
 1292SOL    HW234371   5.262   4.322   0.567
 1293SOL     OW34372   5.178   6.189   0.518
 1293SOL    HW134373   5.126   6.108   0.511
 1293SOL    HW234374   5.244   6.169   0.584
 1294SOL     OW34375   1.199   1.817  12.334
 1294SOL    HW134376   1.200   1.878  12.261
 1294SOL    HW234377   1.215   1.731  12.294
 1295SOL     OW34378   1.199   3.678  12.334
 1295SOL    HW134379   1.200   3.740  12.260
 1295SOL    HW234380   1.214   3.592  12.293
 1296SOL     OW34381   1.202   5.539  12.333
 1296SOL    HW134382   1.202   5.602  12.261
 1296SOL    HW234383   1.218   5.454  12.291
 1297SOL     OW34384   3.064   1.815  12.331
 1297SOL    HW134385   3.064   1.875  12.257
 1297SOL    HW234386   3.078   1.729  12.293
 1298SOL     OW34387   3.000   3.391  12.443
 1298SOL    HW134388   2.976   3.482  12.461
 1298SOL    HW234389   3.018   3.388  12.349
 1299SOL     OW34390   3.067   5.540  12.334
 1299SOL    HW134391   3.067   5.605  12.263
 1299SOL    HW234392   3.087   5.457  12.290
 1300SOL     OW34393   4.924   1.815  12.332
 1300SOL    HW134394   4.926   1.877  12.259
 1300SOL    HW234395   4.940   1.730  12.291
 1301SOL     OW34396   4.914   3.675  12.330
 1301SOL    HW134397   4.921   3.738  12.258
 1301SOL    HW234398   4.935   3.590  12.290
 1302SOL     OW34399   4.924   5.537  12.332
 1302SOL    HW134400   4.926   5.601  12.262
 1302SOL    HW234401   4.943   5.453  12.289
 1303SOL     OW34402   0.211   0.271   0.529
 1303SOL    HW134403   0.259   0.253   0.610
 1303SOL    HW234404   0.131   0.219   0.536
 1304SOL     OW34405   0.221   2.124   0.525
 1304SOL    HW134406   0.258   2.103   0.610
 1304SOL    HW234407   0.153   2.059   0.510
 1305SOL     OW34408   0.224   3.982   0.524
 1305SOL    HW134409   0.260   3.964   0.611
 1305SOL    HW234410   0.151   3.921   0.515
 1306SOL     OW34411   0.203   5.837   0.527
 1306SOL    HW134412   0.247   5.828   0.611
 1306SOL    HW234413   0.152   5.757   0.517
 1307SOL     OW34414   2.088   0.286   0.529
 1307SOL    HW134415   2.122   0.255   0.613
 1307SOL    HW234416   2.005   0.240   0.518
 1308SOL     OW34417   2.088   2.154   0.539
 1308SOL    HW134418   2.118   2.114   0.621
 1308SOL    HW234419   2.002   2.115   0.523
 1309SOL     OW34420   2.026   4.072   0.473
 1309SOL    HW134421   2.057   4.035   0.555
 1309SOL    HW234422   1.956   4.013   0.445
 1310SOL     OW34423   2.093   5.874   0.536
 1310SOL    HW134424   2.121   5.839   0.620
 1310SOL    HW234425   2.005   5.840   0.523
 1311SOL     OW34426   3.948   0.286   0.533
 1311SOL    HW134427   3.981   0.256   0.617
 1311SOL    HW234428   3.866   0.238   0.520
 1312SOL     OW34429   3.952   2.151   0.536
 1312SOL    HW134430   3.981   2.114   0.619
 1312SOL    HW234431   3.865   2.115   0.523
 1313SOL     OW34432   3.978   4.002   0.525
 1313SOL    HW134433   4.005   3.970   0.612
 1313SOL    HW234434   3.890   3.966   0.514
 1314SOL     OW34435   3.956   5.874   0.537
 1314SOL    HW134436   3.983   5.837   0.621
 1314SOL    HW234437   3.867   5.840   0.523
 1315SOL     OW34438   5.809   0.294   0.533
 1315SOL    HW134439   5.845   0.262   0.616
 1315SOL    HW234440   5.728   0.244   0.522
 1316SOL     OW34441   5.812   2.160   0.542
 1316SOL    HW134442   5.843   2.119   0.623
 1316SOL    HW234443   5.726   2.121   0.527
 1317SOL     OW34444   5.814   4.021   0.542
 1317SOL    HW134445   5.843   3.982   0.624
 1317SOL    HW234446   5.728   3.983   0.526
 1318SOL     OW34447   5.816   5.881   0.540
 1318SOL    HW134448   5.846   5.841   0.621
 1318SOL    HW234449   5.729   5.844   0.525
 1319SOL     OW34450   1.857   1.494  12.305
 1319SOL    HW134451   1.879   1.522  12.216
 1319SOL    HW234452   1.938   1.504  12.354
 1320SOL     OW34453   1.839   3.348  12.302
 1320SOL    HW134454   1.855   3.385  12.215
 1320SOL    HW234455   1.921   3.361  12.349
 1321SOL     OW34456   1.858   5.218  12.304
 1321SOL    HW134457   1.879   5.248  12.216
 1321SOL    HW234458   1.940   5.228  12.353
 1322SOL     OW34459   3.718   1.495  12.305
 1322SOL    HW134460   3.741   1.523  12.216
 1322SOL    HW234461   3.800   1.504  12.355
 1323SOL     OW34462   3.786   3.368  12.317
 1323SOL    HW134463   3.810   3.379  12.225
 1323SOL    HW234464   3.870   3.370  12.364
 1324SOL     OW34465   3.728   5.228  12.304
 1324SOL    HW134466   3.749   5.255  12.214
 1324SOL    HW234467   3.809   5.240  12.352
 1325SOL     OW34468   5.582   1.496  12.303
 1325SOL    HW134469   5.606   1.523  12.215
 1325SOL    HW234470   5.663   1.506  12.354
 1326SOL     OW34471   5.582   3.358  12.304
 1326SOL    HW134472   5.606   3.385  12.215
 1326SOL    HW234473   5.662   3.368  12.355
 1327SOL     OW34474   5.583   5.220  12.300
 1327SOL    HW134475   5.607   5.249  12.212
 1327SOL    HW234476   5.664   5.230  12.352
 1328SOL     OW34477   0.348   0.514   0.558
 1328SOL    HW134478   0.294   0.441   0.526
 1328SOL    HW234479   0.422   0.516   0.497
 1329SOL     OW34480   0.346   2.370   0.562
 1329SOL    HW134481   0.297   2.292   0.533
 1329SOL    HW234482   0.419   2.376   0.500
 1330SOL     OW34483   0.348   4.232   0.560
 1330SOL    HW134484   0.294   4.160   0.527
 1330SOL    HW234485   0.422   4.237   0.499
 1331SOL     OW34486   0.350   6.098   0.553
 1331SOL    HW134487   0.286   6.046   0.505
 1331SOL    HW234488   0.427   6.098   0.496
 1332SOL     OW34489   2.187   0.534   0.537
 1332SOL    HW134490   2.149   0.447   0.528
 1332SOL    HW234491   2.265   0.532   0.482
 1333SOL     OW34492   2.191   2.399   0.544
 1333SOL    HW134493   2.154   2.311   0.536
 1333SOL    HW234494   2.268   2.399   0.487
 1334SOL     OW34495   2.191   4.291   0.512
 1334SOL    HW134496   2.134   4.221   0.483
 1334SOL    HW234497   2.276   4.272   0.472
 1335SOL     OW34498   2.198   6.120   0.540
 1335SOL    HW134499   2.161   6.032   0.531
 1335SOL    HW234500   2.275   6.119   0.483
 1336SOL     OW34501   4.049   0.534   0.538
 1336SOL    HW134502   4.011   0.447   0.530
 1336SOL    HW234503   4.127   0.531   0.484
 1337SOL     OW34504   4.049   2.399   0.538
 1337SOL    HW134505   4.013   2.311   0.532
 1337SOL    HW234506   4.128   2.397   0.483
 1338SOL     OW34507   4.075   4.251   0.535
 1338SOL    HW134508   4.043   4.161   0.525
 1338SOL    HW234509   4.151   4.256   0.478
 1339SOL     OW34510   4.061   6.121   0.544
 1339SOL    HW134511   4.024   6.033   0.534
 1339SOL    HW234512   4.137   6.122   0.486
 1340SOL     OW34513   5.922   0.537   0.533
 1340SOL    HW134514   5.881   0.451   0.525
 1340SOL    HW234515   6.000   0.532   0.477
 1341SOL     OW34516   5.931   2.400   0.533
 1341SOL    HW134517   5.890   2.314   0.529
 1341SOL    HW234518   6.007   2.393   0.476
 1342SOL     OW34519   5.929   4.263   0.530
 1342SOL    HW134520   5.889   4.176   0.529
 1342SOL    HW234521   6.006   4.254   0.473
 1343SOL     OW34522   5.937   6.120   0.532
 1343SOL    HW134523   5.896   6.034   0.527
 1343SOL    HW234524   6.011   6.115   0.472
 1344SOL     OW34525   0.433   0.746  12.321
 1344SOL    HW134526   0.497   0.790  12.264
 1344SOL    HW234527   0.477   0.665  12.347
 1345SOL     OW34528   0.439   2.606  12.325
 1345SOL    HW134529   0.499   2.651  12.265
 1345SOL    HW234530   0.486   2.527  12.351
 1346SOL     OW34531   0.440   4.469  12.326
 1346SOL    HW134532   0.500   4.514  12.266
 1346SOL    HW234533   0.489   4.391  12.354
 1347SOL     OW34534   2.289   0.757  12.316
 1347SOL    HW134535   2.356   0.794  12.258
 1347SOL    HW234536   2.322   0.670  12.339
 1348SOL     OW34537   2.282   2.617  12.322
 1348SOL    HW134538   2.350   2.649  12.262
 1348SOL    HW234539   2.311   2.529  12.347
 1349SOL     OW34540   2.272   4.497  12.310
 1349SOL    HW134541   2.335   4.540  12.252
 1349SOL    HW234542   2.314   4.416  12.337
 1350SOL     OW34543   4.155   0.754  12.318
 1350SOL    HW134544   4.220   0.793  12.260
 1350SOL    HW234545   4.190   0.667  12.337
 1351SOL     OW34546   4.155   2.613  12.319
 1351SOL    HW134547   4.220   2.653  12.262
 1351SOL    HW234548   4.192   2.528  12.343
 1352SOL     OW34549   4.169   4.461  12.322
 1352SOL    HW134550   4.227   4.506  12.261
 1352SOL    HW234551   4.216   4.382  12.347
 1353SOL     OW34552   6.012   0.743  12.318
 1353SOL    HW134553   6.081   0.776  12.260
 1353SOL    HW234554   6.035   0.651  12.332
 1354SOL     OW34555   6.016   2.601  12.322
 1354SOL    HW134556   6.078   2.639  12.260
 1354SOL    HW234557   6.054   2.517  12.345
 1355SOL     OW34558   6.016   4.463  12.320
 1355SOL    HW134559   6.080   4.501  12.260
 1355SOL    HW234560   6.050   4.376  12.339
 1356SOL     OW34561   0.158   0.767  12.286
 1356SOL    HW134562   0.253   0.770  12.294
 1356SOL    HW234563   0.134   0.853  12.252
 1357SOL     OW34564   0.163   2.617  12.280
 1357SOL    HW134565   0.259   2.621  12.288
 1357SOL    HW234566   0.135   2.708  12.290
 1358SOL     OW34567   0.164   4.478  12.280
 1358SOL    HW134568   0.259   4.483  12.287
 1358SOL    HW234569   0.134   4.567  12.298
 1359SOL     OW34570   1.998   0.751  12.284
 1359SOL    HW134571   2.087   0.787  12.291
 1359SOL    HW234572   1.942   0.828  12.273
 1360SOL     OW34573   1.994   2.607  12.283
 1360SOL    HW134574   2.082   2.644  12.290
 1360SOL    HW234575   1.937   2.683  12.270
 1361SOL     OW34576   1.989   4.474  12.297
 1361SOL    HW134577   2.079   4.504  12.293
 1361SOL    HW234578   1.936   4.552  12.278
 1362SOL     OW34579   2.017   6.328  12.275
 1362SOL    HW134580   2.101   6.355  12.238
 1362SOL    HW234581   1.984   6.405  12.321
 1363SOL     OW34582   3.861   0.753  12.282
 1363SOL    HW134583   3.950   0.789  12.289
 1363SOL    HW234584   3.805   0.830  12.270
 1364SOL     OW34585   3.867   2.605  12.281
 1364SOL    HW134586   3.957   2.639  12.289
 1364SOL    HW234587   3.813   2.684  12.275
 1365SOL     OW34588   3.894   4.482  12.304
 1365SOL    HW134589   3.990   4.486  12.304
 1365SOL    HW234590   3.867   4.567  12.339
 1366SOL     OW34591   3.886   6.329  12.274
 1366SOL    HW134592   3.970   6.357  12.238
 1366SOL    HW234593   3.854   6.405  12.322
 1367SOL     OW34594   5.723   0.749  12.281
 1367SOL    HW134595   5.812   0.783  12.288
 1367SOL    HW234596   5.668   0.826  12.270
 1368SOL     OW34597   5.721   2.610  12.281
 1368SOL    HW134598   5.810   2.644  12.286
 1368SOL    HW234599   5.666   2.687  12.268
 1369SOL     OW34600   5.723   4.471  12.281
 1369SOL    HW134601   5.813   4.505  12.285
 1369SOL    HW234602   5.669   4.550  12.268
 1370SOL     OW34603   5.747   6.323  12.273
 1370SOL    HW134604   5.824   6.358  12.228
 1370SOL    HW234605   5.712   6.397  12.322
 1371SOL     OW34606   1.754   1.242  12.246
 1371SOL    HW134607   1.842   1.206  12.232
 1371SOL    HW234608   1.769   1.330  12.281
 1372SOL     OW34609   1.746   3.097  12.244
 1372SOL    HW134610   1.834   3.062  12.229
 1372SOL    HW234611   1.760   3.185  12.277
 1373SOL     OW34612   1.753   4.966  12.245
 1373SOL    HW134613   1.842   4.932  12.232
 1373SOL    HW234614   1.767   5.055  12.280
 1374SOL     OW34615   3.616   1.241  12.248
 1374SOL    HW134616   3.704   1.206  12.235
 1374SOL    HW234617   3.630   1.330  12.281
 1375SOL     OW34618   3.649   3.057  12.302
 1375SOL    HW134619   3.738   3.046  12.270
 1375SOL    HW234620   3.659   3.071  12.397
 1376SOL     OW34621   3.607   4.984  12.271
 1376SOL    HW134622   3.687   4.936  12.250
 1376SOL    HW234623   3.636   5.072  12.294
 1377SOL     OW34624   5.479   1.243  12.246
 1377SOL    HW134625   5.566   1.207  12.232
 1377SOL    HW234626   5.493   1.331  12.280
 1378SOL     OW34627   5.479   3.104  12.251
 1378SOL    HW134628   5.567   3.070  12.235
 1378SOL    HW234629   5.493   3.193  12.283
 1379SOL     OW34630   5.479   4.967  12.245
 1379SOL    HW134631   5.567   4.932  12.231
 1379SOL    HW234632   5.494   5.056  12.279
 1380SOL     OW34633   0.072   1.168   0.588
 1380SOL    HW134634   0.060   1.209   0.674
 1380SOL    HW234635   0.022   1.223   0.528
 1381SOL     OW34636   0.074   3.029   0.586
 1381SOL    HW134637   0.060   3.069   0.672
 1381SOL    HW234638   0.023   3.084   0.527
 1382SOL     OW34639   0.073   4.889   0.584
 1382SOL    HW134640   0.067   4.928   0.671
 1382SOL    HW234641   0.022   4.947   0.528
 1383SOL     OW34642   1.973   1.251   0.542
 1383SOL    HW134643   1.956   1.275   0.633
 1383SOL    HW234644   1.896   1.201   0.515
 1384SOL     OW34645   1.931   3.122   0.512
 1384SOL    HW134646   1.921   3.124   0.607
 1384SOL    HW234647   1.874   3.050   0.483
 1385SOL     OW34648   1.971   4.973   0.548
 1385SOL    HW134649   1.957   4.997   0.640
 1385SOL    HW234650   1.888   4.936   0.520
 1386SOL     OW34651   3.834   1.248   0.545
 1386SOL    HW134652   3.811   1.271   0.635
 1386SOL    HW234653   3.760   1.197   0.513
 1387SOL     OW34654   3.846   3.107   0.547
 1387SOL    HW134655   3.826   3.131   0.637
 1387SOL    HW234656   3.766   3.064   0.515
 1388SOL     OW34657   3.833   4.969   0.549
 1388SOL    HW134658   3.821   4.994   0.641
 1388SOL    HW234659   3.748   4.935   0.522
 1389SOL     OW34660   5.694   1.254   0.541
 1389SOL    HW134661   5.675   1.274   0.632
 1389SOL    HW234662   5.621   1.199   0.512
 1390SOL     OW34663   5.693   3.116   0.538
 1390SOL    HW134664   5.673   3.139   0.629
 1390SOL    HW234665   5.619   3.060   0.511
 1391SOL     OW34666   5.693   4.976   0.543
 1391SOL    HW134667   5.672   4.997   0.634
 1391SOL    HW234668   5.621   4.920   0.514
 1392SOL     OW34669   0.742   1.131   0.582
 1392SOL    HW134670   0.683   1.171   0.646
 1392SOL    HW234671   0.786   1.205   0.541
 1393SOL     OW34672   0.743   2.993   0.583
 1393SOL    HW134673   0.685   3.033   0.648
 1393SOL    HW234674   0.787   3.067   0.541
 1394SOL     OW34675   0.745   4.855   0.584
 1394SOL    HW134676   0.684   4.896   0.646
 1394SOL    HW234677   0.788   4.929   0.542
 1395SOL     OW34678   2.606   1.130   0.584
 1395SOL    HW134679   2.545   1.171   0.645
 1395SOL    HW234680   2.651   1.204   0.542
 1396SOL     OW34681   2.650   2.943   0.562
 1396SOL    HW134682   2.583   2.975   0.622
 1396SOL    HW234683   2.678   3.021   0.514
 1397SOL     OW34684   2.602   4.873   0.565
 1397SOL    HW134685   2.547   4.908   0.634
 1397SOL    HW234686   2.649   4.949   0.530
 1398SOL     OW34687   4.464   1.129   0.580
 1398SOL    HW134688   4.404   1.170   0.643
 1398SOL    HW234689   4.510   1.203   0.540
 1399SOL     OW34690   4.466   2.990   0.580
 1399SOL    HW134691   4.406   3.031   0.642
 1399SOL    HW234692   4.512   3.064   0.540
 1400SOL     OW34693   4.463   4.853   0.581
 1400SOL    HW134694   4.403   4.895   0.644
 1400SOL    HW234695   4.509   4.926   0.540
 1401SOL     OW34696   0.606   0.878   0.564
 1401SOL    HW134697   0.645   0.965   0.566
 1401SOL    HW234698   0.554   0.873   0.644
 1402SOL     OW34699   0.605   2.740   0.564
 1402SOL    HW134700   0.643   2.827   0.568
 1402SOL    HW234701   0.553   2.733   0.644
 1403SOL     OW34702   0.604   4.601   0.563
 1403SOL    HW134703   0.641   4.689   0.567
 1403SOL    HW234704   0.551   4.594   0.642
 1404SOL     OW34705   2.458   0.876   0.563
 1404SOL    HW134706   2.498   0.963   0.569
 1404SOL    HW234707   2.404   0.868   0.642
 1405SOL     OW34708   2.413   4.674   0.527
 1405SOL    HW134709   2.475   4.747   0.525
 1405SOL    HW234710   2.365   4.685   0.609
 1406SOL     OW34711   4.317   0.877   0.562
 1406SOL    HW134712   4.360   0.963   0.568
 1406SOL    HW234713   4.266   0.870   0.643
 1407SOL     OW34714   4.316   2.738   0.562
 1407SOL    HW134715   4.358   2.824   0.569
 1407SOL    HW234716   4.266   2.729   0.643
 1408SOL     OW34717   4.314   4.604   0.559
 1408SOL    HW134718   4.357   4.688   0.567
 1408SOL    HW234719   4.265   4.594   0.641
 1409SOL     OW34720   6.160   0.909   0.579
 1409SOL    HW134721   6.177   1.003   0.591
 1409SOL    HW234722   6.109   0.884   0.656
 1410SOL     OW34723   6.164   2.774   0.579
 1410SOL    HW134724   6.178   2.868   0.592
 1410SOL    HW234725   6.111   2.747   0.654
 1411SOL     OW34726   6.164   4.635   0.581
 1411SOL    HW134727   6.178   4.729   0.594
 1411SOL    HW234728   6.110   4.608   0.656
 1412SOL     OW34729   0.962   0.885  12.291
 1412SOL    HW134730   1.016   0.817  12.250
 1412SOL    HW234731   0.914   0.925  12.219
 1413SOL     OW34732   0.962   2.745  12.291
 1413SOL    HW134733   1.015   2.677  12.249
 1413SOL    HW234734   0.914   2.786  12.218
 1414SOL     OW34735   0.961   4.608  12.290
 1414SOL    HW134736   1.015   4.541  12.249
 1414SOL    HW234737   0.914   4.649  12.218
 1415SOL     OW34738   2.822   0.886  12.290
 1415SOL    HW134739   2.877   0.819  12.250
 1415SOL    HW234740   2.774   0.926  12.217
 1416SOL     OW34741   2.817   2.721  12.284
 1416SOL    HW134742   2.875   2.655  12.246
 1416SOL    HW234743   2.765   2.753  12.211
 1417SOL     OW34744   2.834   4.622  12.281
 1417SOL    HW134745   2.906   4.581  12.232
 1417SOL    HW234746   2.779   4.661  12.214
 1418SOL     OW34747   4.685   0.884  12.291
 1418SOL    HW134748   4.739   0.816  12.250
 1418SOL    HW234749   4.636   0.922  12.219
 1419SOL     OW34750   4.685   2.744  12.292
 1419SOL    HW134751   4.739   2.676  12.251
 1419SOL    HW234752   4.635   2.782  12.220
 1420SOL     OW34753   4.683   4.608  12.288
 1420SOL    HW134754   4.737   4.541  12.248
 1420SOL    HW234755   4.635   4.647  12.215
 1421SOL     OW34756   0.143   1.824  12.293
 1421SOL    HW134757   0.146   1.803  12.386
 1421SOL    HW234758   0.051   1.817  12.270
 1422SOL     OW34759   0.139   3.665  12.283
 1422SOL    HW134760   0.141   3.652  12.378
 1422SOL    HW234761   0.053   3.702  12.266
 1423SOL     OW34762   0.134   5.510  12.275
 1423SOL    HW134763   0.136   5.504  12.371
 1423SOL    HW234764   0.060   5.568  12.257
 1424SOL     OW34765   1.994   1.872  12.308
 1424SOL    HW134766   1.999   1.841  12.399
 1424SOL    HW234767   1.911   1.837  12.276
 1425SOL     OW34768   1.917   3.718  12.294
 1425SOL    HW134769   1.930   3.694  12.385
 1425SOL    HW234770   1.821   3.724  12.285
 1426SOL     OW34771   1.992   5.594  12.309
 1426SOL    HW134772   1.997   5.564  12.400
 1426SOL    HW234773   1.903   5.570  12.282
 1427SOL     OW34774   3.854   1.869  12.310
 1427SOL    HW134775   3.861   1.841  12.401
 1427SOL    HW234776   3.771   1.833  12.279
 1428SOL     OW34777   3.851   3.723  12.292
 1428SOL    HW134778   3.849   3.698  12.384
 1428SOL    HW234779   3.759   3.737  12.268
 1429SOL     OW34780   3.852   5.588  12.309
 1429SOL    HW134781   3.856   5.557  12.399
 1429SOL    HW234782   3.760   5.576  12.284
 1430SOL     OW34783   5.718   1.867  12.308
 1430SOL    HW134784   5.725   1.840  12.400
 1430SOL    HW234785   5.631   1.837  12.281
 1431SOL     OW34786   5.719   3.730  12.308
 1431SOL    HW134787   5.726   3.703  12.399
 1431SOL    HW234788   5.632   3.701  12.281
 1432SOL     OW34789   5.717   5.592  12.308
 1432SOL    HW134790   5.724   5.564  12.399
 1432SOL    HW234791   5.629   5.567  12.281
 1433SOL     OW34792   1.341   0.845   0.553
 1433SOL    HW134793   1.255   0.824   0.515
 1433SOL    HW234794   1.397   0.773   0.524
 1434SOL     OW34795   1.339   4.568   0.556
 1434SOL    HW134796   1.253   4.551   0.518
 1434SOL    HW234797   1.395   4.499   0.522
 1435SOL     OW34798   1.331   6.431   0.587
 1435SOL    HW134799   1.326   6.446   0.492
 1435SOL    HW234800   1.369   6.344   0.595
 1436SOL     OW34801   3.202   0.844   0.556
 1436SOL    HW134802   3.117   0.825   0.516
 1436SOL    HW234803   3.259   0.773   0.526
 1437SOL     OW34804   3.203   2.692   0.536
 1437SOL    HW134805   3.115   2.665   0.509
 1437SOL    HW234806   3.260   2.619   0.511
 1438SOL     OW34807   3.227   4.618   0.532
 1438SOL    HW134808   3.174   4.578   0.463
 1438SOL    HW234809   3.215   4.561   0.608
 1439SOL     OW34810   3.175   6.426   0.585
 1439SOL    HW134811   3.183   0.001   0.493
 1439SOL    HW234812   3.220   6.342   0.591
 1440SOL     OW34813   5.065   0.845   0.557
 1440SOL    HW134814   4.981   0.825   0.516
 1440SOL    HW234815   5.123   0.774   0.528
 1441SOL     OW34816   5.065   2.706   0.558
 1441SOL    HW134817   4.980   2.685   0.519
 1441SOL    HW234818   5.123   2.635   0.530
 1442SOL     OW34819   5.067   4.568   0.561
 1442SOL    HW134820   4.985   4.549   0.517
 1442SOL    HW234821   5.126   4.497   0.535
 1443SOL     OW34822   5.041   6.428   0.587
 1443SOL    HW134823   5.047   0.001   0.494
 1443SOL    HW234824   5.084   6.343   0.594
 1444SOL     OW34825   0.396   1.733  12.265
 1444SOL    HW134826   0.308   1.768  12.256
 1444SOL    HW234827   0.384   1.650  12.312
 1445SOL     OW34828   0.398   3.591  12.264
 1445SOL    HW134829   0.308   3.622  12.252
 1445SOL    HW234830   0.389   3.509  12.313
 1446SOL     OW34831   0.399   5.452  12.265
 1446SOL    HW134832   0.308   5.478  12.249
 1446SOL    HW234833   0.392   5.371  12.316
 1447SOL     OW34834   2.235   1.739  12.268
 1447SOL    HW134835   2.152   1.787  12.260
 1447SOL    HW234836   2.209   1.654  12.304
 1448SOL     OW34837   2.146   3.602  12.215
 1448SOL    HW134838   2.061   3.645  12.224
 1448SOL    HW234839   2.134   3.517  12.258
 1449SOL     OW34840   2.232   5.463  12.265
 1449SOL    HW134841   2.150   5.512  12.257
 1449SOL    HW234842   2.206   5.379  12.303
 1450SOL     OW34843   4.095   1.740  12.267
 1450SOL    HW134844   4.013   1.788  12.260
 1450SOL    HW234845   4.071   1.655  12.304
 1451SOL     OW34846   4.096   3.599  12.268
 1451SOL    HW134847   4.009   3.639  12.262
 1451SOL    HW234848   4.082   3.519  12.318
 1452SOL     OW34849   5.961   1.737  12.269
 1452SOL    HW134850   5.880   1.788  12.260
 1452SOL    HW234851   5.933   1.654  12.308
 1453SOL     OW34852   5.961   3.598  12.269
 1453SOL    HW134853   5.881   3.649  12.259
 1453SOL    HW234854   5.932   3.515  12.308
 1454SOL     OW34855   5.959   5.461  12.268
 1454SOL    HW134856   5.879   5.511  12.259
 1454SOL    HW234857   5.932   5.378  12.307
 1455SOL     OW34858   0.363   1.427   0.602
 1455SOL    HW134859   0.302   1.395   0.536
 1455SOL    HW234860   0.422   1.486   0.553
 1456SOL     OW34861   0.367   3.286   0.600
 1456SOL    HW134862   0.305   3.254   0.534
 1456SOL    HW234863   0.424   3.346   0.552
 1457SOL     OW34864   0.365   5.148   0.604
 1457SOL    HW134865   0.302   5.118   0.538
 1457SOL    HW234866   0.423   5.207   0.556
 1458SOL     OW34867   2.164   3.256   0.550
 1458SOL    HW134868   2.081   3.219   0.519
 1458SOL    HW234869   2.197   3.307   0.476
 1459SOL     OW34870   4.074   1.402   0.595
 1459SOL    HW134871   3.996   1.364   0.555
 1459SOL    HW234872   4.111   1.458   0.528
 1460SOL     OW34873   4.079   3.265   0.602
 1460SOL    HW134874   4.001   3.227   0.561
 1460SOL    HW234875   4.115   3.324   0.536
 1461SOL     OW34876   5.932   1.413   0.592
 1461SOL    HW134877   5.856   1.376   0.548
 1461SOL    HW234878   5.973   1.469   0.525
 1462SOL     OW34879   5.933   3.271   0.588
 1462SOL    HW134880   5.855   3.236   0.545
 1462SOL    HW234881   5.973   3.328   0.522
 1463SOL     OW34882   5.932   5.136   0.590
 1463SOL    HW134883   5.855   5.100   0.546
 1463SOL    HW234884   5.973   5.192   0.525
 1464SOL     OW34885   0.723   0.624   0.574
 1464SOL    HW134886   0.807   0.614   0.529
 1464SOL    HW234887   0.701   0.717   0.563
 1465SOL     OW34888   0.726   2.487   0.577
 1465SOL    HW134889   0.808   2.475   0.530
 1465SOL    HW234890   0.703   2.579   0.564
 1466SOL     OW34891   0.726   4.350   0.578
 1466SOL    HW134892   0.808   4.341   0.530
 1466SOL    HW234893   0.701   4.442   0.564
 1467SOL     OW34894   0.748   6.215   0.563
 1467SOL    HW134895   0.824   6.176   0.521
 1467SOL    HW234896   0.768   6.309   0.567
 1468SOL     OW34897   2.584   0.625   0.575
 1468SOL    HW134898   2.666   0.616   0.528
 1468SOL    HW234899   2.558   0.716   0.563
 1469SOL     OW34900   2.593   2.483   0.581
 1469SOL    HW134901   2.672   2.471   0.529
 1469SOL    HW234902   2.564   2.572   0.561
 1470SOL     OW34903   2.518   4.448   0.628
 1470SOL    HW134904   2.611   4.443   0.607
 1470SOL    HW234905   2.492   4.535   0.598
 1471SOL     OW34906   2.609   6.215   0.561
 1471SOL    HW134907   2.686   6.178   0.518
 1471SOL    HW234908   2.623   6.309   0.559
 1472SOL     OW34909   4.446   0.626   0.575
 1472SOL    HW134910   4.528   0.615   0.527
 1472SOL    HW234911   4.422   0.717   0.561
 1473SOL     OW34912   4.448   2.487   0.578
 1473SOL    HW134913   4.531   2.476   0.531
 1473SOL    HW234914   4.424   2.579   0.564
 1474SOL     OW34915   4.450   4.351   0.579
 1474SOL    HW134916   4.533   4.338   0.534
 1474SOL    HW234917   4.428   4.443   0.563
 1475SOL     OW34918   4.472   6.215   0.564
 1475SOL    HW134919   4.547   6.175   0.520
 1475SOL    HW234920   4.489   6.309   0.562
 1476SOL     OW34921   6.284   0.644   0.576
 1476SOL    HW134922   6.377   0.635   0.599
 1476SOL    HW234923   6.270   0.738   0.570
 1477SOL     OW34924   6.285   4.369   0.574
 1477SOL    HW134925   6.376   4.362   0.601
 1477SOL    HW234926   6.267   4.463   0.573
 1478SOL     OW34927   6.300   6.227   0.570
 1478SOL    HW134928   6.387   6.204   0.600
 1478SOL    HW234929   6.300   6.323   0.568
 1479SOL     OW34930   1.632   1.091   0.622
 1479SOL    HW134931   1.625   1.157   0.691
 1479SOL    HW234932   1.556   1.109   0.565
 1480SOL     OW34933   1.629   2.948   0.623
 1480SOL    HW134934   1.617   3.009   0.695
 1480SOL    HW234935   1.555   2.965   0.564
 1481SOL     OW34936   1.631   4.817   0.621
 1481SOL    HW134937   1.625   4.884   0.690
 1481SOL    HW234938   1.556   4.834   0.564
 1482SOL     OW34939   3.488   1.086   0.619
 1482SOL    HW134940   3.481   1.153   0.687
 1482SOL    HW234941   3.415   1.104   0.560
 1483SOL     OW34942   3.494   2.943   0.617
 1483SOL    HW134943   3.490   3.006   0.689
 1483SOL    HW234944   3.416   2.962   0.565
 1484SOL     OW34945   3.504   4.838   0.614
 1484SOL    HW134946   3.492   4.899   0.687
 1484SOL    HW234947   3.429   4.855   0.557
 1485SOL     OW34948   5.351   1.087   0.622
 1485SOL    HW134949   5.344   1.154   0.690
 1485SOL    HW234950   5.277   1.105   0.563
 1486SOL     OW34951   5.352   2.951   0.621
 1486SOL    HW134952   5.346   3.016   0.690
 1486SOL    HW234953   5.278   2.969   0.563
 1487SOL     OW34954   5.349   4.809   0.621
 1487SOL    HW134955   5.342   4.876   0.689
 1487SOL    HW234956   5.276   4.829   0.562
 1488SOL     OW34957   1.774   0.931  12.213
 1488SOL    HW134958   1.754   1.024  12.223
 1488SOL    HW234959   1.748   0.910  12.124
 1489SOL     OW34960   1.772   2.789  12.209
 1489SOL    HW134961   1.750   2.882  12.220
 1489SOL    HW234962   1.747   2.769  12.119
 1490SOL     OW34963   1.774   4.656  12.213
 1490SOL    HW134964   1.754   4.749  12.223
 1490SOL    HW234965   1.749   4.635  12.123
 1491SOL     OW34966   3.635   0.932  12.210
 1491SOL    HW134967   3.615   1.025  12.220
 1491SOL    HW234968   3.609   0.911  12.120
 1492SOL     OW34969   3.638   2.781  12.213
 1492SOL    HW134970   3.637   2.877  12.219
 1492SOL    HW234971   3.619   2.763  12.121
 1493SOL     OW34972   3.637   4.643  12.203
 1493SOL    HW134973   3.713   4.701  12.198
 1493SOL    HW234974   3.605   4.638  12.112
 1494SOL     OW34975   5.497   0.932  12.212
 1494SOL    HW134976   5.478   1.026  12.221
 1494SOL    HW234977   5.472   0.910  12.123
 1495SOL     OW34978   5.497   2.795  12.212
 1495SOL    HW134979   5.478   2.888  12.221
 1495SOL    HW234980   5.472   2.774  12.122
 1496SOL     OW34981   5.496   4.656  12.212
 1496SOL    HW134982   5.479   4.750  12.220
 1496SOL    HW234983   5.472   4.635  12.122
 1497SOL     OW34984   1.151   1.217   0.632
 1497SOL    HW134985   1.093   1.257   0.697
 1497SOL    HW234986   1.126   1.258   0.549
 1498SOL     OW34987   1.158   3.090   0.633
 1498SOL    HW134988   1.094   3.122   0.697
 1498SOL    HW234989   1.127   3.124   0.549
 1499SOL     OW34990   1.156   4.947   0.635
 1499SOL    HW134991   1.092   4.983   0.697
 1499SOL    HW234992   1.131   4.984   0.551
 1500SOL     OW34993   3.019   1.226   0.635
 1500SOL    HW134994   2.954   1.261   0.696
 1500SOL    HW234995   2.992   1.260   0.550
 1501SOL     OW34996   2.996   3.015   0.635
 1501SOL    HW134997   2.946   3.068   0.698
 1501SOL    HW234998   2.968   3.046   0.549
 1502SOL     OW34999   2.977   4.923   0.621
 1502SOL    HW135000   2.940   4.977   0.690
 1502SOL    HW235001   2.971   4.978   0.542
 1503SOL     OW35002   4.878   1.222   0.635
 1503SOL    HW135003   4.816   1.259   0.698
 1503SOL    HW235004   4.853   1.259   0.551
 1504SOL     OW35005   4.878   3.085   0.634
 1504SOL    HW135006   4.816   3.122   0.697
 1504SOL    HW235007   4.853   3.122   0.550
 1505SOL     OW35008   4.879   4.946   0.635
 1505SOL    HW135009   4.817   4.985   0.697
 1505SOL    HW235010   4.854   4.983   0.551
 1506SOL     OW35011   1.236   1.543  12.215
 1506SOL    HW135012   1.227   1.468  12.273
 1506SOL    HW235013   1.164   1.533  12.152
 1507SOL     OW35014   1.234   3.403  12.215
 1507SOL    HW135015   1.226   3.329  12.275
 1507SOL    HW235016   1.166   3.388  12.149
 1508SOL     OW35017   1.236   5.266  12.214
 1508SOL    HW135018   1.227   5.191  12.272
 1508SOL    HW235019   1.164   5.257  12.152
 1509SOL     OW35020   3.097   1.541  12.214
 1509SOL    HW135021   3.090   1.467  12.275
 1509SOL    HW235022   3.029   1.526  12.149
 1510SOL     OW35023   3.130   3.239  12.164
 1510SOL    HW135024   3.114   3.183  12.241
 1510SOL    HW235025   3.042   3.257  12.129
 1511SOL     OW35026   3.096   5.274  12.214
 1511SOL    HW135027   3.086   5.195  12.267
 1511SOL    HW235028   3.011   5.285  12.171
 1512SOL     OW35029   4.960   1.543  12.214
 1512SOL    HW135030   4.952   1.468  12.274
 1512SOL    HW235031   4.890   1.529  12.150
 1513SOL     OW35032   4.957   3.404  12.214
 1513SOL    HW135033   4.951   3.332  12.276
 1513SOL    HW235034   4.897   3.380  12.143
 1514SOL     OW35035   4.961   5.268  12.214
 1514SOL    HW135036   4.951   5.192  12.272
 1514SOL    HW235037   4.888   5.260  12.153
 1515SOL     OW35038   1.715   1.477   0.621
 1515SOL    HW135039   1.633   1.458   0.575
 1515SOL    HW235040   1.719   1.411   0.691
 1516SOL     OW35041   1.695   3.320   0.643
 1516SOL    HW135042   1.632   3.302   0.573
 1516SOL    HW235043   1.682   3.249   0.706
 1517SOL     OW35044   1.718   5.196   0.616
 1517SOL    HW135045   1.635   5.179   0.572
 1517SOL    HW235046   1.720   5.132   0.688
 1518SOL     OW35047   3.580   1.475   0.616
 1518SOL    HW135048   3.497   1.457   0.571
 1518SOL    HW235049   3.587   1.408   0.683
 1519SOL     OW35050   3.619   3.305   0.609
 1519SOL    HW135051   3.526   3.303   0.587
 1519SOL    HW235052   3.628   3.245   0.683
 1520SOL     OW35053   3.582   5.199   0.618
 1520SOL    HW135054   3.495   5.183   0.580
 1520SOL    HW235055   3.589   5.133   0.688
 1521SOL     OW35056   5.437   1.477   0.622
 1521SOL    HW135057   5.357   1.459   0.574
 1521SOL    HW235058   5.441   1.409   0.689
 1522SOL     OW35059   5.440   3.339   0.619
 1522SOL    HW135060   5.358   3.319   0.575
 1522SOL    HW235061   5.448   3.272   0.687
 1523SOL     OW35062   5.440   5.201   0.618
 1523SOL    HW135063   5.358   5.181   0.573
 1523SOL    HW235064   5.449   5.132   0.684
 1524SOL     OW35065   0.470   0.387  12.172
 1524SOL    HW135066   0.551   0.338  12.186
 1524SOL    HW235067   0.401   0.330  12.208
 1525SOL     OW35068   0.484   2.238  12.164
 1525SOL    HW135069   0.563   2.184  12.176
 1525SOL    HW235070   0.413   2.185  12.200
 1526SOL     OW35071   0.484   5.947  12.152
 1526SOL    HW135072   0.566   5.900  12.169
 1526SOL    HW235073   0.418   5.900  12.202
 1527SOL     OW35074   2.328   0.389  12.171
 1527SOL    HW135075   2.404   0.333  12.186
 1527SOL    HW235076   2.252   0.333  12.190
 1528SOL     OW35077   2.330   2.238  12.170
 1528SOL    HW135078   2.406   2.180  12.182
 1528SOL    HW235079   2.256   2.185  12.198
 1529SOL     OW35080   2.291   4.121  12.176
 1529SOL    HW135081   2.351   4.047  12.181
 1529SOL    HW235082   2.205   4.083  12.195
 1530SOL     OW35083   4.192   0.391  12.171
 1530SOL    HW135084   4.268   0.335  12.187
 1530SOL    HW235085   4.117   0.336  12.194
 1531SOL     OW35086   4.190   2.244  12.168
 1531SOL    HW135087   4.267   2.189  12.182
 1531SOL    HW235088   4.117   2.190  12.199
 1532SOL     OW35089   4.209   4.112  12.163
 1532SOL    HW135090   4.286   4.056  12.178
 1532SOL    HW235091   4.136   4.061  12.198
 1533SOL     OW35092   4.198   5.956  12.155
 1533SOL    HW135093   4.275   5.904  12.177
 1533SOL    HW235094   4.125   5.906  12.193
 1534SOL     OW35095   6.030   0.413  12.227
 1534SOL    HW135096   6.111   0.364  12.213
 1534SOL    HW235097   5.960   0.349  12.214
 1535SOL     OW35098   6.023   2.268  12.210
 1535SOL    HW135099   6.103   2.218  12.192
 1535SOL    HW235100   5.954   2.202  12.215
 1536SOL     OW35101   6.020   4.138  12.212
 1536SOL    HW135102   6.102   4.093  12.190
 1536SOL    HW235103   5.954   4.069  12.215
 1537SOL     OW35104   6.036   5.989  12.246
 1537SOL    HW135105   6.102   5.962  12.182
 1537SOL    HW235106   5.962   5.930  12.230
 1538SOL     OW35107   0.192   0.277  12.183
 1538SOL    HW135108   0.158   0.366  12.175
 1538SOL    HW235109   0.168   0.250  12.272
 1539SOL     OW35110   0.211   2.138  12.193
 1539SOL    HW135111   0.173   2.225  12.181
 1539SOL    HW235112   0.214   2.124  12.287
 1540SOL     OW35113   0.210   4.003  12.195
 1540SOL    HW135114   0.174   4.091  12.180
 1540SOL    HW235115   0.217   3.996  12.290
 1541SOL     OW35116   0.212   5.854  12.202
 1541SOL    HW135117   0.177   5.942  12.187
 1541SOL    HW235118   0.222   5.849  12.297
 1542SOL     OW35119   2.075   0.274  12.201
 1542SOL    HW135120   1.999   0.328  12.178
 1542SOL    HW235121   2.042   0.215  12.269
 1543SOL     OW35122   2.077   2.120  12.216
 1543SOL    HW135123   1.996   2.169  12.222
 1543SOL    HW235124   2.057   2.035  12.256
 1544SOL     OW35125   2.046   4.014  12.233
 1544SOL    HW135126   1.957   4.048  12.232
 1544SOL    HW235127   2.050   3.959  12.311
 1545SOL     OW35128   2.080   5.840  12.212
 1545SOL    HW135129   2.007   5.900  12.228
 1545SOL    HW235130   2.055   5.758  12.254
 1546SOL     OW35131   3.939   0.274  12.206
 1546SOL    HW135132   3.867   0.334  12.190
 1546SOL    HW235133   3.906   0.216  12.275
 1547SOL     OW35134   3.941   2.116  12.218
 1547SOL    HW135135   3.869   2.174  12.241
 1547SOL    HW235136   3.917   2.032  12.257
 1548SOL     OW35137   3.975   3.975  12.211
 1548SOL    HW135138   3.887   4.013  12.203
 1548SOL    HW235139   3.964   3.903  12.273
 1549SOL     OW35140   3.945   5.846  12.213
 1549SOL    HW135141   3.876   5.909  12.232
 1549SOL    HW235142   3.921   5.768  12.264
 1550SOL     OW35143   5.797   0.264  12.196
 1550SOL    HW135144   5.726   0.327  12.184
 1550SOL    HW235145   5.768   0.208  12.268
 1551SOL     OW35146   5.795   2.112  12.204
 1551SOL    HW135147   5.728   2.171  12.237
 1551SOL    HW235148   5.775   2.028  12.246
 1552SOL     OW35149   5.797   3.975  12.204
 1552SOL    HW135150   5.730   4.035  12.236
 1552SOL    HW235151   5.777   3.892  12.246
 1553SOL     OW35152   5.802   5.842  12.206
 1553SOL    HW135153   5.731   5.903  12.224
 1553SOL    HW235154   5.778   5.763  12.254
 1554SOL     OW35155   1.439   0.231   0.636
 1554SOL    HW135156   1.406   0.141   0.643
 1554SOL    HW235157   1.399   0.277   0.710
 1555SOL     OW35158   1.441   2.089   0.649
 1555SOL    HW135159   1.451   2.002   0.687
 1555SOL    HW235160   1.392   2.139   0.715
 1556SOL     OW35161   1.433   3.949   0.648
 1556SOL    HW135162   1.433   3.859   0.682
 1556SOL    HW235163   1.389   4.000   0.715
 1557SOL     OW35164   1.442   5.813   0.649
 1557SOL    HW135165   1.463   5.730   0.692
 1557SOL    HW235166   1.389   5.860   0.712
 1558SOL     OW35167   3.299   0.227   0.636
 1558SOL    HW135168   3.270   0.138   0.651
 1558SOL    HW235169   3.260   0.278   0.707
 1559SOL     OW35170   3.304   2.092   0.650
 1559SOL    HW135171   3.325   2.009   0.692
 1559SOL    HW235172   3.254   2.140   0.715
 1560SOL     OW35173   3.472   4.001   0.705
 1560SOL    HW135174   3.563   3.973   0.721
 1560SOL    HW235175   3.427   3.984   0.788
 1561SOL     OW35176   5.162   0.229   0.636
 1561SOL    HW135177   5.134   0.139   0.649
 1561SOL    HW235178   5.123   0.277   0.709
 1562SOL     OW35179   5.164   2.091   0.651
 1562SOL    HW135180   5.182   2.006   0.693
 1562SOL    HW235181   5.115   2.140   0.717
 1563SOL     OW35182   5.167   5.814   0.650
 1563SOL    HW135183   5.193   5.733   0.694
 1563SOL    HW235184   5.113   5.860   0.714
 1564SOL     OW35185   0.078   0.546   0.667
 1564SOL    HW135186   0.172   0.545   0.651
 1564SOL    HW235187   0.069   0.527   0.760
 1565SOL     OW35188   0.081   2.416   0.665
 1565SOL    HW135189   0.174   2.409   0.646
 1565SOL    HW235190   0.072   2.386   0.755
 1566SOL     OW35191   0.080   4.280   0.664
 1566SOL    HW135192   0.174   4.271   0.647
 1566SOL    HW235193   0.068   4.252   0.754
 1567SOL     OW35194   0.086   6.164   0.688
 1567SOL    HW135195   0.172   6.138   0.656
 1567SOL    HW235196   0.080   6.125   0.775
 1568SOL     OW35197   1.913   0.561   0.653
 1568SOL    HW135198   1.993   0.552   0.601
 1568SOL    HW235199   1.943   0.555   0.744
 1569SOL     OW35200   1.908   2.424   0.649
 1569SOL    HW135201   1.986   2.409   0.596
 1569SOL    HW235202   1.938   2.414   0.740
 1570SOL     OW35203   1.884   4.260   0.628
 1570SOL    HW135204   1.931   4.206   0.563
 1570SOL    HW235205   1.931   4.245   0.709
 1571SOL     OW35206   3.776   0.566   0.648
 1571SOL    HW135207   3.856   0.555   0.597
 1571SOL    HW235208   3.805   0.559   0.739
 1572SOL     OW35209   3.777   2.428   0.654
 1572SOL    HW135210   3.858   2.420   0.604
 1572SOL    HW235211   3.804   2.419   0.745
 1573SOL     OW35212   3.822   4.261   0.637
 1573SOL    HW135213   3.909   4.261   0.596
 1573SOL    HW235214   3.840   4.258   0.731
 1574SOL     OW35215   3.775   6.141   0.643
 1574SOL    HW135216   3.857   6.143   0.592
 1574SOL    HW235217   3.804   6.141   0.734
 1575SOL     OW35218   5.635   0.560   0.651
 1575SOL    HW135219   5.711   0.546   0.594
 1575SOL    HW235220   5.671   0.551   0.740
 1576SOL     OW35221   5.632   2.420   0.647
 1576SOL    HW135222   5.711   2.404   0.594
 1576SOL    HW235223   5.663   2.415   0.738
 1577SOL     OW35224   5.635   4.285   0.645
 1577SOL    HW135225   5.716   4.273   0.595
 1577SOL    HW235226   5.664   4.282   0.737
 1578SOL     OW35227   5.634   6.141   0.637
 1578SOL    HW135228   5.713   6.131   0.585
 1578SOL    HW235229   5.664   6.137   0.727
 1579SOL     OW35230   0.403   1.322  12.210
 1579SOL    HW135231   0.383   1.398  12.156
 1579SOL    HW235232   0.335   1.258  12.187
 1580SOL     OW35233   0.398   3.182  12.210
 1580SOL    HW135234   0.378   3.257  12.155
 1580SOL    HW235235   0.331   3.118  12.188
 1581SOL     OW35236   0.398   5.042  12.211
 1581SOL    HW135237   0.377   5.118  12.156
 1581SOL    HW235238   0.330   4.978  12.190
 1582SOL     OW35239   2.238   1.312  12.208
 1582SOL    HW135240   2.230   1.385  12.147
 1582SOL    HW235241   2.163   1.256  12.188
 1583SOL     OW35242   2.207   3.174  12.227
 1583SOL    HW135243   2.192   3.243  12.162
 1583SOL    HW235244   2.138   3.110  12.210
 1584SOL     OW35245   2.243   5.033  12.207
 1584SOL    HW135246   2.231   5.109  12.150
 1584SOL    HW235247   2.166   4.979  12.191
 1585SOL     OW35248   4.101   1.311  12.207
 1585SOL    HW135249   4.092   1.384  12.147
 1585SOL    HW235250   4.025   1.255  12.188
 1586SOL     OW35251   4.101   3.180  12.216
 1586SOL    HW135252   4.104   3.246  12.146
 1586SOL    HW235253   4.035   3.118  12.186
 1587SOL     OW35254   4.088   5.029  12.212
 1587SOL    HW135255   4.091   5.104  12.153
 1587SOL    HW235256   4.014   4.978  12.182
 1588SOL     OW35257   5.965   5.035  12.209
 1588SOL    HW135258   5.962   5.107  12.146
 1588SOL    HW235259   5.889   4.981  12.187
 1589SOL     OW35260   0.694   0.223  12.214
 1589SOL    HW135261   0.778   0.210  12.169
 1589SOL    HW235262   0.718   0.247  12.303
 1590SOL     OW35263   0.698   2.056  12.205
 1590SOL    HW135264   0.781   2.031  12.164
 1590SOL    HW235265   0.724   2.087  12.292
 1591SOL     OW35266   0.699   3.917  12.204
 1591SOL    HW135267   0.782   3.892  12.164
 1591SOL    HW235268   0.723   3.948  12.291
 1592SOL     OW35269   0.701   5.775  12.202
 1592SOL    HW135270   0.785   5.751  12.163
 1592SOL    HW235271   0.724   5.805  12.290
 1593SOL     OW35272   2.552   0.219  12.216
 1593SOL    HW135273   2.635   0.209  12.169
 1593SOL    HW235274   2.578   0.247  12.304
 1594SOL     OW35275   2.449   3.898  12.236
 1594SOL    HW135276   2.510   3.961  12.272
 1594SOL    HW235277   2.408   3.857  12.312
 1595SOL     OW35278   2.557   5.768  12.199
 1595SOL    HW135279   2.642   5.745  12.161
 1595SOL    HW235280   2.577   5.799  12.287
 1596SOL     OW35281   4.414   0.218  12.218
 1596SOL    HW135282   4.496   0.207  12.169
 1596SOL    HW235283   4.442   0.249  12.305
 1597SOL     OW35284   4.416   2.053  12.202
 1597SOL    HW135285   4.500   2.028  12.163
 1597SOL    HW235286   4.438   2.085  12.290
 1598SOL     OW35287   4.418   3.913  12.203
 1598SOL    HW135288   4.502   3.889  12.163
 1598SOL    HW235289   4.441   3.946  12.290
 1599SOL     OW35290   4.418   5.769  12.199
 1599SOL    HW135291   4.503   5.747  12.161
 1599SOL    HW235292   4.439   5.801  12.287
 1600SOL     OW35293   6.253   0.208  12.211
 1600SOL    HW135294   6.346   0.186  12.199
 1600SOL    HW235295   6.234   0.181  12.301
 1601SOL     OW35296   6.237   2.050  12.173
 1601SOL    HW135297   6.324   2.040  12.133
 1601SOL    HW235298   6.256   2.064  12.266
 1602SOL     OW35299   6.236   3.909  12.168
 1602SOL    HW135300   6.325   3.899  12.132
 1602SOL    HW235301   6.250   3.929  12.260
 1603SOL     OW35302   6.238   5.764  12.157
 1603SOL    HW135303   6.329   5.754  12.128
 1603SOL    HW235304   6.246   5.791  12.249
 1604SOL     OW35305   1.247   1.726   0.617
 1604SOL    HW135306   1.334   1.756   0.588
 1604SOL    HW235307   1.261   1.637   0.649
 1605SOL     OW35308   1.239   3.592   0.645
 1605SOL    HW135309   1.301   3.614   0.575
 1605SOL    HW235310   1.256   3.500   0.663
 1606SOL     OW35311   1.249   5.448   0.612
 1606SOL    HW135312   1.336   5.479   0.585
 1606SOL    HW235313   1.264   5.359   0.645
 1607SOL     OW35314   3.111   1.726   0.617
 1607SOL    HW135315   3.197   1.756   0.588
 1607SOL    HW235316   3.125   1.636   0.647
 1608SOL     OW35317   3.068   3.461   0.692
 1608SOL    HW135318   3.134   3.491   0.755
 1608SOL    HW235319   3.098   3.373   0.667
 1609SOL     OW35320   3.110   5.449   0.608
 1609SOL    HW135321   3.197   5.480   0.583
 1609SOL    HW235322   3.124   5.362   0.645
 1610SOL     OW35323   4.972   1.725   0.617
 1610SOL    HW135324   5.057   1.756   0.587
 1610SOL    HW235325   4.987   1.636   0.648
 1611SOL     OW35326   4.972   3.587   0.614
 1611SOL    HW135327   5.058   3.618   0.586
 1611SOL    HW235328   4.987   3.499   0.647
 1612SOL     OW35329   4.972   5.449   0.614
 1612SOL    HW135330   5.058   5.480   0.586
 1612SOL    HW235331   4.988   5.360   0.646
 1613SOL     OW35332   1.651   0.157  12.219
 1613SOL    HW135333   1.666   0.221  12.149
 1613SOL    HW235334   1.584   0.198  12.275
 1614SOL     OW35335   1.603   1.992  12.164
 1614SOL    HW135336   1.640   2.068  12.118
 1614SOL    HW235337   1.577   2.027  12.249
 1615SOL     OW35338   1.606   5.714  12.169
 1615SOL    HW135339   1.642   5.790  12.124
 1615SOL    HW235340   1.578   5.748  12.254
 1616SOL     OW35341   3.509   0.158  12.214
 1616SOL    HW135342   3.529   0.226  12.150
 1616SOL    HW235343   3.445   0.198  12.273
 1617SOL     OW35344   3.463   1.989  12.164
 1617SOL    HW135345   3.505   2.060  12.115
 1617SOL    HW235346   3.440   2.029  12.248
 1618SOL     OW35347   3.569   3.792  12.269
 1618SOL    HW135348   3.511   3.837  12.207
 1618SOL    HW235349   3.516   3.782  12.348
 1619SOL     OW35350   3.468   5.714  12.170
 1619SOL    HW135351   3.508   5.789  12.125
 1619SOL    HW235352   3.442   5.748  12.255
 1620SOL     OW35353   5.378   0.157  12.219
 1620SOL    HW135354   5.391   0.218  12.146
 1620SOL    HW235355   5.311   0.198  12.273
 1621SOL     OW35356   5.326   3.853  12.163
 1621SOL    HW135357   5.368   3.924  12.115
 1621SOL    HW235358   5.302   3.892  12.247
 1622SOL     OW35359   5.328   5.716  12.167
 1622SOL    HW135360   5.369   5.790  12.123
 1622SOL    HW235361   5.302   5.750  12.253
 1623SOL     OW35362   1.187   0.202  12.178
 1623SOL    HW135363   1.172   0.266  12.249
 1623SOL    HW235364   1.222   0.254  12.106
 1624SOL     OW35365   1.174   2.048  12.177
 1624SOL    HW135366   1.160   2.111  12.247
 1624SOL    HW235367   1.216   2.098  12.107
 1625SOL     OW35368   1.173   3.910  12.177
 1625SOL    HW135369   1.160   3.973  12.248
 1625SOL    HW235370   1.215   3.961  12.107
 1626SOL     OW35371   1.175   5.771  12.177
 1626SOL    HW135372   1.162   5.835  12.247
 1626SOL    HW235373   1.215   5.822  12.105
 1627SOL     OW35374   3.034   2.049  12.173
 1627SOL    HW135375   3.022   2.113  12.243
 1627SOL    HW235376   3.078   2.097  12.104
 1628SOL     OW35377   3.347   3.951  12.173
 1628SOL    HW135378   3.371   4.002  12.250
 1628SOL    HW235379   3.257   3.977  12.154
 1629SOL     OW35380   3.040   5.770  12.178
 1629SOL    HW135381   3.025   5.835  12.247
 1629SOL    HW235382   3.078   5.821  12.106
 1630SOL     OW35383   4.905   0.202  12.179
 1630SOL    HW135384   4.893   0.266  12.249
 1630SOL    HW235385   4.943   0.253  12.107
 1631SOL     OW35386   4.899   2.049  12.175
 1631SOL    HW135387   4.886   2.111  12.246
 1631SOL    HW235388   4.942   2.100  12.106
 1632SOL     OW35389   4.895   3.911  12.175
 1632SOL    HW135390   4.883   3.973  12.247
 1632SOL    HW235391   4.941   3.961  12.107
 1633SOL     OW35392   4.900   5.770  12.178
 1633SOL    HW135393   4.886   5.835  12.247
 1633SOL    HW235394   4.940   5.820  12.106
 1634SOL     OW35395   1.307   1.465   0.686
 1634SOL    HW135396   1.363   1.473   0.764
 1634SOL    HW235397   1.254   1.387   0.703
 1635SOL     OW35398   1.308   3.324   0.677
 1635SOL    HW135399   1.354   3.321   0.760
 1635SOL    HW235400   1.254   3.245   0.677
 1636SOL     OW35401   1.307   5.188   0.684
 1636SOL    HW135402   1.361   5.194   0.763
 1636SOL    HW235403   1.258   5.107   0.695
 1637SOL     OW35404   3.170   1.464   0.683
 1637SOL    HW135405   3.224   1.469   0.762
 1637SOL    HW235406   3.121   1.383   0.693
 1638SOL     OW35407   3.187   3.213   0.681
 1638SOL    HW135408   3.220   3.204   0.770
 1638SOL    HW235409   3.134   3.135   0.667
 1639SOL     OW35410   3.159   5.193   0.697
 1639SOL    HW135411   3.223   5.200   0.767
 1639SOL    HW235412   3.087   5.142   0.735
 1640SOL     OW35413   5.033   3.327   0.685
 1640SOL    HW135414   5.087   3.334   0.764
 1640SOL    HW235415   4.983   3.246   0.698
 1641SOL     OW35416   5.033   5.188   0.685
 1641SOL    HW135417   5.088   5.195   0.763
 1641SOL    HW235418   4.984   5.107   0.697
 1642SOL     OW35419   0.200   1.148  12.166
 1642SOL    HW135420   0.171   1.113  12.250
 1642SOL    HW235421   0.203   1.073  12.108
 1643SOL     OW35422   0.196   3.003  12.171
 1643SOL    HW135423   0.163   2.958  12.248
 1643SOL    HW235424   0.203   2.935  12.104
 1644SOL     OW35425   0.196   4.862  12.176
 1644SOL    HW135426   0.161   4.814  12.252
 1644SOL    HW235427   0.204   4.795  12.108
 1645SOL     OW35428   2.010   1.148  12.179
 1645SOL    HW135429   2.016   1.109  12.267
 1645SOL    HW235430   2.028   1.076  12.120
 1646SOL     OW35431   1.998   3.001  12.184
 1646SOL    HW135432   2.004   2.960  12.270
 1646SOL    HW235433   2.018   2.930  12.122
 1647SOL     OW35434   3.872   1.148  12.180
 1647SOL    HW135435   3.878   1.108  12.267
 1647SOL    HW235436   3.890   1.076  12.120
 1648SOL     OW35437   3.895   2.995  12.174
 1648SOL    HW135438   3.908   2.949  12.257
 1648SOL    HW235439   3.908   2.927  12.107
 1649SOL     OW35440   3.850   4.857  12.184
 1649SOL    HW135441   3.873   4.818  12.269
 1649SOL    HW235442   3.885   4.795  12.120
 1650SOL     OW35443   5.734   1.149  12.181
 1650SOL    HW135444   5.742   1.110  12.268
 1650SOL    HW235445   5.751   1.077  12.120
 1651SOL     OW35446   5.734   3.012  12.183
 1651SOL    HW135447   5.742   2.973  12.270
 1651SOL    HW235448   5.751   2.940  12.122
 1652SOL     OW35449   5.733   4.873  12.181
 1652SOL    HW135450   5.742   4.834  12.268
 1652SOL    HW235451   5.752   4.801  12.121
 1653SOL     OW35452   0.804   0.616  12.146
 1653SOL    HW135453   0.777   0.588  12.233
 1653SOL    HW235454   0.778   0.545  12.088
 1654SOL     OW35455   0.932   1.675  12.171
 1654SOL    HW135456   0.904   1.633  12.090
 1654SOL    HW235457   0.925   1.769  12.153
 1655SOL     OW35458   0.799   2.477  12.145
 1655SOL    HW135459   0.773   2.446  12.232
 1655SOL    HW235460   0.773   2.406  12.086
 1656SOL     OW35461   0.925   3.539  12.174
 1656SOL    HW135462   0.903   3.496  12.091
 1656SOL    HW235463   0.921   3.632  12.154
 1657SOL     OW35464   0.800   4.337  12.145
 1657SOL    HW135465   0.772   4.306  12.232
 1657SOL    HW235466   0.773   4.267  12.086
 1658SOL     OW35467   0.932   5.398  12.173
 1658SOL    HW135468   0.903   5.357  12.091
 1658SOL    HW235469   0.927   5.492  12.156
 1659SOL     OW35470   0.802   6.218  12.150
 1659SOL    HW135471   0.777   6.182  12.235
 1659SOL    HW235472   0.777   6.151  12.087
 1660SOL     OW35473   2.665   0.617  12.140
 1660SOL    HW135474   2.640   0.588  12.228
 1660SOL    HW235475   2.637   0.545  12.083
 1661SOL     OW35476   2.789   1.676  12.174
 1661SOL    HW135477   2.765   1.633  12.092
 1661SOL    HW235478   2.782   1.769  12.156
 1662SOL     OW35479   2.667   2.469  12.143
 1662SOL    HW135480   2.645   2.440  12.232
 1662SOL    HW235481   2.637   2.397  12.087
 1663SOL     OW35482   2.900   3.304  12.031
 1663SOL    HW135483   2.833   3.261  12.084
 1663SOL    HW235484   2.927   3.379  12.083
 1664SOL     OW35485   2.663   4.372  12.124
 1664SOL    HW135486   2.657   4.304  12.191
 1664SOL    HW235487   2.600   4.345  12.057
 1665SOL     OW35488   2.816   5.389  12.161
 1665SOL    HW135489   2.773   5.354  12.083
 1665SOL    HW235490   2.805   5.484  12.154
 1666SOL     OW35491   2.674   6.211  12.154
 1666SOL    HW135492   2.650   6.176  12.240
 1666SOL    HW235493   2.643   6.146  12.091
 1667SOL     OW35494   4.524   0.617  12.140
 1667SOL    HW135495   4.500   0.588  12.228
 1667SOL    HW235496   4.497   0.545  12.083
 1668SOL     OW35497   4.653   1.676  12.174
 1668SOL    HW135498   4.629   1.636  12.090
 1668SOL    HW235499   4.647   1.770  12.158
 1669SOL     OW35500   4.522   2.477  12.140
 1669SOL    HW135501   4.502   2.449  12.229
 1669SOL    HW235502   4.495   2.404  12.085
 1670SOL     OW35503   4.639   3.542  12.179
 1670SOL    HW135504   4.630   3.499  12.094
 1670SOL    HW235505   4.642   3.635  12.158
 1671SOL     OW35506   4.519   4.341  12.144
 1671SOL    HW135507   4.496   4.313  12.232
 1671SOL    HW235508   4.495   4.267  12.088
 1672SOL     OW35509   4.658   5.396  12.170
 1672SOL    HW135510   4.629   5.359  12.087
 1672SOL    HW235511   4.654   5.491  12.157
 1673SOL     OW35512   4.531   6.214  12.153
 1673SOL    HW135513   4.506   6.178  12.239
 1673SOL    HW235514   4.505   6.146  12.090
 1674SOL     OW35515   1.093   0.687  12.158
 1674SOL    HW135516   1.029   0.616  12.162
 1674SOL    HW235517   1.177   0.643  12.148
 1675SOL     OW35518   1.091   2.546  12.156
 1675SOL    HW135519   1.029   2.473  12.160
 1675SOL    HW235520   1.177   2.505  12.149
 1676SOL     OW35521   1.090   4.410  12.157
 1676SOL    HW135522   1.028   4.336  12.162
 1676SOL    HW235523   1.176   4.368  12.150
 1677SOL     OW35524   2.954   0.687  12.161
 1677SOL    HW135525   2.891   0.615  12.166
 1677SOL    HW235526   3.039   0.645  12.151
 1678SOL     OW35527   2.958   2.535  12.146
 1678SOL    HW135528   2.894   2.465  12.157
 1678SOL    HW235529   3.043   2.491  12.148
 1679SOL     OW35530   2.927   4.418  12.099
 1679SOL    HW135531   2.835   4.412  12.124
 1679SOL    HW235532   2.937   4.355  12.027
 1680SOL     OW35533   2.938   6.305  12.191
 1680SOL    HW135534   2.850   6.268  12.178
 1680SOL    HW235535   2.997   6.233  12.172
 1681SOL     OW35536   4.816   0.686  12.158
 1681SOL    HW135537   4.755   0.613  12.161
 1681SOL    HW235538   4.902   0.645  12.148
 1682SOL     OW35539   4.815   2.547  12.155
 1682SOL    HW135540   4.755   2.473  12.161
 1682SOL    HW235541   4.902   2.508  12.150
 1683SOL     OW35542   4.816   4.409  12.157
 1683SOL    HW135543   4.758   4.333  12.164
 1683SOL    HW235544   4.903   4.372  12.151
 1684SOL     OW35545   4.795   6.299  12.217
 1684SOL    HW135546   4.710   6.267  12.187
 1684SOL    HW235547   4.858   6.237  12.181
 1685SOL     OW35548   0.588   0.221   0.700
 1685SOL    HW135549   0.620   0.148   0.753
 1685SOL    HW235550   0.495   0.228   0.722
 1686SOL     OW35551   0.580   2.083   0.706
 1686SOL    HW135552   0.617   2.010   0.756
 1686SOL    HW235553   0.488   2.084   0.731
 1687SOL     OW35554   0.579   3.948   0.706
 1687SOL    HW135555   0.616   3.877   0.758
 1687SOL    HW235556   0.486   3.950   0.731
 1688SOL     OW35557   0.579   5.819   0.707
 1688SOL    HW135558   0.619   5.753   0.764
 1688SOL    HW235559   0.486   5.816   0.729
 1689SOL     OW35560   2.440   0.223   0.703
 1689SOL    HW135561   2.474   0.148   0.752
 1689SOL    HW235562   2.347   0.227   0.726
 1690SOL     OW35563   2.430   2.085   0.708
 1690SOL    HW135564   2.470   2.014   0.759
 1690SOL    HW235565   2.337   2.082   0.733
 1691SOL     OW35566   2.341   4.076   0.697
 1691SOL    HW135567   2.364   3.984   0.710
 1691SOL    HW235568   2.246   4.076   0.690
 1692SOL     OW35569   2.431   5.819   0.710
 1692SOL    HW135570   2.474   5.764   0.775
 1692SOL    HW235571   2.338   5.816   0.734
 1693SOL     OW35572   4.300   0.227   0.705
 1693SOL    HW135573   4.336   0.155   0.758
 1693SOL    HW235574   4.207   0.229   0.729
 1694SOL     OW35575   4.292   2.087   0.709
 1694SOL    HW135576   4.333   2.022   0.765
 1694SOL    HW235577   4.200   2.086   0.734
 1695SOL     OW35578   4.292   3.952   0.708
 1695SOL    HW135579   4.335   3.887   0.764
 1695SOL    HW235580   4.200   3.949   0.734
 1696SOL     OW35581   4.292   5.819   0.710
 1696SOL    HW135582   4.336   5.754   0.765
 1696SOL    HW235583   4.200   5.813   0.735
 1697SOL     OW35584   6.167   0.217   0.702
 1697SOL    HW135585   6.203   0.150   0.760
 1697SOL    HW235586   6.074   0.220   0.724
 1698SOL     OW35587   6.154   2.089   0.697
 1698SOL    HW135588   6.204   2.024   0.747
 1698SOL    HW235589   6.064   2.078   0.727
 1699SOL     OW35590   6.151   3.951   0.699
 1699SOL    HW135591   6.201   3.893   0.757
 1699SOL    HW235592   6.060   3.942   0.729
 1700SOL     OW35593   6.154   5.813   0.695
 1700SOL    HW135594   6.206   5.760   0.756
 1700SOL    HW235595   6.064   5.801   0.724
 1701SOL     OW35596   1.799   1.727   0.697
 1701SOL    HW135597   1.859   1.753   0.628
 1701SOL    HW235598   1.770   1.639   0.671
 1702SOL     OW35599   1.037   0.009   0.689
 1702SOL    HW135600   1.008   6.380   0.736
 1702SOL    HW235601   1.132   0.004   0.691
 1703SOL     OW35602   1.624   3.583   0.617
 1703SOL    HW135603   1.707   3.624   0.643
 1703SOL    HW235604   1.645   3.490   0.610
 1704SOL     OW35605   1.021   1.876   0.660
 1704SOL    HW135606   0.962   1.813   0.620
 1704SOL    HW235607   1.107   1.834   0.657
 1705SOL     OW35608   1.792   5.449   0.693
 1705SOL    HW135609   1.855   5.477   0.627
 1705SOL    HW235610   1.768   5.360   0.668
 1706SOL     OW35611   1.025   5.600   0.658
 1706SOL    HW135612   0.965   5.539   0.617
 1706SOL    HW235613   1.110   5.558   0.653
 1707SOL     OW35614   3.655   1.729   0.690
 1707SOL    HW135615   3.718   1.755   0.624
 1707SOL    HW235616   3.631   1.639   0.666
 1708SOL     OW35617   2.906   0.015   0.680
 1708SOL    HW135618   2.873   6.379   0.706
 1708SOL    HW235619   2.999   6.450   0.663
 1709SOL     OW35620   3.811   3.499   0.669
 1709SOL    HW135621   3.821   3.553   0.590
 1709SOL    HW235622   3.750   3.430   0.644
 1710SOL     OW35623   2.885   1.876   0.660
 1710SOL    HW135624   2.827   1.814   0.615
 1710SOL    HW235625   2.971   1.834   0.657
 1711SOL     OW35626   3.655   5.453   0.691
 1711SOL    HW135627   3.718   5.480   0.625
 1711SOL    HW235628   3.631   5.363   0.668
 1712SOL     OW35629   2.859   3.628   0.606
 1712SOL    HW135630   2.827   3.554   0.555
 1712SOL    HW235631   2.939   3.595   0.649
 1713SOL     OW35632   2.885   5.602   0.660
 1713SOL    HW135633   2.826   5.541   0.615
 1713SOL    HW235634   2.971   5.559   0.654
 1714SOL     OW35635   5.525   1.725   0.700
 1714SOL    HW135636   5.585   1.753   0.630
 1714SOL    HW235637   5.495   1.639   0.672
 1715SOL     OW35638   4.767   0.012   0.682
 1715SOL    HW135639   4.740   6.380   0.723
 1715SOL    HW235640   4.861   0.001   0.668
 1716SOL     OW35641   5.524   3.589   0.693
 1716SOL    HW135642   5.585   3.616   0.625
 1716SOL    HW235643   5.497   3.501   0.668
 1717SOL     OW35644   4.746   1.875   0.660
 1717SOL    HW135645   4.688   1.815   0.613
 1717SOL    HW235646   4.832   1.833   0.658
 1718SOL     OW35647   5.521   5.451   0.695
 1718SOL    HW135648   5.583   5.478   0.628
 1718SOL    HW235649   5.495   5.363   0.669
 1719SOL     OW35650   4.747   3.737   0.662
 1719SOL    HW135651   4.688   3.675   0.618
 1719SOL    HW235652   4.833   3.696   0.658
 1720SOL     OW35653   4.746   5.600   0.659
 1720SOL    HW135654   4.691   5.539   0.610
 1720SOL    HW235655   4.833   5.559   0.658
 1721SOL     OW35656   0.106   6.439   0.670
 1721SOL    HW135657   0.089   6.346   0.685
 1721SOL    HW235658   0.184   6.440   0.614
 1722SOL     OW35659   0.587   1.305   0.734
 1722SOL    HW135660   0.502   1.309   0.691
 1722SOL    HW235661   0.602   1.394   0.766
 1723SOL     OW35662   0.588   3.166   0.735
 1723SOL    HW135663   0.504   3.170   0.690
 1723SOL    HW235664   0.602   3.255   0.767
 1724SOL     OW35665   0.589   5.026   0.735
 1724SOL    HW135666   0.502   5.027   0.695
 1724SOL    HW235667   0.601   5.114   0.770
 1725SOL     OW35668   2.447   1.304   0.728
 1725SOL    HW135669   2.362   1.309   0.684
 1725SOL    HW235670   2.463   1.393   0.759
 1726SOL     OW35671   2.469   3.081   0.691
 1726SOL    HW135672   2.380   3.079   0.724
 1726SOL    HW235673   2.476   3.166   0.647
 1727SOL     OW35674   2.444   5.028   0.722
 1727SOL    HW135675   2.359   5.035   0.680
 1727SOL    HW235676   2.460   5.115   0.760
 1728SOL     OW35677   4.307   1.303   0.726
 1728SOL    HW135678   4.223   1.310   0.680
 1728SOL    HW235679   4.325   1.393   0.756
 1729SOL     OW35680   4.308   5.029   0.728
 1729SOL    HW135681   4.224   5.035   0.682
 1729SOL    HW235682   4.326   5.118   0.758
 1730SOL     OW35683   6.134   1.231   0.670
 1730SOL    HW135684   6.062   1.288   0.644
 1730SOL    HW235685   6.199   1.289   0.710
 1731SOL     OW35686   6.141   3.094   0.666
 1731SOL    HW135687   6.065   3.146   0.640
 1731SOL    HW235688   6.196   3.155   0.717
 1732SOL     OW35689   6.138   4.956   0.665
 1732SOL    HW135690   6.064   5.011   0.640
 1732SOL    HW235691   6.195   5.014   0.716
 1733SOL     OW35692   0.610   1.807  12.116
 1733SOL    HW135693   0.535   1.782  12.169
 1733SOL    HW235694   0.638   1.891  12.152
 1734SOL     OW35695   0.606   3.671  12.110
 1734SOL    HW135696   0.533   3.644  12.165
 1734SOL    HW235697   0.636   3.753  12.149
 1735SOL     OW35698   0.612   5.527  12.116
 1735SOL    HW135699   0.536   5.503  12.169
 1735SOL    HW235700   0.641   5.611  12.151
 1736SOL     OW35701   2.462   1.799  12.124
 1736SOL    HW135702   2.384   1.777  12.174
 1736SOL    HW235703   2.490   1.884  12.158
 1737SOL     OW35704   2.329   3.725  12.058
 1737SOL    HW135705   2.265   3.683  12.115
 1737SOL    HW235706   2.370   3.792  12.112
 1738SOL     OW35707   2.470   5.511  12.135
 1738SOL    HW135708   2.387   5.496  12.181
 1738SOL    HW235709   2.496   5.599  12.161
 1739SOL     OW35710   4.322   1.801  12.122
 1739SOL    HW135711   4.244   1.780  12.174
 1739SOL    HW235712   4.352   1.885  12.157
 1740SOL     OW35713   4.311   3.670  12.109
 1740SOL    HW135714   4.239   3.645  12.167
 1740SOL    HW235715   4.347   3.750  12.149
 1741SOL     OW35716   4.324   5.518  12.120
 1741SOL    HW135717   4.244   5.501  12.172
 1741SOL    HW235718   4.356   5.602  12.152
 1742SOL     OW35719   6.210   1.772  12.165
 1742SOL    HW135720   6.119   1.758  12.193
 1742SOL    HW235721   6.218   1.867  12.159
 1743SOL     OW35722   6.209   3.630  12.163
 1743SOL    HW135723   6.119   3.617  12.192
 1743SOL    HW235724   6.217   3.725  12.155
 1744SOL     OW35725   6.210   5.490  12.165
 1744SOL    HW135726   6.119   5.478  12.194
 1744SOL    HW235727   6.219   5.584  12.155
 1745SOL     OW35728   1.349   0.590  12.127
 1745SOL    HW135729   1.376   0.564  12.215
 1745SOL    HW235730   1.383   0.679  12.117
 1746SOL     OW35731   1.347   2.451  12.135
 1746SOL    HW135732   1.378   2.421  12.220
 1746SOL    HW235733   1.385   2.538  12.125
 1747SOL     OW35734   1.345   4.314  12.135
 1747SOL    HW135735   1.378   4.284  12.219
 1747SOL    HW235736   1.384   4.401  12.123
 1748SOL     OW35737   1.323   6.154  12.143
 1748SOL    HW135738   1.350   6.127  12.230
 1748SOL    HW235739   1.363   6.239  12.130
 1749SOL     OW35740   3.210   0.592  12.128
 1749SOL    HW135741   3.238   0.565  12.215
 1749SOL    HW235742   3.245   0.680  12.117
 1750SOL     OW35743   3.221   4.387  12.011
 1750SOL    HW135744   3.153   4.429  12.064
 1750SOL    HW235745   3.245   4.454  11.946
 1751SOL     OW35746   3.189   6.150  12.141
 1751SOL    HW135747   3.215   6.125  12.230
 1751SOL    HW235748   3.226   6.237  12.128
 1752SOL     OW35749   5.072   0.592  12.128
 1752SOL    HW135750   5.100   0.564  12.215
 1752SOL    HW235751   5.109   0.679  12.117
 1753SOL     OW35752   5.070   2.452  12.137
 1753SOL    HW135753   5.102   2.421  12.222
 1753SOL    HW235754   5.110   2.539  12.127
 1754SOL     OW35755   5.071   4.314  12.137
 1754SOL    HW135756   5.102   4.283  12.221
 1754SOL    HW235757   5.111   4.400  12.126
 1755SOL     OW35758   5.048   6.153  12.142
 1755SOL    HW135759   5.074   6.126  12.230
 1755SOL    HW235760   5.088   6.239  12.130
 1756SOL     OW35761   0.637   0.833  12.154
 1756SOL    HW135762   0.696   0.907  12.139
 1756SOL    HW235763   0.695   0.756  12.155
 1757SOL     OW35764   0.637   2.696  12.154
 1757SOL    HW135765   0.697   2.769  12.139
 1757SOL    HW235766   0.694   2.619  12.153
 1758SOL     OW35767   0.639   4.557  12.155
 1758SOL    HW135768   0.697   4.631  12.138
 1758SOL    HW235769   0.696   4.480  12.154
 1759SOL     OW35770   0.638   6.442  12.071
 1759SOL    HW135771   0.659   0.062  12.132
 1759SOL    HW235772   0.696   6.370  12.096
 1760SOL     OW35773   2.496   0.831  12.148
 1760SOL    HW135774   2.555   0.906  12.133
 1760SOL    HW235775   2.554   0.755  12.149
 1761SOL     OW35776   2.489   2.677  12.150
 1761SOL    HW135777   2.548   2.749  12.127
 1761SOL    HW235778   2.545   2.599  12.153
 1762SOL     OW35779   2.483   4.581  12.148
 1762SOL    HW135780   2.542   4.653  12.130
 1762SOL    HW235781   2.539   4.503  12.151
 1763SOL     OW35782   2.506   6.427  12.086
 1763SOL    HW135783   2.530   0.052  12.141
 1763SOL    HW235784   2.569   6.359  12.110
 1764SOL     OW35785   4.357   0.833  12.147
 1764SOL    HW135786   4.417   0.906  12.133
 1764SOL    HW235787   4.414   0.756  12.148
 1765SOL     OW35788   4.358   2.694  12.152
 1765SOL    HW135789   4.418   2.767  12.137
 1765SOL    HW235790   4.414   2.616  12.152
 1766SOL     OW35791   4.357   4.558  12.147
 1766SOL    HW135792   4.416   4.633  12.132
 1766SOL    HW235793   4.415   4.482  12.148
 1767SOL     OW35794   4.363   6.428  12.086
 1767SOL    HW135795   4.390   0.052  12.140
 1767SOL    HW235796   4.426   6.359  12.107
 1768SOL     OW35797   6.216   0.803  12.143
 1768SOL    HW135798   6.272   0.879  12.128
 1768SOL    HW235799   6.266   0.729  12.111
 1769SOL     OW35800   6.213   2.673  12.145
 1769SOL    HW135801   6.270   2.747  12.126
 1769SOL    HW235802   6.271   2.597  12.141
 1770SOL     OW35803   6.215   4.534  12.146
 1770SOL    HW135804   6.270   4.610  12.126
 1770SOL    HW235805   6.274   4.459  12.139
 1771SOL     OW35806   6.194   6.414  12.097
 1771SOL    HW135807   6.216   0.048  12.139
 1771SOL    HW235808   6.275   6.363  12.104
 1772SOL     OW35809   1.291   1.229  12.122
 1772SOL    HW135810   1.319   1.160  12.061
 1772SOL    HW235811   1.352   1.223  12.195
 1773SOL     OW35812   1.291   3.089  12.124
 1773SOL    HW135813   1.320   3.021  12.064
 1773SOL    HW235814   1.352   3.083  12.198
 1774SOL     OW35815   1.290   4.953  12.122
 1774SOL    HW135816   1.319   4.884  12.062
 1774SOL    HW235817   1.351   4.948  12.196
 1775SOL     OW35818   3.152   1.230  12.123
 1775SOL    HW135819   3.181   1.161  12.063
 1775SOL    HW235820   3.213   1.224  12.196
 1776SOL     OW35821   3.317   3.027  12.106
 1776SOL    HW135822   3.290   2.954  12.051
 1776SOL    HW235823   3.328   2.988  12.193
 1777SOL     OW35824   3.146   4.956  12.126
 1777SOL    HW135825   3.180   4.898  12.058
 1777SOL    HW235826   3.214   4.956  12.194
 1778SOL     OW35827   5.014   1.232  12.123
 1778SOL    HW135828   5.042   1.162  12.063
 1778SOL    HW235829   5.076   1.226  12.196
 1779SOL     OW35830   5.016   3.091  12.125
 1779SOL    HW135831   5.044   3.022  12.065
 1779SOL    HW235832   5.079   3.086  12.198
 1780SOL     OW35833   5.017   4.952  12.120
 1780SOL    HW135834   5.048   4.883  12.060
 1780SOL    HW235835   5.078   4.948  12.194
 1781SOL     OW35836   0.803   1.280  12.121
 1781SOL    HW135837   0.777   1.325  12.201
 1781SOL    HW235838   0.727   1.290  12.063
 1782SOL     OW35839   0.804   3.141  12.123
 1782SOL    HW135840   0.779   3.187  12.204
 1782SOL    HW235841   0.731   3.155  12.064
 1783SOL     OW35842   0.802   5.003  12.122
 1783SOL    HW135843   0.777   5.049  12.202
 1783SOL    HW235844   0.727   5.014  12.064
 1784SOL     OW35845   2.664   1.281  12.121
 1784SOL    HW135846   2.637   1.325  12.201
 1784SOL    HW235847   2.590   1.294  12.061
 1785SOL     OW35848   2.711   3.104  12.084
 1785SOL    HW135849   2.647   3.111  12.155
 1785SOL    HW235850   2.666   3.142  12.008
 1786SOL     OW35851   2.664   5.012  12.123
 1786SOL    HW135852   2.639   5.055  12.205
 1786SOL    HW235853   2.589   5.027  12.065
 1787SOL     OW35854   4.527   1.280  12.120
 1787SOL    HW135855   4.501   1.324  12.201
 1787SOL    HW235856   4.452   1.293  12.061
 1788SOL     OW35857   4.532   3.140  12.119
 1788SOL    HW135858   4.505   3.184  12.200
 1788SOL    HW235859   4.458   3.154  12.059
 1789SOL     OW35860   4.531   5.005  12.124
 1789SOL    HW135861   4.504   5.048  12.205
 1789SOL    HW235862   4.460   5.024  12.062
 1790SOL     OW35863   0.884   1.524   0.725
 1790SOL    HW135864   0.864   1.478   0.643
 1790SOL    HW235865   0.950   1.468   0.767
 1791SOL     OW35866   0.884   3.386   0.726
 1791SOL    HW135867   0.865   3.341   0.643
 1791SOL    HW235868   0.949   3.330   0.769
 1792SOL     OW35869   0.887   5.247   0.725
 1792SOL    HW135870   0.867   5.203   0.643
 1792SOL    HW235871   0.952   5.191   0.768
 1793SOL     OW35872   2.748   1.526   0.729
 1793SOL    HW135873   2.729   1.482   0.646
 1793SOL    HW235874   2.814   1.470   0.770
 1794SOL     OW35875   2.753   3.350   0.723
 1794SOL    HW135876   2.779   3.365   0.632
 1794SOL    HW235877   2.822   3.294   0.758
 1795SOL     OW35878   2.747   5.251   0.723
 1795SOL    HW135879   2.727   5.211   0.639
 1795SOL    HW235880   2.817   5.196   0.760
 1796SOL     OW35881   4.611   1.523   0.728
 1796SOL    HW135882   4.592   1.479   0.645
 1796SOL    HW235883   4.677   1.468   0.770
 1797SOL     OW35884   4.618   3.389   0.723
 1797SOL    HW135885   4.597   3.342   0.642
 1797SOL    HW235886   4.682   3.333   0.767
 1798SOL     OW35887   4.609   5.245   0.729
 1798SOL    HW135888   4.592   5.203   0.645
 1798SOL    HW235889   4.677   5.191   0.769
 1799SOL     OW35890   1.650   0.598   0.704
 1799SOL    HW135891   1.642   0.542   0.781
 1799SOL    HW235892   1.741   0.584   0.675
 1800SOL     OW35893   1.647   2.462   0.710
 1800SOL    HW135894   1.637   2.400   0.782
 1800SOL    HW235895   1.736   2.446   0.678
 1801SOL     OW35896   1.637   4.337   0.700
 1801SOL    HW135897   1.626   4.274   0.771
 1801SOL    HW235898   1.724   4.318   0.665
 1802SOL     OW35899   1.650   6.160   0.708
 1802SOL    HW135900   1.647   6.102   0.784
 1802SOL    HW235901   1.739   6.151   0.675
 1803SOL     OW35902   3.513   0.601   0.701
 1803SOL    HW135903   3.507   0.543   0.777
 1803SOL    HW235904   3.603   0.590   0.669
 1804SOL     OW35905   3.513   2.456   0.705
 1804SOL    HW135906   3.506   2.398   0.781
 1804SOL    HW235907   3.604   2.445   0.675
 1805SOL     OW35908   3.594   4.389   0.654
 1805SOL    HW135909   3.571   4.341   0.733
 1805SOL    HW235910   3.679   4.354   0.628
 1806SOL     OW35911   3.513   6.161   0.704
 1806SOL    HW135912   3.511   6.100   0.778
 1806SOL    HW235913   3.602   6.154   0.670
 1807SOL     OW35914   5.375   0.600   0.706
 1807SOL    HW135915   5.367   0.542   0.782
 1807SOL    HW235916   5.464   0.587   0.675
 1808SOL     OW35917   5.372   2.457   0.705
 1808SOL    HW135918   5.365   2.399   0.781
 1808SOL    HW235919   5.462   2.445   0.674
 1809SOL     OW35920   5.375   4.319   0.707
 1809SOL    HW135921   5.370   4.259   0.781
 1809SOL    HW235922   5.464   4.308   0.673
 1810SOL     OW35923   5.374   6.159   0.706
 1810SOL    HW135924   5.374   6.099   0.781
 1810SOL    HW235925   5.463   6.152   0.670
 1811SOL     OW35926   0.927   0.142  12.091
 1811SOL    HW135927   0.946   0.098  12.009
 1811SOL    HW235928   1.012   0.155  12.133
 1812SOL     OW35929   0.932   1.948  12.090
 1812SOL    HW135930   0.952   1.931  11.998
 1812SOL    HW235931   1.012   1.986  12.126
 1813SOL     OW35932   0.932   3.810  12.090
 1813SOL    HW135933   0.952   3.792  11.999
 1813SOL    HW235934   1.012   3.848  12.126
 1814SOL     OW35935   0.935   5.669  12.091
 1814SOL    HW135936   0.956   5.653  11.999
 1814SOL    HW235937   1.014   5.709  12.127
 1815SOL     OW35938   2.786   0.144  12.091
 1815SOL    HW135939   2.806   0.105  12.006
 1815SOL    HW235940   2.871   0.153  12.133
 1816SOL     OW35941   2.791   1.948  12.090
 1816SOL    HW135942   2.814   1.929  11.999
 1816SOL    HW235943   2.871   1.985  12.128
 1817SOL     OW35944   2.819   4.055  12.098
 1817SOL    HW135945   2.770   4.025  12.174
 1817SOL    HW235946   2.907   4.020  12.111
 1818SOL     OW35947   2.799   5.664  12.093
 1818SOL    HW135948   2.820   5.652  12.001
 1818SOL    HW235949   2.876   5.707  12.130
 1819SOL     OW35950   4.646   0.143  12.089
 1819SOL    HW135951   4.668   0.101  12.006
 1819SOL    HW235952   4.730   0.156  12.133
 1820SOL     OW35953   4.655   1.947  12.092
 1820SOL    HW135954   4.679   1.928  12.001
 1820SOL    HW235955   4.734   1.987  12.129
 1821SOL     OW35956   4.655   3.809  12.088
 1821SOL    HW135957   4.678   3.791  11.997
 1821SOL    HW235958   4.734   3.848  12.125
 1822SOL     OW35959   4.658   5.667  12.092
 1822SOL    HW135960   4.680   5.652  12.000
 1822SOL    HW235961   4.736   5.709  12.129
 1823SOL     OW35962   0.034   0.069  12.094
 1823SOL    HW135963   0.052   0.045  12.003
 1823SOL    HW235964   0.094   0.141  12.112
 1824SOL     OW35965   0.025   1.976  12.062
 1824SOL    HW135966   0.074   1.912  12.009
 1824SOL    HW235967   0.093   2.022  12.112
 1825SOL     OW35968   0.029   3.837  12.069
 1825SOL    HW135969   0.079   3.775  12.016
 1825SOL    HW235970   0.095   3.892  12.112
 1826SOL     OW35971   0.034   5.694  12.072
 1826SOL    HW135972   0.084   5.633  12.017
 1826SOL    HW235973   0.100   5.749  12.113
 1827SOL     OW35974   1.430   0.855  12.098
 1827SOL    HW135975   1.380   0.914  12.042
 1827SOL    HW235976   1.518   0.857  12.061
 1828SOL     OW35977   1.432   2.716  12.099
 1828SOL    HW135978   1.380   2.774  12.044
 1828SOL    HW235979   1.519   2.718  12.060
 1829SOL     OW35980   1.431   4.579  12.098
 1829SOL    HW135981   1.380   4.637  12.041
 1829SOL    HW235982   1.519   4.581  12.061
 1830SOL     OW35983   1.437   6.399  12.126
 1830SOL    HW135984   1.373   0.019  12.120
 1830SOL    HW235985   1.509   6.426  12.069
 1831SOL     OW35986   3.292   0.856  12.096
 1831SOL    HW135987   3.242   0.917  12.041
 1831SOL    HW235988   3.380   0.858  12.059
 1832SOL     OW35989   3.323   2.679  12.119
 1832SOL    HW135990   3.272   2.730  12.056
 1832SOL    HW235991   3.412   2.681  12.084
 1833SOL     OW35992   3.312   4.651  12.113
 1833SOL    HW135993   3.257   4.699  12.051
 1833SOL    HW235994   3.397   4.645  12.070
 1834SOL     OW35995   3.297   6.398  12.124
 1834SOL    HW135996   3.231   0.017  12.121
 1834SOL    HW235997   3.368   6.428  12.068
 1835SOL     OW35998   5.156   0.856  12.100
 1835SOL    HW135999   5.106   0.916  12.044
 1835SOL    HW236000   5.244   0.856  12.062
 1836SOL     OW36001   5.155   2.717  12.101
 1836SOL    HW136002   5.104   2.776  12.046
 1836SOL    HW236003   5.243   2.718  12.063
 1837SOL     OW36004   5.156   4.578  12.100
 1837SOL    HW136005   5.106   4.637  12.043
 1837SOL    HW236006   5.244   4.579  12.063
 1838SOL     OW36007   5.160   6.399  12.126
 1838SOL    HW136008   5.094   0.018  12.116
 1838SOL    HW236009   5.230   6.424  12.066
 1839SOL     OW36010   1.628   1.729  12.101
 1839SOL    HW136011   1.686   1.730  12.025
 1839SOL    HW236012   1.612   1.821  12.121
 1840SOL     OW36013   1.619   3.590  12.101
 1840SOL    HW136014   1.669   3.590  12.020
 1840SOL    HW236015   1.610   3.682  12.125
 1841SOL     OW36016   1.629   5.452  12.099
 1841SOL    HW136017   1.684   5.455  12.021
 1841SOL    HW236018   1.614   5.544  12.122
 1842SOL     OW36019   3.490   1.726  12.099
 1842SOL    HW136020   3.547   1.729  12.022
 1842SOL    HW236021   3.474   1.818  12.119
 1843SOL     OW36022   3.606   3.566  12.080
 1843SOL    HW136023   3.620   3.568  11.985
 1843SOL    HW236024   3.538   3.631  12.096
 1844SOL     OW36025   3.491   5.453  12.097
 1844SOL    HW136026   3.546   5.457  12.018
 1844SOL    HW236027   3.478   5.545  12.120
 1845SOL     OW36028   5.353   1.729  12.098
 1845SOL    HW136029   5.410   1.732  12.021
 1845SOL    HW236030   5.338   1.821  12.120
 1846SOL     OW36031   5.354   3.590  12.098
 1846SOL    HW136032   5.411   3.593  12.021
 1846SOL    HW236033   5.338   3.682  12.119
 1847SOL     OW36034   5.353   5.454  12.098
 1847SOL    HW136035   5.407   5.457  12.019
 1847SOL    HW236036   5.339   5.546  12.121
 1848SOL     OW36037   0.130   0.541  12.121
 1848SOL    HW136038   0.213   0.558  12.078
 1848SOL    HW236039   0.113   0.618  12.174
 1849SOL     OW36040   0.138   2.397  12.111
 1849SOL    HW136041   0.225   2.412  12.074
 1849SOL    HW236042   0.122   2.472  12.167
 1850SOL     OW36043   0.136   4.258  12.113
 1850SOL    HW136044   0.222   4.276  12.074
 1850SOL    HW236045   0.119   4.335  12.168
 1851SOL     OW36046   0.138   6.108  12.132
 1851SOL    HW136047   0.221   6.127  12.088
 1851SOL    HW236048   0.123   6.185  12.188
 1852SOL     OW36049   1.973   0.555  12.098
 1852SOL    HW136050   2.064   0.559  12.069
 1852SOL    HW236051   1.967   0.625  12.163
 1853SOL     OW36052   1.965   2.412  12.094
 1853SOL    HW136053   2.057   2.411  12.068
 1853SOL    HW236054   1.960   2.482  12.160
 1854SOL     OW36055   1.937   4.281  12.110
 1854SOL    HW136056   2.027   4.284  12.078
 1854SOL    HW236057   1.933   4.348  12.178
 1855SOL     OW36058   1.956   6.133  12.094
 1855SOL    HW136059   2.048   6.127  12.068
 1855SOL    HW236060   1.953   6.205  12.156
 1856SOL     OW36061   3.835   0.553  12.101
 1856SOL    HW136062   3.926   0.557  12.070
 1856SOL    HW236063   3.829   0.624  12.165
 1857SOL     OW36064   3.836   4.323  12.091
 1857SOL    HW136065   3.928   4.311  12.067
 1857SOL    HW236066   3.837   4.390  12.159
 1858SOL     OW36067   3.819   6.133  12.094
 1858SOL    HW136068   3.910   6.125  12.066
 1858SOL    HW236069   3.820   6.206  12.157
 1859SOL     OW36070   5.695   0.551  12.097
 1859SOL    HW136071   5.786   0.549  12.067
 1859SOL    HW236072   5.692   0.621  12.162
 1860SOL     OW36073   5.684   2.413  12.095
 1860SOL    HW136074   5.776   2.409  12.069
 1860SOL    HW236075   5.682   2.482  12.161
 1861SOL     OW36076   5.687   4.275  12.095
 1861SOL    HW136077   5.778   4.271  12.067
 1861SOL    HW236078   5.685   4.344  12.161
 1862SOL     OW36079   5.690   6.123  12.094
 1862SOL    HW136080   5.781   6.114  12.065
 1862SOL    HW236081   5.692   6.196  12.156
 1863SOL     OW36082   1.828   0.194   0.778
 1863SOL    HW136083   1.780   0.115   0.800
 1863SOL    HW236084   1.857   0.181   0.688
 1864SOL     OW36085   1.826   2.037   0.768
 1864SOL    HW136086   1.828   1.943   0.784
 1864SOL    HW236087   1.835   2.046   0.673
 1865SOL     OW36088   1.805   3.909   0.732
 1865SOL    HW136089   1.807   3.817   0.756
 1865SOL    HW236090   1.804   3.909   0.636
 1866SOL     OW36091   1.818   5.758   0.769
 1866SOL    HW136092   1.834   5.665   0.783
 1866SOL    HW236093   1.831   5.771   0.675
 1867SOL     OW36094   3.690   0.197   0.774
 1867SOL    HW136095   3.679   0.110   0.813
 1867SOL    HW236096   3.714   0.180   0.683
 1868SOL     OW36097   3.679   2.036   0.766
 1868SOL    HW136098   3.694   1.942   0.780
 1868SOL    HW236099   3.691   2.049   0.672
 1869SOL     OW36100   3.720   3.947   0.786
 1869SOL    HW136101   3.801   3.931   0.835
 1869SOL    HW236102   3.742   3.924   0.695
 1870SOL     OW36103   3.683   5.754   0.767
 1870SOL    HW136104   3.690   5.659   0.778
 1870SOL    HW236105   3.696   5.769   0.673
 1871SOL     OW36106   5.551   0.194   0.778
 1871SOL    HW136107   5.529   0.106   0.809
 1871SOL    HW236108   5.577   0.181   0.687
 1872SOL     OW36109   5.542   2.031   0.767
 1872SOL    HW136110   5.549   1.936   0.778
 1872SOL    HW236111   5.555   2.045   0.673
 1873SOL     OW36112   5.540   3.894   0.764
 1873SOL    HW136113   5.550   3.799   0.775
 1873SOL    HW236114   5.554   3.908   0.670
 1874SOL     OW36115   5.540   5.754   0.766
 1874SOL    HW136116   5.551   5.659   0.777
 1874SOL    HW236117   5.555   5.768   0.672
 1875SOL     OW36118   1.748   0.406  12.091
 1875SOL    HW136119   1.821   0.468  12.092
 1875SOL    HW236120   1.777   0.336  12.033
 1876SOL     OW36121   1.748   2.246  12.089
 1876SOL    HW136122   1.819   2.310  12.085
 1876SOL    HW236123   1.776   2.176  12.030
 1877SOL     OW36124   1.729   4.111  12.077
 1877SOL    HW136125   1.802   4.174  12.080
 1877SOL    HW236126   1.759   4.043  12.016
 1878SOL     OW36127   1.745   5.965  12.090
 1878SOL    HW136128   1.815   6.029  12.089
 1878SOL    HW236129   1.774   5.896  12.031
 1879SOL     OW36130   3.609   0.405  12.091
 1879SOL    HW136131   3.681   0.468  12.092
 1879SOL    HW236132   3.639   0.335  12.032
 1880SOL     OW36133   3.610   2.252  12.087
 1880SOL    HW136134   3.685   2.312  12.086
 1880SOL    HW236135   3.636   2.180  12.029
 1881SOL     OW36136   3.726   4.085  12.164
 1881SOL    HW136137   3.759   4.169  12.133
 1881SOL    HW236138   3.704   4.037  12.085
 1882SOL     OW36139   3.607   5.968  12.090
 1882SOL    HW136140   3.679   6.031  12.090
 1882SOL    HW236141   3.635   5.898  12.031
 1883SOL     OW36142   5.469   0.405  12.088
 1883SOL    HW136143   5.543   0.466  12.092
 1883SOL    HW236144   5.499   0.335  12.030
 1884SOL     OW36145   5.471   2.246  12.088
 1884SOL    HW136146   5.544   2.308  12.089
 1884SOL    HW236147   5.499   2.177  12.028
 1885SOL     OW36148   5.472   4.110  12.089
 1885SOL    HW136149   5.545   4.172  12.089
 1885SOL    HW236150   5.499   4.041  12.029
 1886SOL     OW36151   5.470   5.967  12.089
 1886SOL    HW136152   5.543   6.029  12.089
 1886SOL    HW236153   5.497   5.898  12.029
 1887SOL     OW36154   0.323   0.217   0.773
 1887SOL    HW136155   0.285   0.248   0.855
 1887SOL    HW236156   0.337   0.123   0.787
 1888SOL     OW36157   0.316   2.055   0.774
 1888SOL    HW136158   0.289   2.089   0.860
 1888SOL    HW236159   0.294   1.962   0.777
 1889SOL     OW36160   0.316   3.919   0.776
 1889SOL    HW136161   0.288   3.954   0.861
 1889SOL    HW236162   0.292   3.826   0.780
 1890SOL     OW36163   0.316   5.780   0.774
 1890SOL    HW136164   0.285   5.813   0.858
 1890SOL    HW236165   0.293   5.687   0.775
 1891SOL     OW36166   2.174   0.203   0.771
 1891SOL    HW136167   2.132   0.228   0.853
 1891SOL    HW236168   2.190   0.109   0.780
 1892SOL     OW36169   2.169   2.054   0.781
 1892SOL    HW136170   2.130   2.082   0.864
 1892SOL    HW236171   2.152   1.960   0.777
 1893SOL     OW36172   2.064   4.005   0.729
 1893SOL    HW136173   2.091   4.030   0.818
 1893SOL    HW236174   1.978   3.965   0.741
 1894SOL     OW36175   2.167   5.778   0.779
 1894SOL    HW136176   2.135   5.808   0.864
 1894SOL    HW236177   2.147   5.684   0.778
 1895SOL     OW36178   4.033   0.204   0.777
 1895SOL    HW136179   3.990   0.227   0.859
 1895SOL    HW236180   4.051   0.110   0.785
 1896SOL     OW36181   4.028   2.052   0.779
 1896SOL    HW136182   3.997   2.084   0.863
 1896SOL    HW236183   4.009   1.958   0.780
 1897SOL     OW36184   4.028   3.923   0.783
 1897SOL    HW136185   4.006   3.950   0.873
 1897SOL    HW236186   4.025   3.828   0.785
 1898SOL     OW36187   4.030   5.774   0.781
 1898SOL    HW136188   3.992   5.804   0.864
 1898SOL    HW236189   4.011   5.680   0.779
 1899SOL     OW36190   5.901   0.204   0.771
 1899SOL    HW136191   5.859   0.229   0.853
 1899SOL    HW236192   5.911   0.109   0.777
 1900SOL     OW36193   5.896   2.049   0.780
 1900SOL    HW136194   5.856   2.078   0.862
 1900SOL    HW236195   5.878   1.955   0.777
 1901SOL     OW36196   5.893   3.914   0.783
 1901SOL    HW136197   5.854   3.943   0.865
 1901SOL    HW236198   5.875   3.820   0.780
 1902SOL     OW36199   5.897   5.769   0.776
 1902SOL    HW136200   5.859   5.800   0.858
 1902SOL    HW236201   5.878   5.675   0.775
 1903SOL     OW36202   1.325   1.037   0.743
 1903SOL    HW136203   1.339   0.970   0.676
 1903SOL    HW236204   1.264   1.098   0.703
 1904SOL     OW36205   1.330   2.905   0.740
 1904SOL    HW136206   1.340   2.836   0.675
 1904SOL    HW236207   1.269   2.968   0.700
 1905SOL     OW36208   1.325   4.761   0.745
 1905SOL    HW136209   1.339   4.695   0.678
 1905SOL    HW236210   1.266   4.825   0.705
 1906SOL     OW36211   3.184   1.037   0.745
 1906SOL    HW136212   3.199   0.970   0.678
 1906SOL    HW236213   3.126   1.100   0.703
 1907SOL     OW36214   3.196   2.866   0.736
 1907SOL    HW136215   3.215   2.802   0.667
 1907SOL    HW236216   3.119   2.913   0.704
 1908SOL     OW36217   3.194   4.803   0.729
 1908SOL    HW136218   3.223   4.746   0.658
 1908SOL    HW236219   3.115   4.845   0.696
 1909SOL     OW36220   5.047   1.037   0.746
 1909SOL    HW136221   5.062   0.971   0.679
 1909SOL    HW236222   4.988   1.100   0.705
 1910SOL     OW36223   5.046   2.899   0.746
 1910SOL    HW136224   5.062   2.832   0.680
 1910SOL    HW236225   4.988   2.962   0.703
 1911SOL     OW36226   5.044   4.761   0.750
 1911SOL    HW136227   5.062   4.695   0.684
 1911SOL    HW236228   4.987   4.824   0.706
 1912SOL     OW36229   0.835   1.010  12.086
 1912SOL    HW136230   0.872   0.998  11.999
 1912SOL    HW236231   0.827   1.105  12.096
 1913SOL     OW36232   0.835   2.872  12.086
 1913SOL    HW136233   0.872   2.861  11.999
 1913SOL    HW236234   0.827   2.967  12.098
 1914SOL     OW36235   0.836   4.734  12.085
 1914SOL    HW136236   0.872   4.723  11.997
 1914SOL    HW236237   0.827   4.828  12.096
 1915SOL     OW36238   2.694   1.011  12.084
 1915SOL    HW136239   2.723   1.003  11.994
 1915SOL    HW236240   2.685   1.106  12.098
 1916SOL     OW36241   2.697   2.831  12.067
 1916SOL    HW136242   2.745   2.800  11.991
 1916SOL    HW236243   2.702   2.927  12.061
 1917SOL     OW36244   2.697   4.744  12.082
 1917SOL    HW136245   2.722   4.734  11.991
 1917SOL    HW236246   2.687   4.838  12.094
 1918SOL     OW36247   4.557   1.009  12.086
 1918SOL    HW136248   4.598   0.996  12.001
 1918SOL    HW236249   4.551   1.104  12.096
 1919SOL     OW36250   4.557   2.868  12.087
 1919SOL    HW136251   4.603   2.852  12.004
 1919SOL    HW236252   4.554   2.964  12.094
 1920SOL     OW36253   4.556   4.735  12.083
 1920SOL    HW136254   4.596   4.725  11.996
 1920SOL    HW236255   4.551   4.829  12.096
 1921SOL     OW36256   6.379   1.011  12.079
 1921SOL    HW136257   0.009   0.996  12.028
 1921SOL    HW236258   6.360   1.104  12.068
 1922SOL     OW36259   6.376   2.877  12.070
 1922SOL    HW136260   0.010   2.871  12.025
 1922SOL    HW236261   6.352   2.969  12.066
 1923SOL     OW36262   6.376   4.739  12.071
 1923SOL    HW136263   0.011   4.725  12.029
 1923SOL    HW236264   6.360   4.833  12.064
 1924SOL     OW36265   0.968   0.781   0.752
 1924SOL    HW136266   1.034   0.766   0.820
 1924SOL    HW236267   0.888   0.741   0.787
 1925SOL     OW36268   0.967   2.644   0.754
 1925SOL    HW136269   1.031   2.625   0.821
 1925SOL    HW236270   0.886   2.603   0.785
 1926SOL     OW36271   0.968   4.504   0.754
 1926SOL    HW136272   1.032   4.491   0.824
 1926SOL    HW236273   0.889   4.461   0.787
 1927SOL     OW36274   2.830   0.783   0.754
 1927SOL    HW136275   2.896   0.771   0.823
 1927SOL    HW236276   2.753   0.737   0.786
 1928SOL     OW36277   2.837   2.626   0.752
 1928SOL    HW136278   2.898   2.607   0.823
 1928SOL    HW236279   2.760   2.572   0.771
 1929SOL     OW36280   2.873   4.587   0.767
 1929SOL    HW136281   2.936   4.602   0.838
 1929SOL    HW236282   2.869   4.491   0.758
 1930SOL     OW36283   4.691   0.783   0.755
 1930SOL    HW136284   4.756   0.770   0.824
 1930SOL    HW236285   4.613   0.737   0.787
 1931SOL     OW36286   4.689   2.644   0.757
 1931SOL    HW136287   4.755   2.630   0.826
 1931SOL    HW236288   4.611   2.600   0.790
 1932SOL     OW36289   0.225   1.795   0.761
 1932SOL    HW136290   0.282   1.729   0.801
 1932SOL    HW236291   0.215   1.766   0.671
 1933SOL     OW36292   0.226   3.659   0.764
 1933SOL    HW136293   0.281   3.591   0.802
 1933SOL    HW236294   0.209   3.630   0.675
 1934SOL     OW36295   0.223   5.521   0.762
 1934SOL    HW136296   0.277   5.453   0.802
 1934SOL    HW236297   0.210   5.491   0.672
 1935SOL     OW36298   2.127   1.790   0.749
 1935SOL    HW136299   2.174   1.713   0.782
 1935SOL    HW236300   2.107   1.768   0.658
 1936SOL     OW36301   1.843   3.641   0.756
 1936SOL    HW136302   1.850   3.625   0.850
 1936SOL    HW236303   1.923   3.603   0.720
 1937SOL     OW36304   2.115   5.514   0.751
 1937SOL    HW136305   2.167   5.439   0.780
 1937SOL    HW236306   2.098   5.497   0.658
 1938SOL     OW36307   3.983   1.785   0.755
 1938SOL    HW136308   4.039   1.716   0.790
 1938SOL    HW236309   3.978   1.767   0.661
 1939SOL     OW36310   4.010   3.658   0.787
 1939SOL    HW136311   4.071   3.596   0.828
 1939SOL    HW236312   3.948   3.602   0.740
 1940SOL     OW36313   3.983   5.506   0.755
 1940SOL    HW136314   4.040   5.437   0.787
 1940SOL    HW236315   3.977   5.491   0.660
 1941SOL     OW36316   5.854   1.781   0.750
 1941SOL    HW136317   5.905   1.704   0.775
 1941SOL    HW236318   5.834   1.767   0.658
 1942SOL     OW36319   5.851   3.647   0.750
 1942SOL    HW136320   5.902   3.571   0.779
 1942SOL    HW236321   5.836   3.632   0.657
 1943SOL     OW36322   5.851   5.502   0.751
 1943SOL    HW136323   5.904   5.428   0.781
 1943SOL    HW236324   5.840   5.487   0.657
 1944SOL     OW36325   1.017   0.410   0.753
 1944SOL    HW136326   0.926   0.422   0.782
 1944SOL    HW236327   1.010   0.357   0.673
 1945SOL     OW36328   1.015   2.265   0.755
 1945SOL    HW136329   0.923   2.278   0.778
 1945SOL    HW236330   1.012   2.219   0.671
 1946SOL     OW36331   1.016   4.121   0.756
 1946SOL    HW136332   0.925   4.138   0.779
 1946SOL    HW236333   1.012   4.081   0.669
 1947SOL     OW36334   1.008   5.983   0.753
 1947SOL    HW136335   0.920   6.007   0.782
 1947SOL    HW236336   0.995   5.951   0.664
 1948SOL     OW36337   2.880   0.411   0.752
 1948SOL    HW136338   2.790   0.420   0.782
 1948SOL    HW236339   2.874   0.361   0.670
 1949SOL     OW36340   2.875   2.265   0.754
 1949SOL    HW136341   2.782   2.274   0.778
 1949SOL    HW236342   2.873   2.220   0.670
 1950SOL     OW36343   2.630   4.028   0.714
 1950SOL    HW136344   2.621   4.034   0.809
 1950SOL    HW236345   2.549   4.067   0.681
 1951SOL     OW36346   2.872   5.986   0.751
 1951SOL    HW136347   2.784   6.007   0.781
 1951SOL    HW236348   2.860   5.954   0.662
 1952SOL     OW36349   4.741   0.410   0.752
 1952SOL    HW136350   4.650   0.420   0.781
 1952SOL    HW236351   4.735   0.359   0.671
 1953SOL     OW36352   4.738   2.261   0.756
 1953SOL    HW136353   4.646   2.276   0.778
 1953SOL    HW236354   4.735   2.219   0.670
 1954SOL     OW36355   4.737   4.127   0.757
 1954SOL    HW136356   4.645   4.139   0.779
 1954SOL    HW236357   4.736   4.081   0.672
 1955SOL     OW36358   4.732   5.987   0.753
 1955SOL    HW136359   4.644   6.007   0.783
 1955SOL    HW236360   4.721   5.955   0.663
 1956SOL     OW36361   0.452   0.827   0.787
 1956SOL    HW136362   0.517   0.837   0.857
 1956SOL    HW236363   0.420   0.738   0.797
 1957SOL     OW36364   0.452   2.686   0.789
 1957SOL    HW136365   0.516   2.697   0.859
 1957SOL    HW236366   0.421   2.596   0.798
 1958SOL     OW36367   0.451   4.546   0.785
 1958SOL    HW136368   0.515   4.557   0.856
 1958SOL    HW236369   0.419   4.457   0.796
 1959SOL     OW36370   0.394   6.414   0.826
 1959SOL    HW136371   0.485   6.418   0.854
 1959SOL    HW236372   0.373   6.321   0.823
 1960SOL     OW36373   2.301   0.823   0.785
 1960SOL    HW136374   2.368   0.832   0.853
 1960SOL    HW236375   2.267   0.735   0.795
 1961SOL     OW36376   2.297   2.687   0.786
 1961SOL    HW136377   2.364   2.693   0.854
 1961SOL    HW236378   2.265   2.597   0.793
 1962SOL     OW36379   2.283   4.637   0.762
 1962SOL    HW136380   2.343   4.650   0.836
 1962SOL    HW236381   2.241   4.553   0.780
 1963SOL     OW36382   2.255   6.399   0.797
 1963SOL    HW136383   2.344   6.401   0.831
 1963SOL    HW236384   2.228   6.307   0.806
 1964SOL     OW36385   4.163   0.824   0.787
 1964SOL    HW136386   4.229   0.834   0.855
 1964SOL    HW236387   4.131   0.735   0.796
 1965SOL     OW36388   4.163   2.682   0.786
 1965SOL    HW136389   4.226   2.694   0.857
 1965SOL    HW236390   4.130   2.593   0.798
 1966SOL     OW36391   4.161   4.543   0.784
 1966SOL    HW136392   4.227   4.555   0.852
 1966SOL    HW236393   4.132   4.452   0.794
 1967SOL     OW36394   4.117   6.401   0.803
 1967SOL    HW136395   4.205   6.404   0.840
 1967SOL    HW236396   4.092   6.309   0.809
 1968SOL     OW36397   6.013   0.819   0.792
 1968SOL    HW136398   6.084   0.823   0.856
 1968SOL    HW236399   5.982   0.729   0.797
 1969SOL     OW36400   6.015   2.681   0.790
 1969SOL    HW136401   6.083   2.685   0.857
 1969SOL    HW236402   5.981   2.592   0.795
 1970SOL     OW36403   6.012   4.544   0.791
 1970SOL    HW136404   6.082   4.548   0.856
 1970SOL    HW236405   5.979   4.455   0.797
 1971SOL     OW36406   5.963   6.395   0.791
 1971SOL    HW136407   6.049   6.399   0.831
 1971SOL    HW236408   5.939   6.302   0.794
 1972SOL     OW36409   1.673   0.872   0.789
 1972SOL    HW136410   1.668   0.789   0.742
 1972SOL    HW236411   1.662   0.939   0.722
 1973SOL     OW36412   1.676   2.731   0.792
 1973SOL    HW136413   1.669   2.645   0.749
 1973SOL    HW236414   1.663   2.794   0.722
 1974SOL     OW36415   1.672   4.601   0.791
 1974SOL    HW136416   1.662   4.518   0.744
 1974SOL    HW236417   1.659   4.668   0.724
 1975SOL     OW36418   1.638   6.435   0.756
 1975SOL    HW136419   1.646   6.340   0.744
 1975SOL    HW236420   1.636   0.021   0.667
 1976SOL     OW36421   3.531   0.871   0.789
 1976SOL    HW136422   3.528   0.787   0.744
 1976SOL    HW236423   3.519   0.937   0.721
 1977SOL     OW36424   3.541   2.729   0.789
 1977SOL    HW136425   3.537   2.644   0.744
 1977SOL    HW236426   3.530   2.794   0.719
 1978SOL     OW36427   3.585   4.635   0.775
 1978SOL    HW136428   3.583   4.554   0.724
 1978SOL    HW236429   3.556   4.702   0.714
 1979SOL     OW36430   3.477   6.432   0.755
 1979SOL    HW136431   3.494   6.339   0.737
 1979SOL    HW236432   3.508   0.028   0.677
 1980SOL     OW36433   5.396   0.872   0.792
 1980SOL    HW136434   5.393   0.788   0.746
 1980SOL    HW236435   5.384   0.937   0.724
 1981SOL     OW36436   5.391   2.731   0.788
 1981SOL    HW136437   5.388   2.648   0.741
 1981SOL    HW236438   5.381   2.798   0.719
 1982SOL     OW36439   1.279   0.371   0.812
 1982SOL    HW136440   1.312   0.449   0.856
 1982SOL    HW236441   1.189   0.393   0.788
 1983SOL     OW36442   1.278   2.234   0.814
 1983SOL    HW136443   1.309   2.312   0.859
 1983SOL    HW236444   1.188   2.253   0.791
 1984SOL     OW36445   1.279   4.093   0.820
 1984SOL    HW136446   1.309   4.173   0.865
 1984SOL    HW236447   1.189   4.112   0.795
 1985SOL     OW36448   1.270   5.947   0.810
 1985SOL    HW136449   1.296   6.022   0.863
 1985SOL    HW236450   1.179   5.965   0.786
 1986SOL     OW36451   3.144   0.375   0.809
 1986SOL    HW136452   3.174   0.451   0.858
 1986SOL    HW236453   3.053   0.396   0.785
 1987SOL     OW36454   3.138   2.230   0.815
 1987SOL    HW136455   3.170   2.307   0.861
 1987SOL    HW236456   3.047   2.251   0.793
 1988SOL     OW36457   3.303   3.989   0.953
 1988SOL    HW136458   3.274   4.077   0.976
 1988SOL    HW236459   3.233   3.955   0.897
 1989SOL     OW36460   3.132   5.945   0.812
 1989SOL    HW136461   3.158   6.019   0.866
 1989SOL    HW236462   3.042   5.963   0.787
 1990SOL     OW36463   5.003   0.372   0.812
 1990SOL    HW136464   5.035   0.451   0.854
 1990SOL    HW236465   4.913   0.392   0.787
 1991SOL     OW36466   5.001   2.230   0.819
 1991SOL    HW136467   5.031   2.311   0.861
 1991SOL    HW236468   4.910   2.249   0.795
 1992SOL     OW36469   5.001   4.095   0.820
 1992SOL    HW136470   5.031   4.174   0.865
 1992SOL    HW236471   4.910   4.115   0.795
 1993SOL     OW36472   4.993   5.944   0.813
 1993SOL    HW136473   5.020   6.018   0.867
 1993SOL    HW236474   4.903   5.963   0.789
 1994SOL     OW36475   0.206   0.946   0.804
 1994SOL    HW136476   0.296   0.916   0.802
 1994SOL    HW236477   0.169   0.919   0.720
 1995SOL     OW36478   0.207   2.809   0.804
 1995SOL    HW136479   0.296   2.776   0.801
 1995SOL    HW236480   0.168   2.781   0.721
 1996SOL     OW36481   0.215   4.682   0.813
 1996SOL    HW136482   0.302   4.645   0.802
 1996SOL    HW236483   0.163   4.640   0.745
 1997SOL     OW36484   2.061   0.955   0.822
 1997SOL    HW136485   2.149   0.919   0.805
 1997SOL    HW236486   2.004   0.908   0.761
 1998SOL     OW36487   2.054   2.811   0.827
 1998SOL    HW136488   2.142   2.778   0.810
 1998SOL    HW236489   1.999   2.767   0.762
 1999SOL     OW36490   2.021   4.694   0.818
 1999SOL    HW136491   2.112   4.695   0.787
 1999SOL    HW236492   1.970   4.665   0.743
 2000SOL     OW36493   3.923   0.955   0.822
 2000SOL    HW136494   4.011   0.919   0.807
 2000SOL    HW236495   3.868   0.911   0.758
 2001SOL     OW36496   3.923   2.813   0.810
 2001SOL    HW136497   4.011   2.777   0.799
 2001SOL    HW236498   3.866   2.753   0.761
 2002SOL     OW36499   3.927   4.686   0.815
 2002SOL    HW136500   4.011   4.642   0.799
 2002SOL    HW236501   3.864   4.637   0.761
 2003SOL     OW36502   5.778   0.953   0.832
 2003SOL    HW136503   5.865   0.917   0.815
 2003SOL    HW236504   5.724   0.920   0.761
 2004SOL     OW36505   5.777   2.812   0.815
 2004SOL    HW136506   5.865   2.777   0.802
 2004SOL    HW236507   5.724   2.766   0.749
 2005SOL     OW36508   5.777   4.680   0.824
 2005SOL    HW136509   5.865   4.644   0.811
 2005SOL    HW236510   5.723   4.635   0.759
 2006SOL     OW36511   0.739   0.441   0.775
 2006SOL    HW136512   0.686   0.365   0.752
 2006SOL    HW236513   0.723   0.503   0.704
 2007SOL     OW36514   0.740   2.300   0.774
 2007SOL    HW136515   0.681   2.227   0.755
 2007SOL    HW236516   0.723   2.363   0.704
 2008SOL     OW36517   0.742   4.163   0.773
 2008SOL    HW136518   0.681   4.091   0.755
 2008SOL    HW236519   0.725   4.227   0.705
 2009SOL     OW36520   0.736   6.042   0.779
 2009SOL    HW136521   0.677   5.969   0.759
 2009SOL    HW236522   0.724   6.103   0.706
 2010SOL     OW36523   2.599   2.292   0.774
 2010SOL    HW136524   2.537   2.222   0.754
 2010SOL    HW236525   2.585   2.357   0.705
 2011SOL     OW36526   2.488   4.266   0.817
 2011SOL    HW136527   2.433   4.201   0.772
 2011SOL    HW236528   2.508   4.331   0.750
 2012SOL     OW36529   2.600   6.038   0.772
 2012SOL    HW136530   2.534   5.970   0.758
 2012SOL    HW236531   2.586   6.100   0.701
 2013SOL     OW36532   4.463   0.440   0.773
 2013SOL    HW136533   4.405   0.367   0.754
 2013SOL    HW236534   4.447   0.503   0.703
 2014SOL     OW36535   4.464   2.299   0.774
 2014SOL    HW136536   4.399   2.230   0.757
 2014SOL    HW236537   4.448   2.364   0.706
 2015SOL     OW36538   4.461   4.163   0.774
 2015SOL    HW136539   4.401   4.091   0.755
 2015SOL    HW236540   4.446   4.227   0.705
 2016SOL     OW36541   4.458   6.039   0.776
 2016SOL    HW136542   4.396   5.968   0.756
 2016SOL    HW236543   4.447   6.101   0.705
 2017SOL     OW36544   6.206   0.481   0.789
 2017SOL    HW136545   6.212   0.390   0.759
 2017SOL    HW236546   6.236   0.533   0.715
 2018SOL     OW36547   6.208   2.343   0.793
 2018SOL    HW136548   6.204   2.254   0.758
 2018SOL    HW236549   6.235   2.397   0.719
 2019SOL     OW36550   6.220   4.204   0.790
 2019SOL    HW136551   6.208   4.116   0.754
 2019SOL    HW236552   6.241   4.258   0.713
 2020SOL     OW36553   1.059   1.351  12.036
 2020SOL    HW136554   0.982   1.318  12.084
 2020SOL    HW236555   1.133   1.308  12.078
 2021SOL     OW36556   1.057   5.077  12.038
 2021SOL    HW136557   0.981   5.044  12.085
 2021SOL    HW236558   1.132   5.033  12.079
 2022SOL     OW36559   2.921   1.355  12.039
 2022SOL    HW136560   2.844   1.320  12.085
 2022SOL    HW236561   2.995   1.309  12.079
 2023SOL     OW36562   2.990   3.030  12.006
 2023SOL    HW136563   2.907   3.053  12.047
 2023SOL    HW236564   3.055   3.043  12.075
 2024SOL     OW36565   2.919   5.069  12.025
 2024SOL    HW136566   2.840   5.045  12.074
 2024SOL    HW236567   2.991   5.029  12.075
 2025SOL     OW36568   4.782   1.354  12.037
 2025SOL    HW136569   4.705   1.321  12.084
 2025SOL    HW236570   4.856   1.310  12.079
 2026SOL     OW36571   4.788   3.218  12.043
 2026SOL    HW136572   4.712   3.182  12.087
 2026SOL    HW236573   4.862   3.171  12.081
 2027SOL     OW36574   4.785   5.073  12.034
 2027SOL    HW136575   4.709   5.043  12.083
 2027SOL    HW236576   4.860   5.031  12.077
 2028SOL     OW36577   1.471   1.502  12.074
 2028SOL    HW136578   1.526   1.580  12.083
 2028SOL    HW236579   1.399   1.516  12.137
 2029SOL     OW36580   1.468   3.362  12.075
 2029SOL    HW136581   1.521   3.441  12.083
 2029SOL    HW236582   1.395   3.376  12.136
 2030SOL     OW36583   1.471   5.227  12.073
 2030SOL    HW136584   1.525   5.306  12.083
 2030SOL    HW236585   1.399   5.240  12.135
 2031SOL     OW36586   3.332   1.502  12.071
 2031SOL    HW136587   3.387   1.580  12.081
 2031SOL    HW236588   3.261   1.515  12.134
 2032SOL     OW36589   3.352   3.322  12.016
 2032SOL    HW136590   3.329   3.409  11.985
 2032SOL    HW236591   3.280   3.297  12.074
 2033SOL     OW36592   3.333   5.231  12.079
 2033SOL    HW136593   3.389   5.308  12.085
 2033SOL    HW236594   3.261   5.248  12.140
 2034SOL     OW36595   5.196   1.503  12.073
 2034SOL    HW136596   5.251   1.581  12.082
 2034SOL    HW236597   5.125   1.517  12.136
 2035SOL     OW36598   5.194   3.368  12.071
 2035SOL    HW136599   5.249   3.445  12.079
 2035SOL    HW236600   5.124   3.381  12.135
 2036SOL     OW36601   5.198   5.228  12.075
 2036SOL    HW136602   5.253   5.306  12.083
 2036SOL    HW236603   5.127   5.242  12.138
 2037SOL     OW36604   0.071   1.560  12.037
 2037SOL    HW136605   0.063   1.654  12.022
 2037SOL    HW236606   0.165   1.545  12.049
 2038SOL     OW36607   0.071   3.423  12.042
 2038SOL    HW136608   0.057   3.514  12.068
 2038SOL    HW236609   0.166   3.412  12.042
 2039SOL     OW36610   0.071   5.282  12.044
 2039SOL    HW136611   0.056   5.367  12.086
 2039SOL    HW236612   0.166   5.272  12.042
 2040SOL     OW36613   1.951   1.568  12.063
 2040SOL    HW136614   1.922   1.639  12.005
 2040SOL    HW236615   2.047   1.567  12.053
 2041SOL     OW36616   1.921   3.438  12.061
 2041SOL    HW136617   1.905   3.519  12.013
 2041SOL    HW236618   2.015   3.423  12.053
 2042SOL     OW36619   1.951   5.295  12.062
 2042SOL    HW136620   1.923   5.368  12.006
 2042SOL    HW236621   2.046   5.294  12.055
 2043SOL     OW36622   3.844   3.407  12.061
 2043SOL    HW136623   3.810   3.494  12.042
 2043SOL    HW236624   3.938   3.413  12.042
 2044SOL     OW36625   3.818   5.290  12.056
 2044SOL    HW136626   3.796   5.369  12.006
 2044SOL    HW236627   3.913   5.284  12.052
 2045SOL     OW36628   5.683   1.568  12.062
 2045SOL    HW136629   5.658   1.644  12.009
 2045SOL    HW236630   5.778   1.565  12.055
 2046SOL     OW36631   5.681   3.429  12.062
 2046SOL    HW136632   5.652   3.502  12.008
 2046SOL    HW236633   5.776   3.429  12.053
 2047SOL     OW36634   5.685   5.294  12.059
 2047SOL    HW136635   5.664   5.370  12.005
 2047SOL    HW236636   5.780   5.287  12.055
 2048SOL     OW36637   0.371   0.570   0.826
 2048SOL    HW136638   0.419   0.510   0.882
 2048SOL    HW236639   0.382   0.535   0.738
 2049SOL     OW36640   0.378   2.426   0.828
 2049SOL    HW136641   0.427   2.362   0.879
 2049SOL    HW236642   0.384   2.394   0.738
 2050SOL     OW36643   0.377   4.286   0.826
 2050SOL    HW136644   0.425   4.222   0.878
 2050SOL    HW236645   0.383   4.254   0.736
 2051SOL     OW36646   0.368   6.142   0.826
 2051SOL    HW136647   0.422   6.081   0.877
 2051SOL    HW236648   0.382   6.115   0.735
 2052SOL     OW36649   2.220   0.565   0.819
 2052SOL    HW136650   2.270   0.506   0.874
 2052SOL    HW236651   2.231   0.531   0.730
 2053SOL     OW36652   2.220   2.425   0.825
 2053SOL    HW136653   2.270   2.363   0.878
 2053SOL    HW236654   2.230   2.394   0.735
 2054SOL     OW36655   2.203   4.367   0.774
 2054SOL    HW136656   2.298   4.368   0.782
 2054SOL    HW236657   2.186   4.346   0.682
 2055SOL     OW36658   2.204   6.132   0.822
 2055SOL    HW136659   2.260   6.073   0.871
 2055SOL    HW236660   2.223   6.112   0.730
 2056SOL     OW36661   4.083   0.565   0.821
 2056SOL    HW136662   4.129   0.503   0.878
 2056SOL    HW236663   4.094   0.530   0.733
 2057SOL     OW36664   4.079   2.423   0.820
 2057SOL    HW136665   4.131   2.362   0.872
 2057SOL    HW236666   4.091   2.394   0.729
 2058SOL     OW36667   4.090   4.280   0.821
 2058SOL    HW136668   4.134   4.219   0.881
 2058SOL    HW236669   4.112   4.248   0.734
 2059SOL     OW36670   4.069   6.133   0.826
 2059SOL    HW136671   4.125   6.074   0.877
 2059SOL    HW236672   4.089   6.113   0.735
 2060SOL     OW36673   5.940   0.556   0.810
 2060SOL    HW136674   6.024   0.522   0.842
 2060SOL    HW236675   5.944   0.541   0.715
 2061SOL     OW36676   5.934   2.421   0.809
 2061SOL    HW136677   6.010   2.381   0.851
 2061SOL    HW236678   5.947   2.405   0.716
 2062SOL     OW36679   5.930   6.125   0.811
 2062SOL    HW136680   6.010   6.094   0.854
 2062SOL    HW236681   5.948   6.115   0.718
 2063SOL     OW36682   0.350   1.539  12.016
 2063SOL    HW136683   0.346   1.492  11.933
 2063SOL    HW236684   0.443   1.557  12.029
 2064SOL     OW36685   0.347   3.400  12.011
 2064SOL    HW136686   0.342   3.353  11.928
 2064SOL    HW236687   0.441   3.417  12.023
 2065SOL     OW36688   0.347   5.262  12.016
 2065SOL    HW136689   0.345   5.216  11.932
 2065SOL    HW236690   0.439   5.282  12.030
 2066SOL     OW36691   2.220   1.529  12.010
 2066SOL    HW136692   2.209   1.480  11.929
 2066SOL    HW236693   2.314   1.543  12.018
 2067SOL     OW36694   2.170   3.349  12.019
 2067SOL    HW136695   2.160   3.310  11.933
 2067SOL    HW236696   2.262   3.379  12.022
 2068SOL     OW36697   2.220   5.252  12.011
 2068SOL    HW136698   2.210   5.202  11.929
 2068SOL    HW236699   2.314   5.267  12.019
 2069SOL     OW36700   4.083   1.527  12.010
 2069SOL    HW136701   4.075   1.479  11.927
 2069SOL    HW236702   4.177   1.543  12.019
 2070SOL     OW36703   4.103   3.385  12.008
 2070SOL    HW136704   4.092   3.341  11.924
 2070SOL    HW236705   4.197   3.402  12.015
 2071SOL     OW36706   4.084   5.240  12.015
 2071SOL    HW136707   4.073   5.198  11.930
 2071SOL    HW236708   4.178   5.259  12.020
 2072SOL     OW36709   5.953   1.525  12.006
 2072SOL    HW136710   5.940   1.480  11.923
 2072SOL    HW236711   6.048   1.534  12.014
 2073SOL     OW36712   5.952   3.389  12.003
 2073SOL    HW136713   5.938   3.344  11.920
 2073SOL    HW236714   6.047   3.397  12.011
 2074SOL     OW36715   5.954   5.244  12.008
 2074SOL    HW136716   5.942   5.199  11.924
 2074SOL    HW236717   6.049   5.255  12.014
 2075SOL     OW36718   0.031   1.292   0.832
 2075SOL    HW136719   0.089   1.252   0.896
 2075SOL    HW236720   0.041   1.386   0.845
 2076SOL     OW36721   0.052   5.008   0.834
 2076SOL    HW136722   0.110   4.976   0.902
 2076SOL    HW236723   0.049   5.102   0.846
 2077SOL     OW36724   1.933   1.316   0.799
 2077SOL    HW136725   1.956   1.257   0.871
 2077SOL    HW236726   1.929   1.403   0.840
 2078SOL     OW36727   1.924   3.128   0.783
 2078SOL    HW136728   1.975   3.073   0.842
 2078SOL    HW236729   1.841   3.142   0.828
 2079SOL     OW36730   1.933   5.039   0.805
 2079SOL    HW136731   1.950   4.983   0.880
 2079SOL    HW236732   1.930   5.128   0.840
 2080SOL     OW36733   3.778   1.313   0.801
 2080SOL    HW136734   3.812   1.257   0.871
 2080SOL    HW236735   3.787   1.402   0.835
 2081SOL     OW36736   3.792   3.171   0.804
 2081SOL    HW136737   3.820   3.103   0.865
 2081SOL    HW236738   3.803   3.253   0.853
 2082SOL     OW36739   3.789   5.038   0.805
 2082SOL    HW136740   3.816   4.979   0.876
 2082SOL    HW236741   3.792   5.125   0.843
 2083SOL     OW36742   5.649   1.310   0.801
 2083SOL    HW136743   5.684   1.256   0.872
 2083SOL    HW236744   5.655   1.400   0.835
 2084SOL     OW36745   5.641   3.180   0.795
 2084SOL    HW136746   5.674   3.121   0.863
 2084SOL    HW236747   5.651   3.268   0.833
 2085SOL     OW36748   5.637   5.036   0.802
 2085SOL    HW136749   5.672   4.979   0.871
 2085SOL    HW236750   5.650   5.125   0.836
 2086SOL     OW36751   0.629   1.566   0.818
 2086SOL    HW136752   0.626   1.654   0.855
 2086SOL    HW236753   0.718   1.557   0.784
 2087SOL     OW36754   0.629   3.426   0.819
 2087SOL    HW136755   0.628   3.511   0.862
 2087SOL    HW236756   0.717   3.418   0.783
 2088SOL     OW36757   0.634   5.281   0.824
 2088SOL    HW136758   0.627   5.370   0.858
 2088SOL    HW236759   0.721   5.276   0.785
 2089SOL     OW36760   2.492   1.561   0.820
 2089SOL    HW136761   2.488   1.644   0.867
 2089SOL    HW236762   2.581   1.556   0.786
 2090SOL     OW36763   2.498   3.334   0.832
 2090SOL    HW136764   2.496   3.379   0.916
 2090SOL    HW236765   2.589   3.342   0.803
 2091SOL     OW36766   2.494   5.278   0.825
 2091SOL    HW136767   2.490   5.359   0.875
 2091SOL    HW236768   2.581   5.279   0.785
 2092SOL     OW36769   4.355   1.559   0.816
 2092SOL    HW136770   4.349   1.644   0.859
 2092SOL    HW236771   4.445   1.554   0.783
 2093SOL     OW36772   4.362   3.422   0.810
 2093SOL    HW136773   4.355   3.507   0.855
 2093SOL    HW236774   4.453   3.420   0.779
 2094SOL     OW36775   4.354   5.286   0.817
 2094SOL    HW136776   4.351   5.369   0.864
 2094SOL    HW236777   4.444   5.280   0.784
 2095SOL     OW36778   6.224   1.550   0.839
 2095SOL    HW136779   6.226   1.636   0.881
 2095SOL    HW236780   6.316   1.527   0.825
 2096SOL     OW36781   6.224   3.413   0.832
 2096SOL    HW136782   6.226   3.496   0.880
 2096SOL    HW236783   6.316   3.389   0.822
 2097SOL     OW36784   6.226   5.271   0.830
 2097SOL    HW136785   6.224   5.355   0.876
 2097SOL    HW236786   6.318   5.248   0.826
 2098SOL     OW36787   1.621   1.287   0.820
 2098SOL    HW136788   1.669   1.263   0.899
 2098SOL    HW236789   1.559   1.354   0.849
 2099SOL     OW36790   1.626   3.137   0.836
 2099SOL    HW136791   1.654   3.105   0.922
 2099SOL    HW236792   1.556   3.200   0.856
 2100SOL     OW36793   3.476   1.284   0.812
 2100SOL    HW136794   3.537   1.269   0.884
 2100SOL    HW236795   3.419   1.354   0.844
 2101SOL     OW36796   3.488   3.129   0.818
 2101SOL    HW136797   3.541   3.113   0.895
 2101SOL    HW236798   3.444   3.212   0.836
 2102SOL     OW36799   3.481   5.011   0.825
 2102SOL    HW136800   3.535   4.994   0.902
 2102SOL    HW236801   3.421   5.081   0.853
 2103SOL     OW36802   5.340   1.286   0.817
 2103SOL    HW136803   5.394   1.265   0.893
 2103SOL    HW236804   5.280   1.354   0.848
 2104SOL     OW36805   5.338   3.146   0.818
 2104SOL    HW136806   5.395   3.127   0.892
 2104SOL    HW236807   5.280   3.216   0.849
 2105SOL     OW36808   5.336   5.007   0.815
 2105SOL    HW136809   5.398   4.991   0.885
 2105SOL    HW236810   5.280   5.078   0.847
 2106SOL     OW36811   1.612   1.278  11.995
 2106SOL    HW136812   1.668   1.260  12.070
 2106SOL    HW236813   1.554   1.349  12.024
 2107SOL     OW36814   1.608   3.142  11.988
 2107SOL    HW136815   1.664   3.121  12.062
 2107SOL    HW236816   1.551   3.211  12.020
 2108SOL     OW36817   1.618   5.012  11.985
 2108SOL    HW136818   1.672   4.990  12.061
 2108SOL    HW236819   1.558   5.079  12.016
 2109SOL     OW36820   3.473   1.281  11.985
 2109SOL    HW136821   3.534   1.264  12.057
 2109SOL    HW236822   3.416   1.350  12.018
 2110SOL     OW36823   3.516   3.113  11.919
 2110SOL    HW136824   3.598   3.122  11.967
 2110SOL    HW236825   3.449   3.140  11.982
 2111SOL     OW36826   3.461   5.007  11.988
 2111SOL    HW136827   3.537   4.999  12.045
 2111SOL    HW236828   3.410   5.080  12.024
 2112SOL     OW36829   5.337   1.281  11.989
 2112SOL    HW136830   5.395   1.263  12.064
 2112SOL    HW236831   5.280   1.351  12.019
 2113SOL     OW36832   5.334   3.148  11.980
 2113SOL    HW136833   5.401   3.134  12.046
 2113SOL    HW236834   5.279   3.218  12.016
 2114SOL     OW36835   5.339   5.007  11.986
 2114SOL    HW136836   5.399   4.991  12.059
 2114SOL    HW236837   5.282   5.077  12.018
 2115SOL     OW36838   0.631   1.564  11.995
 2115SOL    HW136839   0.630   1.650  12.036
 2115SOL    HW236840   0.719   1.556  11.957
 2116SOL     OW36841   0.627   3.426  11.992
 2116SOL    HW136842   0.624   3.513  12.032
 2116SOL    HW236843   0.718   3.416  11.962
 2117SOL     OW36844   0.630   5.286  11.994
 2117SOL    HW136845   0.629   5.372  12.036
 2117SOL    HW236846   0.718   5.278  11.958
 2118SOL     OW36847   2.492   1.562  11.992
 2118SOL    HW136848   2.489   1.645  12.038
 2118SOL    HW236849   2.581   1.556  11.957
 2119SOL     OW36850   2.428   3.393  11.972
 2119SOL    HW136851   2.413   3.471  11.918
 2119SOL    HW236852   2.517   3.366  11.953
 2120SOL     OW36853   2.494   5.281  11.996
 2120SOL    HW136854   2.491   5.363  12.045
 2120SOL    HW236855   2.582   5.280  11.957
 2121SOL     OW36856   4.355   1.563  11.994
 2121SOL    HW136857   4.350   1.647  12.039
 2121SOL    HW236858   4.445   1.559  11.961
 2122SOL     OW36859   4.366   3.428  11.989
 2122SOL    HW136860   4.360   3.515  12.030
 2122SOL    HW236861   4.457   3.422  11.960
 2123SOL     OW36862   4.354   5.282  11.991
 2123SOL    HW136863   4.351   5.366  12.036
 2123SOL    HW236864   4.444   5.276  11.957
 2124SOL     OW36865   6.225   1.551  12.007
 2124SOL    HW136866   6.227   1.632  12.057
 2124SOL    HW236867   6.316   1.526  11.996
 2125SOL     OW36868   6.225   3.408  12.005
 2125SOL    HW136869   6.225   3.489  12.055
 2125SOL    HW236870   6.318   3.390  11.988
 2126SOL     OW36871   6.225   5.274  12.002
 2126SOL    HW136872   6.227   5.353  12.055
 2126SOL    HW236873   6.317   5.255  11.983
 2127SOL     OW36874   0.029   1.288  12.006
 2127SOL    HW136875   0.091   1.251  12.069
 2127SOL    HW236876   0.037   1.383  12.018
 2128SOL     OW36877   0.031   3.153  12.007
 2128SOL    HW136878   0.091   3.115  12.072
 2128SOL    HW236879   0.038   3.247  12.021
 2129SOL     OW36880   0.032   5.009  12.010
 2129SOL    HW136881   0.091   4.975  12.076
 2129SOL    HW236882   0.037   5.104  12.019
 2130SOL     OW36883   1.919   1.309  11.968
 2130SOL    HW136884   1.952   1.252  12.038
 2130SOL    HW236885   1.925   1.398  12.005
 2131SOL     OW36886   1.911   3.171  11.978
 2131SOL    HW136887   1.946   3.118  12.050
 2131SOL    HW236888   1.910   3.260  12.012
 2132SOL     OW36889   1.926   5.037  11.971
 2132SOL    HW136890   1.956   4.981  12.043
 2132SOL    HW236891   1.928   5.125  12.007
 2133SOL     OW36892   3.776   1.312  11.976
 2133SOL    HW136893   3.811   1.255  12.045
 2133SOL    HW236894   3.785   1.400  12.011
 2134SOL     OW36895   3.762   3.160  12.003
 2134SOL    HW136896   3.816   3.104  12.059
 2134SOL    HW236897   3.793   3.249  12.021
 2135SOL     OW36898   3.751   5.033  11.987
 2135SOL    HW136899   3.791   4.978  12.054
 2135SOL    HW236900   3.774   5.123  12.012
 2136SOL     OW36901   5.643   1.312  11.971
 2136SOL    HW136902   5.676   1.254  12.040
 2136SOL    HW236903   5.652   1.400  12.007
 2137SOL     OW36904   5.634   3.172  11.975
 2137SOL    HW136905   5.672   3.116  12.043
 2137SOL    HW236906   5.647   3.261  12.007
 2138SOL     OW36907   5.643   5.036  11.971
 2138SOL    HW136908   5.677   4.980  12.041
 2138SOL    HW236909   5.652   5.125  12.004
 2139SOL     OW36910   0.348   1.539   0.846
 2139SOL    HW136911   0.345   1.493   0.761
 2139SOL    HW236912   0.441   1.555   0.861
 2140SOL     OW36913   0.347   3.398   0.842
 2140SOL    HW136914   0.345   3.353   0.757
 2140SOL    HW236915   0.439   3.417   0.857
 2141SOL     OW36916   0.343   5.278   0.838
 2141SOL    HW136917   0.342   5.223   0.759
 2141SOL    HW236918   0.435   5.278   0.865
 2142SOL     OW36919   2.217   1.534   0.832
 2142SOL    HW136920   2.210   1.482   0.752
 2142SOL    HW236921   2.312   1.546   0.844
 2143SOL     OW36922   2.243   3.175   0.797
 2143SOL    HW136923   2.195   3.193   0.716
 2143SOL    HW236924   2.310   3.243   0.800
 2144SOL     OW36925   2.217   5.262   0.827
 2144SOL    HW136926   2.211   5.210   0.746
 2144SOL    HW236927   2.311   5.273   0.841
 2145SOL     OW36928   4.096   3.372   0.850
 2145SOL    HW136929   4.081   3.336   0.762
 2145SOL    HW236930   4.190   3.392   0.852
 2146SOL     OW36931   4.083   5.246   0.842
 2146SOL    HW136932   4.074   5.200   0.759
 2146SOL    HW236933   4.177   5.263   0.850
 2147SOL     OW36934   5.952   1.525   0.835
 2147SOL    HW136935   5.939   1.478   0.752
 2147SOL    HW236936   6.047   1.534   0.842
 2148SOL     OW36937   5.951   3.392   0.825
 2148SOL    HW136938   5.940   3.344   0.744
 2148SOL    HW236939   6.046   3.400   0.835
 2149SOL     OW36940   5.953   5.248   0.833
 2149SOL    HW136941   5.940   5.202   0.749
 2149SOL    HW236942   6.048   5.256   0.841
 2150SOL     OW36943   0.382   2.428  11.997
 2150SOL    HW136944   0.430   2.364  12.050
 2150SOL    HW236945   0.384   2.392  11.908
 2151SOL     OW36946   0.379   4.290  11.997
 2151SOL    HW136947   0.428   4.226  12.049
 2151SOL    HW236948   0.389   4.259  11.907
 2152SOL     OW36949   0.367   6.140  11.997
 2152SOL    HW136950   0.423   6.077  12.044
 2152SOL    HW236951   0.372   6.113  11.905
 2153SOL     OW36952   2.222   0.566  11.994
 2153SOL    HW136953   2.271   0.504  12.048
 2153SOL    HW236954   2.230   0.532  11.905
 2154SOL     OW36955   2.218   2.418  11.999
 2154SOL    HW136956   2.268   2.355  12.050
 2154SOL    HW236957   2.230   2.391  11.908
 2155SOL     OW36958   2.179   4.300  12.001
 2155SOL    HW136959   2.234   4.241  12.053
 2155SOL    HW236960   2.199   4.277  11.910
 2156SOL     OW36961   2.208   6.134  12.003
 2156SOL    HW136962   2.265   6.072  12.049
 2156SOL    HW236963   2.218   6.112  11.910
 2157SOL     OW36964   4.083   0.568  11.996
 2157SOL    HW136965   4.134   0.506  12.049
 2157SOL    HW236966   4.092   0.536  11.906
 2158SOL     OW36967   4.084   2.427  11.994
 2158SOL    HW136968   4.133   2.363  12.046
 2158SOL    HW236969   4.096   2.399  11.904
 2159SOL     OW36970   4.086   4.288  11.998
 2159SOL    HW136971   4.139   4.229  12.052
 2159SOL    HW236972   4.097   4.255  11.909
 2160SOL     OW36973   4.068   6.129  11.992
 2160SOL    HW136974   4.126   6.071  12.041
 2160SOL    HW236975   4.086   6.109  11.900
 2161SOL     OW36976   5.940   0.558  11.991
 2161SOL    HW136977   6.008   0.517  12.043
 2161SOL    HW236978   5.960   0.533  11.901
 2162SOL     OW36979   5.934   4.284  11.989
 2162SOL    HW136980   5.990   4.240  12.053
 2162SOL    HW236981   5.968   4.255  11.904
 2163SOL     OW36982   5.936   6.125  11.978
 2163SOL    HW136983   6.023   6.100  12.010
 2163SOL    HW236984   5.942   6.117  11.883
 2164SOL     OW36985   0.071   1.563   0.867
 2164SOL    HW136986   0.064   1.657   0.847
 2164SOL    HW236987   0.164   1.548   0.880
 2165SOL     OW36988   0.069   3.420   0.863
 2165SOL    HW136989   0.057   3.515   0.860
 2165SOL    HW236990   0.164   3.408   0.871
 2166SOL     OW36991   0.067   5.284   0.864
 2166SOL    HW136992   0.056   5.378   0.850
 2166SOL    HW236993   0.161   5.271   0.874
 2167SOL     OW36994   1.952   1.575   0.895
 2167SOL    HW136995   1.921   1.644   0.836
 2167SOL    HW236996   2.047   1.573   0.883
 2168SOL     OW36997   1.837   3.375   0.885
 2168SOL    HW136998   1.764   3.405   0.830
 2168SOL    HW236999   1.897   3.332   0.824
 2169SOL     OW37000   1.950   5.298   0.893
 2169SOL    HW137001   1.918   5.370   0.839
 2169SOL    HW237002   2.045   5.300   0.882
 2170SOL     OW37003   3.816   1.570   0.888
 2170SOL    HW137004   3.791   1.645   0.834
 2170SOL    HW237005   3.912   1.566   0.880
 2171SOL     OW37006   3.836   3.419   0.923
 2171SOL    HW137007   3.821   3.456   0.836
 2171SOL    HW237008   3.931   3.408   0.928
 2172SOL     OW37009   3.818   5.297   0.896
 2172SOL    HW137010   3.794   5.370   0.840
 2172SOL    HW237011   3.913   5.290   0.887
 2173SOL     OW37012   5.680   1.569   0.890
 2173SOL    HW137013   5.649   1.639   0.833
 2173SOL    HW237014   5.776   1.570   0.879
 2174SOL     OW37015   5.683   3.434   0.892
 2174SOL    HW137016   5.653   3.506   0.837
 2174SOL    HW237017   5.778   3.433   0.879
 2175SOL     OW37018   1.471   1.505   0.900
 2175SOL    HW137019   1.525   1.583   0.912
 2175SOL    HW237020   1.400   1.515   0.963
 2176SOL     OW37021   1.461   3.343   0.905
 2176SOL    HW137022   1.499   3.431   0.900
 2176SOL    HW237023   1.384   3.354   0.961
 2177SOL     OW37024   1.472   5.229   0.898
 2177SOL    HW137025   1.527   5.306   0.908
 2177SOL    HW237026   1.401   5.241   0.961
 2178SOL     OW37027   3.335   1.504   0.898
 2178SOL    HW137028   3.388   1.584   0.905
 2178SOL    HW237029   3.263   1.518   0.961
 2179SOL     OW37030   3.372   3.365   0.871
 2179SOL    HW137031   3.425   3.434   0.910
 2179SOL    HW237032   3.288   3.372   0.917
 2180SOL     OW37033   3.335   5.232   0.899
 2180SOL    HW137034   3.390   5.310   0.909
 2180SOL    HW237035   3.265   5.244   0.963
 2181SOL     OW37036   5.195   1.505   0.902
 2181SOL    HW137037   5.250   1.583   0.911
 2181SOL    HW237038   5.122   1.520   0.962
 2182SOL     OW37039   5.193   3.367   0.901
 2182SOL    HW137040   5.248   3.445   0.907
 2182SOL    HW237041   5.124   3.382   0.965
 2183SOL     OW37042   5.195   5.227   0.901
 2183SOL    HW137043   5.251   5.304   0.909
 2183SOL    HW237044   5.123   5.243   0.963
 2184SOL     OW37045   1.057   1.351   0.858
 2184SOL    HW137046   0.982   1.319   0.907
 2184SOL    HW237047   1.133   1.312   0.901
 2185SOL     OW37048   1.052   3.212   0.861
 2185SOL    HW137049   0.976   3.179   0.909
 2185SOL    HW237050   1.127   3.171   0.904
 2186SOL     OW37051   1.055   5.075   0.865
 2186SOL    HW137052   0.979   5.042   0.913
 2186SOL    HW237053   1.130   5.031   0.905
 2187SOL     OW37054   2.920   1.355   0.866
 2187SOL    HW137055   2.843   1.319   0.910
 2187SOL    HW237056   2.994   1.308   0.904
 2188SOL     OW37057   2.926   3.174   0.846
 2188SOL    HW137058   2.846   3.133   0.877
 2188SOL    HW237059   2.997   3.125   0.887
 2189SOL     OW37060   2.929   5.078   0.847
 2189SOL    HW137061   2.850   5.056   0.897
 2189SOL    HW237062   3.001   5.040   0.897
 2190SOL     OW37063   4.783   1.353   0.865
 2190SOL    HW137064   4.707   1.317   0.911
 2190SOL    HW237065   4.858   1.310   0.906
 2191SOL     OW37066   4.783   3.216   0.864
 2191SOL    HW137067   4.706   3.181   0.909
 2191SOL    HW237068   4.857   3.171   0.905
 2192SOL     OW37069   4.784   5.075   0.865
 2192SOL    HW137070   4.707   5.042   0.912
 2192SOL    HW237071   4.858   5.031   0.907
 2193SOL     OW37072   0.744   0.438  11.953
 2193SOL    HW137073   0.689   0.363  11.932
 2193SOL    HW237074   0.726   0.501  11.884
 2194SOL     OW37075   0.740   2.299  11.949
 2194SOL    HW137076   0.681   2.227  11.927
 2194SOL    HW237077   0.725   2.364  11.880
 2195SOL     OW37078   0.739   4.163  11.946
 2195SOL    HW137079   0.679   4.091  11.924
 2195SOL    HW237080   0.726   4.227  11.876
 2196SOL     OW37081   0.737   6.041  11.947
 2196SOL    HW137082   0.678   5.968  11.928
 2196SOL    HW237083   0.722   6.103  11.875
 2197SOL     OW37084   2.602   0.441  11.944
 2197SOL    HW137085   2.545   0.365  11.929
 2197SOL    HW237086   2.582   0.501  11.872
 2198SOL     OW37087   2.600   2.296  11.945
 2198SOL    HW137088   2.537   2.226  11.929
 2198SOL    HW237089   2.583   2.360  11.877
 2199SOL     OW37090   2.478   4.305  11.948
 2199SOL    HW137091   2.417   4.242  11.910
 2199SOL    HW237092   2.526   4.340  11.873
 2200SOL     OW37093   2.598   6.040  11.949
 2200SOL    HW137094   2.532   5.974  11.928
 2200SOL    HW237095   2.586   6.107  11.881
 2201SOL     OW37096   4.463   0.441  11.943
 2201SOL    HW137097   4.407   0.365  11.927
 2201SOL    HW237098   4.445   0.500  11.870
 2202SOL     OW37099   4.460   2.295  11.948
 2202SOL    HW137100   4.397   2.225  11.929
 2202SOL    HW237101   4.446   2.359  11.879
 2203SOL     OW37102   4.465   4.159  11.949
 2203SOL    HW137103   4.405   4.089  11.924
 2203SOL    HW237104   4.453   4.226  11.883
 2204SOL     OW37105   4.461   6.036  11.953
 2204SOL    HW137106   4.396   5.969  11.931
 2204SOL    HW237107   4.453   6.101  11.884
 2205SOL     OW37108   6.228   0.501  11.958
 2205SOL    HW137109   6.226   0.410  11.926
 2205SOL    HW237110   6.258   0.552  11.882
 2206SOL     OW37111   6.220   2.344  11.953
 2206SOL    HW137112   6.209   2.254  11.924
 2206SOL    HW237113   6.246   2.392  11.875
 2207SOL     OW37114   6.224   4.207  11.959
 2207SOL    HW137115   6.212   4.120  11.921
 2207SOL    HW237116   6.249   4.262  11.885
 2208SOL     OW37117   6.207   6.048  11.973
 2208SOL    HW137118   6.194   5.965  11.927
 2208SOL    HW237119   6.291   6.081  11.940
 2209SOL     OW37120   0.195   0.947  11.977
 2209SOL    HW137121   0.284   0.910  11.974
 2209SOL    HW237122   0.168   0.952  11.885
 2210SOL     OW37123   0.200   2.810  11.975
 2210SOL    HW137124   0.291   2.780  11.974
 2210SOL    HW237125   0.158   2.762  11.903
 2211SOL     OW37126   0.199   4.675  11.975
 2211SOL    HW137127   0.287   4.639  11.975
 2211SOL    HW237128   0.167   4.659  11.886
 2212SOL     OW37129   2.059   0.954  11.996
 2212SOL    HW137130   2.147   0.920  11.981
 2212SOL    HW237131   2.006   0.914  11.928
 2213SOL     OW37132   2.054   2.812  11.998
 2213SOL    HW137133   2.142   2.775  11.982
 2213SOL    HW237134   1.999   2.772  11.930
 2214SOL     OW37135   2.047   4.682  11.998
 2214SOL    HW137136   2.134   4.645  11.981
 2214SOL    HW237137   1.990   4.637  11.937
 2215SOL     OW37138   3.922   0.956  11.995
 2215SOL    HW137139   4.009   0.920  11.980
 2215SOL    HW237140   3.867   0.913  11.929
 2216SOL     OW37141   3.922   2.814  11.974
 2216SOL    HW137142   4.010   2.778  11.965
 2216SOL    HW237143   3.868   2.757  11.919
 2217SOL     OW37144   3.922   4.681  11.993
 2217SOL    HW137145   4.009   4.642  11.983
 2217SOL    HW237146   3.879   4.666  11.909
 2218SOL     OW37147   5.776   0.956  11.997
 2218SOL    HW137148   5.864   0.920  11.984
 2218SOL    HW237149   5.721   0.908  11.935
 2219SOL     OW37150   5.778   2.819  12.000
 2219SOL    HW137151   5.864   2.780  11.986
 2219SOL    HW237152   5.723   2.782  11.930
 2220SOL     OW37153   5.781   4.679  11.998
 2220SOL    HW137154   5.868   4.642  11.984
 2220SOL    HW237155   5.727   4.640  11.929
 2221SOL     OW37156   1.283   0.370  11.981
 2221SOL    HW137157   1.314   0.449  12.025
 2221SOL    HW237158   1.192   0.390  11.957
 2222SOL     OW37159   1.276   2.228  11.996
 2222SOL    HW137160   1.307   2.309  12.036
 2222SOL    HW237161   1.187   2.247  11.969
 2223SOL     OW37162   1.273   4.091  11.995
 2223SOL    HW137163   1.304   4.172  12.036
 2223SOL    HW237164   1.183   4.111  11.968
 2224SOL     OW37165   1.268   5.945  11.983
 2224SOL    HW137166   1.295   6.021  12.034
 2224SOL    HW237167   1.177   5.964  11.958
 2225SOL     OW37168   3.141   0.371  11.983
 2225SOL    HW137169   3.173   0.451  12.026
 2225SOL    HW237170   3.051   0.391  11.957
 2226SOL     OW37171   3.136   2.225  11.986
 2226SOL    HW137172   3.167   2.300  12.035
 2226SOL    HW237173   3.046   2.247  11.963
 2227SOL     OW37174   3.120   4.176  11.890
 2227SOL    HW137175   3.155   4.255  11.930
 2227SOL    HW237176   3.025   4.185  11.899
 2228SOL     OW37177   3.131   5.943  11.981
 2228SOL    HW137178   3.159   6.019  12.033
 2228SOL    HW237179   3.039   5.961  11.960
 2229SOL     OW37180   5.004   0.370  11.984
 2229SOL    HW137181   5.037   0.449  12.027
 2229SOL    HW237182   4.914   0.392  11.959
 2230SOL     OW37183   4.999   2.232  11.993
 2230SOL    HW137184   5.030   2.312  12.036
 2230SOL    HW237185   4.908   2.252  11.970
 2231SOL     OW37186   5.000   4.092  11.995
 2231SOL    HW137187   5.032   4.172  12.037
 2231SOL    HW237188   4.911   4.113  11.969
 2232SOL     OW37189   4.994   5.944  11.983
 2232SOL    HW137190   5.022   6.020  12.034
 2232SOL    HW237191   4.903   5.961  11.961
 2233SOL     OW37192   1.671   0.870  11.966
 2233SOL    HW137193   1.669   0.786  11.922
 2233SOL    HW237194   1.660   0.935  11.897
 2234SOL     OW37195   1.670   2.734  11.960
 2234SOL    HW137196   1.664   2.649  11.916
 2234SOL    HW237197   1.657   2.798  11.890
 2235SOL     OW37198   1.673   4.597  11.965
 2235SOL    HW137199   1.668   4.512  11.922
 2235SOL    HW237200   1.662   4.661  11.894
 2236SOL     OW37201   1.640   6.433  11.929
 2236SOL    HW137202   1.645   6.338  11.915
 2236SOL    HW237203   1.647   0.021  11.841
 2237SOL     OW37204   3.532   0.871  11.962
 2237SOL    HW137205   3.531   0.787  11.916
 2237SOL    HW237206   3.522   0.936  11.892
 2238SOL     OW37207   3.549   2.713  11.963
 2238SOL    HW137208   3.545   2.626  11.924
 2238SOL    HW237209   3.538   2.773  11.889
 2239SOL     OW37210   3.535   4.633  11.956
 2239SOL    HW137211   3.554   4.556  11.902
 2239SOL    HW237212   3.522   4.704  11.894
 2240SOL     OW37213   3.497   6.433  11.921
 2240SOL    HW137214   3.505   6.338  11.908
 2240SOL    HW237215   3.517   0.020  11.835
 2241SOL     OW37216   5.396   0.869  11.965
 2241SOL    HW137217   5.392   0.785  11.920
 2241SOL    HW237218   5.384   0.934  11.895
 2242SOL     OW37219   5.394   2.733  11.964
 2242SOL    HW137220   5.394   2.648  11.920
 2242SOL    HW237221   5.380   2.797  11.895
 2243SOL     OW37222   5.395   4.592  11.964
 2243SOL    HW137223   5.394   4.508  11.919
 2243SOL    HW237224   5.386   4.657  11.894
 2244SOL     OW37225   5.358   6.433  11.927
 2244SOL    HW137226   5.366   6.339  11.911
 2244SOL    HW237227   5.366   0.023  11.840
 2245SOL     OW37228   0.446   0.830  11.964
 2245SOL    HW137229   0.511   0.838  12.033
 2245SOL    HW237230   0.416   0.740  11.970
 2246SOL     OW37231   0.447   2.690  11.962
 2246SOL    HW137232   0.513   2.701  12.031
 2246SOL    HW237233   0.420   2.598  11.969
 2247SOL     OW37234   0.446   4.553  11.965
 2247SOL    HW137235   0.512   4.563  12.034
 2247SOL    HW237236   0.418   4.462  11.972
 2248SOL     OW37237   0.392   6.408  11.961
 2248SOL    HW137238   0.479   6.421  11.997
 2248SOL    HW237239   0.372   6.315  11.975
 2249SOL     OW37240   2.299   0.826  11.961
 2249SOL    HW137241   2.366   0.834  12.030
 2249SOL    HW237242   2.268   0.736  11.970
 2250SOL     OW37243   2.292   2.677  11.965
 2250SOL    HW137244   2.358   2.686  12.034
 2250SOL    HW237245   2.259   2.588  11.974
 2251SOL     OW37246   2.286   4.554  11.962
 2251SOL    HW137247   2.353   4.564  12.029
 2251SOL    HW237248   2.251   4.466  11.975
 2252SOL     OW37249   2.252   6.402  11.999
 2252SOL    HW137250   2.344   6.405  12.026
 2252SOL    HW237251   2.231   6.309  11.994
 2253SOL     OW37252   4.162   0.827  11.960
 2253SOL    HW137253   4.228   0.836  12.029
 2253SOL    HW237254   4.130   0.737  11.970
 2254SOL     OW37255   4.165   2.688  11.965
 2254SOL    HW137256   4.230   2.695  12.035
 2254SOL    HW237257   4.133   2.598  11.972
 2255SOL     OW37258   4.161   4.550  11.963
 2255SOL    HW137259   4.229   4.561  12.029
 2255SOL    HW237260   4.133   4.459  11.971
 2256SOL     OW37261   6.011   0.821  11.966
 2256SOL    HW137262   6.081   0.826  12.031
 2256SOL    HW237263   5.981   0.730  11.969
 2257SOL     OW37264   6.011   2.680  11.965
 2257SOL    HW137265   6.080   2.686  12.032
 2257SOL    HW237266   5.978   2.590  11.973
 2258SOL     OW37267   6.016   4.543  11.962
 2258SOL    HW137268   6.084   4.547  12.030
 2258SOL    HW237269   5.982   4.454  11.968
 2259SOL     OW37270   5.957   6.396  11.975
 2259SOL    HW137271   6.045   6.400  12.014
 2259SOL    HW237272   5.939   6.302  11.969
 2260SOL     OW37273   1.020   0.408  11.926
 2260SOL    HW137274   0.929   0.419  11.955
 2260SOL    HW237275   1.013   0.356  11.846
 2261SOL     OW37276   1.014   2.262  11.932
 2261SOL    HW137277   0.922   2.274  11.953
 2261SOL    HW237278   1.015   2.223  11.845
 2262SOL     OW37279   1.012   4.122  11.926
 2262SOL    HW137280   0.921   4.138  11.948
 2262SOL    HW237281   1.009   4.083  11.838
 2263SOL     OW37282   1.008   5.988  11.921
 2263SOL    HW137283   0.919   6.008  11.949
 2263SOL    HW237284   0.998   5.951  11.833
 2264SOL     OW37285   2.879   0.408  11.919
 2264SOL    HW137286   2.789   0.420  11.950
 2264SOL    HW237287   2.871   0.360  11.837
 2265SOL     OW37288   2.874   2.266  11.923
 2265SOL    HW137289   2.782   2.276  11.949
 2265SOL    HW237290   2.870   2.215  11.842
 2266SOL     OW37291   2.859   4.233  11.907
 2266SOL    HW137292   2.830   4.177  11.978
 2266SOL    HW237293   2.804   4.208  11.832
 2267SOL     OW37294   2.869   5.984  11.931
 2267SOL    HW137295   2.781   6.007  11.960
 2267SOL    HW237296   2.857   5.954  11.841
 2268SOL     OW37297   4.739   4.127  11.929
 2268SOL    HW137298   4.647   4.138  11.953
 2268SOL    HW237299   4.737   4.085  11.843
 2269SOL     OW37300   4.733   5.984  11.934
 2269SOL    HW137301   4.642   6.004  11.959
 2269SOL    HW237302   4.725   5.951  11.844
 2270SOL     OW37303   0.223   1.795  11.932
 2270SOL    HW137304   0.280   1.726  11.966
 2270SOL    HW237305   0.205   1.768  11.841
 2271SOL     OW37306   0.228   3.665  11.935
 2271SOL    HW137307   0.280   3.593  11.969
 2271SOL    HW237308   0.199   3.635  11.849
 2272SOL     OW37309   0.225   5.526  11.930
 2272SOL    HW137310   0.274   5.452  11.964
 2272SOL    HW237311   0.190   5.496  11.846
 2273SOL     OW37312   2.130   1.786  11.926
 2273SOL    HW137313   2.178   1.710  11.960
 2273SOL    HW237314   2.118   1.768  11.833
 2274SOL     OW37315   2.067   3.656  11.908
 2274SOL    HW137316   2.156   3.625  11.926
 2274SOL    HW237317   2.055   3.640  11.814
 2275SOL     OW37318   2.123   5.508  11.922
 2275SOL    HW137319   2.174   5.435  11.958
 2275SOL    HW237320   2.130   5.497  11.827
 2276SOL     OW37321   3.987   1.784  11.925
 2276SOL    HW137322   4.039   1.711  11.959
 2276SOL    HW237323   3.982   1.768  11.831
 2277SOL     OW37324   3.994   3.647  11.930
 2277SOL    HW137325   4.053   3.586  11.975
 2277SOL    HW237326   4.009   3.629  11.837
 2278SOL     OW37327   3.983   5.505  11.924
 2278SOL    HW137328   4.043   5.442  11.963
 2278SOL    HW237329   3.995   5.496  11.830
 2279SOL     OW37330   5.856   1.781  11.925
 2279SOL    HW137331   5.906   1.708  11.961
 2279SOL    HW237332   5.849   1.762  11.832
 2280SOL     OW37333   5.852   3.646  11.925
 2280SOL    HW137334   5.903   3.570  11.952
 2280SOL    HW237335   5.828   3.628  11.834
 2281SOL     OW37336   5.853   5.498  11.914
 2281SOL    HW137337   5.905   5.426  11.948
 2281SOL    HW237338   5.881   5.507  11.823
 2282SOL     OW37339   0.963   0.781  11.932
 2282SOL    HW137340   1.030   0.766  11.999
 2282SOL    HW237341   0.886   0.735  11.964
 2283SOL     OW37342   0.966   2.645  11.932
 2283SOL    HW137343   1.027   2.627  12.003
 2283SOL    HW237344   0.886   2.598  11.957
 2284SOL     OW37345   0.965   4.502  11.929
 2284SOL    HW137346   1.027   4.486  12.001
 2284SOL    HW237347   0.886   4.455  11.956
 2285SOL     OW37348   2.825   0.777  11.936
 2285SOL    HW137349   2.890   0.765  12.005
 2285SOL    HW237350   2.746   0.736  11.970
 2286SOL     OW37351   2.833   2.629  11.921
 2286SOL    HW137352   2.892   2.607  11.993
 2286SOL    HW237353   2.754   2.577  11.939
 2287SOL     OW37354   2.822   4.564  11.886
 2287SOL    HW137355   2.860   4.534  11.968
 2287SOL    HW237356   2.748   4.505  11.871
 2288SOL     OW37357   4.687   0.783  11.935
 2288SOL    HW137358   4.754   0.767  12.002
 2288SOL    HW237359   4.610   0.736  11.966
 2289SOL     OW37360   4.689   2.650  11.933
 2289SOL    HW137361   4.753   2.631  12.001
 2289SOL    HW237362   4.611   2.601  11.959
 2290SOL     OW37363   4.692   4.505  11.932
 2290SOL    HW137364   4.754   4.488  12.003
 2290SOL    HW237365   4.611   4.462  11.959
 2291SOL     OW37366   0.837   1.008   0.910
 2291SOL    HW137367   0.880   1.001   0.825
 2291SOL    HW237368   0.829   1.103   0.925
 2292SOL     OW37369   0.836   2.870   0.913
 2292SOL    HW137370   0.877   2.863   0.827
 2292SOL    HW237371   0.828   2.964   0.928
 2293SOL     OW37372   2.697   1.006   0.913
 2293SOL    HW137373   2.737   0.997   0.827
 2293SOL    HW237374   2.689   1.101   0.926
 2294SOL     OW37375   2.704   2.828   0.895
 2294SOL    HW137376   2.755   2.792   0.822
 2294SOL    HW237377   2.702   2.922   0.879
 2295SOL     OW37378   2.689   4.751   0.911
 2295SOL    HW137379   2.744   4.725   0.837
 2295SOL    HW237380   2.697   4.846   0.915
 2296SOL     OW37381   4.562   1.004   0.918
 2296SOL    HW137382   4.607   0.992   0.834
 2296SOL    HW237383   4.555   1.099   0.928
 2297SOL     OW37384   4.559   2.866   0.917
 2297SOL    HW137385   4.604   2.852   0.834
 2297SOL    HW237386   4.552   2.961   0.925
 2298SOL     OW37387   4.559   4.730   0.918
 2298SOL    HW137388   4.604   4.718   0.834
 2298SOL    HW237389   4.552   4.825   0.927
 2299SOL     OW37390   6.368   1.017   0.895
 2299SOL    HW137391   6.442   1.014   0.834
 2299SOL    HW237392   6.357   1.110   0.914
 2300SOL     OW37393   6.367   2.878   0.899
 2300SOL    HW137394   6.444   2.878   0.841
 2300SOL    HW237395   6.342   2.971   0.904
 2301SOL     OW37396   6.373   4.745   0.905
 2301SOL    HW137397   6.448   4.759   0.848
 2301SOL    HW237398   6.348   4.833   0.934
 2302SOL     OW37399   1.323   1.037  11.919
 2302SOL    HW137400   1.341   0.971  11.851
 2302SOL    HW237401   1.264   1.099  11.877
 2303SOL     OW37402   1.324   2.897  11.920
 2303SOL    HW137403   1.337   2.833  11.850
 2303SOL    HW237404   1.264   2.961  11.882
 2304SOL     OW37405   1.323   4.761  11.917
 2304SOL    HW137406   1.334   4.698  11.846
 2304SOL    HW237407   1.265   4.828  11.881
 2305SOL     OW37408   3.184   1.038  11.918
 2305SOL    HW137409   3.198   0.974  11.848
 2305SOL    HW237410   3.126   1.104  11.880
 2306SOL     OW37411   3.213   2.839  11.936
 2306SOL    HW137412   3.239   2.800  11.852
 2306SOL    HW237413   3.121   2.862  11.924
 2307SOL     OW37414   3.180   4.774  11.914
 2307SOL    HW137415   3.198   4.703  11.852
 2307SOL    HW237416   3.114   4.828  11.871
 2308SOL     OW37417   5.048   1.038  11.922
 2308SOL    HW137418   5.061   0.971  11.855
 2308SOL    HW237419   4.989   1.102  11.882
 2309SOL     OW37420   5.042   2.897  11.924
 2309SOL    HW137421   5.060   2.836  11.852
 2309SOL    HW237422   4.984   2.963  11.885
 2310SOL     OW37423   5.051   4.755  11.915
 2310SOL    HW137424   5.070   4.697  11.841
 2310SOL    HW237425   4.988   4.818  11.881
 2311SOL     OW37426   0.319   0.220  11.938
 2311SOL    HW137427   0.278   0.249  12.019
 2311SOL    HW237428   0.331   0.126  11.950
 2312SOL     OW37429   0.318   2.053  11.949
 2312SOL    HW137430   0.287   2.088  12.032
 2312SOL    HW237431   0.293   1.960  11.951
 2313SOL     OW37432   0.315   3.923  11.944
 2313SOL    HW137433   0.287   3.958  12.029
 2313SOL    HW237434   0.292   3.830  11.947
 2314SOL     OW37435   0.316   5.784  11.943
 2314SOL    HW137436   0.291   5.816  12.030
 2314SOL    HW237437   0.292   5.691  11.945
 2315SOL     OW37438   2.174   0.203  11.946
 2315SOL    HW137439   2.128   0.228  12.026
 2315SOL    HW237440   2.189   0.109  11.956
 2316SOL     OW37441   2.169   2.052  11.961
 2316SOL    HW137442   2.133   2.078  12.045
 2316SOL    HW237443   2.153   1.958  11.956
 2317SOL     OW37444   2.109   3.923  11.973
 2317SOL    HW137445   2.084   3.949  12.061
 2317SOL    HW237446   2.088   3.830  11.968
 2318SOL     OW37447   2.166   5.775  11.953
 2318SOL    HW137448   2.133   5.805  12.038
 2318SOL    HW237449   2.147   5.681  11.952
 2319SOL     OW37450   4.038   0.201  11.958
 2319SOL    HW137451   3.995   0.226  12.040
 2319SOL    HW237452   4.053   0.107  11.967
 2320SOL     OW37453   4.031   2.049  11.964
 2320SOL    HW137454   3.998   2.075  12.050
 2320SOL    HW237455   4.013   1.955  11.960
 2321SOL     OW37456   4.048   3.915  11.950
 2321SOL    HW137457   4.026   3.944  12.038
 2321SOL    HW237458   4.030   3.821  11.951
 2322SOL     OW37459   4.024   5.775  11.952
 2322SOL    HW137460   3.995   5.807  12.038
 2322SOL    HW237461   4.005   5.682  11.953
 2323SOL     OW37462   5.900   0.205  11.944
 2323SOL    HW137463   5.856   0.229  12.026
 2323SOL    HW237464   5.909   0.110  11.948
 2324SOL     OW37465   5.892   2.050  11.951
 2324SOL    HW137466   5.855   2.080  12.034
 2324SOL    HW237467   5.876   1.956  11.950
 2325SOL     OW37468   5.892   3.915  11.949
 2325SOL    HW137469   5.855   3.944  12.033
 2325SOL    HW237470   5.875   3.821  11.947
 2326SOL     OW37471   5.889   5.766  11.956
 2326SOL    HW137472   5.857   5.798  12.041
 2326SOL    HW237473   5.869   5.673  11.956
 2327SOL     OW37474   1.745   0.407   0.919
 2327SOL    HW137475   1.819   0.468   0.920
 2327SOL    HW237476   1.774   0.335   0.862
 2328SOL     OW37477   1.747   2.245   0.917
 2328SOL    HW137478   1.818   2.308   0.914
 2328SOL    HW237479   1.775   2.175   0.858
 2329SOL     OW37480   1.716   4.123   0.875
 2329SOL    HW137481   1.791   4.182   0.880
 2329SOL    HW237482   1.746   4.052   0.818
 2330SOL     OW37483   1.742   5.965   0.921
 2330SOL    HW137484   1.813   6.029   0.921
 2330SOL    HW237485   1.771   5.896   0.862
 2331SOL     OW37486   3.603   0.417   0.901
 2331SOL    HW137487   3.681   0.473   0.906
 2331SOL    HW237488   3.631   0.342   0.849
 2332SOL     OW37489   3.605   2.251   0.910
 2332SOL    HW137490   3.680   2.311   0.914
 2332SOL    HW237491   3.634   2.180   0.852
 2333SOL     OW37492   3.592   4.196   0.898
 2333SOL    HW137493   3.678   4.236   0.914
 2333SOL    HW237494   3.611   4.118   0.847
 2334SOL     OW37495   3.603   5.968   0.905
 2334SOL    HW137496   3.675   6.030   0.908
 2334SOL    HW237497   3.634   5.897   0.850
 2335SOL     OW37498   5.467   0.409   0.914
 2335SOL    HW137499   5.543   0.468   0.918
 2335SOL    HW237500   5.494   0.338   0.856
 2336SOL     OW37501   5.468   2.248   0.907
 2336SOL    HW137502   5.541   2.309   0.910
 2336SOL    HW237503   5.497   2.177   0.850
 2337SOL     OW37504   5.468   4.111   0.905
 2337SOL    HW137505   5.542   4.172   0.909
 2337SOL    HW237506   5.499   4.040   0.849
 2338SOL     OW37507   5.467   5.967   0.911
 2338SOL    HW137508   5.540   6.028   0.912
 2338SOL    HW237509   5.496   5.895   0.854
 2339SOL     OW37510   1.834   0.192  11.955
 2339SOL    HW137511   1.786   0.112  11.977
 2339SOL    HW237512   1.861   0.179  11.864
 2340SOL     OW37513   1.821   2.031  11.944
 2340SOL    HW137514   1.824   1.937  11.956
 2340SOL    HW237515   1.829   2.044  11.849
 2341SOL     OW37516   1.799   3.897  11.932
 2341SOL    HW137517   1.812   3.803  11.949
 2341SOL    HW237518   1.813   3.906  11.837
 2342SOL     OW37519   1.818   5.754  11.942
 2342SOL    HW137520   1.828   5.660  11.952
 2342SOL    HW237521   1.829   5.769  11.848
 2343SOL     OW37522   3.693   0.190  11.955
 2343SOL    HW137523   3.645   0.111  11.981
 2343SOL    HW237524   3.714   0.177  11.863
 2344SOL     OW37525   3.672   2.032  11.944
 2344SOL    HW137526   3.686   1.939  11.960
 2344SOL    HW237527   3.684   2.043  11.849
 2345SOL     OW37528   3.752   3.829  11.959
 2345SOL    HW137529   3.817   3.769  11.997
 2345SOL    HW237530   3.729   3.789  11.875
 2346SOL     OW37531   3.674   5.756  11.940
 2346SOL    HW137532   3.692   5.663  11.952
 2346SOL    HW237533   3.688   5.772  11.847
 2347SOL     OW37534   5.554   0.193  11.950
 2347SOL    HW137535   5.513   0.110  11.976
 2347SOL    HW237536   5.579   0.179  11.858
 2348SOL     OW37537   5.537   2.035  11.934
 2348SOL    HW137538   5.545   1.941  11.945
 2348SOL    HW237539   5.553   2.050  11.841
 2349SOL     OW37540   5.535   3.896  11.938
 2349SOL    HW137541   5.548   3.802  11.950
 2349SOL    HW237542   5.553   3.911  11.845
 2350SOL     OW37543   5.536   5.756  11.939
 2350SOL    HW137544   5.550   5.662  11.948
 2350SOL    HW237545   5.554   5.774  11.846
 2351SOL     OW37546   0.130   0.539   0.947
 2351SOL    HW137547   0.215   0.557   0.906
 2351SOL    HW237548   0.113   0.617   1.000
 2352SOL     OW37549   0.139   2.388   0.950
 2352SOL    HW137550   0.223   2.404   0.907
 2352SOL    HW237551   0.121   2.468   0.999
 2353SOL     OW37552   0.137   4.255   0.946
 2353SOL    HW137553   0.222   4.269   0.905
 2353SOL    HW237554   0.121   4.334   0.998
 2354SOL     OW37555   0.136   6.110   0.961
 2354SOL    HW137556   0.220   6.131   0.919
 2354SOL    HW237557   0.115   6.188   1.013
 2355SOL     OW37558   1.973   0.554   0.928
 2355SOL    HW137559   2.064   0.557   0.897
 2355SOL    HW237560   1.967   0.625   0.992
 2356SOL     OW37561   1.967   2.407   0.920
 2356SOL    HW137562   2.059   2.409   0.894
 2356SOL    HW237563   1.960   2.472   0.990
 2357SOL     OW37564   1.931   4.298   0.910
 2357SOL    HW137565   1.997   4.353   0.868
 2357SOL    HW237566   1.919   4.336   0.997
 2358SOL     OW37567   1.955   6.135   0.924
 2358SOL    HW137568   2.045   6.125   0.895
 2358SOL    HW237569   1.956   6.210   0.984
 2359SOL     OW37570   3.833   0.558   0.923
 2359SOL    HW137571   3.925   0.558   0.894
 2359SOL    HW237572   3.828   0.627   0.988
 2360SOL     OW37573   3.829   2.405   0.926
 2360SOL    HW137574   3.921   2.407   0.900
 2360SOL    HW237575   3.822   2.469   0.997
 2361SOL     OW37576   3.838   4.301   0.916
 2361SOL    HW137577   3.930   4.289   0.893
 2361SOL    HW237578   3.838   4.371   0.982
 2362SOL     OW37579   3.818   6.131   0.921
 2362SOL    HW137580   3.909   6.127   0.894
 2362SOL    HW237581   3.816   6.198   0.990
 2363SOL     OW37582   5.699   0.544   0.928
 2363SOL    HW137583   5.790   0.544   0.897
 2363SOL    HW237584   5.695   0.618   0.989
 2364SOL     OW37585   5.688   2.408   0.920
 2364SOL    HW137586   5.779   2.407   0.893
 2364SOL    HW237587   5.684   2.474   0.989
 2365SOL     OW37588   5.684   4.277   0.919
 2365SOL    HW137589   5.776   4.271   0.893
 2365SOL    HW237590   5.683   4.342   0.989
 2366SOL     OW37591   5.681   6.129   0.911
 2366SOL    HW137592   5.773   6.116   0.886
 2366SOL    HW237593   5.683   6.205   0.969
 2367SOL     OW37594   1.631   1.729   0.925
 2367SOL    HW137595   1.686   1.731   0.847
 2367SOL    HW237596   1.614   1.821   0.945
 2368SOL     OW37597   1.572   3.587   0.893
 2368SOL    HW137598   1.582   3.595   0.798
 2368SOL    HW237599   1.582   3.676   0.926
 2369SOL     OW37600   1.631   5.452   0.925
 2369SOL    HW137601   1.685   5.457   0.846
 2369SOL    HW237602   1.615   5.543   0.949
 2370SOL     OW37603   3.489   1.734   0.917
 2370SOL    HW137604   3.545   1.737   0.839
 2370SOL    HW237605   3.477   1.826   0.942
 2371SOL     OW37606   3.552   3.538   0.991
 2371SOL    HW137607   3.630   3.528   0.937
 2371SOL    HW237608   3.557   3.628   1.023
 2372SOL     OW37609   3.495   5.455   0.923
 2372SOL    HW137610   3.549   5.458   0.844
 2372SOL    HW237611   3.479   5.547   0.945
 2373SOL     OW37612   5.357   1.728   0.927
 2373SOL    HW137613   5.412   1.730   0.849
 2373SOL    HW237614   5.340   1.820   0.947
 2374SOL     OW37615   5.351   3.592   0.912
 2374SOL    HW137616   5.410   3.595   0.837
 2374SOL    HW237617   5.335   3.684   0.934
 2375SOL     OW37618   5.355   5.449   0.924
 2375SOL    HW137619   5.412   5.451   0.847
 2375SOL    HW237620   5.339   5.542   0.943
 2376SOL     OW37621   1.431   0.852   0.920
 2376SOL    HW137622   1.381   0.913   0.866
 2376SOL    HW237623   1.520   0.856   0.884
 2377SOL     OW37624   1.431   2.719   0.920
 2377SOL    HW137625   1.380   2.776   0.863
 2377SOL    HW237626   1.518   2.717   0.880
 2378SOL     OW37627   1.429   4.575   0.922
 2378SOL    HW137628   1.378   4.634   0.867
 2378SOL    HW237629   1.518   4.580   0.887
 2379SOL     OW37630   3.291   0.853   0.924
 2379SOL    HW137631   3.239   0.911   0.868
 2379SOL    HW237632   3.378   0.854   0.886
 2380SOL     OW37633   3.304   2.701   0.924
 2380SOL    HW137634   3.254   2.755   0.863
 2380SOL    HW237635   3.394   2.706   0.892
 2381SOL     OW37636   3.311   4.686   0.945
 2381SOL    HW137637   3.270   4.722   0.867
 2381SOL    HW237638   3.400   4.722   0.945
 2382SOL     OW37639   3.289   6.395   0.958
 2382SOL    HW137640   3.225   0.016   0.953
 2382SOL    HW237641   3.355   6.419   0.893
 2383SOL     OW37642   5.155   0.855   0.924
 2383SOL    HW137643   5.104   0.915   0.868
 2383SOL    HW237644   5.243   0.857   0.887
 2384SOL     OW37645   5.154   2.719   0.928
 2384SOL    HW137646   5.103   2.778   0.873
 2384SOL    HW237647   5.241   2.719   0.889
 2385SOL     OW37648   5.155   4.579   0.928
 2385SOL    HW137649   5.104   4.637   0.871
 2385SOL    HW237650   5.243   4.578   0.889
 2386SOL     OW37651   5.157   6.394   0.958
 2386SOL    HW137652   5.086   0.007   0.942
 2386SOL    HW237653   5.225   6.419   0.895
 2387SOL     OW37654   0.924   0.146   0.922
 2387SOL    HW137655   0.942   0.094   0.843
 2387SOL    HW237656   1.011   0.162   0.960
 2388SOL     OW37657   0.931   1.948   0.915
 2388SOL    HW137658   0.953   1.930   0.824
 2388SOL    HW237659   1.011   1.986   0.952
 2389SOL     OW37660   0.935   3.810   0.922
 2389SOL    HW137661   0.955   3.795   0.829
 2389SOL    HW237662   1.014   3.851   0.956
 2390SOL     OW37663   0.938   5.668   0.914
 2390SOL    HW137664   0.962   5.654   0.823
 2390SOL    HW237665   1.016   5.708   0.954
 2391SOL     OW37666   2.786   0.145   0.911
 2391SOL    HW137667   2.808   0.101   0.830
 2391SOL    HW237668   2.870   0.159   0.955
 2392SOL     OW37669   2.792   1.947   0.914
 2392SOL    HW137670   2.817   1.930   0.824
 2392SOL    HW237671   2.871   1.985   0.954
 2393SOL     OW37672   2.689   3.737   0.773
 2393SOL    HW137673   2.750   3.707   0.707
 2393SOL    HW237674   2.692   3.833   0.768
 2394SOL     OW37675   2.798   5.666   0.921
 2394SOL    HW137676   2.820   5.654   0.828
 2394SOL    HW237677   2.875   5.709   0.958
 2395SOL     OW37678   4.648   0.147   0.915
 2395SOL    HW137679   4.668   0.096   0.836
 2395SOL    HW237680   4.734   0.162   0.955
 2396SOL     OW37681   4.657   1.944   0.917
 2396SOL    HW137682   4.680   1.928   0.825
 2396SOL    HW237683   4.735   1.985   0.954
 2397SOL     OW37684   4.655   3.809   0.915
 2397SOL    HW137685   4.680   3.790   0.825
 2397SOL    HW237686   4.733   3.849   0.954
 2398SOL     OW37687   4.654   5.670   0.917
 2398SOL    HW137688   4.677   5.656   0.825
 2398SOL    HW237689   4.733   5.708   0.956
 2399SOL     OW37690   0.039   0.080   0.921
 2399SOL    HW137691   0.056   0.055   0.830
 2399SOL    HW237692   0.101   0.150   0.939
 2400SOL     OW37693   0.029   1.978   0.882
 2400SOL    HW137694   0.077   1.913   0.831
 2400SOL    HW237695   0.096   2.019   0.938
 2401SOL     OW37696   0.028   3.836   0.889
 2401SOL    HW137697   0.079   3.772   0.840
 2401SOL    HW237698   0.093   3.883   0.941
 2402SOL     OW37699   0.024   5.700   0.885
 2402SOL    HW137700   0.074   5.636   0.834
 2402SOL    HW237701   0.089   5.744   0.939
 2403SOL     OW37702   1.652   0.597  11.885
 2403SOL    HW137703   1.646   0.539  11.961
 2403SOL    HW237704   1.741   0.583  11.852
 2404SOL     OW37705   1.642   2.460  11.881
 2404SOL    HW137706   1.633   2.397  11.953
 2404SOL    HW237707   1.731   2.446  11.848
 2405SOL     OW37708   1.649   4.329  11.884
 2405SOL    HW137709   1.638   4.264  11.954
 2405SOL    HW237710   1.736   4.311  11.848
 2406SOL     OW37711   1.649   6.159  11.882
 2406SOL    HW137712   1.648   6.099  11.956
 2406SOL    HW237713   1.737   6.149  11.845
 2407SOL     OW37714   3.505   0.597  11.877
 2407SOL    HW137715   3.499   0.540  11.954
 2407SOL    HW237716   3.594   0.583  11.845
 2408SOL     OW37717   3.506   2.446  11.881
 2408SOL    HW137718   3.504   2.385  11.955
 2408SOL    HW237719   3.594   2.438  11.845
 2409SOL     OW37720   3.577   4.414  11.813
 2409SOL    HW137721   3.507   4.366  11.768
 2409SOL    HW237722   3.658   4.371  11.784
 2410SOL     OW37723   3.515   6.158  11.878
 2410SOL    HW137724   3.513   6.102  11.956
 2410SOL    HW237725   3.604   6.150  11.845
 2411SOL     OW37726   5.382   2.458  11.882
 2411SOL    HW137727   5.376   2.396  11.955
 2411SOL    HW237728   5.470   2.445  11.846
 2412SOL     OW37729   5.376   4.316  11.881
 2412SOL    HW137730   5.372   4.256  11.955
 2412SOL    HW237731   5.464   4.305  11.846
 2413SOL     OW37732   5.373   6.160  11.879
 2413SOL    HW137733   5.371   6.102  11.955
 2413SOL    HW237734   5.462   6.151  11.844
 2414SOL     OW37735   0.886   1.522  11.901
 2414SOL    HW137736   0.864   1.478  11.819
 2414SOL    HW237737   0.952   1.466  11.942
 2415SOL     OW37738   0.887   3.388  11.916
 2415SOL    HW137739   0.871   3.350  11.829
 2415SOL    HW237740   0.955   3.334  11.954
 2416SOL     OW37741   2.667   3.305  11.896
 2416SOL    HW137742   2.659   3.358  11.816
 2416SOL    HW237743   2.760   3.309  11.918
 2417SOL     OW37744   2.747   5.246  11.896
 2417SOL    HW137745   2.727   5.204  11.812
 2417SOL    HW237746   2.814   5.190  11.935
 2418SOL     OW37747   4.612   1.532  11.906
 2418SOL    HW137748   4.596   1.498  11.818
 2418SOL    HW237749   4.678   1.474  11.943
 2419SOL     OW37750   4.619   3.389  11.907
 2419SOL    HW137751   4.602   3.347  11.823
 2419SOL    HW237752   4.687   3.335  11.948
 2420SOL     OW37753   4.607   5.241  11.899
 2420SOL    HW137754   4.594   5.203  11.812
 2420SOL    HW237755   4.677   5.189  11.937
 2421SOL     OW37756   0.804   1.276   0.945
 2421SOL    HW137757   0.780   1.319   1.027
 2421SOL    HW237758   0.727   1.287   0.889
 2422SOL     OW37759   0.799   3.138   0.946
 2422SOL    HW137760   0.775   3.182   1.027
 2422SOL    HW237761   0.723   3.147   0.889
 2423SOL     OW37762   0.800   5.000   0.951
 2423SOL    HW137763   0.765   5.031   1.035
 2423SOL    HW237764   0.728   5.015   0.889
 2424SOL     OW37765   2.666   1.276   0.944
 2424SOL    HW137766   2.643   1.321   1.025
 2424SOL    HW237767   2.589   1.287   0.887
 2425SOL     OW37768   2.668   3.092   0.880
 2425SOL    HW137769   2.627   3.137   0.954
 2425SOL    HW237770   2.601   3.095   0.811
 2426SOL     OW37771   2.679   5.024   0.949
 2426SOL    HW137772   2.654   5.057   1.035
 2426SOL    HW237773   2.602   5.038   0.894
 2427SOL     OW37774   4.525   1.274   0.937
 2427SOL    HW137775   4.499   1.318   1.018
 2427SOL    HW237776   4.450   1.286   0.878
 2428SOL     OW37777   4.525   3.137   0.935
 2428SOL    HW137778   4.493   3.183   1.013
 2428SOL    HW237779   4.453   3.144   0.872
 2429SOL     OW37780   4.527   5.001   0.944
 2429SOL    HW137781   4.494   5.046   1.022
 2429SOL    HW237782   4.458   5.014   0.878
 2430SOL     OW37783   1.292   1.234   0.939
 2430SOL    HW137784   1.318   1.162   0.882
 2430SOL    HW237785   1.350   1.227   1.015
 2431SOL     OW37786   1.284   3.091   0.946
 2431SOL    HW137787   1.311   3.020   0.887
 2431SOL    HW237788   1.340   3.081   1.022
 2432SOL     OW37789   1.290   4.955   0.945
 2432SOL    HW137790   1.318   4.885   0.886
 2432SOL    HW237791   1.350   4.949   1.019
 2433SOL     OW37792   3.151   1.229   0.944
 2433SOL    HW137793   3.177   1.159   0.883
 2433SOL    HW237794   3.214   1.222   1.016
 2434SOL     OW37795   3.166   3.056   0.928
 2434SOL    HW137796   3.195   2.982   0.873
 2434SOL    HW237797   3.227   3.056   1.001
 2435SOL     OW37798   3.153   4.969   0.952
 2435SOL    HW137799   3.186   4.908   0.886
 2435SOL    HW237800   3.215   4.962   1.024
 2436SOL     OW37801   5.018   1.233   0.944
 2436SOL    HW137802   5.042   1.162   0.884
 2436SOL    HW237803   5.080   1.226   1.016
 2437SOL     OW37804   5.014   3.092   0.946
 2437SOL    HW137805   5.039   3.023   0.885
 2437SOL    HW237806   5.079   3.087   1.016
 2438SOL     OW37807   5.016   4.951   0.955
 2438SOL    HW137808   5.039   4.884   0.891
 2438SOL    HW237809   5.086   4.948   1.020
 2439SOL     OW37810   0.640   0.832   0.979
 2439SOL    HW137811   0.696   0.908   0.965
 2439SOL    HW237812   0.700   0.757   0.980
 2440SOL     OW37813   0.639   2.695   0.983
 2440SOL    HW137814   0.697   2.769   0.969
 2440SOL    HW237815   0.696   2.619   0.982
 2441SOL     OW37816   0.641   4.553   0.977
 2441SOL    HW137817   0.697   4.629   0.964
 2441SOL    HW237818   0.701   4.479   0.978
 2442SOL     OW37819   0.648   6.436   0.910
 2442SOL    HW137820   0.672   0.060   0.966
 2442SOL    HW237821   0.706   6.365   0.936
 2443SOL     OW37822   2.501   0.823   0.967
 2443SOL    HW137823   2.558   0.900   0.958
 2443SOL    HW237824   2.561   0.749   0.972
 2444SOL     OW37825   2.491   2.683   0.974
 2444SOL    HW137826   2.555   2.752   0.953
 2444SOL    HW237827   2.543   2.603   0.977
 2445SOL     OW37828   2.453   4.632   0.971
 2445SOL    HW137829   2.525   4.693   0.954
 2445SOL    HW237830   2.496   4.552   1.001
 2446SOL     OW37831   2.506   6.421   0.894
 2446SOL    HW137832   2.520   0.044   0.954
 2446SOL    HW237833   2.568   6.354   0.923
 2447SOL     OW37834   4.360   0.830   0.972
 2447SOL    HW137835   4.419   0.904   0.960
 2447SOL    HW237836   4.417   0.753   0.975
 2448SOL     OW37837   4.353   2.695   0.978
 2448SOL    HW137838   4.413   2.768   0.966
 2448SOL    HW237839   4.409   2.618   0.981
 2449SOL     OW37840   4.357   4.555   0.970
 2449SOL    HW137841   4.416   4.629   0.959
 2449SOL    HW237842   4.415   4.479   0.973
 2450SOL     OW37843   4.361   6.425   0.914
 2450SOL    HW137844   4.384   0.052   0.966
 2450SOL    HW237845   4.426   6.359   0.938
 2451SOL     OW37846   6.215   0.809   0.971
 2451SOL    HW137847   6.270   0.885   0.949
 2451SOL    HW237848   6.277   0.737   0.980
 2452SOL     OW37849   6.217   2.666   0.972
 2452SOL    HW137850   6.269   2.744   0.953
 2452SOL    HW237851   6.277   2.593   0.960
 2453SOL     OW37852   6.215   4.535   0.970
 2453SOL    HW137853   6.271   4.611   0.952
 2453SOL    HW237854   6.275   4.460   0.967
 2454SOL     OW37855   6.199   6.417   0.912
 2454SOL    HW137856   6.220   0.046   0.962
 2454SOL    HW237857   6.269   6.355   0.933
 2455SOL     OW37858   1.351   0.587   0.960
 2455SOL    HW137859   1.381   0.559   1.046
 2455SOL    HW237860   1.387   0.675   0.950
 2456SOL     OW37861   1.351   2.450   0.961
 2456SOL    HW137862   1.384   2.416   1.045
 2456SOL    HW237863   1.389   2.538   0.955
 2457SOL     OW37864   1.349   4.311   0.969
 2457SOL    HW137865   1.379   4.290   1.057
 2457SOL    HW237866   1.382   4.400   0.953
 2458SOL     OW37867   1.326   6.150   0.977
 2458SOL    HW137868   1.361   6.122   1.062
 2458SOL    HW237869   1.365   6.236   0.962
 2459SOL     OW37870   3.208   0.585   0.970
 2459SOL    HW137871   3.241   0.559   1.056
 2459SOL    HW237872   3.243   0.673   0.957
 2460SOL     OW37873   3.214   2.444   0.963
 2460SOL    HW137874   3.246   2.412   1.047
 2460SOL    HW237875   3.256   2.529   0.952
 2461SOL     OW37876   3.207   4.223   1.033
 2461SOL    HW137877   3.170   4.222   1.121
 2461SOL    HW237878   3.268   4.297   1.034
 2462SOL     OW37879   3.188   6.146   0.982
 2462SOL    HW137880   3.223   6.119   1.067
 2462SOL    HW237881   3.224   6.233   0.967
 2463SOL     OW37882   5.069   0.593   0.954
 2463SOL    HW137883   5.098   0.565   1.041
 2463SOL    HW237884   5.106   0.680   0.944
 2464SOL     OW37885   5.068   2.455   0.958
 2464SOL    HW137886   5.101   2.421   1.042
 2464SOL    HW237887   5.107   2.542   0.951
 2465SOL     OW37888   5.068   4.314   0.971
 2465SOL    HW137889   5.105   4.282   1.053
 2465SOL    HW237890   5.110   4.399   0.958
 2466SOL     OW37891   5.052   6.146   0.982
 2466SOL    HW137892   5.086   6.118   1.067
 2466SOL    HW237893   5.090   6.232   0.968
 2467SOL     OW37894   0.602   1.816   0.928
 2467SOL    HW137895   0.533   1.787   0.987
 2467SOL    HW237896   0.638   1.894   0.969
 2468SOL     OW37897   0.611   3.669   0.941
 2468SOL    HW137898   0.534   3.644   0.991
 2468SOL    HW237899   0.637   3.753   0.978
 2469SOL     OW37900   0.609   5.532   0.925
 2469SOL    HW137901   0.531   5.511   0.977
 2469SOL    HW237902   0.640   5.615   0.961
 2470SOL     OW37903   2.459   1.797   0.954
 2470SOL    HW137904   2.382   1.776   1.006
 2470SOL    HW237905   2.486   1.884   0.984
 2471SOL     OW37906   2.524   3.661   1.074
 2471SOL    HW137907   2.474   3.584   1.102
 2471SOL    HW237908   2.591   3.625   1.015
 2472SOL     OW37909   2.466   5.508   0.965
 2472SOL    HW137910   2.382   5.494   1.009
 2472SOL    HW237911   2.491   5.598   0.987
 2473SOL     OW37912   4.315   1.797   0.940
 2473SOL    HW137913   4.235   1.778   0.990
 2473SOL    HW237914   4.345   1.881   0.975
 2474SOL     OW37915   4.315   3.657   0.938
 2474SOL    HW137916   4.242   3.634   0.996
 2474SOL    HW237917   4.345   3.742   0.970
 2475SOL     OW37918   4.322   5.521   0.951
 2475SOL    HW137919   4.243   5.503   1.003
 2475SOL    HW237920   4.353   5.605   0.984
 2476SOL     OW37921   6.207   1.781   0.984
 2476SOL    HW137922   6.117   1.767   1.013
 2476SOL    HW237923   6.218   1.876   0.986
 2477SOL     OW37924   6.209   3.641   0.983
 2477SOL    HW137925   6.117   3.628   1.005
 2477SOL    HW237926   6.222   3.735   0.983
 2478SOL     OW37927   6.202   5.497   0.979
 2478SOL    HW137928   6.113   5.484   1.012
 2478SOL    HW237929   6.212   5.592   0.974
 2479SOL     OW37930   0.583   3.167  11.904
 2479SOL    HW137931   0.499   3.172  11.858
 2479SOL    HW237932   0.599   3.256  11.934
 2480SOL     OW37933   0.588   5.028  11.912
 2480SOL    HW137934   0.505   5.032  11.865
 2480SOL    HW237935   0.603   5.118  11.942
 2481SOL     OW37936   2.446   1.303  11.903
 2481SOL    HW137937   2.363   1.303  11.856
 2481SOL    HW237938   2.460   1.394  11.928
 2482SOL     OW37939   2.391   3.119  11.918
 2482SOL    HW137940   2.316   3.132  11.859
 2482SOL    HW237941   2.404   3.204  11.959
 2483SOL     OW37942   2.444   5.029  11.903
 2483SOL    HW137943   2.360   5.033  11.857
 2483SOL    HW237944   2.459   5.119  11.934
 2484SOL     OW37945   4.314   1.309  11.895
 2484SOL    HW137946   4.230   1.313  11.850
 2484SOL    HW237947   4.328   1.398  11.927
 2485SOL     OW37948   4.309   3.170  11.899
 2485SOL    HW137949   4.227   3.179  11.850
 2485SOL    HW237950   4.333   3.260  11.924
 2486SOL     OW37951   4.304   5.029  11.891
 2486SOL    HW137952   4.220   5.036  11.846
 2486SOL    HW237953   4.321   5.118  11.923
 2487SOL     OW37954   6.136   1.238  11.848
 2487SOL    HW137955   6.063   1.293  11.819
 2487SOL    HW237956   6.198   1.299  11.888
 2488SOL     OW37957   6.147   3.118  11.849
 2488SOL    HW137958   6.069   3.162  11.817
 2488SOL    HW237959   6.191   3.184  11.903
 2489SOL     OW37960   6.143   4.953  11.833
 2489SOL    HW137961   6.068   5.009  11.813
 2489SOL    HW237962   6.206   5.011  11.875
 2490SOL     OW37963   1.801   1.732  11.877
 2490SOL    HW137964   1.859   1.756  11.804
 2490SOL    HW237965   1.768   1.645  11.853
 2491SOL     OW37966   1.044   0.016  11.856
 2491SOL    HW137967   1.014   6.377  11.875
 2491SOL    HW237968   1.137   0.006  11.835
 2492SOL     OW37969   1.761   3.591  11.857
 2492SOL    HW137970   1.829   3.615  11.795
 2492SOL    HW237971   1.745   3.498  11.841
 2493SOL     OW37972   1.024   1.878  11.834
 2493SOL    HW137973   0.969   1.821  11.781
 2493SOL    HW237974   1.110   1.836  11.834
 2494SOL     OW37975   1.791   5.450  11.867
 2494SOL    HW137976   1.851   5.478  11.798
 2494SOL    HW237977   1.765   5.361  11.842
 2495SOL     OW37978   1.024   3.741  11.835
 2495SOL    HW137979   0.974   3.678  11.782
 2495SOL    HW237980   1.111   3.702  11.840
 2496SOL     OW37981   1.024   5.598  11.834
 2496SOL    HW137982   0.973   5.532  11.787
 2496SOL    HW237983   1.113   5.562  11.836
 2497SOL     OW37984   3.661   1.727  11.871
 2497SOL    HW137985   3.720   1.753  11.800
 2497SOL    HW237986   3.631   1.639  11.846
 2498SOL     OW37987   2.904   0.020  11.851
 2498SOL    HW137988   2.875   6.386  11.886
 2498SOL    HW237989   2.998   0.009  11.836
 2499SOL     OW37990   3.646   3.577  11.809
 2499SOL    HW137991   3.714   3.599  11.746
 2499SOL    HW237992   3.630   3.484  11.795
 2500SOL     OW37993   2.884   1.877  11.834
 2500SOL    HW137994   2.826   1.815  11.790
 2500SOL    HW237995   2.970   1.835  11.833
 2501SOL     OW37996   3.651   5.454  11.864
 2501SOL    HW137997   3.713   5.481  11.796
 2501SOL    HW237998   3.628   5.364  11.840
 2502SOL     OW37999   2.963   3.582  11.909
 2502SOL    HW138000   2.912   3.505  11.886
 2502SOL    HW238001   3.053   3.559  11.886
 2503SOL     OW38002   2.889   5.601  11.834
 2503SOL    HW138003   2.832   5.547  11.780
 2503SOL    HW238004   2.975   5.559  11.829
 2504SOL     OW38005   5.520   1.731  11.867
 2504SOL    HW138006   5.582   1.756  11.798
 2504SOL    HW238007   5.494   1.642  11.845
 2505SOL     OW38008   4.769   0.026  11.856
 2505SOL    HW138009   4.732   6.388  11.862
 2505SOL    HW238010   4.862   0.011  11.836
 2506SOL     OW38011   5.527   3.590  11.870
 2506SOL    HW138012   5.590   3.617  11.804
 2506SOL    HW238013   5.496   3.505  11.840
 2507SOL     OW38014   4.746   1.870  11.838
 2507SOL    HW138015   4.685   1.809  11.796
 2507SOL    HW238016   4.832   1.828  11.829
 2508SOL     OW38017   5.507   5.455  11.860
 2508SOL    HW138018   5.568   5.482  11.791
 2508SOL    HW238019   5.487   5.364  11.839
 2509SOL     OW38020   4.748   3.740  11.832
 2509SOL    HW138021   4.697   3.681  11.777
 2509SOL    HW238022   4.835   3.700  11.837
 2510SOL     OW38023   0.115   6.447  11.844
 2510SOL    HW138024   0.095   6.446  11.751
 2510SOL    HW238025   0.207   6.421  11.849
 2511SOL     OW38026   0.588   0.223  11.881
 2511SOL    HW138027   0.617   0.149  11.935
 2511SOL    HW238028   0.495   0.232  11.902
 2512SOL     OW38029   0.579   2.086  11.874
 2512SOL    HW138030   0.618   2.009  11.916
 2512SOL    HW238031   0.487   2.084  11.902
 2513SOL     OW38032   0.579   3.946  11.876
 2513SOL    HW138033   0.617   3.875  11.927
 2513SOL    HW238034   0.487   3.949  11.901
 2514SOL     OW38035   0.581   5.815  11.878
 2514SOL    HW138036   0.618   5.750  11.938
 2514SOL    HW238037   0.488   5.818  11.900
 2515SOL     OW38038   2.442   0.221  11.887
 2515SOL    HW138039   2.473   0.146  11.938
 2515SOL    HW238040   2.348   0.226  11.907
 2516SOL     OW38041   2.429   2.087  11.879
 2516SOL    HW138042   2.469   2.013  11.924
 2516SOL    HW238043   2.337   2.085  11.907
 2517SOL     OW38044   2.298   3.883  11.770
 2517SOL    HW138045   2.247   3.899  11.849
 2517SOL    HW238046   2.263   3.945  11.706
 2518SOL     OW38047   2.429   5.820  11.878
 2518SOL    HW138048   2.472   5.761  11.939
 2518SOL    HW238049   2.337   5.817  11.903
 2519SOL     OW38050   4.303   0.221  11.885
 2519SOL    HW138051   4.338   0.146  11.934
 2519SOL    HW238052   4.211   0.225  11.911
 2520SOL     OW38053   4.290   2.083  11.881
 2520SOL    HW138054   4.333   2.015  11.932
 2520SOL    HW238055   4.199   2.082  11.909
 2521SOL     OW38056   4.307   3.943  11.873
 2521SOL    HW138057   4.350   3.876  11.926
 2521SOL    HW238058   4.216   3.943  11.902
 2522SOL     OW38059   4.290   5.818  11.881
 2522SOL    HW138060   4.334   5.759  11.942
 2522SOL    HW238061   4.198   5.814  11.907
 2523SOL     OW38062   6.167   0.233  11.885
 2523SOL    HW138063   6.208   0.170  11.945
 2523SOL    HW238064   6.074   0.230  11.907
 2524SOL     OW38065   6.152   2.087  11.873
 2524SOL    HW138066   6.203   2.034  11.934
 2524SOL    HW238067   6.062   2.078  11.903
 2525SOL     OW38068   6.152   3.951  11.873
 2525SOL    HW138069   6.200   3.906  11.941
 2525SOL    HW238070   6.060   3.942  11.899
 2526SOL     OW38071   6.148   5.797  11.876
 2526SOL    HW138072   6.194   5.759  11.950
 2526SOL    HW238073   6.055   5.791  11.899
 2527SOL     OW38074   1.095   0.686   0.977
 2527SOL    HW138075   1.033   0.614   0.984
 2527SOL    HW238076   1.181   0.644   0.973
 2528SOL     OW38077   1.094   2.544   0.975
 2528SOL    HW138078   1.034   2.471   0.984
 2528SOL    HW238079   1.181   2.503   0.972
 2529SOL     OW38080   1.092   4.413   0.984
 2529SOL    HW138081   1.025   4.345   0.989
 2529SOL    HW238082   1.174   4.365   0.981
 2530SOL     OW38083   1.070   6.300   0.944
 2530SOL    HW138084   0.986   6.264   0.971
 2530SOL    HW238085   1.135   6.234   0.970
 2531SOL     OW38086   2.953   0.690   0.984
 2531SOL    HW138087   2.884   0.624   0.982
 2531SOL    HW238088   3.034   0.640   0.979
 2532SOL     OW38089   2.958   2.533   0.981
 2532SOL    HW138090   2.903   2.456   0.993
 2532SOL    HW238091   3.047   2.498   0.978
 2533SOL     OW38092   3.043   4.540   0.981
 2533SOL    HW138093   3.059   4.457   1.024
 2533SOL    HW238094   3.121   4.555   0.927
 2534SOL     OW38095   2.937   6.298   1.051
 2534SOL    HW138096   2.851   6.269   1.020
 2534SOL    HW238097   2.998   6.233   1.017
 2535SOL     OW38098   4.814   0.689   0.986
 2535SOL    HW138099   4.751   0.618   0.986
 2535SOL    HW238100   4.899   0.646   0.975
 2536SOL     OW38101   4.813   2.551   0.987
 2536SOL    HW138102   4.752   2.478   0.992
 2536SOL    HW238103   4.899   2.510   0.978
 2537SOL     OW38104   4.814   4.413   0.991
 2537SOL    HW138105   4.753   4.340   0.992
 2537SOL    HW238106   4.900   4.373   0.985
 2538SOL     OW38107   4.801   6.311   0.988
 2538SOL    HW138108   4.713   6.274   0.989
 2538SOL    HW238109   4.860   6.236   0.993
 2539SOL     OW38110   0.805   0.615   0.972
 2539SOL    HW138111   0.778   0.589   1.059
 2539SOL    HW238112   0.776   0.544   0.915
 2540SOL     OW38113   0.933   1.676   1.000
 2540SOL    HW138114   0.901   1.634   0.921
 2540SOL    HW238115   0.927   1.770   0.982
 2541SOL     OW38116   0.800   2.476   0.972
 2541SOL    HW138117   0.769   2.447   1.058
 2541SOL    HW238118   0.775   2.405   0.912
 2542SOL     OW38119   0.939   3.536   0.999
 2542SOL    HW138120   0.905   3.494   0.921
 2542SOL    HW238121   0.931   3.630   0.981
 2543SOL     OW38122   0.810   4.337   0.970
 2543SOL    HW138123   0.777   4.312   1.056
 2543SOL    HW238124   0.780   4.267   0.911
 2544SOL     OW38125   0.913   5.403   1.006
 2544SOL    HW138126   0.895   5.362   0.922
 2544SOL    HW238127   0.920   5.497   0.987
 2545SOL     OW38128   0.805   6.215   0.987
 2545SOL    HW138129   0.784   6.177   1.073
 2545SOL    HW238130   0.776   6.148   0.924
 2546SOL     OW38131   2.675   0.610   0.970
 2546SOL    HW138132   2.647   0.585   1.058
 2546SOL    HW238133   2.642   0.540   0.913
 2547SOL     OW38134   2.781   1.678   1.002
 2547SOL    HW138135   2.763   1.636   0.918
 2547SOL    HW238136   2.783   1.772   0.982
 2548SOL     OW38137   2.658   2.471   0.969
 2548SOL    HW138138   2.638   2.445   1.059
 2548SOL    HW238139   2.633   2.396   0.916
 2549SOL     OW38140   2.700   3.529   0.921
 2549SOL    HW138141   2.740   3.463   0.863
 2549SOL    HW238142   2.702   3.610   0.870
 2550SOL     OW38143   2.560   4.401   1.040
 2550SOL    HW138144   2.566   4.336   1.110
 2550SOL    HW238145   2.545   4.349   0.960
 2551SOL     OW38146   2.802   5.392   0.994
 2551SOL    HW138147   2.767   5.356   0.913
 2551SOL    HW238148   2.797   5.487   0.983
 2552SOL     OW38149   2.680   6.213   0.970
 2552SOL    HW138150   2.651   6.182   1.056
 2552SOL    HW238151   2.649   6.147   0.908
 2553SOL     OW38152   4.527   0.614   0.970
 2553SOL    HW138153   4.497   0.585   1.057
 2553SOL    HW238154   4.499   0.544   0.911
 2554SOL     OW38155   4.640   1.677   1.008
 2554SOL    HW138156   4.622   1.635   0.924
 2554SOL    HW238157   4.645   1.770   0.987
 2555SOL     OW38158   4.521   2.479   0.971
 2555SOL    HW138159   4.499   2.450   1.059
 2555SOL    HW238160   4.495   2.406   0.914
 2556SOL     OW38161   4.649   3.539   1.007
 2556SOL    HW138162   4.625   3.496   0.925
 2556SOL    HW238163   4.648   3.632   0.987
 2557SOL     OW38164   4.522   4.339   0.972
 2557SOL    HW138165   4.495   4.310   1.059
 2557SOL    HW238166   4.497   4.267   0.913
 2558SOL     OW38167   4.657   5.398   0.992
 2558SOL    HW138168   4.629   5.359   0.909
 2558SOL    HW238169   4.651   5.492   0.978
 2559SOL     OW38170   4.537   6.214   0.977
 2559SOL    HW138171   4.510   6.185   1.064
 2559SOL    HW238172   4.505   6.146   0.918
 2560SOL     OW38173   0.186   1.140   0.996
 2560SOL    HW138174   0.157   1.095   1.076
 2560SOL    HW238175   0.197   1.069   0.932
 2561SOL     OW38176   0.190   2.996   1.001
 2561SOL    HW138177   0.154   2.948   1.076
 2561SOL    HW238178   0.200   2.930   0.932
 2562SOL     OW38179   0.209   4.865   1.015
 2562SOL    HW138180   0.178   4.814   1.089
 2562SOL    HW238181   0.218   4.803   0.943
 2563SOL     OW38182   2.010   1.147   1.005
 2563SOL    HW138183   2.018   1.107   1.092
 2563SOL    HW238184   2.029   1.076   0.944
 2564SOL     OW38185   1.992   2.981   1.029
 2564SOL    HW138186   1.989   2.930   1.111
 2564SOL    HW238187   2.013   2.916   0.962
 2565SOL     OW38188   1.998   4.871   1.019
 2565SOL    HW138189   2.006   4.828   1.104
 2565SOL    HW238190   2.007   4.800   0.956
 2566SOL     OW38191   3.871   1.147   1.005
 2566SOL    HW138192   3.879   1.106   1.091
 2566SOL    HW238193   3.889   1.077   0.943
 2567SOL     OW38194   3.874   2.996   0.999
 2567SOL    HW138195   3.883   2.955   1.085
 2567SOL    HW238196   3.894   2.926   0.937
 2568SOL     OW38197   3.871   4.863   1.009
 2568SOL    HW138198   3.872   4.813   1.091
 2568SOL    HW238199   3.893   4.799   0.942
 2569SOL     OW38200   5.737   1.150   1.013
 2569SOL    HW138201   5.740   1.109   1.099
 2569SOL    HW238202   5.752   1.078   0.952
 2570SOL     OW38203   5.741   3.014   0.987
 2570SOL    HW138204   5.740   2.975   1.074
 2570SOL    HW238205   5.755   2.941   0.928
 2571SOL     OW38206   5.729   4.871   1.009
 2571SOL    HW138207   5.738   4.830   1.095
 2571SOL    HW238208   5.748   4.800   0.947
 2572SOL     OW38209   1.310   1.465  11.857
 2572SOL    HW138210   1.363   1.470  11.937
 2572SOL    HW238211   1.256   1.387  11.868
 2573SOL     OW38212   1.308   3.325  11.856
 2573SOL    HW138213   1.361   3.330  11.935
 2573SOL    HW238214   1.256   3.246  11.867
 2574SOL     OW38215   1.308   5.190  11.856
 2574SOL    HW138216   1.360   5.194  11.937
 2574SOL    HW238217   1.256   5.110  11.865
 2575SOL     OW38218   3.172   1.465  11.852
 2575SOL    HW138219   3.224   1.469  11.932
 2575SOL    HW238220   3.120   1.385  11.861
 2576SOL     OW38221   3.145   3.244  11.850
 2576SOL    HW138222   3.219   3.228  11.909
 2576SOL    HW238223   3.069   3.210  11.898
 2577SOL     OW38224   3.151   5.192  11.880
 2577SOL    HW138225   3.216   5.200  11.950
 2577SOL    HW238226   3.081   5.138  11.918
 2578SOL     OW38227   5.031   1.464  11.860
 2578SOL    HW138228   5.085   1.470  11.938
 2578SOL    HW238229   4.981   1.383  11.871
 2579SOL     OW38230   5.038   3.324  11.850
 2579SOL    HW138231   5.091   3.332  11.929
 2579SOL    HW238232   4.990   3.241  11.862
 2580SOL     OW38233   5.028   5.190  11.867
 2580SOL    HW138234   5.086   5.198  11.942
 2580SOL    HW238235   4.972   5.115  11.887
 2581SOL     OW38236   1.179   0.205   1.010
 2581SOL    HW138237   1.169   0.267   1.082
 2581SOL    HW238238   1.219   0.257   0.939
 2582SOL     OW38239   1.174   2.050   0.993
 2582SOL    HW138240   1.160   2.111   1.066
 2582SOL    HW238241   1.218   2.103   0.926
 2583SOL     OW38242   1.175   3.919   1.007
 2583SOL    HW138243   1.163   3.983   1.077
 2583SOL    HW238244   1.216   3.969   0.936
 2584SOL     OW38245   1.178   5.772   1.003
 2584SOL    HW138246   1.165   5.834   1.074
 2584SOL    HW238247   1.216   5.824   0.932
 2585SOL     OW38248   3.049   0.201   1.000
 2585SOL    HW138249   3.039   0.263   1.072
 2585SOL    HW238250   3.084   0.254   0.928
 2586SOL     OW38251   3.036   2.047   0.998
 2586SOL    HW138252   3.026   2.108   1.070
 2586SOL    HW238253   3.080   2.098   0.930
 2587SOL     OW38254   3.191   3.947   1.212
 2587SOL    HW138255   3.145   4.030   1.222
 2587SOL    HW238256   3.229   3.952   1.124
 2588SOL     OW38257   3.036   5.777   1.010
 2588SOL    HW138258   3.026   5.843   1.079
 2588SOL    HW238259   3.076   5.824   0.937
 2589SOL     OW38260   4.905   0.207   1.009
 2589SOL    HW138261   4.895   0.270   1.080
 2589SOL    HW238262   4.945   0.256   0.937
 2590SOL     OW38263   4.897   2.050   1.004
 2590SOL    HW138264   4.883   2.114   1.074
 2590SOL    HW238265   4.941   2.100   0.935
 2591SOL     OW38266   4.897   3.912   1.003
 2591SOL    HW138267   4.887   3.975   1.075
 2591SOL    HW238268   4.941   3.961   0.934
 2592SOL     OW38269   4.900   5.765   1.003
 2592SOL    HW138270   4.889   5.830   1.072
 2592SOL    HW238271   4.940   5.813   0.931
 2593SOL     OW38272   1.636   0.157   1.052
 2593SOL    HW138273   1.647   0.223   0.983
 2593SOL    HW238274   1.565   0.190   1.107
 2594SOL     OW38275   1.600   1.992   0.988
 2594SOL    HW138276   1.630   2.075   0.951
 2594SOL    HW238277   1.570   2.015   1.076
 2595SOL     OW38278   1.617   3.841   0.986
 2595SOL    HW138279   1.622   3.923   0.937
 2595SOL    HW238280   1.571   3.864   1.067
 2596SOL     OW38281   1.601   5.711   1.000
 2596SOL    HW138282   1.634   5.792   0.961
 2596SOL    HW238283   1.568   5.737   1.086
 2597SOL     OW38284   3.508   0.151   1.048
 2597SOL    HW138285   3.502   0.197   0.964
 2597SOL    HW238286   3.435   0.186   1.099
 2598SOL     OW38287   3.473   1.994   0.997
 2598SOL    HW138288   3.505   2.071   0.951
 2598SOL    HW238289   3.450   2.026   1.085
 2599SOL     OW38290   3.597   3.798   1.083
 2599SOL    HW138291   3.589   3.872   1.024
 2599SOL    HW238292   3.536   3.816   1.154
 2600SOL     OW38293   3.468   5.716   0.990
 2600SOL    HW138294   3.501   5.794   0.947
 2600SOL    HW238295   3.441   5.747   1.077
 2601SOL     OW38296   5.384   0.144   1.043
 2601SOL    HW138297   5.397   0.197   0.964
 2601SOL    HW238298   5.314   0.189   1.090
 2602SOL     OW38299   5.329   1.991   0.989
 2602SOL    HW138300   5.365   2.067   0.943
 2602SOL    HW238301   5.298   2.026   1.073
 2603SOL     OW38302   5.325   3.853   0.981
 2603SOL    HW138303   5.364   3.931   0.941
 2603SOL    HW238304   5.298   3.882   1.068
 2604SOL     OW38305   5.327   5.712   0.983
 2604SOL    HW138306   5.367   5.787   0.941
 2604SOL    HW238307   5.302   5.743   1.070
 2605SOL     OW38308   1.253   1.731  11.799
 2605SOL    HW138309   1.338   1.758  11.763
 2605SOL    HW238310   1.269   1.641  11.830
 2606SOL     OW38311   1.254   3.594  11.805
 2606SOL    HW138312   1.337   3.620  11.766
 2606SOL    HW238313   1.266   3.502  11.827
 2607SOL     OW38314   1.258   5.459  11.803
 2607SOL    HW138315   1.342   5.483  11.764
 2607SOL    HW238316   1.269   5.367  11.828
 2608SOL     OW38317   3.112   1.730  11.794
 2608SOL    HW138318   3.197   1.759  11.762
 2608SOL    HW238319   3.126   1.639  11.821
 2609SOL     OW38320   3.220   3.516  11.837
 2609SOL    HW138321   3.280   3.541  11.767
 2609SOL    HW238322   3.199   3.424  11.818
 2610SOL     OW38323   3.111   5.443  11.774
 2610SOL    HW138324   3.198   5.476  11.754
 2610SOL    HW238325   3.126   5.361  11.821
 2611SOL     OW38326   4.969   1.719  11.776
 2611SOL    HW138327   5.056   1.752  11.753
 2611SOL    HW238328   4.986   1.633  11.814
 2612SOL     OW38329   4.976   3.592  11.799
 2612SOL    HW138330   5.059   3.623  11.762
 2612SOL    HW238331   4.991   3.500  11.819
 2613SOL     OW38332   4.977   5.454  11.794
 2613SOL    HW138333   5.063   5.480  11.759
 2613SOL    HW238334   4.991   5.365  11.825
 2614SOL     OW38335   0.694   0.236   1.034
 2614SOL    HW138336   0.777   0.220   0.989
 2614SOL    HW238337   0.718   0.257   1.124
 2615SOL     OW38338   0.701   2.058   1.026
 2615SOL    HW138339   0.783   2.029   0.986
 2615SOL    HW238340   0.726   2.092   1.112
 2616SOL     OW38341   0.701   3.920   1.023
 2616SOL    HW138342   0.784   3.890   0.984
 2616SOL    HW238343   0.727   3.958   1.107
 2617SOL     OW38344   0.701   5.779   1.005
 2617SOL    HW138345   0.785   5.751   0.968
 2617SOL    HW238346   0.722   5.803   1.095
 2618SOL     OW38347   2.544   0.210   1.029
 2618SOL    HW138348   2.626   0.203   0.980
 2618SOL    HW238349   2.572   0.224   1.119
 2619SOL     OW38350   2.554   2.053   1.020
 2619SOL    HW138351   2.635   2.024   0.979
 2619SOL    HW238352   2.582   2.091   1.104
 2620SOL     OW38353   2.652   3.913   0.971
 2620SOL    HW138354   2.595   3.848   0.930
 2620SOL    HW238355   2.628   3.912   1.064
 2621SOL     OW38356   2.553   5.767   1.020
 2621SOL    HW138357   2.639   5.744   0.986
 2621SOL    HW238358   2.570   5.800   1.108
 2622SOL     OW38359   4.409   0.223   1.028
 2622SOL    HW138360   4.494   0.212   0.984
 2622SOL    HW238361   4.432   0.243   1.119
 2623SOL     OW38362   4.414   2.046   1.017
 2623SOL    HW138363   4.498   2.021   0.978
 2623SOL    HW238364   4.436   2.081   1.103
 2624SOL     OW38365   4.407   3.910   1.002
 2624SOL    HW138366   4.493   3.886   0.968
 2624SOL    HW238367   4.423   3.931   1.094
 2625SOL     OW38368   4.416   5.773   1.032
 2625SOL    HW138369   4.500   5.750   0.993
 2625SOL    HW238370   4.438   5.807   1.119
 2626SOL     OW38371   6.253   0.199   1.050
 2626SOL    HW138372   6.346   0.183   1.036
 2626SOL    HW238373   6.237   0.172   1.141
 2627SOL     OW38374   6.249   2.052   1.009
 2627SOL    HW138375   6.330   2.042   0.958
 2627SOL    HW238376   6.275   2.100   1.087
 2628SOL     OW38377   6.244   3.914   1.007
 2628SOL    HW138378   6.328   3.904   0.963
 2628SOL    HW238379   6.266   3.945   1.095
 2629SOL     OW38380   6.236   5.774   1.000
 2629SOL    HW138381   6.323   5.766   0.962
 2629SOL    HW238382   6.250   5.769   1.095
 2630SOL     OW38383   0.395   1.310   1.028
 2630SOL    HW138384   0.373   1.390   0.980
 2630SOL    HW238385   0.322   1.251   1.011
 2631SOL     OW38386   0.397   3.172   1.022
 2631SOL    HW138387   0.374   3.252   0.974
 2631SOL    HW238388   0.324   3.112   1.007
 2632SOL     OW38389   0.427   5.047   1.037
 2632SOL    HW138390   0.375   5.126   1.053
 2632SOL    HW238391   0.362   4.977   1.029
 2633SOL     OW38392   2.239   1.310   1.022
 2633SOL    HW138393   2.224   1.385   0.964
 2633SOL    HW238394   2.161   1.255   1.010
 2634SOL     OW38395   2.207   3.146   1.058
 2634SOL    HW138396   2.223   3.148   0.964
 2634SOL    HW238397   2.125   3.099   1.068
 2635SOL     OW38398   2.229   5.028   0.995
 2635SOL    HW138399   2.213   5.108   0.947
 2635SOL    HW238400   2.145   4.982   0.995
 2636SOL     OW38401   4.098   1.309   1.025
 2636SOL    HW138402   4.092   1.382   0.963
 2636SOL    HW238403   4.021   1.255   1.006
 2637SOL     OW38404   4.096   3.161   1.032
 2637SOL    HW138405   4.099   3.231   0.967
 2637SOL    HW238406   4.020   3.108   1.007
 2638SOL     OW38407   4.086   5.040   1.051
 2638SOL    HW138408   4.086   5.109   0.984
 2638SOL    HW238409   4.014   4.982   1.026
 2639SOL     OW38410   5.973   1.308   1.046
 2639SOL    HW138411   5.970   1.381   0.983
 2639SOL    HW238412   5.897   1.255   1.024
 2640SOL     OW38413   5.971   3.174   1.010
 2640SOL    HW138414   5.959   3.248   0.950
 2640SOL    HW238415   5.892   3.121   0.998
 2641SOL     OW38416   5.961   5.033   1.027
 2641SOL    HW138417   5.956   5.106   0.965
 2641SOL    HW238418   5.883   4.980   1.007
 2642SOL     OW38419   0.079   0.485  11.843
 2642SOL    HW138420   0.168   0.521  11.843
 2642SOL    HW238421   0.052   0.490  11.935
 2643SOL     OW38422   0.078   2.421  11.834
 2643SOL    HW138423   0.170   2.409  11.811
 2643SOL    HW238424   0.074   2.396  11.927
 2644SOL     OW38425   0.082   4.240  11.835
 2644SOL    HW138426   0.177   4.249  11.832
 2644SOL    HW238427   0.062   4.229  11.928
 2645SOL     OW38428   0.021   6.114  11.878
 2645SOL    HW138429   0.096   6.105  11.819
 2645SOL    HW238430   0.058   6.109  11.966
 2646SOL     OW38431   1.911   0.558  11.824
 2646SOL    HW138432   1.990   0.553  11.769
 2646SOL    HW238433   1.944   0.554  11.913
 2647SOL     OW38434   1.902   2.421  11.823
 2647SOL    HW138435   1.975   2.394  11.767
 2647SOL    HW238436   1.936   2.418  11.912
 2648SOL     OW38437   1.903   4.273  11.819
 2648SOL    HW138438   1.952   4.204  11.774
 2648SOL    HW238439   1.946   4.282  11.904
 2649SOL     OW38440   1.910   6.138  11.817
 2649SOL    HW138441   1.991   6.146  11.767
 2649SOL    HW238442   1.938   6.142  11.909
 2650SOL     OW38443   3.766   0.556  11.826
 2650SOL    HW138444   3.841   0.557  11.767
 2650SOL    HW238445   3.804   0.552  11.914
 2651SOL     OW38446   3.764   2.422  11.820
 2651SOL    HW138447   3.836   2.401  11.760
 2651SOL    HW238448   3.803   2.416  11.907
 2652SOL     OW38449   3.801   4.263  11.827
 2652SOL    HW138450   3.884   4.262  11.778
 2652SOL    HW238451   3.825   4.300  11.912
 2653SOL     OW38452   3.778   6.143  11.815
 2653SOL    HW138453   3.860   6.144  11.766
 2653SOL    HW238454   3.804   6.144  11.907
 2654SOL     OW38455   5.637   0.565  11.821
 2654SOL    HW138456   5.715   0.553  11.767
 2654SOL    HW238457   5.668   0.556  11.911
 2655SOL     OW38458   5.644   2.423  11.820
 2655SOL    HW138459   5.728   2.424  11.774
 2655SOL    HW238460   5.668   2.418  11.913
 2656SOL     OW38461   5.638   4.285  11.819
 2656SOL    HW138462   5.718   4.280  11.768
 2656SOL    HW238463   5.667   4.281  11.910
 2657SOL     OW38464   5.633   6.135  11.815
 2657SOL    HW138465   5.708   6.122  11.757
 2657SOL    HW238466   5.671   6.133  11.903
 2658SOL     OW38467   1.444   0.221  11.811
 2658SOL    HW138468   1.402   0.135  11.814
 2658SOL    HW238469   1.405   0.269  11.884
 2659SOL     OW38470   1.439   2.086  11.830
 2659SOL    HW138471   1.456   2.002  11.872
 2659SOL    HW238472   1.388   2.135  11.894
 2660SOL     OW38473   1.433   3.954  11.824
 2660SOL    HW138474   1.450   3.869  11.863
 2660SOL    HW238475   1.385   4.003  11.890
 2661SOL     OW38476   1.440   5.813  11.821
 2661SOL    HW138477   1.464   5.732  11.867
 2661SOL    HW238478   1.387   5.861  11.885
 2662SOL     OW38479   3.300   0.226  11.809
 2662SOL    HW138480   3.266   0.137  11.817
 2662SOL    HW238481   3.261   0.274  11.882
 2663SOL     OW38482   3.303   2.093  11.815
 2663SOL    HW138483   3.323   2.005  11.849
 2663SOL    HW238484   3.254   2.135  11.886
 2664SOL     OW38485   3.370   3.705  12.029
 2664SOL    HW138486   3.309   3.678  11.961
 2664SOL    HW238487   3.347   3.796  12.048
 2665SOL     OW38488   3.306   5.814  11.821
 2665SOL    HW138489   3.341   5.741  11.872
 2665SOL    HW238490   3.249   5.860  11.883
 2666SOL     OW38491   5.161   0.222  11.810
 2666SOL    HW138492   5.120   0.135  11.813
 2666SOL    HW238493   5.121   0.270  11.883
 2667SOL     OW38494   5.162   2.092  11.827
 2667SOL    HW138495   5.183   2.011  11.873
 2667SOL    HW238496   5.111   2.143  11.890
 2668SOL     OW38497   5.163   3.952  11.826
 2668SOL    HW138498   5.179   3.866  11.866
 2668SOL    HW238499   5.114   4.000  11.893
 2669SOL     OW38500   5.171   5.812  11.826
 2669SOL    HW138501   5.207   5.740  11.879
 2669SOL    HW238502   5.113   5.859  11.886
 2670SOL     OW38503   0.202   0.280   1.015
 2670SOL    HW138504   0.163   0.367   1.006
 2670SOL    HW238505   0.172   0.248   1.100
 2671SOL     OW38506   0.216   2.132   1.024
 2671SOL    HW138507   0.177   2.219   1.012
 2671SOL    HW238508   0.210   2.116   1.118
 2672SOL     OW38509   0.207   3.998   1.025
 2672SOL    HW138510   0.173   4.086   1.010
 2672SOL    HW238511   0.202   3.986   1.119
 2673SOL     OW38512   0.212   5.852   1.021
 2673SOL    HW138513   0.172   5.939   1.016
 2673SOL    HW238514   0.217   5.833   1.115
 2674SOL     OW38515   2.077   0.277   1.019
 2674SOL    HW138516   2.010   0.345   1.009
 2674SOL    HW238517   2.043   0.219   1.087
 2675SOL     OW38518   2.076   2.124   1.034
 2675SOL    HW138519   1.994   2.173   1.044
 2675SOL    HW238520   2.055   2.035   1.063
 2676SOL     OW38521   1.969   3.988   1.012
 2676SOL    HW138522   2.021   4.067   0.996
 2676SOL    HW238523   1.891   4.019   1.058
 2677SOL     OW38524   2.080   5.842   1.033
 2677SOL    HW138525   2.014   5.904   1.062
 2677SOL    HW238526   2.051   5.758   1.069
 2678SOL     OW38527   3.929   0.261   1.029
 2678SOL    HW138528   3.861   0.329   1.030
 2678SOL    HW238529   3.910   0.207   1.105
 2679SOL     OW38530   3.945   2.126   1.033
 2679SOL    HW138531   3.876   2.189   1.052
 2679SOL    HW238532   3.911   2.042   1.065
 2680SOL     OW38533   3.926   3.976   1.035
 2680SOL    HW138534   3.873   4.040   1.084
 2680SOL    HW238535   3.919   3.895   1.087
 2681SOL     OW38536   3.936   5.836   1.036
 2681SOL    HW138537   3.864   5.895   1.058
 2681SOL    HW238538   3.908   5.751   1.071
 2682SOL     OW38539   5.793   0.266   1.016
 2682SOL    HW138540   5.726   0.333   1.005
 2682SOL    HW238541   5.761   0.211   1.086
 2683SOL     OW38542   5.793   2.115   1.028
 2683SOL    HW138543   5.724   2.174   1.057
 2683SOL    HW238544   5.769   2.030   1.066
 2684SOL     OW38545   5.795   3.980   1.033
 2684SOL    HW138546   5.744   4.047   1.079
 2684SOL    HW238547   5.771   3.898   1.076
 2685SOL     OW38548   5.796   5.834   1.022
 2685SOL    HW138549   5.732   5.896   1.056
 2685SOL    HW238550   5.771   5.750   1.060
 2686SOL     OW38551   0.467   0.396   1.013
 2686SOL    HW138552   0.549   0.348   1.019
 2686SOL    HW238553   0.400   0.331   1.033
 2687SOL     OW38554   0.481   5.957   0.992
 2687SOL    HW138555   0.561   5.905   0.995
 2687SOL    HW238556   0.413   5.899   1.026
 2688SOL     OW38557   2.330   0.391   0.996
 2688SOL    HW138558   2.404   0.332   1.008
 2688SOL    HW238559   2.253   0.338   1.017
 2689SOL     OW38560   2.326   2.245   1.004
 2689SOL    HW138561   2.402   2.188   1.011
 2689SOL    HW238562   2.251   2.188   1.022
 2690SOL     OW38563   2.343   4.335   1.281
 2690SOL    HW138564   2.431   4.346   1.316
 2690SOL    HW238565   2.325   4.241   1.288
 2691SOL     OW38566   2.332   5.955   0.984
 2691SOL    HW138567   2.408   5.902   1.006
 2691SOL    HW238568   2.257   5.907   1.020
 2692SOL     OW38569   4.181   0.389   1.004
 2692SOL    HW138570   4.261   0.338   1.014
 2692SOL    HW238571   4.110   0.330   1.030
 2693SOL     OW38572   4.198   2.239   0.981
 2693SOL    HW138573   4.271   2.180   0.997
 2693SOL    HW238574   4.122   2.193   1.016
 2694SOL     OW38575   4.187   4.102   1.003
 2694SOL    HW138576   4.267   4.051   1.008
 2694SOL    HW238577   4.120   4.046   1.042
 2695SOL     OW38578   4.187   5.957   1.001
 2695SOL    HW138579   4.265   5.904   1.013
 2695SOL    HW238580   4.114   5.898   1.022
 2696SOL     OW38581   6.015   0.417   1.085
 2696SOL    HW138582   6.099   0.380   1.059
 2696SOL    HW238583   5.950   0.355   1.053
 2697SOL     OW38584   6.013   2.283   1.063
 2697SOL    HW138585   6.096   2.249   1.031
 2697SOL    HW238586   5.949   2.213   1.045
 2698SOL     OW38587   6.021   4.139   1.048
 2698SOL    HW138588   6.103   4.095   1.025
 2698SOL    HW238589   5.954   4.070   1.043
 2699SOL     OW38590   6.029   5.979   1.055
 2699SOL    HW138591   6.106   5.932   1.023
 2699SOL    HW238592   5.957   5.917   1.041
 2700SOL     OW38593   1.706   1.486  11.818
 2700SOL    HW138594   1.634   1.461  11.761
 2700SOL    HW238595   1.717   1.412  11.878
 2701SOL     OW38596   1.704   3.330  11.796
 2701SOL    HW138597   1.624   3.313  11.747
 2701SOL    HW238598   1.705   3.263  11.865
 2702SOL     OW38599   1.716   5.199  11.784
 2702SOL    HW138600   1.632   5.182  11.741
 2702SOL    HW238601   1.720   5.133  11.853
 2703SOL     OW38602   3.574   1.480  11.797
 2703SOL    HW138603   3.496   1.458  11.747
 2703SOL    HW238604   3.581   1.410  11.862
 2704SOL     OW38605   3.576   3.323  11.755
 2704SOL    HW138606   3.494   3.318  11.707
 2704SOL    HW238607   3.570   3.253  11.820
 2705SOL     OW38608   3.578   5.199  11.794
 2705SOL    HW138609   3.493   5.180  11.754
 2705SOL    HW238610   3.588   5.132  11.862
 2706SOL     OW38611   5.444   1.478  11.798
 2706SOL    HW138612   5.362   1.456  11.754
 2706SOL    HW238613   5.456   1.410  11.863
 2707SOL     OW38614   5.438   3.348  11.778
 2707SOL    HW138615   5.359   3.325  11.729
 2707SOL    HW238616   5.446   3.278  11.843
 2708SOL     OW38617   5.440   5.200  11.789
 2708SOL    HW138618   5.356   5.182  11.746
 2708SOL    HW238619   5.449   5.131  11.854
 2709SOL     OW38620   1.235   1.545   1.043
 2709SOL    HW138621   1.223   1.473   1.105
 2709SOL    HW238622   1.160   1.539   0.984
 2710SOL     OW38623   1.233   3.406   1.043
 2710SOL    HW138624   1.221   3.335   1.106
 2710SOL    HW238625   1.154   3.404   0.989
 2711SOL     OW38626   1.235   5.264   1.037
 2711SOL    HW138627   1.229   5.189   1.096
 2711SOL    HW238628   1.166   5.249   0.972
 2712SOL     OW38629   3.099   1.538   1.039
 2712SOL    HW138630   3.092   1.464   1.100
 2712SOL    HW238631   3.032   1.521   0.974
 2713SOL     OW38632   3.120   3.342   0.969
 2713SOL    HW138633   3.128   3.269   1.031
 2713SOL    HW238634   3.045   3.318   0.914
 2714SOL     OW38635   3.100   5.277   1.041
 2714SOL    HW138636   3.091   5.201   1.098
 2714SOL    HW238637   3.017   5.281   0.993
 2715SOL     OW38638   4.956   1.553   1.036
 2715SOL    HW138639   4.947   1.482   1.100
 2715SOL    HW238640   4.889   1.536   0.971
 2716SOL     OW38641   4.953   3.408   1.042
 2716SOL    HW138642   4.946   3.337   1.105
 2716SOL    HW238643   4.887   3.389   0.976
 2717SOL     OW38644   4.956   5.270   1.038
 2717SOL    HW138645   4.943   5.198   1.099
 2717SOL    HW238646   4.887   5.259   0.972
 2718SOL     OW38647   1.156   1.224  11.806
 2718SOL    HW138648   1.094   1.258  11.870
 2718SOL    HW238649   1.125   1.257  11.722
 2719SOL     OW38650   1.156   3.084  11.814
 2719SOL    HW138651   1.092   3.121  11.875
 2719SOL    HW238652   1.130   3.118  11.728
 2720SOL     OW38653   1.159   4.952  11.809
 2720SOL    HW138654   1.094   4.985  11.870
 2720SOL    HW238655   1.129   4.981  11.723
 2721SOL     OW38656   3.020   1.227  11.807
 2721SOL    HW138657   2.954   1.259  11.868
 2721SOL    HW238658   2.991   1.257  11.721
 2722SOL     OW38659   2.994   2.911  11.768
 2722SOL    HW138660   2.981   2.960  11.849
 2722SOL    HW238661   3.066   2.956  11.724
 2723SOL     OW38662   2.990   4.924  11.797
 2723SOL    HW138663   2.943   4.974  11.863
 2723SOL    HW238664   2.977   4.974  11.716
 2724SOL     OW38665   4.881   1.223  11.811
 2724SOL    HW138666   4.818   1.260  11.873
 2724SOL    HW238667   4.854   1.257  11.726
 2725SOL     OW38668   4.881   3.086  11.812
 2725SOL    HW138669   4.818   3.126  11.872
 2725SOL    HW238670   4.854   3.118  11.725
 2726SOL     OW38671   4.876   4.933  11.811
 2726SOL    HW138672   4.816   4.976  11.871
 2726SOL    HW238673   4.853   4.968  11.725
 2727SOL     OW38674   1.778   2.777   1.041
 2727SOL    HW138675   1.746   2.865   1.058
 2727SOL    HW238676   1.750   2.758   0.951
 2728SOL     OW38677   1.766   4.653   1.043
 2728SOL    HW138678   1.750   4.747   1.054
 2728SOL    HW238679   1.744   4.636   0.951
 2729SOL     OW38680   3.637   0.937   1.033
 2729SOL    HW138681   3.618   1.030   1.042
 2729SOL    HW238682   3.611   0.915   0.943
 2730SOL     OW38683   3.621   2.792   1.044
 2730SOL    HW138684   3.609   2.887   1.051
 2730SOL    HW238685   3.605   2.772   0.952
 2731SOL     OW38686   3.592   4.668   1.041
 2731SOL    HW138687   3.619   4.758   1.060
 2731SOL    HW238688   3.609   4.657   0.948
 2732SOL     OW38689   5.500   0.931   1.039
 2732SOL    HW138690   5.477   1.023   1.050
 2732SOL    HW238691   5.474   0.911   0.949
 2733SOL     OW38692   5.488   2.778   1.038
 2733SOL    HW138693   5.470   2.871   1.053
 2733SOL    HW238694   5.466   2.763   0.946
 2734SOL     OW38695   5.490   4.659   1.040
 2734SOL    HW138696   5.477   4.754   1.046
 2734SOL    HW238697   5.469   4.638   0.949
 2735SOL     OW38698   1.625   1.085  11.795
 2735SOL    HW138699   1.619   1.150  11.865
 2735SOL    HW238700   1.547   1.099  11.741
 2736SOL     OW38701   1.632   4.813  11.790
 2736SOL    HW138702   1.624   4.879  11.859
 2736SOL    HW238703   1.560   4.832  11.731
 2737SOL     OW38704   3.482   1.085  11.788
 2737SOL    HW138705   3.474   1.151  11.857
 2737SOL    HW238706   3.410   1.105  11.728
 2738SOL     OW38707   3.503   2.899  11.765
 2738SOL    HW138708   3.506   2.973  11.826
 2738SOL    HW238709   3.431   2.919  11.706
 2739SOL     OW38710   3.483   4.831  11.780
 2739SOL    HW138711   3.468   4.896  11.849
 2739SOL    HW238712   3.411   4.846  11.718
 2740SOL     OW38713   5.353   1.085  11.793
 2740SOL    HW138714   5.344   1.151  11.862
 2740SOL    HW238715   5.280   1.103  11.733
 2741SOL     OW38716   5.339   2.947  11.793
 2741SOL    HW138717   5.333   3.015  11.860
 2741SOL    HW238718   5.271   2.969  11.730
 2742SOL     OW38719   5.358   4.810  11.793
 2742SOL    HW138720   5.352   4.876  11.862
 2742SOL    HW238721   5.287   4.832  11.733
 2743SOL     OW38722   0.723   0.625  11.758
 2743SOL    HW138723   0.803   0.613  11.707
 2743SOL    HW238724   0.698   0.716  11.743
 2744SOL     OW38725   0.729   2.490  11.756
 2744SOL    HW138726   0.811   2.477  11.710
 2744SOL    HW238727   0.703   2.580  11.734
 2745SOL     OW38728   0.733   4.350  11.750
 2745SOL    HW138729   0.814   4.342  11.699
 2745SOL    HW238730   0.705   4.440  11.736
 2746SOL     OW38731   0.739   6.217  11.732
 2746SOL    HW138732   0.817   6.181  11.688
 2746SOL    HW238733   0.755   6.311  11.734
 2747SOL     OW38734   2.579   0.624  11.739
 2747SOL    HW138735   2.665   0.624  11.698
 2747SOL    HW238736   2.550   0.715  11.734
 2748SOL     OW38737   2.590   2.490  11.753
 2748SOL    HW138738   2.670   2.490  11.700
 2748SOL    HW238739   2.552   2.576  11.738
 2749SOL     OW38740   2.630   4.411  11.755
 2749SOL    HW138741   2.679   4.400  11.673
 2749SOL    HW238742   2.573   4.486  11.738
 2750SOL     OW38743   2.620   6.233  11.748
 2750SOL    HW138744   2.696   6.191  11.706
 2750SOL    HW238745   2.638   6.327  11.741
 2751SOL     OW38746   4.444   0.620  11.733
 2751SOL    HW138747   4.529   0.615  11.691
 2751SOL    HW238748   4.420   0.712  11.728
 2752SOL     OW38749   4.454   2.485  11.755
 2752SOL    HW138750   4.539   2.476  11.712
 2752SOL    HW238751   4.432   2.578  11.744
 2753SOL     OW38752   4.465   4.357  11.765
 2753SOL    HW138753   4.545   4.349  11.714
 2753SOL    HW238754   4.438   4.448  11.753
 2754SOL     OW38755   4.475   6.215  11.747
 2754SOL    HW138756   4.552   6.179  11.704
 2754SOL    HW238757   4.472   6.306  11.717
 2755SOL     OW38758   6.289   0.666  11.742
 2755SOL    HW138759   6.374   0.662  11.699
 2755SOL    HW238760   6.261   0.756  11.730
 2756SOL     OW38761   6.288   2.500  11.729
 2756SOL    HW138762   6.378   2.494  11.763
 2756SOL    HW238763   6.266   2.593  11.733
 2757SOL     OW38764   6.285   4.373  11.745
 2757SOL    HW138765   6.380   4.367  11.745
 2757SOL    HW238766   6.267   4.467  11.739
 2758SOL     OW38767   6.298   6.237  11.703
 2758SOL    HW138768   6.361   6.196  11.762
 2758SOL    HW238769   6.312   6.331  11.716
 2759SOL     OW38770   0.368   1.424  11.774
 2759SOL    HW138771   0.308   1.388  11.708
 2759SOL    HW238772   0.422   1.487  11.726
 2760SOL     OW38773   0.358   3.284  11.769
 2760SOL    HW138774   0.293   3.252  11.707
 2760SOL    HW238775   0.413   3.344  11.719
 2761SOL     OW38776   0.369   5.147  11.776
 2761SOL    HW138777   0.306   5.114  11.711
 2761SOL    HW238778   0.422   5.210  11.727
 2762SOL     OW38779   2.207   1.405  11.773
 2762SOL    HW138780   2.134   1.364  11.728
 2762SOL    HW238781   2.249   1.460  11.707
 2763SOL     OW38782   2.187   3.254  11.766
 2763SOL    HW138783   2.109   3.204  11.740
 2763SOL    HW238784   2.199   3.317  11.695
 2764SOL     OW38785   2.213   5.125  11.773
 2764SOL    HW138786   2.136   5.086  11.733
 2764SOL    HW238787   2.248   5.183  11.706
 2765SOL     OW38788   4.076   1.404  11.770
 2765SOL    HW138789   3.998   1.365  11.732
 2765SOL    HW238790   4.112   1.460  11.702
 2766SOL     OW38791   4.078   3.268  11.769
 2766SOL    HW138792   3.999   3.228  11.734
 2766SOL    HW238793   4.110   3.323  11.697
 2767SOL     OW38794   4.063   5.128  11.771
 2767SOL    HW138795   3.986   5.085  11.733
 2767SOL    HW238796   4.096   5.185  11.701
 2768SOL     OW38797   5.932   1.415  11.762
 2768SOL    HW138798   5.857   1.375  11.718
 2768SOL    HW238799   5.972   1.471  11.696
 2769SOL     OW38800   5.930   3.276  11.761
 2769SOL    HW138801   5.852   3.234  11.723
 2769SOL    HW238802   5.969   3.325  11.689
 2770SOL     OW38803   5.936   5.134  11.763
 2770SOL    HW138804   5.859   5.098  11.720
 2770SOL    HW238805   5.975   5.193  11.699
 2771SOL     OW38806   0.397   1.747   1.090
 2771SOL    HW138807   0.307   1.779   1.079
 2771SOL    HW238808   0.387   1.663   1.135
 2772SOL     OW38809   0.389   3.598   1.079
 2772SOL    HW138810   0.299   3.631   1.076
 2772SOL    HW238811   0.382   3.515   1.126
 2773SOL     OW38812   0.390   5.475   1.073
 2773SOL    HW138813   0.302   5.513   1.070
 2773SOL    HW238814   0.376   5.385   1.101
 2774SOL     OW38815   2.234   1.739   1.105
 2774SOL    HW138816   2.153   1.786   1.083
 2774SOL    HW238817   2.204   1.660   1.150
 2775SOL     OW38818   2.377   3.367   1.094
 2775SOL    HW138819   2.319   3.428   1.141
 2775SOL    HW238820   2.321   3.291   1.076
 2776SOL     OW38821   2.228   5.463   1.097
 2776SOL    HW138822   2.147   5.513   1.083
 2776SOL    HW238823   2.200   5.383   1.141
 2777SOL     OW38824   4.081   1.735   1.076
 2777SOL    HW138825   4.000   1.784   1.064
 2777SOL    HW238826   4.054   1.655   1.121
 2778SOL     OW38827   4.092   3.594   1.087
 2778SOL    HW138828   4.007   3.640   1.081
 2778SOL    HW238829   4.071   3.512   1.131
 2779SOL     OW38830   4.094   5.466   1.097
 2779SOL    HW138831   4.011   5.512   1.085
 2779SOL    HW238832   4.068   5.382   1.136
 2780SOL     OW38833   5.964   1.738   1.100
 2780SOL    HW138834   5.882   1.786   1.082
 2780SOL    HW238835   5.935   1.653   1.134
 2781SOL     OW38836   5.958   3.611   1.078
 2781SOL    HW138837   5.881   3.665   1.059
 2781SOL    HW238838   5.923   3.536   1.126
 2782SOL     OW38839   5.959   5.465   1.099
 2782SOL    HW138840   5.878   5.512   1.084
 2782SOL    HW238841   5.932   5.382   1.138
 2783SOL     OW38842   1.357   0.849  11.727
 2783SOL    HW138843   1.278   0.825  11.679
 2783SOL    HW238844   1.417   0.776  11.712
 2784SOL     OW38845   1.334   2.715  11.718
 2784SOL    HW138846   1.245   2.689  11.692
 2784SOL    HW238847   1.387   2.636  11.702
 2785SOL     OW38848   1.324   4.588  11.708
 2785SOL    HW138849   1.235   4.563  11.686
 2785SOL    HW238850   1.374   4.506  11.701
 2786SOL     OW38851   1.304   6.438  11.747
 2786SOL    HW138852   1.288   0.009  11.655
 2786SOL    HW238853   1.349   6.353  11.745
 2787SOL     OW38854   3.191   0.857  11.715
 2787SOL    HW138855   3.101   0.829  11.697
 2787SOL    HW238856   3.243   0.778  11.706
 2788SOL     OW38857   3.218   2.711  11.697
 2788SOL    HW138858   3.125   2.690  11.685
 2788SOL    HW238859   3.262   2.627  11.691
 2789SOL     OW38860   3.208   4.552  11.756
 2789SOL    HW138861   3.122   4.536  11.717
 2789SOL    HW238862   3.270   4.540  11.684
 2790SOL     OW38863   3.170   6.431  11.753
 2790SOL    HW138864   3.155   0.000  11.660
 2790SOL    HW238865   3.217   6.348  11.753
 2791SOL     OW38866   5.057   0.847  11.733
 2791SOL    HW138867   4.970   0.825  11.701
 2791SOL    HW238868   5.110   0.769  11.716
 2792SOL     OW38869   5.057   2.729  11.710
 2792SOL    HW138870   4.970   2.703  11.682
 2792SOL    HW238871   5.109   2.649  11.707
 2793SOL     OW38872   5.059   4.589  11.695
 2793SOL    HW138873   4.968   4.561  11.690
 2793SOL    HW238874   5.109   4.508  11.692
 2794SOL     OW38875   5.027   6.434  11.757
 2794SOL    HW138876   5.013   0.009  11.666
 2794SOL    HW238877   5.074   6.351  11.753
 2795SOL     OW38878   0.139   1.828   1.111
 2795SOL    HW138879   0.141   1.803   1.203
 2795SOL    HW238880   0.047   1.820   1.086
 2796SOL     OW38881   0.135   3.678   1.123
 2796SOL    HW138882   0.142   3.647   1.213
 2796SOL    HW238883   0.042   3.675   1.103
 2797SOL     OW38884   0.133   5.550   1.112
 2797SOL    HW138885   0.138   5.507   1.198
 2797SOL    HW238886   0.041   5.538   1.085
 2798SOL     OW38887   1.992   1.874   1.101
 2798SOL    HW138888   1.996   1.866   1.196
 2798SOL    HW238889   1.912   1.827   1.077
 2799SOL     OW38890   1.843   3.660   1.027
 2799SOL    HW138891   1.787   3.600   1.076
 2799SOL    HW238892   1.789   3.739   1.016
 2800SOL     OW38893   1.986   5.597   1.118
 2800SOL    HW138894   1.995   5.577   1.211
 2800SOL    HW238895   1.899   5.566   1.094
 2801SOL     OW38896   3.843   1.876   1.101
 2801SOL    HW138897   3.842   1.855   1.194
 2801SOL    HW238898   3.756   1.853   1.070
 2802SOL     OW38899   3.850   3.717   1.134
 2802SOL    HW138900   3.839   3.659   1.209
 2802SOL    HW238901   3.761   3.744   1.111
 2803SOL     OW38902   3.847   5.590   1.123
 2803SOL    HW138903   3.847   5.563   1.215
 2803SOL    HW238904   3.763   5.560   1.089
 2804SOL     OW38905   5.716   1.864   1.123
 2804SOL    HW138906   5.722   1.832   1.213
 2804SOL    HW238907   5.630   1.837   1.093
 2805SOL     OW38908   5.706   3.724   1.111
 2805SOL    HW138909   5.704   3.664   1.186
 2805SOL    HW238910   5.617   3.720   1.076
 2806SOL     OW38911   5.711   5.589   1.113
 2806SOL    HW138912   5.714   5.563   1.205
 2806SOL    HW238913   5.625   5.560   1.082
 2807SOL     OW38914   0.960   0.877   1.114
 2807SOL    HW138915   1.015   0.813   1.070
 2807SOL    HW238916   0.913   0.921   1.043
 2808SOL     OW38917   0.972   2.742   1.113
 2808SOL    HW138918   1.024   2.676   1.068
 2808SOL    HW238919   0.921   2.785   1.044
 2809SOL     OW38920   0.962   4.609   1.120
 2809SOL    HW138921   1.017   4.542   1.079
 2809SOL    HW238922   0.914   4.649   1.048
 2810SOL     OW38923   2.824   0.886   1.124
 2810SOL    HW138924   2.878   0.818   1.084
 2810SOL    HW238925   2.775   0.923   1.051
 2811SOL     OW38926   2.819   2.722   1.119
 2811SOL    HW138927   2.877   2.656   1.081
 2811SOL    HW238928   2.769   2.755   1.044
 2812SOL     OW38929   2.824   4.631   1.118
 2812SOL    HW138930   2.900   4.599   1.070
 2812SOL    HW238931   2.762   4.658   1.050
 2813SOL     OW38932   4.682   0.879   1.130
 2813SOL    HW138933   4.739   0.815   1.088
 2813SOL    HW238934   4.633   0.920   1.059
 2814SOL     OW38935   4.684   2.746   1.128
 2814SOL    HW138936   4.738   2.678   1.088
 2814SOL    HW238937   4.632   2.782   1.056
 2815SOL     OW38938   4.683   4.610   1.131
 2815SOL    HW138939   4.738   4.543   1.090
 2815SOL    HW238940   4.634   4.648   1.058
 2816SOL     OW38941   0.610   0.878  11.742
 2816SOL    HW138942   0.647   0.966  11.743
 2816SOL    HW238943   0.553   0.875  11.819
 2817SOL     OW38944   0.596   2.741  11.733
 2817SOL    HW138945   0.637   2.827  11.739
 2817SOL    HW238946   0.546   2.733  11.814
 2818SOL     OW38947   0.607   4.600  11.742
 2818SOL    HW138948   0.644   4.688  11.745
 2818SOL    HW238949   0.550   4.595  11.819
 2819SOL     OW38950   2.455   0.871  11.738
 2819SOL    HW138951   2.488   0.961  11.737
 2819SOL    HW238952   2.399   0.867  11.815
 2820SOL     OW38953   2.438   2.722  11.740
 2820SOL    HW138954   2.478   2.808  11.750
 2820SOL    HW238955   2.385   2.711  11.819
 2821SOL     OW38956   2.449   4.608  11.747
 2821SOL    HW138957   2.474   4.700  11.747
 2821SOL    HW238958   2.387   4.600  11.820
 2822SOL     OW38959   4.320   0.873  11.737
 2822SOL    HW138960   4.356   0.962  11.741
 2822SOL    HW238961   4.266   0.867  11.816
 2823SOL     OW38962   4.343   2.741  11.753
 2823SOL    HW138963   4.380   2.829  11.759
 2823SOL    HW238964   4.283   2.735  11.828
 2824SOL     OW38965   4.334   4.601  11.744
 2824SOL    HW138966   4.368   4.691  11.743
 2824SOL    HW238967   4.273   4.600  11.817
 2825SOL     OW38968   6.145   0.912  11.744
 2825SOL    HW138969   6.170   1.003  11.757
 2825SOL    HW238970   6.102   0.887  11.826
 2826SOL     OW38971   6.163   2.756  11.751
 2826SOL    HW138972   6.184   2.849  11.757
 2826SOL    HW238973   6.111   2.738  11.829
 2827SOL     OW38974   6.165   4.642  11.753
 2827SOL    HW138975   6.181   4.735  11.771
 2827SOL    HW238976   6.117   4.612  11.830
 2828SOL     OW38977   0.745   1.134  11.757
 2828SOL    HW138978   0.685   1.173  11.821
 2828SOL    HW238979   0.785   1.210  11.714
 2829SOL     OW38980   0.751   2.992  11.769
 2829SOL    HW138981   0.686   3.034  11.825
 2829SOL    HW238982   0.797   3.065  11.728
 2830SOL     OW38983   0.744   4.855  11.762
 2830SOL    HW138984   0.685   4.897  11.825
 2830SOL    HW238985   0.787   4.929  11.718
 2831SOL     OW38986   2.622   1.132  11.777
 2831SOL    HW138987   2.554   1.173  11.831
 2831SOL    HW238988   2.659   1.204  11.727
 2832SOL     OW38989   2.573   2.960  11.787
 2832SOL    HW138990   2.516   2.986  11.860
 2832SOL    HW238991   2.572   3.035  11.728
 2833SOL     OW38992   2.618   4.869  11.771
 2833SOL    HW138993   2.552   4.907  11.827
 2833SOL    HW238994   2.657   4.943  11.725
 2834SOL     OW38995   4.474   1.136  11.754
 2834SOL    HW138996   4.414   1.182  11.813
 2834SOL    HW238997   4.517   1.206  11.704
 2835SOL     OW38998   4.469   2.993  11.763
 2835SOL    HW138999   4.406   3.036  11.821
 2835SOL    HW239000   4.520   3.064  11.726
 2836SOL     OW39001   4.467   4.854  11.755
 2836SOL    HW139002   4.406   4.899  11.812
 2836SOL    HW239003   4.508   4.924  11.704
 2837SOL     OW39004   0.083   1.172  11.760
 2837SOL    HW139005   0.065   1.210  11.846
 2837SOL    HW239006   0.033   1.228  11.699
 2838SOL     OW39007   0.036   3.045  11.754
 2838SOL    HW139008   0.036   3.079  11.844
 2838SOL    HW239009   6.418   3.095  11.710
 2839SOL     OW39010   0.073   4.894  11.761
 2839SOL    HW139011   0.063   4.926  11.851
 2839SOL    HW239012   0.024   4.957  11.708
 2840SOL     OW39013   1.957   1.279  11.701
 2840SOL    HW139014   1.939   1.286  11.795
 2840SOL    HW239015   1.899   1.209  11.671
 2841SOL     OW39016   1.967   3.102  11.724
 2841SOL    HW139017   1.937   3.124  11.812
 2841SOL    HW239018   1.894   3.054  11.685
 2842SOL     OW39019   1.977   4.978  11.713
 2842SOL    HW139020   1.955   4.999  11.803
 2842SOL    HW239021   1.904   4.925  11.681
 2843SOL     OW39022   3.833   1.271  11.715
 2843SOL    HW139023   3.806   1.283  11.806
 2843SOL    HW239024   3.767   1.214  11.677
 2844SOL     OW39025   3.841   3.120  11.734
 2844SOL    HW139026   3.804   3.131  11.821
 2844SOL    HW239027   3.771   3.079  11.683
 2845SOL     OW39028   3.824   4.969  11.730
 2845SOL    HW139029   3.792   4.990  11.817
 2845SOL    HW239030   3.753   4.919  11.690
 2846SOL     OW39031   5.696   1.262  11.711
 2846SOL    HW139032   5.676   1.279  11.803
 2846SOL    HW239033   5.628   1.200  11.683
 2847SOL     OW39034   5.700   3.122  11.714
 2847SOL    HW139035   5.670   3.137  11.804
 2847SOL    HW239036   5.634   3.063  11.677
 2848SOL     OW39037   5.695   4.984  11.709
 2848SOL    HW139038   5.674   5.001  11.801
 2848SOL    HW239039   5.630   4.919  11.681
 2849SOL     OW39040   1.755   1.240   1.075
 2849SOL    HW139041   1.843   1.204   1.063
 2849SOL    HW239042   1.770   1.328   1.110
 2850SOL     OW39043   1.744   3.085   1.081
 2850SOL    HW139044   1.834   3.054   1.069
 2850SOL    HW239045   1.753   3.170   1.122
 2851SOL     OW39046   1.748   4.970   1.075
 2851SOL    HW139047   1.836   4.934   1.064
 2851SOL    HW239048   1.762   5.057   1.112
 2852SOL     OW39049   3.619   1.243   1.075
 2852SOL    HW139050   3.706   1.207   1.060
 2852SOL    HW239051   3.635   1.331   1.108
 2853SOL     OW39052   3.630   3.099   1.067
 2853SOL    HW139053   3.716   3.061   1.049
 2853SOL    HW239054   3.648   3.180   1.114
 2854SOL     OW39055   3.623   4.968   1.077
 2854SOL    HW139056   3.712   4.933   1.064
 2854SOL    HW239057   3.637   5.054   1.115
 2855SOL     OW39058   5.479   1.240   1.072
 2855SOL    HW139059   5.566   1.205   1.055
 2855SOL    HW239060   5.493   1.328   1.106
 2856SOL     OW39061   5.475   3.106   1.084
 2856SOL    HW139062   5.561   3.063   1.082
 2856SOL    HW239063   5.494   3.196   1.109
 2857SOL     OW39064   5.476   4.967   1.076
 2857SOL    HW139065   5.564   4.932   1.061
 2857SOL    HW239066   5.490   5.055   1.111
 2858SOL     OW39067   0.163   0.756   1.117
 2858SOL    HW139068   0.259   0.757   1.115
 2858SOL    HW239069   0.138   0.848   1.127
 2859SOL     OW39070   0.174   2.612   1.107
 2859SOL    HW139071   0.270   2.622   1.109
 2859SOL    HW239072   0.141   2.700   1.126
 2860SOL     OW39073   0.171   4.476   1.106
 2860SOL    HW139074   0.266   4.483   1.108
 2860SOL    HW239075   0.140   4.564   1.130
 2861SOL     OW39076   0.124   6.346   1.104
 2861SOL    HW139077   0.138   6.404   1.179
 2861SOL    HW239078   0.092   6.404   1.035
 2862SOL     OW39079   2.002   0.751   1.112
 2862SOL    HW139080   2.090   0.788   1.119
 2862SOL    HW239081   1.944   0.827   1.109
 2863SOL     OW39082   1.996   2.597   1.111
 2863SOL    HW139083   2.084   2.635   1.106
 2863SOL    HW239084   1.938   2.670   1.090
 2864SOL     OW39085   1.970   4.470   1.121
 2864SOL    HW139086   2.058   4.507   1.116
 2864SOL    HW239087   1.911   4.543   1.104
 2865SOL     OW39088   2.032   6.336   1.098
 2865SOL    HW139089   2.122   6.361   1.079
 2865SOL    HW239090   1.993   6.413   1.138
 2866SOL     OW39091   3.863   0.757   1.104
 2866SOL    HW139092   3.951   0.795   1.113
 2866SOL    HW239093   3.805   0.833   1.097
 2867SOL     OW39094   3.856   2.596   1.114
 2867SOL    HW139095   3.950   2.613   1.124
 2867SOL    HW239096   3.816   2.683   1.117
 2868SOL     OW39097   3.889   4.484   1.109
 2868SOL    HW139098   3.984   4.497   1.115
 2868SOL    HW239099   3.851   4.562   1.148
 2869SOL     OW39100   3.873   6.305   1.124
 2869SOL    HW139101   3.968   6.321   1.118
 2869SOL    HW239102   3.837   6.385   1.161
 2870SOL     OW39103   5.719   0.752   1.102
 2870SOL    HW139104   5.804   0.796   1.100
 2870SOL    HW239105   5.656   0.822   1.088
 2871SOL     OW39106   5.715   2.595   1.115
 2871SOL    HW139107   5.801   2.635   1.122
 2871SOL    HW239108   5.655   2.670   1.105
 2872SOL     OW39109   5.726   4.467   1.111
 2872SOL    HW139110   5.816   4.499   1.117
 2872SOL    HW239111   5.673   4.547   1.105
 2873SOL     OW39112   5.740   6.329   1.085
 2873SOL    HW139113   5.824   6.372   1.069
 2873SOL    HW239114   5.690   6.393   1.135
 2874SOL     OW39115   0.445   0.722   1.138
 2874SOL    HW139116   0.503   0.771   1.080
 2874SOL    HW239117   0.496   0.646   1.165
 2875SOL     OW39118   0.449   2.605   1.159
 2875SOL    HW139119   0.507   2.647   1.095
 2875SOL    HW239120   0.497   2.527   1.187
 2876SOL     OW39121   0.451   4.450   1.149
 2876SOL    HW139122   0.507   4.497   1.087
 2876SOL    HW239123   0.505   4.377   1.179
 2877SOL     OW39124   2.305   0.731   1.138
 2877SOL    HW139125   2.366   0.773   1.078
 2877SOL    HW239126   2.346   0.647   1.160
 2878SOL     OW39127   2.288   2.602   1.137
 2878SOL    HW139128   2.356   2.640   1.081
 2878SOL    HW239129   2.320   2.514   1.157
 2879SOL     OW39130   2.243   4.531   1.119
 2879SOL    HW139131   2.311   4.577   1.070
 2879SOL    HW239132   2.290   4.460   1.164
 2880SOL     OW39133   4.159   0.754   1.145
 2880SOL    HW139134   4.223   0.793   1.085
 2880SOL    HW239135   4.195   0.668   1.166
 2881SOL     OW39136   4.133   2.613   1.131
 2881SOL    HW139137   4.202   2.659   1.085
 2881SOL    HW239138   4.173   2.530   1.159
 2882SOL     OW39139   4.166   4.474   1.149
 2882SOL    HW139140   4.226   4.513   1.085
 2882SOL    HW239141   4.214   4.398   1.182
 2883SOL     OW39142   6.018   0.744   1.147
 2883SOL    HW139143   6.082   0.777   1.084
 2883SOL    HW239144   6.047   0.656   1.167
 2884SOL     OW39145   6.011   2.607   1.142
 2884SOL    HW139146   6.080   2.638   1.083
 2884SOL    HW239147   6.026   2.512   1.148
 2885SOL     OW39148   6.018   4.463   1.149
 2885SOL    HW139149   6.080   4.502   1.087
 2885SOL    HW239150   6.055   4.377   1.168
 2886SOL     OW39151   0.346   0.516  11.728
 2886SOL    HW139152   0.297   0.438  11.704
 2886SOL    HW239153   0.421   0.516  11.668
 2887SOL     OW39154   0.339   2.370  11.730
 2887SOL    HW139155   0.289   2.295  11.697
 2887SOL    HW239156   0.416   2.375  11.673
 2888SOL     OW39157   0.352   4.233  11.731
 2888SOL    HW139158   0.306   4.154  11.705
 2888SOL    HW239159   0.426   4.239  11.670
 2889SOL     OW39160   0.351   6.103  11.727
 2889SOL    HW139161   0.274   6.087  11.672
 2889SOL    HW239162   0.425   6.072  11.675
 2890SOL     OW39163   2.185   0.530  11.715
 2890SOL    HW139164   2.145   0.443  11.705
 2890SOL    HW239165   2.263   0.527  11.660
 2891SOL     OW39166   2.205   2.393  11.720
 2891SOL    HW139167   2.161   2.308  11.714
 2891SOL    HW239168   2.279   2.385  11.660
 2892SOL     OW39169   2.228   4.259  11.740
 2892SOL    HW139170   2.172   4.187  11.714
 2892SOL    HW239171   2.296   4.263  11.673
 2893SOL     OW39172   2.188   6.114  11.726
 2893SOL    HW139173   2.151   6.027  11.711
 2893SOL    HW239174   2.273   6.112  11.682
 2894SOL     OW39175   4.046   0.536  11.718
 2894SOL    HW139176   4.005   0.449  11.715
 2894SOL    HW239177   4.122   0.528  11.661
 2895SOL     OW39178   4.072   2.396  11.717
 2895SOL    HW139179   4.025   2.313  11.714
 2895SOL    HW239180   4.142   2.387  11.653
 2896SOL     OW39181   4.053   4.245  11.723
 2896SOL    HW139182   4.022   4.156  11.705
 2896SOL    HW239183   4.131   4.255  11.668
 2897SOL     OW39184   4.054   6.119  11.708
 2897SOL    HW139185   4.015   6.032  11.699
 2897SOL    HW239186   4.137   6.113  11.662
 2898SOL     OW39187   5.916   0.535  11.707
 2898SOL    HW139188   5.875   0.449  11.701
 2898SOL    HW239189   5.997   0.527  11.657
 2899SOL     OW39190   5.917   2.398  11.702
 2899SOL    HW139191   5.879   2.310  11.704
 2899SOL    HW239192   5.998   2.388  11.651
 2900SOL     OW39193   5.932   4.265  11.697
 2900SOL    HW139194   5.892   4.178  11.696
 2900SOL    HW239195   6.008   4.256  11.640
 2901SOL     OW39196   5.938   6.117  11.705
 2901SOL    HW139197   5.895   6.032  11.699
 2901SOL    HW239198   6.015   6.109  11.649
 2902SOL     OW39199   1.858   1.493   1.135
 2902SOL    HW139200   1.883   1.524   1.048
 2902SOL    HW239201   1.936   1.507   1.189
 2903SOL     OW39202   1.814   3.341   1.149
 2903SOL    HW139203   1.838   3.357   1.058
 2903SOL    HW239204   1.898   3.342   1.196
 2904SOL     OW39205   1.857   5.220   1.135
 2904SOL    HW139206   1.883   5.251   1.049
 2904SOL    HW239207   1.935   5.231   1.189
 2905SOL     OW39208   3.719   1.496   1.128
 2905SOL    HW139209   3.744   1.524   1.040
 2905SOL    HW239210   3.798   1.512   1.181
 2906SOL     OW39211   3.738   3.335   1.163
 2906SOL    HW139212   3.763   3.371   1.078
 2906SOL    HW239213   3.814   3.352   1.220
 2907SOL     OW39214   3.725   5.218   1.138
 2907SOL    HW139215   3.751   5.249   1.052
 2907SOL    HW239216   3.805   5.225   1.191
 2908SOL     OW39217   5.587   1.490   1.130
 2908SOL    HW139218   5.608   1.520   1.042
 2908SOL    HW239219   5.670   1.497   1.178
 2909SOL     OW39220   5.580   3.357   1.130
 2909SOL    HW139221   5.611   3.384   1.044
 2909SOL    HW239222   5.652   3.378   1.189
 2910SOL     OW39223   5.580   5.220   1.131
 2910SOL    HW139224   5.605   5.248   1.043
 2910SOL    HW239225   5.660   5.228   1.183
 2911SOL     OW39226   0.227   0.272  11.678
 2911SOL    HW139227   0.255   0.253  11.767
 2911SOL    HW239228   0.153   0.214  11.663
 2912SOL     OW39229   0.230   2.110  11.693
 2912SOL    HW139230   0.265   2.095  11.781
 2912SOL    HW239231   0.164   2.042  11.682
 2913SOL     OW39232   0.230   3.990  11.690
 2913SOL    HW139233   0.263   3.966  11.776
 2913SOL    HW239234   0.148   3.942  11.680
 2914SOL     OW39235   0.202   5.820  11.691
 2914SOL    HW139236   0.245   5.821  11.777
 2914SOL    HW239237   0.144   5.743  11.694
 2915SOL     OW39238   2.092   0.280  11.698
 2915SOL    HW139239   2.126   0.248  11.781
 2915SOL    HW239240   2.010   0.232  11.685
 2916SOL     OW39241   2.079   2.159  11.726
 2916SOL    HW139242   2.110   2.117  11.807
 2916SOL    HW239243   1.995   2.118  11.709
 2917SOL     OW39244   2.050   4.051  11.740
 2917SOL    HW139245   2.065   4.006  11.823
 2917SOL    HW239246   1.984   3.999  11.695
 2918SOL     OW39247   2.093   5.863  11.705
 2918SOL    HW139248   2.118   5.829  11.790
 2918SOL    HW239249   2.003   5.831  11.692
 2919SOL     OW39250   3.941   0.289  11.724
 2919SOL    HW139251   3.977   0.255  11.805
 2919SOL    HW239252   3.858   0.243  11.713
 2920SOL     OW39253   3.933   2.166  11.740
 2920SOL    HW139254   3.969   2.123  11.817
 2920SOL    HW239255   3.852   2.117  11.720
 2921SOL     OW39256   3.950   3.993  11.704
 2921SOL    HW139257   3.985   3.962  11.787
 2921SOL    HW239258   3.860   3.960  11.702
 2922SOL     OW39259   3.953   5.871  11.703
 2922SOL    HW139260   3.982   5.835  11.786
 2922SOL    HW239261   3.864   5.837  11.691
 2923SOL     OW39262   5.802   0.293  11.703
 2923SOL    HW139263   5.841   0.259  11.784
 2923SOL    HW239264   5.723   0.240  11.691
 2924SOL     OW39265   5.822   2.146  11.701
 2924SOL    HW139266   5.851   2.111  11.785
 2924SOL    HW239267   5.734   2.112  11.689
 2925SOL     OW39268   5.822   4.019  11.701
 2925SOL    HW139269   5.850   3.982  11.784
 2925SOL    HW239270   5.734   3.982  11.687
 2926SOL     OW39271   5.819   5.880  11.716
 2926SOL    HW139272   5.841   5.836  11.798
 2926SOL    HW239273   5.734   5.844  11.690
 2927SOL     OW39274   1.203   1.821   1.157
 2927SOL    HW139275   1.203   1.876   1.079
 2927SOL    HW239276   1.219   1.732   1.123
 2928SOL     OW39277   1.205   3.685   1.162
 2928SOL    HW139278   1.199   3.745   1.087
 2928SOL    HW239279   1.216   3.599   1.122
 2929SOL     OW39280   1.208   5.535   1.155
 2929SOL    HW139281   1.207   5.598   1.083
 2929SOL    HW239282   1.223   5.451   1.113
 2930SOL     OW39283   3.286   3.675   1.124
 2930SOL    HW139284   3.205   3.699   1.169
 2930SOL    HW239285   3.301   3.584   1.147
 2931SOL     OW39286   3.045   5.544   1.165
 2931SOL    HW139287   3.054   5.609   1.096
 2931SOL    HW239288   3.074   5.462   1.125
 2932SOL     OW39289   4.909   1.815   1.161
 2932SOL    HW139290   4.917   1.882   1.092
 2932SOL    HW239291   4.932   1.733   1.118
 2933SOL     OW39292   4.914   3.671   1.157
 2933SOL    HW139293   4.921   3.737   1.088
 2933SOL    HW239294   4.934   3.588   1.113
 2934SOL     OW39295   4.922   5.531   1.161
 2934SOL    HW139296   4.922   5.600   1.095
 2934SOL    HW239297   4.939   5.451   1.112
 2935SOL     OW39298   1.492   0.608  11.666
 2935SOL    HW139299   1.423   0.542  11.673
 2935SOL    HW239300   1.543   0.599  11.746
 2936SOL     OW39301   1.474   2.477  11.663
 2936SOL    HW139302   1.413   2.403  11.660
 2936SOL    HW239303   1.524   2.463  11.744
 2937SOL     OW39304   1.461   4.351  11.684
 2937SOL    HW139305   1.425   4.264  11.670
 2937SOL    HW239306   1.527   4.340  11.753
 2938SOL     OW39307   1.443   6.199  11.705
 2938SOL    HW139308   1.394   6.118  11.691
 2938SOL    HW239309   1.511   6.176  11.768
 2939SOL     OW39310   3.323   0.615  11.670
 2939SOL    HW139311   3.266   0.538  11.672
 2939SOL    HW239312   3.382   0.603  11.745
 2940SOL     OW39313   3.329   2.453  11.669
 2940SOL    HW139314   3.267   2.381  11.681
 2940SOL    HW239315   3.387   2.448  11.745
 2941SOL     OW39316   3.361   4.285  11.703
 2941SOL    HW139317   3.278   4.243  11.680
 2941SOL    HW239318   3.370   4.357  11.641
 2942SOL     OW39319   3.313   6.189  11.697
 2942SOL    HW139320   3.260   6.109  11.694
 2942SOL    HW239321   3.379   6.172  11.764
 2943SOL     OW39322   5.198   0.612  11.675
 2943SOL    HW139323   5.140   0.537  11.668
 2943SOL    HW239324   5.250   0.595  11.753
 2944SOL     OW39325   5.187   2.485  11.690
 2944SOL    HW139326   5.142   2.401  11.681
 2944SOL    HW239327   5.253   2.469  11.758
 2945SOL     OW39328   5.175   4.343  11.689
 2945SOL    HW139329   5.124   4.262  11.680
 2945SOL    HW239330   5.236   4.325  11.761
 2946SOL     OW39331   5.170   6.198  11.700
 2946SOL    HW139332   5.118   6.118  11.697
 2946SOL    HW239333   5.239   6.180  11.765
 2947SOL     OW39334   0.704   1.408   1.161
 2947SOL    HW139335   0.626   1.367   1.200
 2947SOL    HW239336   0.697   1.500   1.186
 2948SOL     OW39337   0.698   3.276   1.158
 2948SOL    HW139338   0.617   3.237   1.189
 2948SOL    HW239339   0.694   3.367   1.187
 2949SOL     OW39340   0.661   5.091   1.172
 2949SOL    HW139341   0.576   5.077   1.130
 2949SOL    HW239342   0.664   5.186   1.186
 2950SOL     OW39343   2.576   1.413   1.160
 2950SOL    HW139344   2.500   1.368   1.198
 2950SOL    HW239345   2.566   1.504   1.187
 2951SOL     OW39346   2.485   3.255   1.315
 2951SOL    HW139347   2.431   3.177   1.305
 2951SOL    HW239348   2.469   3.305   1.235
 2952SOL     OW39349   2.566   5.128   1.175
 2952SOL    HW139350   2.483   5.083   1.190
 2952SOL    HW239351   2.551   5.218   1.206
 2953SOL     OW39352   4.415   1.406   1.149
 2953SOL    HW139353   4.333   1.376   1.189
 2953SOL    HW239354   4.422   1.498   1.174
 2954SOL     OW39355   4.400   3.276   1.132
 2954SOL    HW139356   4.338   3.232   1.189
 2954SOL    HW239357   4.407   3.365   1.168
 2955SOL     OW39358   4.392   5.137   1.139
 2955SOL    HW139359   4.305   5.108   1.165
 2955SOL    HW239360   4.405   5.219   1.188
 2956SOL     OW39361   6.302   1.403   1.227
 2956SOL    HW139362   6.226   1.387   1.171
 2956SOL    HW239363   6.312   1.498   1.227
 2957SOL     OW39364   6.335   3.264   1.252
 2957SOL    HW139365   6.247   3.232   1.229
 2957SOL    HW239366   6.329   3.359   1.242
 2958SOL     OW39367   6.302   5.118   1.211
 2958SOL    HW139368   6.210   5.095   1.220
 2958SOL    HW239369   6.304   5.213   1.215
 2959SOL     OW39370   1.622   1.629   1.189
 2959SOL    HW139371   1.616   1.663   1.100
 2959SOL    HW239372   1.700   1.574   1.188
 2960SOL     OW39373   1.622   3.530   1.167
 2960SOL    HW139374   1.581   3.527   1.081
 2960SOL    HW239375   1.675   3.451   1.172
 2961SOL     OW39376   1.615   5.347   1.187
 2961SOL    HW139377   1.613   5.385   1.099
 2961SOL    HW239378   1.696   5.296   1.190
 2962SOL     OW39379   3.479   1.625   1.173
 2962SOL    HW139380   3.475   1.667   1.087
 2962SOL    HW239381   3.562   1.577   1.172
 2963SOL     OW39382   3.481   3.416   1.216
 2963SOL    HW139383   3.492   3.461   1.132
 2963SOL    HW239384   3.565   3.373   1.231
 2964SOL     OW39385   3.486   5.355   1.185
 2964SOL    HW139386   3.481   5.389   1.096
 2964SOL    HW239387   3.564   5.299   1.186
 2965SOL     OW39388   5.355   1.628   1.190
 2965SOL    HW139389   5.344   1.664   1.102
 2965SOL    HW239390   5.432   1.572   1.183
 2966SOL     OW39391   5.359   3.513   1.178
 2966SOL    HW139392   5.347   3.538   1.087
 2966SOL    HW239393   5.429   3.447   1.176
 2967SOL     OW39394   5.339   5.350   1.189
 2967SOL    HW139395   5.336   5.388   1.101
 2967SOL    HW239396   5.420   5.300   1.191
 2968SOL     OW39397   1.478   1.185   1.144
 2968SOL    HW139398   1.457   1.194   1.237
 2968SOL    HW239399   1.570   1.210   1.138
 2969SOL     OW39400   1.476   3.058   1.154
 2969SOL    HW139401   1.462   3.115   1.230
 2969SOL    HW239402   1.570   3.064   1.138
 2970SOL     OW39403   1.480   4.913   1.153
 2970SOL    HW139404   1.468   4.934   1.245
 2970SOL    HW239405   1.571   4.938   1.135
 2971SOL     OW39406   3.350   1.200   1.148
 2971SOL    HW139407   3.334   1.269   1.213
 2971SOL    HW239408   3.443   1.210   1.125
 2972SOL     OW39409   3.374   3.027   1.130
 2972SOL    HW139410   3.361   3.055   1.221
 2972SOL    HW239411   3.462   3.056   1.108
 2973SOL     OW39412   3.349   4.938   1.152
 2973SOL    HW139413   3.337   4.949   1.246
 2973SOL    HW239414   3.443   4.948   1.138
 2974SOL     OW39415   5.204   1.192   1.152
 2974SOL    HW139416   5.195   1.206   1.246
 2974SOL    HW239417   5.296   1.212   1.133
 2975SOL     OW39418   5.204   3.058   1.149
 2975SOL    HW139419   5.189   3.080   1.241
 2975SOL    HW239420   5.296   3.079   1.133
 2976SOL     OW39421   5.206   4.921   1.165
 2976SOL    HW139422   5.208   4.931   1.260
 2976SOL    HW239423   5.296   4.939   1.137
 2977SOL     OW39424   1.026   0.244  11.697
 2977SOL    HW139425   0.999   0.204  11.614
 2977SOL    HW239426   1.026   0.171  11.760
 2978SOL     OW39427   1.043   2.114  11.682
 2978SOL    HW139428   1.024   2.072  11.598
 2978SOL    HW239429   1.042   2.042  11.745
 2979SOL     OW39430   1.037   3.968  11.674
 2979SOL    HW139431   1.039   3.923  11.589
 2979SOL    HW239432   1.030   3.898  11.738
 2980SOL     OW39433   1.028   5.835  11.680
 2980SOL    HW139434   1.000   5.790  11.600
 2980SOL    HW239435   1.031   5.766  11.746
 2981SOL     OW39436   2.888   0.243  11.679
 2981SOL    HW139437   2.866   0.199  11.596
 2981SOL    HW239438   2.886   0.173  11.744
 2982SOL     OW39439   2.897   2.107  11.679
 2982SOL    HW139440   2.896   2.062  11.595
 2982SOL    HW239441   2.892   2.037  11.744
 2983SOL     OW39442   2.872   4.107  11.549
 2983SOL    HW139443   2.852   4.051  11.473
 2983SOL    HW239444   2.817   4.073  11.619
 2984SOL     OW39445   2.903   5.836  11.682
 2984SOL    HW139446   2.891   5.787  11.601
 2984SOL    HW239447   2.901   5.769  11.751
 2985SOL     OW39448   4.755   0.256  11.694
 2985SOL    HW139449   4.730   0.206  11.616
 2985SOL    HW239450   4.760   0.191  11.764
 2986SOL     OW39451   4.767   2.104  11.691
 2986SOL    HW139452   4.766   2.066  11.603
 2986SOL    HW239453   4.761   2.029  11.750
 2987SOL     OW39454   4.761   3.976  11.680
 2987SOL    HW139455   4.758   3.931  11.595
 2987SOL    HW239456   4.760   3.906  11.745
 2988SOL     OW39457   4.767   5.837  11.693
 2988SOL    HW139458   4.756   5.793  11.609
 2988SOL    HW239459   4.763   5.767  11.758
 2989SOL     OW39460   1.758   0.365   1.199
 2989SOL    HW139461   1.749   0.403   1.112
 2989SOL    HW239462   1.749   0.271   1.185
 2990SOL     OW39463   1.769   2.198   1.187
 2990SOL    HW139464   1.757   2.222   1.095
 2990SOL    HW239465   1.694   2.141   1.207
 2991SOL     OW39466   1.705   4.125   1.144
 2991SOL    HW139467   1.692   4.137   1.050
 2991SOL    HW239468   1.638   4.062   1.170
 2992SOL     OW39469   1.743   5.938   1.196
 2992SOL    HW139470   1.738   5.951   1.101
 2992SOL    HW239471   1.666   5.884   1.216
 2993SOL     OW39472   3.642   0.360   1.168
 2993SOL    HW139473   3.622   0.394   1.081
 2993SOL    HW239474   3.624   0.267   1.163
 2994SOL     OW39475   3.644   2.226   1.185
 2994SOL    HW139476   3.624   2.243   1.092
 2994SOL    HW239477   3.575   2.168   1.215
 2995SOL     OW39478   3.635   4.108   1.164
 2995SOL    HW139479   3.597   4.131   1.079
 2995SOL    HW239480   3.575   4.042   1.199
 2996SOL     OW39481   3.627   5.959   1.178
 2996SOL    HW139482   3.612   5.966   1.084
 2996SOL    HW239483   3.567   5.890   1.207
 2997SOL     OW39484   5.479   0.379   1.196
 2997SOL    HW139485   5.472   0.400   1.103
 2997SOL    HW239486   5.443   0.291   1.204
 2998SOL     OW39487   5.484   2.224   1.182
 2998SOL    HW139488   5.472   2.240   1.088
 2998SOL    HW239489   5.417   2.161   1.205
 2999SOL     OW39490   5.482   4.079   1.178
 2999SOL    HW139491   5.476   4.093   1.083
 2999SOL    HW239492   5.407   4.022   1.198
 3000SOL     OW39493   5.458   5.966   1.190
 3000SOL    HW139494   5.457   5.975   1.094
 3000SOL    HW239495   5.396   5.896   1.208
 3001SOL     OW39496   1.023   0.762  11.667
 3001SOL    HW139497   1.011   0.774  11.761
 3001SOL    HW239498   0.996   0.671  11.651
 3002SOL     OW39499   1.064   2.615  11.681
 3002SOL    HW139500   1.041   2.631  11.773
 3002SOL    HW239501   1.038   2.525  11.665
 3003SOL     OW39502   1.054   4.499  11.673
 3003SOL    HW139503   1.029   4.501  11.765
 3003SOL    HW239504   1.033   4.411  11.644
 3004SOL     OW39505   2.923   0.749  11.687
 3004SOL    HW139506   2.896   0.764  11.778
 3004SOL    HW239507   2.891   0.660  11.667
 3005SOL     OW39508   2.940   2.600  11.669
 3005SOL    HW139509   2.916   2.622  11.760
 3005SOL    HW239510   2.903   2.513  11.655
 3006SOL     OW39511   2.951   4.506  11.659
 3006SOL    HW139512   2.914   4.526  11.745
 3006SOL    HW239513   2.887   4.445  11.619
 3007SOL     OW39514   4.776   0.767  11.679
 3007SOL    HW139515   4.753   0.782  11.771
 3007SOL    HW239516   4.751   0.677  11.662
 3008SOL     OW39517   4.775   2.627  11.675
 3008SOL    HW139518   4.756   2.647  11.767
 3008SOL    HW239519   4.753   2.534  11.666
 3009SOL     OW39520   4.785   4.487  11.678
 3009SOL    HW139521   4.762   4.501  11.770
 3009SOL    HW239522   4.762   4.395  11.662
 3010SOL     OW39523   1.868   0.125  11.687
 3010SOL    HW139524   1.913   0.052  11.645
 3010SOL    HW239525   1.788   0.136  11.636
 3011SOL     OW39526   1.851   2.026  11.675
 3011SOL    HW139527   1.882   1.939  11.648
 3011SOL    HW239528   1.768   2.037  11.630
 3012SOL     OW39529   1.846   3.887  11.663
 3012SOL    HW139530   1.875   3.799  11.641
 3012SOL    HW239531   1.759   3.895  11.624
 3013SOL     OW39532   1.849   5.747  11.673
 3013SOL    HW139533   1.879   5.660  11.646
 3013SOL    HW239534   1.764   5.758  11.630
 3014SOL     OW39535   3.717   0.132  11.685
 3014SOL    HW139536   3.761   0.078  11.620
 3014SOL    HW239537   3.638   0.163  11.642
 3015SOL     OW39538   3.715   2.019  11.676
 3015SOL    HW139539   3.750   1.934  11.651
 3015SOL    HW239540   3.631   2.025  11.630
 3016SOL     OW39541   3.692   3.885  11.668
 3016SOL    HW139542   3.734   3.804  11.642
 3016SOL    HW239543   3.645   3.914  11.590
 3017SOL     OW39544   3.711   5.752  11.671
 3017SOL    HW139545   3.746   5.666  11.648
 3017SOL    HW239546   3.625   5.754  11.629
 3018SOL     OW39547   5.584   0.125  11.681
 3018SOL    HW139548   5.616   0.054  11.625
 3018SOL    HW239549   5.501   0.151  11.640
 3019SOL     OW39550   5.581   2.028  11.664
 3019SOL    HW139551   5.609   1.939  11.645
 3019SOL    HW239552   5.492   2.033  11.631
 3020SOL     OW39553   5.585   3.889  11.670
 3020SOL    HW139554   5.616   3.802  11.643
 3020SOL    HW239555   5.499   3.897  11.630
 3021SOL     OW39556   5.577   5.757  11.670
 3021SOL    HW139557   5.606   5.669  11.646
 3021SOL    HW239558   5.490   5.765  11.631
 3022SOL     OW39559   1.496   1.790  11.682
 3022SOL    HW139560   1.517   1.869  11.632
 3022SOL    HW239561   1.581   1.755  11.708
 3023SOL     OW39562   1.500   3.656  11.698
 3023SOL    HW139563   1.522   3.731  11.642
 3023SOL    HW239564   1.583   3.628  11.735
 3024SOL     OW39565   1.502   5.516  11.684
 3024SOL    HW139566   1.522   5.593  11.632
 3024SOL    HW239567   1.586   5.489  11.721
 3025SOL     OW39568   3.361   1.798  11.698
 3025SOL    HW139569   3.386   1.867  11.637
 3025SOL    HW239570   3.443   1.754  11.720
 3026SOL     OW39571   3.406   3.589  11.652
 3026SOL    HW139572   3.426   3.629  11.568
 3026SOL    HW239573   3.491   3.587  11.698
 3027SOL     OW39574   3.363   5.515  11.694
 3027SOL    HW139575   3.386   5.590  11.639
 3027SOL    HW239576   3.447   5.479  11.722
 3028SOL     OW39577   5.222   1.791  11.695
 3028SOL    HW139578   5.243   1.866  11.639
 3028SOL    HW239579   5.306   1.760  11.726
 3029SOL     OW39580   5.222   3.667  11.698
 3029SOL    HW139581   5.250   3.741  11.645
 3029SOL    HW239582   5.303   3.618  11.715
 3030SOL     OW39583   5.226   5.511  11.683
 3030SOL    HW139584   5.248   5.592  11.637
 3030SOL    HW239585   5.308   5.485  11.725
 3031SOL     OW39586   1.493   1.404  11.667
 3031SOL    HW139587   1.426   1.425  11.733
 3031SOL    HW239588   1.474   1.314  11.641
 3032SOL     OW39589   0.685   1.789  11.652
 3032SOL    HW139590   0.657   1.877  11.625
 3032SOL    HW239591   0.779   1.787  11.632
 3033SOL     OW39592   1.477   3.273  11.651
 3033SOL    HW139593   1.412   3.289  11.719
 3033SOL    HW239594   1.461   3.183  11.623
 3034SOL     OW39595   0.686   3.644  11.641
 3034SOL    HW139596   0.666   3.737  11.625
 3034SOL    HW239597   0.781   3.640  11.639
 3035SOL     OW39598   1.478   5.141  11.654
 3035SOL    HW139599   1.415   5.157  11.724
 3035SOL    HW239600   1.467   5.049  11.632
 3036SOL     OW39601   0.692   5.507  11.605
 3036SOL    HW139602   0.660   5.597  11.606
 3036SOL    HW239603   0.785   5.514  11.625
 3037SOL     OW39604   3.350   1.409  11.655
 3037SOL    HW139605   3.283   1.430  11.719
 3037SOL    HW239606   3.332   1.318  11.630
 3038SOL     OW39607   2.542   1.774  11.647
 3038SOL    HW139608   2.520   1.864  11.626
 3038SOL    HW239609   2.636   1.768  11.632
 3039SOL     OW39610   3.334   3.254  11.650
 3039SOL    HW139611   3.260   3.245  11.709
 3039SOL    HW239612   3.349   3.165  11.616
 3040SOL     OW39613   2.387   3.617  11.825
 3040SOL    HW139614   2.357   3.687  11.766
 3040SOL    HW239615   2.386   3.657  11.912
 3041SOL     OW39616   3.334   5.129  11.689
 3041SOL    HW139617   3.265   5.147  11.753
 3041SOL    HW239618   3.316   5.041  11.659
 3042SOL     OW39619   2.528   5.502  11.636
 3042SOL    HW139620   2.499   5.592  11.624
 3042SOL    HW239621   2.624   5.508  11.638
 3043SOL     OW39622   5.215   1.406  11.669
 3043SOL    HW139623   5.145   1.427  11.731
 3043SOL    HW239624   5.196   1.316  11.642
 3044SOL     OW39625   4.399   1.779  11.629
 3044SOL    HW139626   4.369   1.869  11.618
 3044SOL    HW239627   4.494   1.783  11.616
 3045SOL     OW39628   5.209   3.271  11.645
 3045SOL    HW139629   5.146   3.291  11.713
 3045SOL    HW239630   5.190   3.181  11.620
 3046SOL     OW39631   4.400   3.637  11.640
 3046SOL    HW139632   4.378   3.729  11.624
 3046SOL    HW239633   4.495   3.634  11.636
 3047SOL     OW39634   5.197   5.142  11.662
 3047SOL    HW139635   5.134   5.158  11.732
 3047SOL    HW239636   5.185   5.050  11.640
 3048SOL     OW39637   4.400   5.501  11.622
 3048SOL    HW139638   4.373   5.593  11.617
 3048SOL    HW239639   4.496   5.504  11.616
 3049SOL     OW39640   6.265   1.794  11.656
 3049SOL    HW139641   6.239   1.881  11.628
 3049SOL    HW239642   6.360   1.795  11.654
 3050SOL     OW39643   6.269   3.656  11.644
 3050SOL    HW139644   6.239   3.746  11.626
 3050SOL    HW239645   6.364   3.663  11.652
 3051SOL     OW39646   6.269   5.511  11.631
 3051SOL    HW139647   6.235   5.599  11.614
 3051SOL    HW239648   6.362   5.525  11.651
 3052SOL     OW39649   1.396   0.919   1.180
 3052SOL    HW139650   1.408   1.014   1.177
 3052SOL    HW239651   1.391   0.892   1.089
 3053SOL     OW39652   1.419   2.787   1.182
 3053SOL    HW139653   1.425   2.883   1.182
 3053SOL    HW239654   1.403   2.763   1.091
 3054SOL     OW39655   1.396   4.652   1.181
 3054SOL    HW139656   1.413   4.746   1.175
 3054SOL    HW239657   1.389   4.623   1.089
 3055SOL     OW39658   3.269   0.936   1.184
 3055SOL    HW139659   3.286   1.030   1.178
 3055SOL    HW239660   3.256   0.908   1.093
 3056SOL     OW39661   3.260   2.784   1.177
 3056SOL    HW139662   3.294   2.872   1.166
 3056SOL    HW239663   3.258   2.747   1.089
 3057SOL     OW39664   3.254   4.667   1.211
 3057SOL    HW139665   3.264   4.758   1.240
 3057SOL    HW239666   3.257   4.672   1.115
 3058SOL     OW39667   5.122   0.927   1.185
 3058SOL    HW139668   5.136   1.021   1.177
 3058SOL    HW239669   5.112   0.896   1.095
 3059SOL     OW39670   5.121   2.792   1.191
 3059SOL    HW139671   5.140   2.886   1.185
 3059SOL    HW239672   5.112   2.763   1.101
 3060SOL     OW39673   5.120   4.658   1.185
 3060SOL    HW139674   5.143   4.750   1.178
 3060SOL    HW239675   5.116   4.627   1.095
 3061SOL     OW39676   0.336   0.811  11.658
 3061SOL    HW139677   0.431   0.819  11.662
 3061SOL    HW239678   0.318   0.718  11.672
 3062SOL     OW39679   0.318   2.666  11.652
 3062SOL    HW139680   0.413   2.682  11.655
 3062SOL    HW239681   0.309   2.573  11.670
 3063SOL     OW39682   0.334   6.369  11.644
 3063SOL    HW139683   0.412   6.416  11.673
 3063SOL    HW239684   0.346   6.280  11.676
 3064SOL     OW39685   2.164   0.810  11.659
 3064SOL    HW139686   2.257   0.831  11.651
 3064SOL    HW239687   2.162   0.716  11.680
 3065SOL     OW39688   2.177   2.663  11.648
 3065SOL    HW139689   2.271   2.682  11.655
 3065SOL    HW239690   2.169   2.572  11.676
 3066SOL     OW39691   2.177   4.535  11.654
 3066SOL    HW139692   2.272   4.548  11.647
 3066SOL    HW239693   2.168   4.446  11.687
 3067SOL     OW39694   2.121   6.396  11.646
 3067SOL    HW139695   2.200   6.443  11.620
 3067SOL    HW239696   2.153   6.312  11.679
 3068SOL     OW39697   4.036   0.813  11.654
 3068SOL    HW139698   4.130   0.829  11.655
 3068SOL    HW239699   4.028   0.720  11.677
 3069SOL     OW39700   4.079   2.673  11.664
 3069SOL    HW139701   4.174   2.688  11.661
 3069SOL    HW239702   4.070   2.581  11.686
 3070SOL     OW39703   4.053   4.536  11.656
 3070SOL    HW139704   4.146   4.555  11.643
 3070SOL    HW239705   4.050   4.445  11.686
 3071SOL     OW39706   4.027   6.396  11.598
 3071SOL    HW139707   4.100   6.447  11.633
 3071SOL    HW239708   4.036   6.310  11.638
 3072SOL     OW39709   5.904   0.810  11.641
 3072SOL    HW139710   5.993   0.837  11.661
 3072SOL    HW239711   5.901   0.718  11.668
 3073SOL     OW39712   5.916   2.677  11.633
 3073SOL    HW139713   6.006   2.700  11.657
 3073SOL    HW239714   5.906   2.587  11.663
 3074SOL     OW39715   5.920   4.547  11.647
 3074SOL    HW139716   6.009   4.575  11.671
 3074SOL    HW239717   5.917   4.455  11.670
 3075SOL     OW39718   5.915   6.404  11.600
 3075SOL    HW139719   5.978   0.019  11.631
 3075SOL    HW239720   5.925   6.330  11.661
 3076SOL     OW39721   1.281   0.353  11.639
 3076SOL    HW139722   1.193   0.322  11.659
 3076SOL    HW239723   1.338   0.307  11.700
 3077SOL     OW39724   1.307   2.257  11.660
 3077SOL    HW139725   1.220   2.222  11.643
 3077SOL    HW239726   1.349   2.190  11.714
 3078SOL     OW39727   1.284   4.096  11.644
 3078SOL    HW139728   1.196   4.058  11.654
 3078SOL    HW239729   1.340   4.044  11.701
 3079SOL     OW39730   1.283   5.953  11.645
 3079SOL    HW139731   1.194   5.920  11.656
 3079SOL    HW239732   1.337   5.897  11.701
 3080SOL     OW39733   3.148   0.379  11.645
 3080SOL    HW139734   3.061   0.342  11.655
 3080SOL    HW239735   3.204   0.323  11.699
 3081SOL     OW39736   3.146   2.234  11.646
 3081SOL    HW139737   3.058   2.198  11.657
 3081SOL    HW239738   3.202   2.177  11.700
 3082SOL     OW39739   3.113   4.196  11.621
 3082SOL    HW139740   3.029   4.167  11.585
 3082SOL    HW239741   3.104   4.187  11.715
 3083SOL     OW39742   3.155   5.954  11.639
 3083SOL    HW139743   3.065   5.925  11.652
 3083SOL    HW239744   3.208   5.897  11.695
 3084SOL     OW39745   5.030   0.390  11.642
 3084SOL    HW139746   4.939   0.360  11.644
 3084SOL    HW239747   5.077   0.328  11.697
 3085SOL     OW39748   5.014   2.237  11.646
 3085SOL    HW139749   4.926   2.201  11.659
 3085SOL    HW239750   5.071   2.182  11.700
 3086SOL     OW39751   5.020   4.110  11.653
 3086SOL    HW139752   4.933   4.071  11.653
 3086SOL    HW239753   5.073   4.049  11.704
 3087SOL     OW39754   5.018   5.959  11.650
 3087SOL    HW139755   4.928   5.927  11.663
 3087SOL    HW239756   5.072   5.901  11.703
 3088SOL     OW39757   1.628   0.781   1.230
 3088SOL    HW139758   1.541   0.820   1.219
 3088SOL    HW239759   1.680   0.820   1.159
 3089SOL     OW39760   1.619   2.599   1.176
 3089SOL    HW139761   1.544   2.657   1.189
 3089SOL    HW239762   1.683   2.652   1.127
 3090SOL     OW39763   1.627   4.518   1.235
 3090SOL    HW139764   1.541   4.558   1.221
 3090SOL    HW239765   1.681   4.551   1.163
 3091SOL     OW39766   1.618   6.370   1.191
 3091SOL    HW139767   1.530   6.344   1.165
 3091SOL    HW239768   1.641   6.439   1.130
 3092SOL     OW39769   3.495   0.785   1.205
 3092SOL    HW139770   3.411   0.831   1.202
 3092SOL    HW239771   3.547   0.827   1.137
 3093SOL     OW39772   3.492   2.645   1.235
 3093SOL    HW139773   3.404   2.681   1.222
 3093SOL    HW239774   3.545   2.684   1.165
 3094SOL     OW39775   3.483   4.512   1.228
 3094SOL    HW139776   3.397   4.554   1.229
 3094SOL    HW239777   3.531   4.557   1.159
 3095SOL     OW39778   3.470   6.367   1.181
 3095SOL    HW139779   3.390   6.349   1.132
 3095SOL    HW239780   3.510   6.441   1.136
 3096SOL     OW39781   5.358   0.790   1.225
 3096SOL    HW139782   5.271   0.828   1.214
 3096SOL    HW239783   5.409   0.826   1.152
 3097SOL     OW39784   5.337   2.621   1.208
 3097SOL    HW139785   5.254   2.669   1.209
 3097SOL    HW239786   5.387   2.662   1.137
 3098SOL     OW39787   5.353   4.508   1.217
 3098SOL    HW139788   5.267   4.548   1.211
 3098SOL    HW239789   5.405   4.551   1.149
 3099SOL     OW39790   5.322   6.376   1.196
 3099SOL    HW139791   5.252   6.343   1.140
 3099SOL    HW239792   5.364   6.445   1.145
 3100SOL     OW39793   1.402   0.477   1.206
 3100SOL    HW139794   1.406   0.528   1.287
 3100SOL    HW239795   1.441   0.392   1.229
 3101SOL     OW39796   1.402   2.318   1.199
 3101SOL    HW139797   1.404   2.366   1.282
 3101SOL    HW239798   1.458   2.242   1.214
 3102SOL     OW39799   1.414   4.216   1.221
 3102SOL    HW139800   1.472   4.253   1.287
 3102SOL    HW239801   1.436   4.123   1.219
 3103SOL     OW39802   1.412   6.063   1.223
 3103SOL    HW139803   1.414   6.117   1.303
 3103SOL    HW239804   1.459   5.983   1.247
 3104SOL     OW39805   3.274   0.480   1.222
 3104SOL    HW139806   3.340   0.530   1.269
 3104SOL    HW239807   3.299   0.389   1.234
 3105SOL     OW39808   3.274   2.337   1.205
 3105SOL    HW139809   3.272   2.386   1.287
 3105SOL    HW239810   3.335   2.265   1.221
 3106SOL     OW39811   3.353   4.207   1.287
 3106SOL    HW139812   3.425   4.258   1.325
 3106SOL    HW239813   3.382   4.116   1.292
 3107SOL     OW39814   3.282   6.055   1.228
 3107SOL    HW139815   3.342   6.103   1.287
 3107SOL    HW239816   3.318   5.967   1.224
 3108SOL     OW39817   5.119   0.491   1.201
 3108SOL    HW139818   5.125   0.532   1.287
 3108SOL    HW239819   5.170   0.410   1.209
 3109SOL     OW39820   5.125   2.332   1.195
 3109SOL    HW139821   5.128   2.379   1.279
 3109SOL    HW239822   5.182   2.256   1.209
 3110SOL     OW39823   5.135   4.197   1.212
 3110SOL    HW139824   5.157   4.249   1.290
 3110SOL    HW239825   5.187   4.117   1.221
 3111SOL     OW39826   5.143   6.049   1.224
 3111SOL    HW139827   5.157   6.073   1.315
 3111SOL    HW239828   5.190   5.966   1.214
 3112SOL     OW39829   1.147   0.376   1.222
 3112SOL    HW139830   1.102   0.435   1.282
 3112SOL    HW239831   1.234   0.415   1.213
 3113SOL     OW39832   1.147   2.226   1.203
 3113SOL    HW139833   1.099   2.285   1.262
 3113SOL    HW239834   1.235   2.263   1.198
 3114SOL     OW39835   1.159   4.101   1.217
 3114SOL    HW139836   1.103   4.153   1.274
 3114SOL    HW239837   1.242   4.149   1.215
 3115SOL     OW39838   1.160   5.949   1.218
 3115SOL    HW139839   1.107   6.006   1.274
 3115SOL    HW239840   1.245   5.992   1.211
 3116SOL     OW39841   3.016   0.376   1.211
 3116SOL    HW139842   2.952   0.438   1.246
 3116SOL    HW239843   3.100   0.419   1.220
 3117SOL     OW39844   3.022   2.226   1.207
 3117SOL    HW139845   2.973   2.281   1.268
 3117SOL    HW239846   3.109   2.267   1.202
 3118SOL     OW39847   3.085   4.195   1.271
 3118SOL    HW139848   3.021   4.229   1.334
 3118SOL    HW239849   3.170   4.214   1.312
 3119SOL     OW39850   3.017   5.955   1.223
 3119SOL    HW139851   2.959   6.011   1.275
 3119SOL    HW239852   3.102   5.999   1.226
 3120SOL     OW39853   4.873   0.370   1.229
 3120SOL    HW139854   4.824   0.423   1.291
 3120SOL    HW239855   4.956   0.416   1.216
 3121SOL     OW39856   4.872   2.232   1.209
 3121SOL    HW139857   4.826   2.294   1.266
 3121SOL    HW239858   4.960   2.268   1.200
 3122SOL     OW39859   4.882   4.089   1.215
 3122SOL    HW139860   4.834   4.146   1.275
 3122SOL    HW239861   4.969   4.129   1.208
 3123SOL     OW39862   4.887   5.948   1.208
 3123SOL    HW139863   4.837   6.021   1.245
 3123SOL    HW239864   4.978   5.977   1.210
 3124SOL     OW39865   0.099   1.778  11.626
 3124SOL    HW139866   0.064   1.714  11.564
 3124SOL    HW239867   0.188   1.795  11.595
 3125SOL     OW39868   0.100   3.638  11.633
 3125SOL    HW139869   0.075   3.570  11.570
 3125SOL    HW239870   0.191   3.659  11.610
 3126SOL     OW39871   0.108   5.500  11.645
 3126SOL    HW139872   0.076   5.437  11.581
 3126SOL    HW239873   0.196   5.523  11.614
 3127SOL     OW39874   1.963   1.775  11.656
 3127SOL    HW139875   1.933   1.697  11.610
 3127SOL    HW239876   2.052   1.790  11.622
 3128SOL     OW39877   1.947   3.631  11.646
 3128SOL    HW139878   1.907   3.551  11.611
 3128SOL    HW239879   2.019   3.650  11.585
 3129SOL     OW39880   1.949   5.496  11.644
 3129SOL    HW139881   1.924   5.419  11.593
 3129SOL    HW239882   2.039   5.515  11.616
 3130SOL     OW39883   3.823   1.770  11.647
 3130SOL    HW139884   3.792   1.694  11.598
 3130SOL    HW239885   3.910   1.788  11.611
 3131SOL     OW39886   3.821   3.654  11.615
 3131SOL    HW139887   3.800   3.572  11.570
 3131SOL    HW239888   3.914   3.668  11.597
 3132SOL     OW39889   3.819   5.505  11.646
 3132SOL    HW139890   3.799   5.419  11.611
 3132SOL    HW239891   3.908   5.524  11.617
 3133SOL     OW39892   5.691   1.778  11.651
 3133SOL    HW139893   5.663   1.698  11.605
 3133SOL    HW239894   5.778   1.796  11.616
 3134SOL     OW39895   5.711   3.637  11.664
 3134SOL    HW139896   5.679   3.563  11.613
 3134SOL    HW239897   5.794   3.660  11.622
 3135SOL     OW39898   5.663   5.504  11.633
 3135SOL    HW139899   5.647   5.421  11.589
 3135SOL    HW239900   5.758   5.514  11.631
 3136SOL     OW39901   0.837   1.382  11.662
 3136SOL    HW139902   0.919   1.373  11.613
 3136SOL    HW239903   0.770   1.391  11.594
 3137SOL     OW39904   0.845   3.244  11.678
 3137SOL    HW139905   0.930   3.237  11.635
 3137SOL    HW239906   0.783   3.258  11.606
 3138SOL     OW39907   0.836   5.099  11.655
 3138SOL    HW139908   0.924   5.089  11.618
 3138SOL    HW239909   0.780   5.116  11.579
 3139SOL     OW39910   2.702   1.378  11.662
 3139SOL    HW139911   2.787   1.368  11.619
 3139SOL    HW239912   2.641   1.392  11.590
 3140SOL     OW39913   2.543   3.185  11.636
 3140SOL    HW139914   2.553   3.275  11.667
 3140SOL    HW239915   2.465   3.186  11.582
 3141SOL     OW39916   2.705   5.106  11.653
 3141SOL    HW139917   2.791   5.093  11.613
 3141SOL    HW239918   2.647   5.128  11.581
 3142SOL     OW39919   4.570   1.432  11.645
 3142SOL    HW139920   4.649   1.394  11.608
 3142SOL    HW239921   4.501   1.413  11.582
 3143SOL     OW39922   4.568   3.239  11.672
 3143SOL    HW139923   4.653   3.229  11.630
 3143SOL    HW239924   4.506   3.244  11.599
 3144SOL     OW39925   4.565   5.102  11.644
 3144SOL    HW139926   4.656   5.082  11.622
 3144SOL    HW239927   4.525   5.124  11.561
 3145SOL     OW39928   6.406   1.350  11.591
 3145SOL    HW139929   0.017   1.423  11.579
 3145SOL    HW239930   6.326   1.377  11.546
 3146SOL     OW39931   6.396   3.273  11.586
 3146SOL    HW139932   0.038   3.249  11.593
 3146SOL    HW239933   6.392   3.334  11.513
 3147SOL     OW39934   6.415   5.100  11.620
 3147SOL    HW139935   0.053   5.127  11.593
 3147SOL    HW239936   6.357   5.134  11.551
 3148SOL     OW39937   1.147   1.341   1.215
 3148SOL    HW139938   1.193   1.334   1.299
 3148SOL    HW239939   1.096   1.260   1.210
 3149SOL     OW39940   1.162   3.211   1.224
 3149SOL    HW139941   1.175   3.214   1.319
 3149SOL    HW239942   1.113   3.131   1.209
 3150SOL     OW39943   1.158   5.058   1.212
 3150SOL    HW139944   1.208   5.051   1.294
 3150SOL    HW239945   1.105   4.979   1.210
 3151SOL     OW39946   3.026   1.334   1.218
 3151SOL    HW139947   3.044   1.340   1.312
 3151SOL    HW239948   2.975   1.254   1.208
 3152SOL     OW39949   3.121   3.170   1.187
 3152SOL    HW139950   3.182   3.152   1.259
 3152SOL    HW239951   3.055   3.101   1.195
 3153SOL     OW39952   3.020   5.074   1.217
 3153SOL    HW139953   3.070   5.067   1.299
 3153SOL    HW239954   2.968   4.994   1.215
 3154SOL     OW39955   4.886   1.349   1.210
 3154SOL    HW139956   4.962   1.310   1.254
 3154SOL    HW239957   4.823   1.278   1.201
 3155SOL     OW39958   4.887   3.205   1.227
 3155SOL    HW139959   4.967   3.165   1.260
 3155SOL    HW239960   4.822   3.135   1.228
 3156SOL     OW39961   4.880   5.065   1.220
 3156SOL    HW139962   4.966   5.023   1.225
 3156SOL    HW239963   4.817   4.994   1.234
 3157SOL     OW39964   0.512   1.588  11.611
 3157SOL    HW139965   0.582   1.650  11.632
 3157SOL    HW239966   0.555   1.518  11.563
 3158SOL     OW39967   0.514   3.442  11.613
 3158SOL    HW139968   0.581   3.507  11.632
 3158SOL    HW239969   0.560   3.374  11.563
 3159SOL     OW39970   0.515   5.308  11.613
 3159SOL    HW139971   0.585   5.373  11.621
 3159SOL    HW239972   0.549   5.243  11.551
 3160SOL     OW39973   2.360   1.575  11.618
 3160SOL    HW139974   2.431   1.636  11.641
 3160SOL    HW239975   2.399   1.518  11.552
 3161SOL     OW39976   2.291   3.432  11.579
 3161SOL    HW139977   2.368   3.443  11.636
 3161SOL    HW239978   2.314   3.359  11.522
 3162SOL     OW39979   2.357   5.297  11.609
 3162SOL    HW139980   2.423   5.362  11.632
 3162SOL    HW239981   2.398   5.243  11.542
 3163SOL     OW39982   4.223   1.574  11.605
 3163SOL    HW139983   4.291   1.639  11.626
 3163SOL    HW239984   4.269   1.508  11.553
 3164SOL     OW39985   4.229   3.432  11.601
 3164SOL    HW139986   4.295   3.497  11.626
 3164SOL    HW239987   4.278   3.369  11.548
 3165SOL     OW39988   4.231   5.293  11.616
 3165SOL    HW139989   4.294   5.364  11.630
 3165SOL    HW239990   4.284   5.215  11.604
 3166SOL     OW39991   6.089   1.590  11.610
 3166SOL    HW139992   6.159   1.649  11.638
 3166SOL    HW239993   6.131   1.528  11.551
 3167SOL     OW39994   6.123   3.430  11.616
 3167SOL    HW139995   6.176   3.507  11.635
 3167SOL    HW239996   6.185   3.358  11.614
 3168SOL     OW39997   6.091   5.308  11.605
 3168SOL    HW139998   6.160   5.370  11.627
 3168SOL    HW239999   6.132   5.245  11.547
 3169SOL     OW40000   0.998   1.574   1.252
 3169SOL    HW140001   0.977   1.612   1.167
 3169SOL    HW240002   1.029   1.486   1.232
 3170SOL     OW40003   1.001   3.434   1.253
 3170SOL    HW140004   0.974   3.473   1.170
 3170SOL    HW240005   1.047   3.354   1.228
 3171SOL     OW40006   0.999   5.281   1.245
 3171SOL    HW140007   0.968   5.332   1.170
 3171SOL    HW240008   1.049   5.209   1.206
 3172SOL     OW40009   2.862   1.556   1.240
 3172SOL    HW140010   2.832   1.603   1.162
 3172SOL    HW240011   2.914   1.483   1.205
 3173SOL     OW40012   3.179   3.437   1.244
 3173SOL    HW140013   3.112   3.501   1.221
 3173SOL    HW240014   3.155   3.358   1.195
 3174SOL     OW40015   2.854   5.287   1.247
 3174SOL    HW140016   2.834   5.331   1.165
 3174SOL    HW240017   2.909   5.213   1.222
 3175SOL     OW40018   4.714   1.557   1.250
 3175SOL    HW140019   4.692   1.601   1.168
 3175SOL    HW240020   4.775   1.488   1.224
 3176SOL     OW40021   4.710   3.418   1.254
 3176SOL    HW140022   4.698   3.461   1.169
 3176SOL    HW240023   4.773   3.348   1.236
 3177SOL     OW40024   4.711   5.285   1.235
 3177SOL    HW140025   4.698   5.328   1.151
 3177SOL    HW240026   4.768   5.211   1.216
 3178SOL     OW40027   0.956   1.698  11.608
 3178SOL    HW140028   1.001   1.627  11.655
 3178SOL    HW240029   0.908   1.654  11.539
 3179SOL     OW40030   0.965   3.566  11.619
 3179SOL    HW140031   1.044   3.516  11.640
 3179SOL    HW240032   0.924   3.518  11.547
 3180SOL     OW40033   0.973   5.421  11.595
 3180SOL    HW140034   1.060   5.382  11.604
 3180SOL    HW240035   0.929   5.365  11.531
 3181SOL     OW40036   2.816   1.707  11.593
 3181SOL    HW140037   2.890   1.654  11.622
 3181SOL    HW240038   2.773   1.653  11.527
 3182SOL     OW40039   2.570   3.459  11.683
 3182SOL    HW140040   2.546   3.522  11.751
 3182SOL    HW240041   2.580   3.512  11.604
 3183SOL     OW40042   2.810   5.435  11.608
 3183SOL    HW140043   2.873   5.372  11.642
 3183SOL    HW240044   2.763   5.388  11.539
 3184SOL     OW40045   4.675   1.697  11.598
 3184SOL    HW140046   4.767   1.672  11.605
 3184SOL    HW240047   4.626   1.616  11.610
 3185SOL     OW40048   4.684   3.576  11.603
 3185SOL    HW140049   4.763   3.525  11.621
 3185SOL    HW240050   4.638   3.527  11.535
 3186SOL     OW40051   4.674   5.424  11.566
 3186SOL    HW140052   4.755   5.377  11.586
 3186SOL    HW240053   4.629   5.369  11.501
 3187SOL     OW40054   0.723   0.567   1.228
 3187SOL    HW140055   0.772   0.628   1.283
 3187SOL    HW240056   0.748   0.480   1.259
 3188SOL     OW40057   0.704   2.418   1.221
 3188SOL    HW140058   0.756   2.477   1.275
 3188SOL    HW240059   0.731   2.330   1.248
 3189SOL     OW40060   0.712   4.284   1.218
 3189SOL    HW140061   0.759   4.342   1.278
 3189SOL    HW240062   0.737   4.196   1.245
 3190SOL     OW40063   0.763   6.118   1.239
 3190SOL    HW140064   0.757   6.144   1.331
 3190SOL    HW240065   0.773   6.022   1.241
 3191SOL     OW40066   2.592   0.562   1.223
 3191SOL    HW140067   2.631   0.633   1.274
 3191SOL    HW240068   2.578   0.492   1.287
 3192SOL     OW40069   2.593   2.421   1.226
 3192SOL    HW140070   2.642   2.474   1.289
 3192SOL    HW240071   2.619   2.331   1.245
 3193SOL     OW40072   2.589   4.322   1.382
 3193SOL    HW140073   2.638   4.404   1.373
 3193SOL    HW240074   2.655   4.254   1.373
 3194SOL     OW40075   2.604   6.121   1.210
 3194SOL    HW140076   2.618   6.173   1.289
 3194SOL    HW240077   2.607   6.030   1.240
 3195SOL     OW40078   4.440   0.547   1.218
 3195SOL    HW140079   4.488   0.603   1.279
 3195SOL    HW240080   4.464   0.458   1.244
 3196SOL     OW40081   4.456   2.406   1.222
 3196SOL    HW140082   4.496   2.461   1.290
 3196SOL    HW240083   4.472   2.316   1.251
 3197SOL     OW40084   4.437   4.274   1.222
 3197SOL    HW140085   4.486   4.330   1.281
 3197SOL    HW240086   4.453   4.185   1.254
 3198SOL     OW40087   4.471   6.132   1.225
 3198SOL    HW140088   4.494   6.188   1.299
 3198SOL    HW240089   4.481   6.043   1.258
 3199SOL     OW40090   6.280   0.590   1.255
 3199SOL    HW140091   6.338   0.648   1.304
 3199SOL    HW240092   6.328   0.508   1.249
 3200SOL     OW40093   6.346   2.395   1.246
 3200SOL    HW140094   6.352   2.477   1.296
 3200SOL    HW240095   6.436   2.378   1.218
 3201SOL     OW40096   6.302   4.288   1.248
 3201SOL    HW140097   6.334   4.359   1.304
 3201SOL    HW240098   6.380   4.254   1.205
 3202SOL     OW40099   6.372   6.135   1.273
 3202SOL    HW140100   6.345   6.217   1.314
 3202SOL    HW240101   6.292   6.099   1.236
 3203SOL     OW40102   0.937   0.511  11.616
 3203SOL    HW140103   0.899   0.489  11.531
 3203SOL    HW240104   0.972   0.428  11.649
 3204SOL     OW40105   0.953   2.374  11.631
 3204SOL    HW140106   0.915   2.366  11.543
 3204SOL    HW240107   0.985   2.286  11.651
 3205SOL     OW40108   0.952   4.248  11.606
 3205SOL    HW140109   0.923   4.237  11.515
 3205SOL    HW240110   0.980   4.160  11.632
 3206SOL     OW40111   0.934   6.093  11.597
 3206SOL    HW140112   0.925   6.089  11.502
 3206SOL    HW240113   0.970   6.007  11.620
 3207SOL     OW40114   2.809   0.512  11.606
 3207SOL    HW140115   2.803   0.507  11.511
 3207SOL    HW240116   2.827   0.422  11.634
 3208SOL     OW40117   2.809   2.368  11.604
 3208SOL    HW140118   2.771   2.352  11.517
 3208SOL    HW240119   2.833   2.282  11.636
 3209SOL     OW40120   2.764   4.351  11.532
 3209SOL    HW140121   2.725   4.358  11.445
 3209SOL    HW240122   2.804   4.264  11.533
 3210SOL     OW40123   2.802   6.083  11.616
 3210SOL    HW140124   2.784   6.076  11.522
 3210SOL    HW240125   2.838   5.997  11.639
 3211SOL     OW40126   4.678   0.523  11.603
 3211SOL    HW140127   4.704   0.528  11.511
 3211SOL    HW240128   4.696   0.432  11.628
 3212SOL     OW40129   4.687   2.375  11.637
 3212SOL    HW140130   4.673   2.360  11.544
 3212SOL    HW240131   4.710   2.289  11.672
 3213SOL     OW40132   4.679   4.241  11.612
 3213SOL    HW140133   4.672   4.236  11.517
 3213SOL    HW240134   4.703   4.153  11.640
 3214SOL     OW40135   4.675   6.090  11.619
 3214SOL    HW140136   4.666   6.087  11.523
 3214SOL    HW240137   4.707   6.003  11.643
 3215SOL     OW40138   0.061   0.584  11.584
 3215SOL    HW140139   0.048   0.527  11.508
 3215SOL    HW240140   0.066   0.525  11.658
 3216SOL     OW40141   0.096   2.353  11.549
 3216SOL    HW140142   0.029   2.315  11.493
 3216SOL    HW240143   0.054   2.362  11.634
 3217SOL     OW40144   0.083   4.292  11.564
 3217SOL    HW140145   0.047   4.225  11.505
 3217SOL    HW240146   0.078   4.252  11.651
 3218SOL     OW40147   0.128   6.096  11.572
 3218SOL    HW140148   0.108   6.147  11.494
 3218SOL    HW240149   0.068   6.022  11.568
 3219SOL     OW40150   0.686   1.670   1.239
 3219SOL    HW140151   0.638   1.749   1.266
 3219SOL    HW240152   0.771   1.702   1.210
 3220SOL     OW40153   0.685   3.537   1.238
 3220SOL    HW140154   0.625   3.609   1.257
 3220SOL    HW240155   0.752   3.575   1.182
 3221SOL     OW40156   0.686   5.367   1.195
 3221SOL    HW140157   0.649   5.448   1.232
 3221SOL    HW240158   0.752   5.397   1.133
 3222SOL     OW40159   2.554   1.683   1.239
 3222SOL    HW140160   2.498   1.759   1.251
 3222SOL    HW240161   2.615   1.708   1.169
 3223SOL     OW40162   2.398   3.531   1.471
 3223SOL    HW140163   2.466   3.525   1.404
 3223SOL    HW240164   2.361   3.442   1.476
 3224SOL     OW40165   2.550   5.397   1.259
 3224SOL    HW140166   2.489   5.471   1.260
 3224SOL    HW240167   2.612   5.418   1.190
 3225SOL     OW40168   4.406   1.670   1.232
 3225SOL    HW140169   4.349   1.747   1.240
 3225SOL    HW240170   4.478   1.700   1.177
 3226SOL     OW40171   4.412   3.534   1.241
 3226SOL    HW140172   4.363   3.615   1.246
 3226SOL    HW240173   4.495   3.558   1.199
 3227SOL     OW40174   4.416   5.396   1.265
 3227SOL    HW140175   4.361   5.475   1.259
 3227SOL    HW240176   4.494   5.418   1.214
 3228SOL     OW40177   6.275   1.687   1.234
 3228SOL    HW140178   6.226   1.761   1.269
 3228SOL    HW240179   6.271   1.698   1.139
 3229SOL     OW40180   6.284   3.535   1.227
 3229SOL    HW140181   6.230   3.596   1.277
 3229SOL    HW240182   6.268   3.557   1.135
 3230SOL     OW40183   6.276   5.401   1.230
 3230SOL    HW140184   6.229   5.478   1.264
 3230SOL    HW240185   6.268   5.409   1.135
 3231SOL     OW40186   1.008   1.105   1.253
 3231SOL    HW140187   0.917   1.122   1.277
 3231SOL    HW240188   1.004   1.024   1.202
 3232SOL     OW40189   1.005   2.992   1.222
 3232SOL    HW140190   0.915   3.000   1.254
 3232SOL    HW240191   1.011   2.902   1.191
 3233SOL     OW40192   1.004   4.835   1.260
 3233SOL    HW140193   0.913   4.853   1.286
 3233SOL    HW240194   0.998   4.756   1.206
 3234SOL     OW40195   2.862   1.113   1.261
 3234SOL    HW140196   2.772   1.129   1.290
 3234SOL    HW240197   2.857   1.033   1.209
 3235SOL     OW40198   2.862   2.949   1.256
 3235SOL    HW140199   2.771   2.965   1.280
 3235SOL    HW240200   2.859   2.869   1.203
 3236SOL     OW40201   2.866   4.852   1.264
 3236SOL    HW140202   2.775   4.869   1.289
 3236SOL    HW240203   2.861   4.777   1.204
 3237SOL     OW40204   4.710   1.146   1.199
 3237SOL    HW140205   4.625   1.155   1.242
 3237SOL    HW240206   4.718   1.053   1.180
 3238SOL     OW40207   4.712   2.989   1.248
 3238SOL    HW140208   4.621   3.005   1.272
 3238SOL    HW240209   4.711   2.907   1.199
 3239SOL     OW40210   4.720   4.844   1.267
 3239SOL    HW140211   4.629   4.863   1.288
 3239SOL    HW240212   4.716   4.764   1.214
 3240SOL     OW40213   0.222   0.514   1.243
 3240SOL    HW140214   0.294   0.511   1.180
 3240SOL    HW240215   0.170   0.590   1.216
 3241SOL     OW40216   0.184   2.392   1.267
 3241SOL    HW140217   0.267   2.350   1.243
 3241SOL    HW240218   0.180   2.470   1.212
 3242SOL     OW40219   0.181   4.251   1.260
 3242SOL    HW140220   0.275   4.238   1.253
 3242SOL    HW240221   0.164   4.332   1.211
 3243SOL     OW40222   0.244   6.136   1.257
 3243SOL    HW140223   0.306   6.128   1.185
 3243SOL    HW240224   0.173   6.189   1.222
 3244SOL     OW40225   2.047   0.532   1.268
 3244SOL    HW140226   2.130   0.500   1.232
 3244SOL    HW240227   2.023   0.606   1.212
 3245SOL     OW40228   2.092   2.373   1.247
 3245SOL    HW140229   2.131   2.332   1.170
 3245SOL    HW240230   2.055   2.455   1.214
 3246SOL     OW40231   2.072   4.297   1.324
 3246SOL    HW140232   2.150   4.352   1.327
 3246SOL    HW240233   2.011   4.346   1.269
 3247SOL     OW40234   2.074   6.122   1.260
 3247SOL    HW140235   2.161   6.098   1.230
 3247SOL    HW240236   2.048   6.195   1.204
 3248SOL     OW40237   3.937   0.532   1.241
 3248SOL    HW140238   3.996   0.498   1.174
 3248SOL    HW240239   3.905   0.615   1.206
 3249SOL     OW40240   3.934   4.248   1.238
 3249SOL    HW140241   4.018   4.222   1.198
 3249SOL    HW240242   3.909   4.328   1.190
 3250SOL     OW40243   3.955   6.072   1.261
 3250SOL    HW140244   4.019   6.059   1.192
 3250SOL    HW240245   3.893   6.136   1.225
 3251SOL     OW40246   5.817   0.540   1.250
 3251SOL    HW140247   5.886   0.502   1.196
 3251SOL    HW240248   5.782   0.612   1.197
 3252SOL     OW40249   5.805   2.361   1.241
 3252SOL    HW140250   5.876   2.347   1.178
 3252SOL    HW240251   5.758   2.437   1.208
 3253SOL     OW40252   5.803   4.224   1.225
 3253SOL    HW140253   5.884   4.218   1.175
 3253SOL    HW240254   5.767   4.310   1.203
 3254SOL     OW40255   5.823   6.097   1.203
 3254SOL    HW140256   5.901   6.070   1.155
 3254SOL    HW240257   5.788   6.170   1.153
 3255SOL     OW40258   0.260   1.060  11.581
 3255SOL    HW140259   0.286   0.976  11.619
 3255SOL    HW240260   0.202   1.099  11.647
 3256SOL     OW40261   0.246   2.938  11.616
 3256SOL    HW140262   0.261   2.846  11.640
 3256SOL    HW240263   0.174   2.966  11.673
 3257SOL     OW40264   0.261   4.788  11.592
 3257SOL    HW140265   0.289   4.704  11.631
 3257SOL    HW240266   0.199   4.823  11.656
 3258SOL     OW40267   2.167   1.094  11.632
 3258SOL    HW140268   2.142   1.003  11.648
 3258SOL    HW240269   2.090   1.145  11.656
 3259SOL     OW40270   2.153   2.942  11.602
 3259SOL    HW140271   2.143   2.854  11.638
 3259SOL    HW240272   2.093   2.996  11.654
 3260SOL     OW40273   2.163   4.813  11.596
 3260SOL    HW140274   2.153   4.724  11.628
 3260SOL    HW240275   2.102   4.865  11.648
 3261SOL     OW40276   3.997   1.083  11.589
 3261SOL    HW140277   3.997   0.993  11.623
 3261SOL    HW240278   3.947   1.132  11.654
 3262SOL     OW40279   4.013   2.944  11.603
 3262SOL    HW140280   4.028   2.860  11.646
 3262SOL    HW240281   3.960   2.994  11.666
 3263SOL     OW40282   3.978   4.804  11.575
 3263SOL    HW140283   3.991   4.719  11.618
 3263SOL    HW240284   3.929   4.856  11.640
 3264SOL     OW40285   5.871   1.088  11.580
 3264SOL    HW140286   5.871   1.000  11.617
 3264SOL    HW240287   5.822   1.140  11.643
 3265SOL     OW40288   5.852   2.953  11.556
 3265SOL    HW140289   5.880   2.868  11.590
 3265SOL    HW240290   5.822   3.001  11.633
 3266SOL     OW40291   5.864   4.824  11.557
 3266SOL    HW140292   5.884   4.737  11.590
 3266SOL    HW240293   5.823   4.870  11.631
 3267SOL     OW40294   0.560   0.235  11.605
 3267SOL    HW140295   0.572   0.233  11.700
 3267SOL    HW240296   0.554   0.328  11.583
 3268SOL     OW40297   0.555   2.030  11.601
 3268SOL    HW140298   0.564   2.063  11.690
 3268SOL    HW240299   0.550   2.108  11.546
 3269SOL     OW40300   0.565   3.895  11.603
 3269SOL    HW140301   0.573   3.925  11.694
 3269SOL    HW240302   0.549   3.975  11.553
 3270SOL     OW40303   0.557   5.750  11.609
 3270SOL    HW140304   0.570   5.782  11.698
 3270SOL    HW240305   0.533   5.828  11.559
 3271SOL     OW40306   2.432   0.221  11.607
 3271SOL    HW140307   2.437   0.218  11.703
 3271SOL    HW240308   2.410   0.312  11.587
 3272SOL     OW40309   2.427   2.025  11.604
 3272SOL    HW140310   2.428   2.064  11.692
 3272SOL    HW240311   2.415   2.099  11.545
 3273SOL     OW40312   2.351   4.044  11.533
 3273SOL    HW140313   2.394   4.007  11.456
 3273SOL    HW240314   2.386   4.133  11.540
 3274SOL     OW40315   2.413   5.751  11.603
 3274SOL    HW140316   2.421   5.790  11.690
 3274SOL    HW240317   2.378   5.822  11.549
 3275SOL     OW40318   4.280   0.221  11.606
 3275SOL    HW140319   4.293   0.221  11.701
 3275SOL    HW240320   4.262   0.313  11.584
 3276SOL     OW40321   4.273   2.026  11.604
 3276SOL    HW140322   4.281   2.059  11.694
 3276SOL    HW240323   4.248   2.103  11.552
 3277SOL     OW40324   4.278   3.889  11.601
 3277SOL    HW140325   4.291   3.921  11.691
 3277SOL    HW240326   4.254   3.967  11.552
 3278SOL     OW40327   4.280   5.753  11.608
 3278SOL    HW140328   4.286   5.785  11.698
 3278SOL    HW240329   4.264   5.831  11.555
 3279SOL     OW40330   6.102   0.184  11.621
 3279SOL    HW140331   6.134   0.205  11.709
 3279SOL    HW240332   6.120   0.262  11.570
 3280SOL     OW40333   6.137   2.040  11.604
 3280SOL    HW140334   6.143   2.061  11.697
 3280SOL    HW240335   6.140   2.126  11.560
 3281SOL     OW40336   6.141   3.899  11.602
 3281SOL    HW140337   6.145   3.924  11.694
 3281SOL    HW240338   6.131   3.981  11.555
 3282SOL     OW40339   6.137   5.755  11.605
 3282SOL    HW140340   6.143   5.778  11.697
 3282SOL    HW240341   6.135   5.839  11.559
 3283SOL     OW40342   0.113   1.004   1.227
 3283SOL    HW140343   0.051   1.053   1.281
 3283SOL    HW240344   0.192   0.999   1.281
 3284SOL     OW40345   0.111   2.851   1.235
 3284SOL    HW140346   0.048   2.911   1.275
 3284SOL    HW240347   0.191   2.861   1.288
 3285SOL     OW40348   0.119   4.715   1.241
 3285SOL    HW140349   0.058   4.767   1.293
 3285SOL    HW240350   0.199   4.713   1.293
 3286SOL     OW40351   0.131   0.153   1.250
 3286SOL    HW140352   0.085   0.101   1.316
 3286SOL    HW240353   0.208   0.187   1.296
 3287SOL     OW40354   2.010   1.048   1.258
 3287SOL    HW140355   1.935   1.012   1.306
 3287SOL    HW240356   2.085   1.000   1.292
 3288SOL     OW40357   1.987   2.855   1.273
 3288SOL    HW140358   1.917   2.794   1.298
 3288SOL    HW240359   2.067   2.813   1.303
 3289SOL     OW40360   1.993   4.764   1.273
 3289SOL    HW140361   1.914   4.739   1.320
 3289SOL    HW240362   2.063   4.716   1.317
 3290SOL     OW40363   1.987   0.121   1.229
 3290SOL    HW140364   1.912   0.120   1.288
 3290SOL    HW240365   2.060   0.148   1.284
 3291SOL     OW40366   3.869   1.047   1.263
 3291SOL    HW140367   3.793   1.007   1.306
 3291SOL    HW240368   3.945   1.002   1.300
 3292SOL     OW40369   3.866   2.897   1.254
 3292SOL    HW140370   3.781   2.880   1.293
 3292SOL    HW240371   3.926   2.838   1.300
 3293SOL     OW40372   3.846   4.724   1.245
 3293SOL    HW140373   3.771   4.722   1.304
 3293SOL    HW240374   3.923   4.715   1.302
 3294SOL     OW40375   3.851   0.096   1.248
 3294SOL    HW140376   3.771   0.119   1.295
 3294SOL    HW240377   3.919   0.096   1.315
 3295SOL     OW40378   5.725   1.055   1.273
 3295SOL    HW140379   5.644   1.021   1.312
 3295SOL    HW240380   5.794   0.998   1.307
 3296SOL     OW40381   5.708   2.929   1.240
 3296SOL    HW140382   5.635   2.884   1.282
 3296SOL    HW240383   5.786   2.884   1.272
 3297SOL     OW40384   5.723   4.772   1.270
 3297SOL    HW140385   5.643   4.738   1.311
 3297SOL    HW240386   5.793   4.717   1.305
 3298SOL     OW40387   5.719   0.113   1.232
 3298SOL    HW140388   5.638   0.111   1.283
 3298SOL    HW240389   5.784   0.148   1.292
 3299SOL     OW40390   0.490   1.258   1.275
 3299SOL    HW140391   0.465   1.269   1.183
 3299SOL    HW240392   0.407   1.266   1.323
 3300SOL     OW40393   0.484   3.093   1.263
 3300SOL    HW140394   0.463   3.115   1.172
 3300SOL    HW240395   0.404   3.112   1.311
 3301SOL     OW40396   2.366   1.268   1.258
 3301SOL    HW140397   2.331   1.273   1.169
 3301SOL    HW240398   2.288   1.267   1.314
 3302SOL     OW40399   2.335   3.039   1.274
 3302SOL    HW140400   2.296   3.062   1.190
 3302SOL    HW240401   2.260   3.031   1.333
 3303SOL     OW40402   2.355   4.952   1.218
 3303SOL    HW140403   2.319   4.969   1.131
 3303SOL    HW240404   2.280   4.958   1.277
 3304SOL     OW40405   4.197   1.275   1.272
 3304SOL    HW140406   4.177   1.278   1.178
 3304SOL    HW240407   4.112   1.270   1.315
 3305SOL     OW40408   4.199   3.122   1.274
 3305SOL    HW140409   4.177   3.130   1.181
 3305SOL    HW240410   4.115   3.119   1.320
 3306SOL     OW40411   4.183   4.960   1.289
 3306SOL    HW140412   4.143   4.988   1.206
 3306SOL    HW240413   4.151   4.871   1.302
 3307SOL     OW40414   6.047   1.224   1.300
 3307SOL    HW140415   6.040   1.248   1.207
 3307SOL    HW240416   5.962   1.244   1.337
 3308SOL     OW40417   6.099   3.116   1.241
 3308SOL    HW140418   6.065   3.133   1.153
 3308SOL    HW240419   6.021   3.097   1.294
 3309SOL     OW40420   6.053   4.998   1.276
 3309SOL    HW140421   6.032   5.006   1.183
 3309SOL    HW240422   5.968   4.987   1.319
 3310SOL     OW40423   1.613   0.180  11.590
 3310SOL    HW140424   1.559   0.204  11.665
 3310SOL    HW240425   1.618   0.259  11.537
 3311SOL     OW40426   1.590   2.056  11.594
 3311SOL    HW140427   1.538   2.084  11.669
 3311SOL    HW240428   1.593   2.133  11.537
 3312SOL     OW40429   1.582   3.904  11.594
 3312SOL    HW140430   1.532   3.939  11.668
 3312SOL    HW240431   1.584   3.975  11.530
 3313SOL     OW40432   1.589   5.774  11.589
 3313SOL    HW140433   1.539   5.804  11.664
 3313SOL    HW240434   1.594   5.849  11.531
 3314SOL     OW40435   3.474   0.210  11.589
 3314SOL    HW140436   3.416   0.226  11.664
 3314SOL    HW240437   3.471   0.291  11.539
 3315SOL     OW40438   3.457   2.041  11.586
 3315SOL    HW140439   3.406   2.079  11.658
 3315SOL    HW240440   3.461   2.111  11.520
 3316SOL     OW40441   3.344   3.966  11.463
 3316SOL    HW140442   3.285   4.012  11.522
 3316SOL    HW240443   3.337   4.011  11.380
 3317SOL     OW40444   3.448   5.764  11.591
 3317SOL    HW140445   3.400   5.792  11.668
 3317SOL    HW240446   3.458   5.843  11.538
 3318SOL     OW40447   5.336   0.198  11.594
 3318SOL    HW140448   5.276   0.212  11.667
 3318SOL    HW240449   5.340   0.281  11.548
 3319SOL     OW40450   5.316   2.045  11.601
 3319SOL    HW140451   5.265   2.073  11.677
 3319SOL    HW240452   5.311   2.118  11.540
 3320SOL     OW40453   5.320   3.920  11.601
 3320SOL    HW140454   5.268   3.942  11.678
 3320SOL    HW240455   5.331   4.003  11.555
 3321SOL     OW40456   5.312   5.770  11.592
 3321SOL    HW140457   5.265   5.795  11.671
 3321SOL    HW240458   5.314   5.849  11.538
 3322SOL     OW40459   1.490   0.226   1.282
 3322SOL    HW140460   1.573   0.216   1.329
 3322SOL    HW240461   1.434   0.157   1.318
 3323SOL     OW40462   1.532   2.063   1.261
 3323SOL    HW140463   1.563   2.057   1.351
 3323SOL    HW240464   1.463   1.997   1.254
 3324SOL     OW40465   1.479   3.948   1.216
 3324SOL    HW140466   1.503   3.957   1.308
 3324SOL    HW240467   1.409   3.883   1.216
 3325SOL     OW40468   1.512   5.795   1.273
 3325SOL    HW140469   1.536   5.775   1.363
 3325SOL    HW240470   1.431   5.747   1.258
 3326SOL     OW40471   3.358   0.227   1.275
 3326SOL    HW140472   3.445   0.220   1.315
 3326SOL    HW240473   3.305   0.163   1.321
 3327SOL     OW40474   3.408   2.092   1.260
 3327SOL    HW140475   3.418   2.114   1.352
 3327SOL    HW240476   3.336   2.029   1.258
 3328SOL     OW40477   3.451   3.932   1.285
 3328SOL    HW140478   3.466   3.890   1.370
 3328SOL    HW240479   3.359   3.913   1.265
 3329SOL     OW40480   3.398   5.800   1.250
 3329SOL    HW140481   3.413   5.822   1.342
 3329SOL    HW240482   3.338   5.725   1.252
 3330SOL     OW40483   5.219   0.239   1.248
 3330SOL    HW140484   5.249   0.247   1.338
 3330SOL    HW240485   5.157   0.166   1.249
 3331SOL     OW40486   5.254   2.079   1.252
 3331SOL    HW140487   5.251   2.111   1.342
 3331SOL    HW240488   5.205   1.997   1.254
 3332SOL     OW40489   5.249   3.938   1.240
 3332SOL    HW140490   5.279   3.940   1.331
 3332SOL    HW240491   5.183   3.869   1.239
 3333SOL     OW40492   5.250   5.788   1.239
 3333SOL    HW140493   5.241   5.819   1.329
 3333SOL    HW240494   5.198   5.708   1.235
 3334SOL     OW40495   1.806   1.070  11.592
 3334SOL    HW140496   1.759   1.118  11.525
 3334SOL    HW240497   1.744   1.062  11.664
 3335SOL     OW40498   1.811   2.914  11.590
 3335SOL    HW140499   1.763   2.882  11.515
 3335SOL    HW240500   1.746   2.919  11.660
 3336SOL     OW40501   1.812   4.790  11.587
 3336SOL    HW140502   1.761   4.760  11.511
 3336SOL    HW240503   1.749   4.790  11.659
 3337SOL     OW40504   3.669   1.085  11.592
 3337SOL    HW140505   3.623   1.126  11.518
 3337SOL    HW240506   3.602   1.074  11.659
 3338SOL     OW40507   3.682   2.949  11.567
 3338SOL    HW140508   3.639   2.906  11.493
 3338SOL    HW240509   3.631   2.921  11.643
 3339SOL     OW40510   3.677   4.748  11.606
 3339SOL    HW140511   3.635   4.732  11.521
 3339SOL    HW240512   3.604   4.770  11.664
 3340SOL     OW40513   5.538   1.059  11.596
 3340SOL    HW140514   5.484   1.027  11.523
 3340SOL    HW240515   5.478   1.060  11.671
 3341SOL     OW40516   5.533   2.928  11.606
 3341SOL    HW140517   5.485   2.894  11.531
 3341SOL    HW240518   5.469   2.927  11.678
 3342SOL     OW40519   5.540   4.764  11.591
 3342SOL    HW140520   5.497   4.817  11.523
 3342SOL    HW240521   5.477   4.764  11.663
 3343SOL     OW40522   0.504   0.077   1.239
 3343SOL    HW140523   0.469   0.048   1.154
 3343SOL    HW240524   0.446   0.148   1.265
 3344SOL     OW40525   0.501   1.900   1.292
 3344SOL    HW140526   0.464   1.847   1.222
 3344SOL    HW240527   0.447   1.979   1.294
 3345SOL     OW40528   0.507   3.763   1.259
 3345SOL    HW140529   0.458   3.707   1.198
 3345SOL    HW240530   0.451   3.840   1.271
 3346SOL     OW40531   0.522   5.613   1.264
 3346SOL    HW140532   0.478   5.560   1.197
 3346SOL    HW240533   0.461   5.683   1.284
 3347SOL     OW40534   2.323   0.041   1.268
 3347SOL    HW140535   2.398   0.074   1.219
 3347SOL    HW240536   2.290   0.117   1.316
 3348SOL     OW40537   2.368   1.889   1.288
 3348SOL    HW140538   2.318   1.835   1.227
 3348SOL    HW240539   2.308   1.960   1.311
 3349SOL     OW40540   2.342   3.777   1.357
 3349SOL    HW140541   2.315   3.702   1.304
 3349SOL    HW240542   2.279   3.846   1.335
 3350SOL     OW40543   2.375   5.608   1.277
 3350SOL    HW140544   2.316   5.562   1.218
 3350SOL    HW240545   2.331   5.691   1.296
 3351SOL     OW40546   4.234   0.059   1.248
 3351SOL    HW140547   4.214   0.042   1.156
 3351SOL    HW240548   4.173   0.128   1.274
 3352SOL     OW40549   4.211   1.871   1.268
 3352SOL    HW140550   4.164   1.822   1.201
 3352SOL    HW240551   4.155   1.946   1.287
 3353SOL     OW40552   4.231   3.746   1.265
 3353SOL    HW140553   4.180   3.692   1.205
 3353SOL    HW240554   4.176   3.822   1.282
 3354SOL     OW40555   4.238   5.612   1.276
 3354SOL    HW140556   4.184   5.561   1.216
 3354SOL    HW240557   4.185   5.690   1.294
 3355SOL     OW40558   6.129   0.084   1.278
 3355SOL    HW140559   6.079   0.013   1.237
 3355SOL    HW240560   6.063   0.141   1.316
 3356SOL     OW40561   6.093   1.899   1.285
 3356SOL    HW140562   6.046   1.845   1.222
 3356SOL    HW240563   6.039   1.977   1.296
 3357SOL     OW40564   6.088   3.731   1.288
 3357SOL    HW140565   6.047   3.691   1.211
 3357SOL    HW240566   6.030   3.804   1.310
 3358SOL     OW40567   6.121   5.628   1.258
 3358SOL    HW140568   6.056   5.578   1.208
 3358SOL    HW240569   6.070   5.699   1.298
 3359SOL     OW40570   1.459   1.150  11.573
 3359SOL    HW140571   1.397   1.083  11.543
 3359SOL    HW240572   1.522   1.158  11.502
 3360SOL     OW40573   1.447   3.012  11.564
 3360SOL    HW140574   1.375   2.949  11.574
 3360SOL    HW240575   1.462   3.017  11.470
 3361SOL     OW40576   1.467   4.880  11.575
 3361SOL    HW140577   1.395   4.817  11.562
 3361SOL    HW240578   1.510   4.884  11.490
 3362SOL     OW40579   3.310   1.149  11.574
 3362SOL    HW140580   3.238   1.085  11.581
 3362SOL    HW240581   3.327   1.154  11.480
 3363SOL     OW40582   3.308   2.970  11.589
 3363SOL    HW140583   3.279   2.878  11.586
 3363SOL    HW240584   3.251   3.014  11.526
 3364SOL     OW40585   3.306   4.880  11.575
 3364SOL    HW140586   3.237   4.844  11.520
 3364SOL    HW240587   3.378   4.899  11.515
 3365SOL     OW40588   5.191   1.153  11.568
 3365SOL    HW140589   5.124   1.089  11.545
 3365SOL    HW240590   5.245   1.160  11.490
 3366SOL     OW40591   5.162   3.005  11.575
 3366SOL    HW140592   5.110   2.928  11.597
 3366SOL    HW240593   5.164   3.008  11.480
 3367SOL     OW40594   5.190   4.880  11.582
 3367SOL    HW140595   5.127   4.810  11.567
 3367SOL    HW240596   5.247   4.878  11.505
 3368SOL     OW40597   0.302   1.551   1.255
 3368SOL    HW140598   0.252   1.614   1.307
 3368SOL    HW240599   0.285   1.467   1.296
 3369SOL     OW40600   0.319   3.399   1.252
 3369SOL    HW140601   0.265   3.461   1.302
 3369SOL    HW240602   0.293   3.313   1.286
 3370SOL     OW40603   0.293   5.247   1.191
 3370SOL    HW140604   0.250   5.314   1.245
 3370SOL    HW240605   0.271   5.164   1.234
 3371SOL     OW40606   2.103   1.546   1.262
 3371SOL    HW140607   2.065   1.580   1.344
 3371SOL    HW240608   2.123   1.455   1.281
 3372SOL     OW40609   2.038   3.336   1.302
 3372SOL    HW140610   1.996   3.340   1.388
 3372SOL    HW240611   2.090   3.256   1.304
 3373SOL     OW40612   2.111   5.263   1.252
 3373SOL    HW140613   2.085   5.315   1.328
 3373SOL    HW240614   2.119   5.174   1.285
 3374SOL     OW40615   3.963   1.551   1.250
 3374SOL    HW140616   3.946   1.607   1.325
 3374SOL    HW240617   3.970   1.463   1.287
 3375SOL     OW40618   3.993   3.400   1.267
 3375SOL    HW140619   4.037   3.437   1.344
 3375SOL    HW240620   3.987   3.307   1.285
 3376SOL     OW40621   3.970   5.274   1.265
 3376SOL    HW140622   3.931   5.347   1.313
 3376SOL    HW240623   4.023   5.228   1.329
 3377SOL     OW40624   5.833   1.533   1.248
 3377SOL    HW140625   5.812   1.605   1.308
 3377SOL    HW240626   5.838   1.456   1.304
 3378SOL     OW40627   5.815   3.459   1.263
 3378SOL    HW140628   5.838   3.490   1.351
 3378SOL    HW240629   5.825   3.364   1.267
 3379SOL     OW40630   5.831   5.263   1.247
 3379SOL    HW140631   5.801   5.334   1.303
 3379SOL    HW240632   5.839   5.188   1.305
 3380SOL     OW40633   0.565   0.509  11.572
 3380SOL    HW140634   0.580   0.570  11.500
 3380SOL    HW240635   0.624   0.539  11.642
 3381SOL     OW40636   0.555   2.383  11.572
 3381SOL    HW140637   0.575   2.436  11.495
 3381SOL    HW240638   0.622   2.407  11.636
 3382SOL     OW40639   0.562   4.243  11.564
 3382SOL    HW140640   0.571   4.306  11.493
 3382SOL    HW240641   0.629   4.268  11.627
 3383SOL     OW40642   0.573   6.058  11.578
 3383SOL    HW140643   0.592   6.088  11.489
 3383SOL    HW240644   0.632   6.110  11.634
 3384SOL     OW40645   2.409   0.494  11.568
 3384SOL    HW140646   2.423   0.520  11.477
 3384SOL    HW240647   2.477   0.541  11.617
 3385SOL     OW40648   2.426   2.375  11.565
 3385SOL    HW140649   2.430   2.440  11.494
 3385SOL    HW240650   2.487   2.408  11.631
 3386SOL     OW40651   2.443   4.291  11.580
 3386SOL    HW140652   2.451   4.338  11.497
 3386SOL    HW240653   2.519   4.318  11.631
 3387SOL     OW40654   2.427   6.106  11.607
 3387SOL    HW140655   2.434   6.143  11.519
 3387SOL    HW240656   2.494   6.151  11.658
 3388SOL     OW40657   4.264   0.495  11.565
 3388SOL    HW140658   4.283   0.506  11.472
 3388SOL    HW240659   4.336   0.540  11.610
 3389SOL     OW40660   4.291   2.384  11.560
 3389SOL    HW140661   4.297   2.454  11.494
 3389SOL    HW240662   4.353   2.411  11.629
 3390SOL     OW40663   4.276   4.279  11.588
 3390SOL    HW140664   4.282   4.345  11.519
 3390SOL    HW240665   4.347   4.300  11.648
 3391SOL     OW40666   4.294   6.082  11.589
 3391SOL    HW140667   4.299   6.143  11.516
 3391SOL    HW240668   4.359   6.114  11.652
 3392SOL     OW40669   6.147   0.506  11.572
 3392SOL    HW140670   6.165   0.545  11.487
 3392SOL    HW240671   6.204   0.553  11.633
 3393SOL     OW40672   6.145   2.349  11.558
 3393SOL    HW140673   6.174   2.374  11.470
 3393SOL    HW240674   6.201   2.400  11.617
 3394SOL     OW40675   6.161   4.237  11.545
 3394SOL    HW140676   6.171   4.302  11.475
 3394SOL    HW240677   6.212   4.271  11.618
 3395SOL     OW40678   6.158   6.084  11.533
 3395SOL    HW140679   6.137   6.149  11.465
 3395SOL    HW240680   6.213   6.132  11.595
 3396SOL     OW40681   0.897   0.987  11.561
 3396SOL    HW140682   0.938   0.908  11.595
 3396SOL    HW240683   0.851   1.024  11.636
 3397SOL     OW40684   0.910   2.830  11.590
 3397SOL    HW140685   0.960   2.757  11.625
 3397SOL    HW240686   0.865   2.867  11.667
 3398SOL     OW40687   0.891   4.701  11.567
 3398SOL    HW140688   0.946   4.630  11.600
 3398SOL    HW240689   0.847   4.735  11.645
 3399SOL     OW40690   2.760   0.964  11.596
 3399SOL    HW140691   2.816   0.895  11.631
 3399SOL    HW240692   2.721   1.005  11.673
 3400SOL     OW40693   2.711   2.766  11.605
 3400SOL    HW140694   2.797   2.729  11.623
 3400SOL    HW240695   2.685   2.807  11.688
 3401SOL     OW40696   2.774   4.726  11.587
 3401SOL    HW140697   2.834   4.661  11.624
 3401SOL    HW240698   2.729   4.763  11.663
 3402SOL     OW40699   4.611   0.972  11.567
 3402SOL    HW140700   4.664   0.902  11.604
 3402SOL    HW240701   4.567   1.011  11.642
 3403SOL     OW40702   4.623   2.839  11.571
 3403SOL    HW140703   4.674   2.765  11.603
 3403SOL    HW240704   4.575   2.871  11.647
 3404SOL     OW40705   4.623   4.694  11.567
 3404SOL    HW140706   4.671   4.626  11.615
 3404SOL    HW240707   4.565   4.732  11.633
 3405SOL     OW40708   0.786   0.294   1.289
 3405SOL    HW140709   0.868   0.244   1.288
 3405SOL    HW240710   0.739   0.262   1.366
 3406SOL     OW40711   0.792   2.153   1.270
 3406SOL    HW140712   0.872   2.101   1.267
 3406SOL    HW240713   0.741   2.116   1.343
 3407SOL     OW40714   0.797   4.019   1.264
 3407SOL    HW140715   0.878   3.967   1.268
 3407SOL    HW240716   0.741   3.981   1.332
 3408SOL     OW40717   0.787   5.838   1.256
 3408SOL    HW140718   0.873   5.796   1.262
 3408SOL    HW240719   0.733   5.791   1.321
 3409SOL     OW40720   2.650   0.226   1.275
 3409SOL    HW140721   2.734   0.183   1.261
 3409SOL    HW240722   2.667   0.288   1.346
 3410SOL     OW40723   2.661   2.156   1.254
 3410SOL    HW140724   2.743   2.105   1.254
 3410SOL    HW240725   2.614   2.124   1.331
 3411SOL     OW40726   2.850   4.018   1.238
 3411SOL    HW140727   2.904   3.988   1.312
 3411SOL    HW240728   2.816   4.103   1.266
 3412SOL     OW40729   2.629   5.852   1.273
 3412SOL    HW140730   2.713   5.807   1.282
 3412SOL    HW240731   2.581   5.829   1.352
 3413SOL     OW40732   4.517   0.284   1.275
 3413SOL    HW140733   4.590   0.224   1.259
 3413SOL    HW240734   4.509   0.286   1.371
 3414SOL     OW40735   4.500   2.130   1.265
 3414SOL    HW140736   4.584   2.085   1.272
 3414SOL    HW240737   4.448   2.098   1.339
 3415SOL     OW40738   4.487   3.968   1.252
 3415SOL    HW140739   4.571   3.922   1.250
 3415SOL    HW240740   4.475   3.990   1.345
 3416SOL     OW40741   4.500   5.862   1.291
 3416SOL    HW140742   4.583   5.816   1.284
 3416SOL    HW240743   4.458   5.824   1.368
 3417SOL     OW40744   0.362   1.818  11.552
 3417SOL    HW140745   0.409   1.736  11.570
 3417SOL    HW240746   0.425   1.887  11.571
 3418SOL     OW40747   0.369   3.682  11.582
 3418SOL    HW140748   0.415   3.599  11.593
 3418SOL    HW240749   0.435   3.749  11.598
 3419SOL     OW40750   0.367   5.542  11.563
 3419SOL    HW140751   0.415   5.461  11.580
 3419SOL    HW240752   0.431   5.611  11.580
 3420SOL     OW40753   2.225   1.816  11.591
 3420SOL    HW140754   2.270   1.731  11.593
 3420SOL    HW240755   2.296   1.880  11.600
 3421SOL     OW40756   2.151   3.643  11.472
 3421SOL    HW140757   2.197   3.565  11.503
 3421SOL    HW240758   2.195   3.665  11.390
 3422SOL     OW40759   2.209   5.536  11.591
 3422SOL    HW140760   2.265   5.459  11.586
 3422SOL    HW240761   2.269   5.610  11.580
 3423SOL     OW40762   4.076   1.812  11.566
 3423SOL    HW140763   4.130   1.733  11.569
 3423SOL    HW240764   4.140   1.884  11.569
 3424SOL     OW40765   4.087   3.679  11.579
 3424SOL    HW140766   4.136   3.597  11.576
 3424SOL    HW240767   4.155   3.747  11.583
 3425SOL     OW40768   4.079   5.537  11.586
 3425SOL    HW140769   4.136   5.460  11.579
 3425SOL    HW240770   4.138   5.612  11.577
 3426SOL     OW40771   5.948   1.823  11.571
 3426SOL    HW140772   5.997   1.742  11.580
 3426SOL    HW240773   6.013   1.892  11.585
 3427SOL     OW40774   5.960   3.677  11.557
 3427SOL    HW140775   6.013   3.597  11.565
 3427SOL    HW240776   6.022   3.748  11.572
 3428SOL     OW40777   5.936   5.533  11.647
 3428SOL    HW140778   5.990   5.457  11.625
 3428SOL    HW240779   5.989   5.609  11.624
 3429SOL     OW40780   1.860   1.545  11.559
 3429SOL    HW140781   1.786   1.521  11.505
 3429SOL    HW240782   1.877   1.468  11.613
 3430SOL     OW40783   1.835   3.404  11.564
 3430SOL    HW140784   1.761   3.390  11.505
 3430SOL    HW240785   1.811   3.355  11.643
 3431SOL     OW40786   1.849   5.266  11.537
 3431SOL    HW140787   1.766   5.267  11.489
 3431SOL    HW240788   1.828   5.221  11.619
 3432SOL     OW40789   3.715   1.546  11.538
 3432SOL    HW140790   3.632   1.533  11.492
 3432SOL    HW240791   3.712   1.482  11.610
 3433SOL     OW40792   3.743   3.407  11.539
 3433SOL    HW140793   3.766   3.348  11.468
 3433SOL    HW240794   3.701   3.351  11.604
 3434SOL     OW40795   3.746   5.255  11.579
 3434SOL    HW140796   3.699   5.218  11.504
 3434SOL    HW240797   3.704   5.217  11.656
 3435SOL     OW40798   5.591   1.548  11.551
 3435SOL    HW140799   5.513   1.540  11.496
 3435SOL    HW240800   5.575   1.488  11.624
 3436SOL     OW40801   5.610   3.427  11.532
 3436SOL    HW140802   5.546   3.455  11.467
 3436SOL    HW240803   5.561   3.369  11.591
 3437SOL     OW40804   5.593   5.262  11.536
 3437SOL    HW140805   5.509   5.248  11.491
 3437SOL    HW240806   5.586   5.207  11.615
 3438SOL     OW40807   1.090   1.347  11.564
 3438SOL    HW140808   1.098   1.275  11.501
 3438SOL    HW240809   1.155   1.411  11.535
 3439SOL     OW40810   1.090   3.208  11.577
 3439SOL    HW140811   1.102   3.134  11.517
 3439SOL    HW240812   1.143   3.278  11.539
 3440SOL     OW40813   1.086   5.062  11.565
 3440SOL    HW140814   1.096   4.991  11.501
 3440SOL    HW240815   1.141   5.132  11.531
 3441SOL     OW40816   2.951   1.340  11.563
 3441SOL    HW140817   2.956   1.267  11.501
 3441SOL    HW240818   3.008   1.407  11.524
 3442SOL     OW40819   3.139   3.122  11.443
 3442SOL    HW140820   3.109   3.096  11.355
 3442SOL    HW240821   3.145   3.217  11.438
 3443SOL     OW40822   2.956   5.065  11.560
 3443SOL    HW140823   2.974   4.991  11.502
 3443SOL    HW240824   3.014   5.135  11.529
 3444SOL     OW40825   4.816   1.343  11.569
 3444SOL    HW140826   4.818   1.268  11.510
 3444SOL    HW240827   4.875   1.407  11.530
 3445SOL     OW40828   4.810   3.199  11.567
 3445SOL    HW140829   4.820   3.127  11.505
 3445SOL    HW240830   4.865   3.270  11.532
 3446SOL     OW40831   4.816   5.049  11.568
 3446SOL    HW140832   4.827   4.979  11.504
 3446SOL    HW240833   4.868   5.121  11.534
 3447SOL     OW40834   0.245   1.384  11.532
 3447SOL    HW140835   0.208   1.309  11.486
 3447SOL    HW240836   0.253   1.452  11.465
 3448SOL     OW40837   0.216   3.208  11.545
 3448SOL    HW140838   0.224   3.113  11.552
 3448SOL    HW240839   0.237   3.227  11.454
 3449SOL     OW40840   0.234   5.092  11.546
 3449SOL    HW140841   0.217   5.001  11.522
 3449SOL    HW240842   0.251   5.136  11.463
 3450SOL     OW40843   1.024   0.135   1.272
 3450SOL    HW140844   1.070   0.219   1.273
 3450SOL    HW240845   1.063   0.087   1.199
 3451SOL     OW40846   1.014   1.995   1.273
 3451SOL    HW140847   1.072   2.069   1.255
 3451SOL    HW240848   1.066   1.918   1.252
 3452SOL     OW40849   1.025   3.867   1.288
 3452SOL    HW140850   1.084   3.940   1.270
 3452SOL    HW240851   1.072   3.789   1.260
 3453SOL     OW40852   1.024   5.711   1.277
 3453SOL    HW140853   1.082   5.788   1.269
 3453SOL    HW240854   1.080   5.637   1.252
 3454SOL     OW40855   2.896   0.112   1.247
 3454SOL    HW140856   2.946   0.194   1.246
 3454SOL    HW240857   2.936   0.060   1.177
 3455SOL     OW40858   2.882   1.995   1.269
 3455SOL    HW140859   2.942   2.068   1.261
 3455SOL    HW240860   2.934   1.917   1.248
 3456SOL     OW40861   3.015   3.921   1.424
 3456SOL    HW140862   3.085   3.903   1.361
 3456SOL    HW240863   3.005   3.839   1.473
 3457SOL     OW40864   2.880   5.727   1.300
 3457SOL    HW140865   2.935   5.800   1.270
 3457SOL    HW240866   2.925   5.649   1.268
 3458SOL     OW40867   4.742   0.120   1.240
 3458SOL    HW140868   4.793   0.201   1.246
 3458SOL    HW240869   4.777   0.075   1.163
 3459SOL     OW40870   4.741   2.004   1.296
 3459SOL    HW140871   4.797   2.077   1.269
 3459SOL    HW240872   4.786   1.926   1.265
 3460SOL     OW40873   4.738   3.857   1.278
 3460SOL    HW140874   4.796   3.931   1.259
 3460SOL    HW240875   4.788   3.780   1.251
 3461SOL     OW40876   4.733   5.724   1.270
 3461SOL    HW140877   4.794   5.797   1.260
 3461SOL    HW240878   4.786   5.646   1.255
 3462SOL     OW40879   0.352   0.292   1.337
 3462SOL    HW140880   0.408   0.326   1.407
 3462SOL    HW240881   0.296   0.366   1.313
 3463SOL     OW40882   0.347   2.132   1.333
 3463SOL    HW140883   0.395   2.188   1.395
 3463SOL    HW240884   0.257   2.133   1.365
 3464SOL     OW40885   0.366   3.997   1.317
 3464SOL    HW140886   0.409   4.066   1.367
 3464SOL    HW240887   0.278   3.992   1.353
 3465SOL     OW40888   0.329   5.823   1.296
 3465SOL    HW140889   0.378   5.897   1.332
 3465SOL    HW240890   0.238   5.840   1.322
 3466SOL     OW40891   2.204   0.270   1.375
 3466SOL    HW140892   2.260   0.343   1.402
 3466SOL    HW240893   2.120   0.288   1.417
 3467SOL     OW40894   2.202   2.093   1.354
 3467SOL    HW140895   2.244   2.179   1.352
 3467SOL    HW240896   2.109   2.112   1.366
 3468SOL     OW40897   2.243   4.074   1.362
 3468SOL    HW140898   2.279   4.095   1.449
 3468SOL    HW240899   2.165   4.129   1.354
 3469SOL     OW40900   2.234   5.828   1.357
 3469SOL    HW140901   2.270   5.903   1.406
 3469SOL    HW240902   2.140   5.844   1.355
 3470SOL     OW40903   4.084   0.281   1.309
 3470SOL    HW140904   4.134   0.357   1.339
 3470SOL    HW240905   4.000   0.288   1.354
 3471SOL     OW40906   4.065   2.091   1.338
 3471SOL    HW140907   4.136   2.148   1.368
 3471SOL    HW240908   3.992   2.150   1.321
 3472SOL     OW40909   4.073   3.959   1.332
 3472SOL    HW140910   4.131   3.991   1.401
 3472SOL    HW240911   3.985   3.981   1.363
 3473SOL     OW40912   4.096   5.837   1.352
 3473SOL    HW140913   4.163   5.904   1.368
 3473SOL    HW240914   4.017   5.887   1.334
 3474SOL     OW40915   5.933   0.255   1.378
 3474SOL    HW140916   5.992   0.329   1.391
 3474SOL    HW240917   5.848   0.285   1.408
 3475SOL     OW40918   5.949   2.127   1.321
 3475SOL    HW140919   6.015   2.194   1.341
 3475SOL    HW240920   5.869   2.176   1.303
 3476SOL     OW40921   5.934   3.942   1.343
 3476SOL    HW140922   5.985   4.021   1.360
 3476SOL    HW240923   5.844   3.965   1.367
 3477SOL     OW40924   5.955   5.823   1.363
 3477SOL    HW140925   5.991   5.908   1.386
 3477SOL    HW240926   5.862   5.840   1.347
 3478SOL     OW40927   0.746   1.147   1.329
 3478SOL    HW140928   0.791   1.221   1.371
 3478SOL    HW240929   0.659   1.180   1.310
 3479SOL     OW40930   0.750   3.018   1.320
 3479SOL    HW140931   0.783   3.098   1.361
 3479SOL    HW240932   0.659   3.039   1.297
 3480SOL     OW40933   0.747   4.895   1.351
 3480SOL    HW140934   0.798   4.960   1.399
 3480SOL    HW240935   0.698   4.946   1.286
 3481SOL     OW40936   2.599   1.155   1.362
 3481SOL    HW140937   2.644   1.232   1.394
 3481SOL    HW240938   2.520   1.188   1.320
 3482SOL     OW40939   2.602   2.994   1.337
 3482SOL    HW140940   2.610   3.087   1.359
 3482SOL    HW240941   2.514   2.986   1.301
 3483SOL     OW40942   2.599   4.872   1.334
 3483SOL    HW140943   2.624   4.958   1.366
 3483SOL    HW240944   2.519   4.887   1.283
 3484SOL     OW40945   4.464   1.161   1.335
 3484SOL    HW140946   4.507   1.236   1.376
 3484SOL    HW240947   4.387   1.198   1.291
 3485SOL     OW40948   4.446   3.010   1.335
 3485SOL    HW140949   4.481   3.094   1.365
 3485SOL    HW240950   4.358   3.031   1.303
 3486SOL     OW40951   4.455   4.895   1.339
 3486SOL    HW140952   4.493   4.979   1.364
 3486SOL    HW240953   4.370   4.918   1.301
 3487SOL     OW40954   6.356   1.161   1.343
 3487SOL    HW140955   6.353   1.247   1.303
 3487SOL    HW240956   6.264   1.133   1.345
 3488SOL     OW40957   6.356   3.011   1.337
 3488SOL    HW140958   6.363   3.099   1.301
 3488SOL    HW240959   6.266   2.984   1.316
 3489SOL     OW40960   6.317   4.846   1.343
 3489SOL    HW140961   6.359   4.914   1.396
 3489SOL    HW240962   6.256   4.894   1.287
 3490SOL     OW40963   0.375   0.939   1.304
 3490SOL    HW140964   0.455   0.990   1.316
 3490SOL    HW240965   0.403   0.860   1.259
 3491SOL     OW40966   0.374   2.815   1.337
 3491SOL    HW140967   0.438   2.883   1.314
 3491SOL    HW240968   0.402   2.739   1.286
 3492SOL     OW40969   0.374   4.645   1.336
 3492SOL    HW140970   0.452   4.666   1.387
 3492SOL    HW240971   0.403   4.576   1.276
 3493SOL     OW40972   2.246   0.925   1.322
 3493SOL    HW140973   2.322   0.940   1.378
 3493SOL    HW240974   2.272   0.854   1.264
 3494SOL     OW40975   2.222   2.750   1.357
 3494SOL    HW140976   2.304   2.776   1.398
 3494SOL    HW240977   2.249   2.692   1.285
 3495SOL     OW40978   2.216   4.641   1.376
 3495SOL    HW140979   2.300   4.646   1.421
 3495SOL    HW240980   2.238   4.609   1.288
 3496SOL     OW40981   4.097   0.927   1.352
 3496SOL    HW140982   4.176   0.935   1.405
 3496SOL    HW240983   4.120   0.862   1.285
 3497SOL     OW40984   4.124   4.690   1.324
 3497SOL    HW140985   4.198   4.682   1.385
 3497SOL    HW240986   4.132   4.614   1.266
 3498SOL     OW40987   5.961   0.929   1.344
 3498SOL    HW140988   6.023   0.996   1.316
 3498SOL    HW240989   5.979   0.855   1.287
 3499SOL     OW40990   5.937   2.810   1.312
 3499SOL    HW140991   5.947   2.768   1.398
 3499SOL    HW240992   5.968   2.743   1.250
 3500SOL     OW40993   5.945   4.632   1.356
 3500SOL    HW140994   6.026   4.652   1.402
 3500SOL    HW240995   5.970   4.569   1.288
 3501SOL     OW40996   1.269   1.565  11.526
 3501SOL    HW140997   1.233   1.651  11.505
 3501SOL    HW240998   1.316   1.577  11.608
 3502SOL     OW40999   1.236   3.433  11.519
 3502SOL    HW141000   1.254   3.502  11.455
 3502SOL    HW241001   1.310   3.438  11.580
 3503SOL     OW41002   1.224   5.304  11.526
 3503SOL    HW141003   1.253   5.354  11.449
 3503SOL    HW241004   1.297   5.310  11.587
 3504SOL     OW41005   3.103   1.565  11.492
 3504SOL    HW141006   3.105   1.641  11.433
 3504SOL    HW241007   3.160   1.589  11.565
 3505SOL     OW41008   3.179   3.396  11.457
 3505SOL    HW141009   3.205   3.473  11.407
 3505SOL    HW241010   3.251   3.380  11.518
 3506SOL     OW41011   3.102   5.300  11.510
 3506SOL    HW141012   3.085   5.382  11.463
 3506SOL    HW241013   3.135   5.327  11.595
 3507SOL     OW41014   4.977   1.571  11.494
 3507SOL    HW141015   4.978   1.644  11.432
 3507SOL    HW241016   5.011   1.607  11.575
 3508SOL     OW41017   4.954   3.418  11.488
 3508SOL    HW141018   4.962   3.493  11.429
 3508SOL    HW241019   5.038   3.415  11.534
 3509SOL     OW41020   4.942   5.293  11.523
 3509SOL    HW141021   4.959   5.364  11.461
 3509SOL    HW241022   5.010   5.302  11.589
 3510SOL     OW41023   0.024   0.854  11.561
 3510SOL    HW141024   0.041   0.760  11.559
 3510SOL    HW241025   0.111   0.894  11.562
 3511SOL     OW41026   0.102   2.683  11.468
 3511SOL    HW141027   0.177   2.667  11.526
 3511SOL    HW241028   0.080   2.775  11.482
 3512SOL     OW41029   0.082   4.578  11.486
 3512SOL    HW141030   0.102   4.498  11.533
 3512SOL    HW241031   0.152   4.639  11.510
 3513SOL     OW41032   0.094   0.011  11.562
 3513SOL    HW141033   0.178   6.418  11.581
 3513SOL    HW241034   0.095   0.024  11.467
 3514SOL     OW41035   1.923   0.824  11.516
 3514SOL    HW141036   2.007   0.821  11.562
 3514SOL    HW241037   1.888   0.911  11.537
 3515SOL     OW41038   1.974   2.716  11.463
 3515SOL    HW141039   2.046   2.683  11.517
 3515SOL    HW241040   1.928   2.778  11.520
 3516SOL     OW41041   1.961   4.572  11.488
 3516SOL    HW141042   2.035   4.554  11.546
 3516SOL    HW241043   1.912   4.642  11.531
 3517SOL     OW41044   3.761   0.824  11.546
 3517SOL    HW141045   3.855   0.817  11.565
 3517SOL    HW241046   3.742   0.918  11.555
 3518SOL     OW41047   3.828   2.699  11.564
 3518SOL    HW141048   3.919   2.683  11.591
 3518SOL    HW241049   3.821   2.794  11.559
 3519SOL     OW41050   3.831   4.528  11.494
 3519SOL    HW141051   3.913   4.531  11.542
 3519SOL    HW241052   3.780   4.602  11.527
 3520SOL     OW41053   5.689   0.848  11.466
 3520SOL    HW141054   5.766   0.821  11.516
 3520SOL    HW241055   5.647   0.914  11.521
 3521SOL     OW41056   5.683   2.715  11.472
 3521SOL    HW141057   5.767   2.684  11.507
 3521SOL    HW241058   5.665   2.795  11.522
 3522SOL     OW41059   5.696   4.545  11.491
 3522SOL    HW141060   5.775   4.549  11.545
 3522SOL    HW241061   5.642   4.618  11.522
 3523SOL     OW41062   0.887   0.762   1.350
 3523SOL    HW141063   0.921   0.824   1.414
 3523SOL    HW241064   0.902   0.804   1.266
 3524SOL     OW41065   0.871   2.615   1.330
 3524SOL    HW141066   0.851   2.685   1.391
 3524SOL    HW241067   0.906   2.660   1.252
 3525SOL     OW41068   0.873   4.476   1.345
 3525SOL    HW141069   0.854   4.540   1.413
 3525SOL    HW241070   0.901   4.528   1.270
 3526SOL     OW41071   0.877   6.369   1.367
 3526SOL    HW141072   0.932   6.445   1.349
 3526SOL    HW241073   0.856   6.334   1.281
 3527SOL     OW41074   2.721   0.761   1.353
 3527SOL    HW141075   2.725   0.819   1.430
 3527SOL    HW241076   2.759   0.813   1.282
 3528SOL     OW41077   2.750   2.615   1.364
 3528SOL    HW141078   2.735   2.690   1.421
 3528SOL    HW241079   2.774   2.653   1.279
 3529SOL     OW41080   2.769   4.517   1.359
 3529SOL    HW141081   2.761   4.583   1.427
 3529SOL    HW241082   2.781   4.567   1.278
 3530SOL     OW41083   2.731   6.338   1.367
 3530SOL    HW141084   2.669   6.401   1.403
 3530SOL    HW241085   2.779   6.387   1.300
 3531SOL     OW41086   4.596   0.738   1.351
 3531SOL    HW141087   4.544   0.798   1.405
 3531SOL    HW241088   4.626   0.791   1.278
 3532SOL     OW41089   4.595   2.617   1.358
 3532SOL    HW141090   4.536   2.673   1.408
 3532SOL    HW241091   4.619   2.669   1.282
 3533SOL     OW41092   4.600   4.459   1.351
 3533SOL    HW141093   4.588   4.514   1.428
 3533SOL    HW241094   4.622   4.520   1.281
 3534SOL     OW41095   4.611   6.364   1.374
 3534SOL    HW141096   4.642   6.397   1.459
 3534SOL    HW241097   4.641   6.430   1.311
 3535SOL     OW41098   0.018   0.758   1.378
 3535SOL    HW141099   0.041   0.826   1.441
 3535SOL    HW241100   0.054   0.789   1.295
 3536SOL     OW41101   6.429   2.636   1.372
 3536SOL    HW141102   6.364   2.696   1.410
 3536SOL    HW241103   0.029   2.690   1.311
 3537SOL     OW41104   6.430   4.496   1.378
 3537SOL    HW141105   6.379   4.551   1.438
 3537SOL    HW241106   0.026   4.558   1.321
 3538SOL     OW41107   1.678   0.558   1.379
 3538SOL    HW141108   1.661   0.636   1.326
 3538SOL    HW241109   1.708   0.492   1.317
 3539SOL     OW41110   1.662   2.397   1.348
 3539SOL    HW141111   1.651   2.471   1.289
 3539SOL    HW241112   1.718   2.336   1.301
 3540SOL     OW41113   1.672   4.284   1.368
 3540SOL    HW141114   1.664   4.372   1.332
 3540SOL    HW241115   1.703   4.230   1.296
 3541SOL     OW41116   1.719   6.167   1.347
 3541SOL    HW141117   1.687   6.234   1.286
 3541SOL    HW241118   1.738   6.091   1.292
 3542SOL     OW41119   3.524   0.548   1.327
 3542SOL    HW141120   3.527   0.630   1.278
 3542SOL    HW241121   3.575   0.487   1.273
 3543SOL     OW41122   3.543   2.413   1.368
 3543SOL    HW141123   3.526   2.493   1.318
 3543SOL    HW241124   3.595   2.359   1.308
 3544SOL     OW41125   3.602   4.299   1.359
 3544SOL    HW141126   3.575   4.383   1.321
 3544SOL    HW241127   3.633   4.247   1.285
 3545SOL     OW41128   3.547   6.163   1.341
 3545SOL    HW141129   3.531   6.236   1.281
 3545SOL    HW241130   3.590   6.097   1.287
 3546SOL     OW41131   5.406   0.571   1.378
 3546SOL    HW141132   5.387   0.648   1.324
 3546SOL    HW241133   5.435   0.505   1.315
 3547SOL     OW41134   5.402   2.412   1.366
 3547SOL    HW141135   5.383   2.486   1.307
 3547SOL    HW241136   5.446   2.348   1.312
 3548SOL     OW41137   5.477   4.298   1.340
 3548SOL    HW141138   5.437   4.368   1.288
 3548SOL    HW241139   5.490   4.227   1.277
 3549SOL     OW41140   5.483   6.199   1.338
 3549SOL    HW141141   5.424   6.257   1.290
 3549SOL    HW241142   5.479   6.116   1.292
 3550SOL     OW41143   0.246   1.315   1.396
 3550SOL    HW141144   0.156   1.287   1.382
 3550SOL    HW241145   0.251   1.332   1.490
 3551SOL     OW41146   0.245   3.162   1.380
 3551SOL    HW141147   0.153   3.158   1.356
 3551SOL    HW241148   0.246   3.155   1.476
 3552SOL     OW41149   0.183   5.033   1.317
 3552SOL    HW141150   0.130   4.994   1.248
 3552SOL    HW241151   0.129   5.027   1.396
 3553SOL     OW41152   2.110   1.289   1.356
 3553SOL    HW141153   2.067   1.209   1.325
 3553SOL    HW241154   2.070   1.305   1.442
 3554SOL     OW41155   2.091   3.077   1.391
 3554SOL    HW141156   2.040   3.005   1.355
 3554SOL    HW241157   2.046   3.100   1.472
 3555SOL     OW41158   2.098   5.006   1.350
 3555SOL    HW141159   2.061   4.926   1.313
 3555SOL    HW241160   2.047   5.023   1.428
 3556SOL     OW41161   3.935   1.298   1.359
 3556SOL    HW141162   3.908   1.215   1.319
 3556SOL    HW241163   3.870   1.315   1.427
 3557SOL     OW41164   3.943   3.146   1.359
 3557SOL    HW141165   3.904   3.066   1.322
 3557SOL    HW241166   3.890   3.164   1.437
 3558SOL     OW41167   5.799   1.291   1.395
 3558SOL    HW141168   5.763   1.218   1.345
 3558SOL    HW241169   5.749   1.292   1.476
 3559SOL     OW41170   5.813   3.194   1.294
 3559SOL    HW141171   5.769   3.111   1.279
 3559SOL    HW241172   5.853   3.185   1.381
 3560SOL     OW41173   5.800   5.010   1.388
 3560SOL    HW141174   5.768   4.932   1.342
 3560SOL    HW241175   5.735   5.025   1.457
 3561SOL     OW41176   0.170   1.767   1.374
 3561SOL    HW141177   0.095   1.755   1.434
 3561SOL    HW241178   0.221   1.837   1.415
 3562SOL     OW41179   0.180   3.593   1.382
 3562SOL    HW141180   0.098   3.626   1.420
 3562SOL    HW241181   0.248   3.645   1.424
 3563SOL     OW41182   0.171   5.431   1.352
 3563SOL    HW141183   0.102   5.389   1.404
 3563SOL    HW241184   0.225   5.477   1.417
 3564SOL     OW41185   2.008   1.842   1.365
 3564SOL    HW141186   1.980   1.761   1.408
 3564SOL    HW241187   2.058   1.889   1.431
 3565SOL     OW41188   1.790   3.592   1.469
 3565SOL    HW141189   1.802   3.508   1.513
 3565SOL    HW241190   1.720   3.635   1.518
 3566SOL     OW41191   2.012   5.519   1.373
 3566SOL    HW141192   1.977   5.447   1.425
 3566SOL    HW241193   2.069   5.567   1.433
 3567SOL     OW41194   3.839   1.812   1.362
 3567SOL    HW141195   3.799   1.747   1.420
 3567SOL    HW241196   3.886   1.871   1.421
 3568SOL     OW41197   3.846   5.491   1.376
 3568SOL    HW141198   3.773   5.477   1.437
 3568SOL    HW241199   3.914   5.532   1.429
 3569SOL     OW41200   5.751   1.758   1.380
 3569SOL    HW141201   5.674   1.754   1.436
 3569SOL    HW241202   5.816   1.806   1.431
 3570SOL     OW41203   5.717   5.483   1.362
 3570SOL    HW141204   5.654   5.433   1.414
 3570SOL    HW241205   5.767   5.533   1.427
 3571SOL     OW41206   1.789   0.950   1.382
 3571SOL    HW141207   1.728   0.888   1.341
 3571SOL    HW241208   1.744   0.978   1.462
 3572SOL     OW41209   1.765   4.683   1.411
 3572SOL    HW141210   1.722   4.618   1.355
 3572SOL    HW241211   1.697   4.714   1.470
 3573SOL     OW41212   1.746   0.094   1.370
 3573SOL    HW141213   1.702   0.027   1.319
 3573SOL    HW241214   1.748   0.058   1.459
 3574SOL     OW41215   3.656   0.920   1.388
 3574SOL    HW141216   3.599   0.877   1.324
 3574SOL    HW241217   3.644   0.870   1.469
 3575SOL     OW41218   3.640   2.831   1.382
 3575SOL    HW141219   3.585   2.758   1.354
 3575SOL    HW241220   3.630   2.834   1.477
 3576SOL     OW41221   3.610   4.697   1.396
 3576SOL    HW141222   3.571   4.625   1.348
 3576SOL    HW241223   3.548   4.717   1.465
 3577SOL     OW41224   3.596   0.106   1.372
 3577SOL    HW141225   3.549   0.029   1.340
 3577SOL    HW241226   3.618   0.086   1.463
 3578SOL     OW41227   5.496   0.966   1.390
 3578SOL    HW141228   5.452   0.897   1.340
 3578SOL    HW241229   5.434   0.986   1.460
 3579SOL     OW41230   5.496   2.796   1.352
 3579SOL    HW141231   5.461   2.719   1.307
 3579SOL    HW241232   5.423   2.829   1.404
 3580SOL     OW41233   5.488   4.682   1.390
 3580SOL    HW141234   5.450   4.611   1.339
 3580SOL    HW241235   5.425   4.697   1.461
 3581SOL     OW41236   5.482   0.099   1.365
 3581SOL    HW141237   5.432   0.022   1.339
 3581SOL    HW241238   5.426   0.143   1.429
 3582SOL     OW41239   0.975   0.094  11.472
 3582SOL    HW141240   0.969   0.131  11.384
 3582SOL    HW241241   1.053   0.037  11.469
 3583SOL     OW41242   0.982   1.938  11.477
 3583SOL    HW141243   0.930   1.920  11.399
 3583SOL    HW241244   0.986   1.854  11.523
 3584SOL     OW41245   1.051   3.771  11.458
 3584SOL    HW141246   0.983   3.770  11.391
 3584SOL    HW241247   1.028   3.701  11.518
 3585SOL     OW41248   0.950   5.668  11.478
 3585SOL    HW141249   0.901   5.643  11.400
 3585SOL    HW241250   0.973   5.585  11.520
 3586SOL     OW41251   2.845   0.090  11.446
 3586SOL    HW141252   2.831   0.113  11.355
 3586SOL    HW241253   2.934   0.057  11.449
 3587SOL     OW41254   2.889   1.936  11.462
 3587SOL    HW141255   2.833   1.933  11.384
 3587SOL    HW241256   2.868   1.856  11.510
 3588SOL     OW41257   2.784   3.937  11.368
 3588SOL    HW141258   2.698   3.905  11.340
 3588SOL    HW241259   2.846   3.878  11.327
 3589SOL     OW41260   2.863   5.667  11.474
 3589SOL    HW141261   2.823   5.653  11.388
 3589SOL    HW241262   2.848   5.585  11.521
 3590SOL     OW41263   4.698   0.074  11.500
 3590SOL    HW141264   4.707   0.107  11.411
 3590SOL    HW241265   4.764   6.454  11.507
 3591SOL     OW41266   4.765   1.938  11.460
 3591SOL    HW141267   4.719   1.964  11.379
 3591SOL    HW241268   4.722   1.857  11.487
 3592SOL     OW41269   4.746   3.804  11.464
 3592SOL    HW141270   4.704   3.787  11.379
 3592SOL    HW241271   4.732   3.725  11.515
 3593SOL     OW41272   4.735   5.685  11.477
 3593SOL    HW141273   4.712   5.706  11.386
 3593SOL    HW241274   4.710   5.593  11.487
 3594SOL     OW41275   0.475   1.141  11.432
 3594SOL    HW141276   0.404   1.120  11.493
 3594SOL    HW241277   0.433   1.142  11.346
 3595SOL     OW41278   0.499   2.990  11.516
 3595SOL    HW141279   0.422   2.981  11.573
 3595SOL    HW241280   0.476   2.940  11.437
 3596SOL     OW41281   0.477   4.884  11.436
 3596SOL    HW141282   0.413   4.854  11.502
 3596SOL    HW241283   0.432   4.872  11.353
 3597SOL     OW41284   2.361   1.162  11.457
 3597SOL    HW141285   2.294   1.139  11.522
 3597SOL    HW241286   2.321   1.140  11.373
 3598SOL     OW41287   2.319   2.944  11.394
 3598SOL    HW141288   2.263   2.940  11.471
 3598SOL    HW241289   2.270   2.898  11.326
 3599SOL     OW41290   2.360   4.891  11.431
 3599SOL    HW141291   2.293   4.869  11.495
 3599SOL    HW241292   2.325   4.860  11.348
 3600SOL     OW41293   4.207   1.161  11.440
 3600SOL    HW141294   4.141   1.134  11.504
 3600SOL    HW241295   4.164   1.150  11.355
 3601SOL     OW41296   4.217   3.019  11.449
 3601SOL    HW141297   4.147   2.998  11.511
 3601SOL    HW241298   4.198   2.966  11.372
 3602SOL     OW41299   4.205   4.898  11.468
 3602SOL    HW141300   4.126   4.862  11.509
 3602SOL    HW241301   4.175   4.928  11.382
 3603SOL     OW41302   6.085   1.154  11.430
 3603SOL    HW141303   6.020   1.131  11.496
 3603SOL    HW241304   6.037   1.156  11.347
 3604SOL     OW41305   1.629   0.431  11.451
 3604SOL    HW141306   1.538   0.443  11.422
 3604SOL    HW241307   1.641   0.498  11.518
 3605SOL     OW41308   1.653   2.326  11.464
 3605SOL    HW141309   1.629   2.369  11.381
 3605SOL    HW241310   1.628   2.389  11.531
 3606SOL     OW41311   1.586   4.140  11.450
 3606SOL    HW141312   1.498   4.160  11.419
 3606SOL    HW241313   1.642   4.204  11.406
 3607SOL     OW41314   1.619   6.019  11.441
 3607SOL    HW141315   1.528   6.023  11.413
 3607SOL    HW241316   1.643   6.111  11.456
 3608SOL     OW41317   3.482   0.462  11.459
 3608SOL    HW141318   3.445   0.491  11.375
 3608SOL    HW241319   3.470   0.537  11.517
 3609SOL     OW41320   3.463   2.304  11.456
 3609SOL    HW141321   3.382   2.302  11.405
 3609SOL    HW241322   3.442   2.359  11.532
 3610SOL     OW41323   3.478   6.010  11.470
 3610SOL    HW141324   3.394   6.020  11.424
 3610SOL    HW241325   3.488   6.092  11.519
 3611SOL     OW41326   5.367   0.449  11.476
 3611SOL    HW141327   5.296   0.491  11.426
 3611SOL    HW241328   5.389   0.511  11.545
 3612SOL     OW41329   5.300   2.281  11.459
 3612SOL    HW141330   5.214   2.298  11.420
 3612SOL    HW241331   5.346   2.364  11.454
 3613SOL     OW41332   5.345   4.179  11.507
 3613SOL    HW141333   5.279   4.208  11.444
 3613SOL    HW241334   5.354   4.253  11.567
 3614SOL     OW41335   5.323   6.014  11.461
 3614SOL    HW141336   5.237   6.024  11.422
 3614SOL    HW241337   5.351   6.104  11.481
 3615SOL     OW41338   1.048   0.547   1.405
 3615SOL    HW141339   0.992   0.623   1.388
 3615SOL    HW241340   1.105   0.575   1.477
 3616SOL     OW41341   0.916   1.351   1.439
 3616SOL    HW141342   0.869   1.343   1.523
 3616SOL    HW241343   0.890   1.437   1.406
 3617SOL     OW41344   1.040   2.403   1.384
 3617SOL    HW141345   0.979   2.473   1.363
 3617SOL    HW241346   1.108   2.447   1.437
 3618SOL     OW41347   0.870   3.262   1.436
 3618SOL    HW141348   0.791   3.294   1.479
 3618SOL    HW241349   0.890   3.329   1.370
 3619SOL     OW41350   1.037   4.264   1.400
 3619SOL    HW141351   0.979   4.336   1.376
 3619SOL    HW241352   1.079   4.294   1.481
 3620SOL     OW41353   0.909   5.110   1.437
 3620SOL    HW141354   0.844   5.156   1.490
 3620SOL    HW241355   0.929   5.169   1.365
 3621SOL     OW41356   1.060   6.132   1.399
 3621SOL    HW141357   1.002   6.208   1.410
 3621SOL    HW241358   1.105   6.124   1.483
 3622SOL     OW41359   2.753   1.378   1.428
 3622SOL    HW141360   2.691   1.435   1.473
 3622SOL    HW241361   2.780   1.427   1.351
 3623SOL     OW41362   2.919   2.395   1.392
 3623SOL    HW141363   2.867   2.475   1.390
 3623SOL    HW241364   2.969   2.400   1.473
 3624SOL     OW41365   2.909   4.302   1.447
 3624SOL    HW141366   2.861   4.377   1.411
 3624SOL    HW241367   2.966   4.340   1.515
 3625SOL     OW41368   2.771   5.117   1.448
 3625SOL    HW141369   2.723   5.169   1.512
 3625SOL    HW241370   2.783   5.175   1.373
 3626SOL     OW41371   2.875   6.107   1.413
 3626SOL    HW141372   2.822   6.181   1.385
 3626SOL    HW241373   2.915   6.136   1.495
 3627SOL     OW41374   4.764   0.531   1.426
 3627SOL    HW141375   4.714   0.609   1.402
 3627SOL    HW241376   4.827   0.561   1.491
 3628SOL     OW41377   4.592   1.386   1.431
 3628SOL    HW141378   4.541   1.453   1.476
 3628SOL    HW241379   4.638   1.433   1.361
 3629SOL     OW41380   4.776   2.415   1.390
 3629SOL    HW141381   4.711   2.485   1.382
 3629SOL    HW241382   4.842   2.450   1.450
 3630SOL     OW41383   4.544   3.251   1.402
 3630SOL    HW141384   4.510   3.305   1.473
 3630SOL    HW241385   4.597   3.311   1.349
 3631SOL     OW41386   4.778   4.261   1.403
 3631SOL    HW141387   4.710   4.325   1.381
 3631SOL    HW241388   4.845   4.312   1.448
 3632SOL     OW41389   4.560   5.132   1.400
 3632SOL    HW141390   4.546   5.184   1.479
 3632SOL    HW241391   4.605   5.191   1.340
 3633SOL     OW41392   4.807   6.172   1.343
 3633SOL    HW141393   4.735   6.234   1.333
 3633SOL    HW241394   4.810   6.154   1.437
 3634SOL     OW41395   1.517   0.790  11.449
 3634SOL    HW141396   1.487   0.723  11.511
 3634SOL    HW241397   1.613   0.788  11.457
 3635SOL     OW41398   1.495   2.618  11.431
 3635SOL    HW141399   1.488   2.572  11.514
 3635SOL    HW241400   1.570   2.676  11.441
 3636SOL     OW41401   1.510   4.461  11.435
 3636SOL    HW141402   1.497   4.428  11.524
 3636SOL    HW241403   1.560   4.542  11.446
 3637SOL     OW41404   1.516   6.355  11.489
 3637SOL    HW141405   1.500   6.297  11.564
 3637SOL    HW241406   1.577   6.421  11.523
 3638SOL     OW41407   3.367   0.771  11.448
 3638SOL    HW141408   3.341   0.718  11.523
 3638SOL    HW241409   3.452   0.808  11.473
 3639SOL     OW41410   3.301   2.597  11.433
 3639SOL    HW141411   3.307   2.549  11.516
 3639SOL    HW241412   3.378   2.569  11.383
 3640SOL     OW41413   3.368   4.481  11.525
 3640SOL    HW141414   3.340   4.423  11.455
 3640SOL    HW241415   3.436   4.535  11.486
 3641SOL     OW41416   3.317   6.329  11.467
 3641SOL    HW141417   3.319   6.281  11.550
 3641SOL    HW241418   3.393   6.387  11.471
 3642SOL     OW41419   5.197   0.776  11.459
 3642SOL    HW141420   5.207   0.721  11.537
 3642SOL    HW241421   5.277   0.828  11.456
 3643SOL     OW41422   5.210   2.612  11.448
 3643SOL    HW141423   5.215   2.569  11.533
 3643SOL    HW241424   5.292   2.662  11.442
 3644SOL     OW41425   5.216   6.314  11.458
 3644SOL    HW141426   5.208   6.281  11.548
 3644SOL    HW241427   5.303   6.352  11.454
 3645SOL     OW41428   0.626   1.372  11.476
 3645SOL    HW141429   0.573   1.292  11.475
 3645SOL    HW241430   0.632   1.397  11.383
 3646SOL     OW41431   0.643   3.236  11.477
 3646SOL    HW141432   0.600   3.155  11.506
 3646SOL    HW241433   0.654   3.225  11.383
 3647SOL     OW41434   0.618   5.127  11.427
 3647SOL    HW141435   0.586   5.041  11.453
 3647SOL    HW241436   0.574   5.144  11.343
 3648SOL     OW41437   2.473   1.408  11.428
 3648SOL    HW141438   2.450   1.318  11.448
 3648SOL    HW241439   2.419   1.431  11.353
 3649SOL     OW41440   2.368   3.213  11.440
 3649SOL    HW141441   2.343   3.126  11.411
 3649SOL    HW241442   2.433   3.242  11.376
 3650SOL     OW41443   2.473   5.139  11.414
 3650SOL    HW141444   2.447   5.050  11.436
 3650SOL    HW241445   2.430   5.157  11.330
 3651SOL     OW41446   4.363   1.382  11.462
 3651SOL    HW141447   4.310   1.303  11.465
 3651SOL    HW241448   4.374   1.400  11.369
 3652SOL     OW41449   4.382   3.236  11.454
 3652SOL    HW141450   4.322   3.164  11.477
 3652SOL    HW241451   4.399   3.224  11.361
 3653SOL     OW41452   6.185   1.408  11.425
 3653SOL    HW141453   6.165   1.315  11.438
 3653SOL    HW241454   6.117   1.440  11.366
 3654SOL     OW41455   6.207   5.128  11.432
 3654SOL    HW141456   6.204   5.039  11.467
 3654SOL    HW241457   6.164   5.121  11.346
 3655SOL     OW41458   0.275   0.342  11.413
 3655SOL    HW141459   0.190   0.381  11.391
 3655SOL    HW241460   0.268   0.322  11.507
 3656SOL     OW41461   0.274   2.166  11.424
 3656SOL    HW141462   0.244   2.257  11.418
 3656SOL    HW241463   0.264   2.143  11.516
 3657SOL     OW41464   0.283   4.034  11.422
 3657SOL    HW141465   0.236   4.116  11.404
 3657SOL    HW241466   0.271   4.021  11.516
 3658SOL     OW41467   0.299   5.889  11.447
 3658SOL    HW141468   0.250   5.968  11.424
 3658SOL    HW241469   0.270   5.866  11.535
 3659SOL     OW41470   2.161   0.332  11.424
 3659SOL    HW141471   2.074   0.369  11.409
 3659SOL    HW241472   2.159   0.302  11.515
 3660SOL     OW41473   2.122   2.157  11.455
 3660SOL    HW141474   2.034   2.178  11.423
 3660SOL    HW241475   2.113   2.159  11.551
 3661SOL     OW41476   2.152   5.895  11.439
 3661SOL    HW141477   2.065   5.903  11.400
 3661SOL    HW241478   2.134   5.879  11.532
 3662SOL     OW41479   3.989   0.311  11.457
 3662SOL    HW141480   3.902   0.345  11.435
 3662SOL    HW241481   3.988   0.302  11.552
 3663SOL     OW41482   3.975   2.193  11.472
 3663SOL    HW141483   3.888   2.201  11.433
 3663SOL    HW241484   3.958   2.176  11.565
 3664SOL     OW41485   4.043   4.075  11.457
 3664SOL    HW141486   3.982   4.040  11.391
 3664SOL    HW241487   4.011   4.039  11.540
 3665SOL     OW41488   3.991   5.880  11.424
 3665SOL    HW141489   3.905   5.911  11.395
 3665SOL    HW241490   3.985   5.877  11.519
 3666SOL     OW41491   5.861   0.325  11.431
 3666SOL    HW141492   5.770   0.336  11.404
 3666SOL    HW241493   5.857   0.316  11.526
 3667SOL     OW41494   5.867   2.180  11.427
 3667SOL    HW141495   5.793   2.239  11.413
 3667SOL    HW241496   5.866   2.163  11.521
 3668SOL     OW41497   5.852   4.042  11.419
 3668SOL    HW141498   5.816   4.128  11.401
 3668SOL    HW241499   5.849   4.033  11.514
 3669SOL     OW41500   1.231   0.703  11.496
 3669SOL    HW141501   1.235   0.780  11.440
 3669SOL    HW241502   1.151   0.713  11.547
 3670SOL     OW41503   1.103   2.590  11.394
 3670SOL    HW141504   1.168   2.660  11.383
 3670SOL    HW241505   1.085   2.589  11.488
 3671SOL     OW41506   3.021   0.686  11.432
 3671SOL    HW141507   3.053   0.768  11.393
 3671SOL    HW241508   2.982   0.713  11.515
 3672SOL     OW41509   3.014   2.564  11.402
 3672SOL    HW141510   3.093   2.617  11.398
 3672SOL    HW241511   2.979   2.580  11.490
 3673SOL     OW41512   3.041   4.457  11.402
 3673SOL    HW141513   3.090   4.535  11.376
 3673SOL    HW241514   3.016   4.474  11.493
 3674SOL     OW41515   4.835   0.710  11.410
 3674SOL    HW141516   4.892   0.777  11.372
 3674SOL    HW241517   4.818   0.741  11.499
 3675SOL     OW41518   4.865   2.553  11.401
 3675SOL    HW141519   4.915   2.634  11.395
 3675SOL    HW241520   4.817   2.559  11.484
 3676SOL     OW41521   4.858   4.462  11.405
 3676SOL    HW141522   4.953   4.460  11.416
 3676SOL    HW241523   4.825   4.485  11.492
 3677SOL     OW41524   1.225   1.593   1.420
 3677SOL    HW141525   1.219   1.500   1.442
 3677SOL    HW241526   1.156   1.607   1.356
 3678SOL     OW41527   1.239   3.483   1.420
 3678SOL    HW141528   1.210   3.402   1.461
 3678SOL    HW241529   1.169   3.504   1.358
 3679SOL     OW41530   1.210   5.313   1.428
 3679SOL    HW141531   1.202   5.222   1.454
 3679SOL    HW241532   1.144   5.325   1.359
 3680SOL     OW41533   3.066   1.608   1.430
 3680SOL    HW141534   3.054   1.517   1.460
 3680SOL    HW241535   3.001   1.619   1.361
 3681SOL     OW41536   3.132   3.424   1.502
 3681SOL    HW141537   3.114   3.332   1.523
 3681SOL    HW241538   3.147   3.424   1.407
 3682SOL     OW41539   3.089   5.326   1.414
 3682SOL    HW141540   3.065   5.241   1.450
 3682SOL    HW241541   3.014   5.351   1.359
 3683SOL     OW41542   4.946   1.613   1.421
 3683SOL    HW141543   4.892   1.551   1.469
 3683SOL    HW241544   4.889   1.645   1.350
 3684SOL     OW41545   4.978   3.519   1.407
 3684SOL    HW141546   4.945   3.430   1.416
 3684SOL    HW241547   4.931   3.556   1.333
 3685SOL     OW41548   4.941   5.328   1.408
 3685SOL    HW141549   4.888   5.249   1.417
 3685SOL    HW241550   4.898   5.377   1.337
 3686SOL     OW41551   0.081   2.148   1.400
 3686SOL    HW141552   6.444   2.114   1.422
 3686SOL    HW241553   0.066   2.240   1.379
 3687SOL     OW41554   0.084   4.019   1.364
 3687SOL    HW141555   6.440   4.025   1.383
 3687SOL    HW241556   0.109   4.107   1.335
 3688SOL     OW41557   0.074   5.905   1.345
 3688SOL    HW141558   0.041   5.906   1.435
 3688SOL    HW241559   0.054   5.992   1.312
 3689SOL     OW41560   1.936   0.342   1.431
 3689SOL    HW141561   1.855   0.318   1.386
 3689SOL    HW241562   1.972   0.415   1.379
 3690SOL     OW41563   1.947   2.199   1.396
 3690SOL    HW141564   1.882   2.184   1.327
 3690SOL    HW241565   1.996   2.276   1.366
 3691SOL     OW41566   1.818   4.169   1.593
 3691SOL    HW141567   1.752   4.200   1.531
 3691SOL    HW241568   1.890   4.231   1.585
 3692SOL     OW41569   1.968   5.893   1.354
 3692SOL    HW141570   1.882   5.888   1.311
 3692SOL    HW241571   1.999   5.981   1.336
 3693SOL     OW41572   3.816   0.350   1.398
 3693SOL    HW141573   3.732   0.339   1.353
 3693SOL    HW241574   3.857   0.425   1.354
 3694SOL     OW41575   3.827   4.068   1.403
 3694SOL    HW141576   3.735   4.091   1.420
 3694SOL    HW241577   3.858   4.134   1.342
 3695SOL     OW41578   5.679   0.361   1.392
 3695SOL    HW141579   5.598   0.346   1.344
 3695SOL    HW241580   5.725   0.429   1.343
 3696SOL     OW41581   5.687   4.047   1.397
 3696SOL    HW141582   5.595   4.043   1.370
 3696SOL    HW241583   5.723   4.122   1.349
 3697SOL     OW41584   5.699   5.892   1.323
 3697SOL    HW141585   5.604   5.903   1.317
 3697SOL    HW241586   5.735   5.973   1.287
 3698SOL     OW41587   1.385   1.154   1.401
 3698SOL    HW141588   1.371   1.070   1.446
 3698SOL    HW241589   1.324   1.214   1.444
 3699SOL     OW41590   1.426   4.934   1.424
 3699SOL    HW141591   1.462   4.862   1.476
 3699SOL    HW241592   1.340   4.951   1.462
 3700SOL     OW41593   3.306   3.064   1.393
 3700SOL    HW141594   3.335   2.983   1.435
 3700SOL    HW241595   3.231   3.093   1.446
 3701SOL     OW41596   3.275   4.913   1.419
 3701SOL    HW141597   3.315   4.851   1.479
 3701SOL    HW241598   3.192   4.937   1.461
 3702SOL     OW41599   5.155   1.195   1.421
 3702SOL    HW141600   5.216   1.139   1.469
 3702SOL    HW241601   5.077   1.200   1.476
 3703SOL     OW41602   5.116   3.062   1.411
 3703SOL    HW141603   5.174   2.991   1.438
 3703SOL    HW241604   5.045   3.062   1.475
 3704SOL     OW41605   5.180   4.919   1.444
 3704SOL    HW141606   5.224   4.848   1.490
 3704SOL    HW241607   5.098   4.931   1.491
 3705SOL     OW41608   1.314   0.856   1.431
 3705SOL    HW141609   1.344   0.766   1.441
 3705SOL    HW241610   1.335   0.878   1.340
 3706SOL     OW41611   1.315   2.686   1.416
 3706SOL    HW141612   1.353   2.598   1.418
 3706SOL    HW241613   1.346   2.724   1.334
 3707SOL     OW41614   1.305   4.538   1.409
 3707SOL    HW141615   1.381   4.487   1.437
 3707SOL    HW241616   1.331   4.576   1.325
 3708SOL     OW41617   3.156   0.829   1.409
 3708SOL    HW141618   3.228   0.780   1.448
 3708SOL    HW241619   3.192   0.861   1.326
 3709SOL     OW41620   3.130   2.689   1.397
 3709SOL    HW141621   3.173   2.606   1.416
 3709SOL    HW241622   3.170   2.720   1.316
 3710SOL     OW41623   3.143   4.522   1.411
 3710SOL    HW141624   3.219   4.497   1.462
 3710SOL    HW241625   3.179   4.568   1.335
 3711SOL     OW41626   5.122   0.850   1.449
 3711SOL    HW141627   5.113   0.755   1.447
 3711SOL    HW241628   5.106   0.877   1.359
 3712SOL     OW41629   5.021   4.554   1.416
 3712SOL    HW141630   5.070   4.472   1.423
 3712SOL    HW241631   5.050   4.593   1.334
 3713SOL     OW41632   1.496   1.668   1.436
 3713SOL    HW141633   1.405   1.644   1.423
 3713SOL    HW241634   1.538   1.650   1.352
 3714SOL     OW41635   1.512   3.429   1.406
 3714SOL    HW141636   1.419   3.452   1.414
 3714SOL    HW241637   1.546   3.487   1.338
 3715SOL     OW41638   1.478   5.404   1.418
 3715SOL    HW141639   1.389   5.370   1.408
 3715SOL    HW241640   1.522   5.384   1.336
 3716SOL     OW41641   3.346   1.577   1.406
 3716SOL    HW141642   3.253   1.602   1.401
 3716SOL    HW241643   3.382   1.604   1.322
 3717SOL     OW41644   3.408   3.481   1.466
 3717SOL    HW141645   3.313   3.479   1.481
 3717SOL    HW241646   3.417   3.467   1.371
 3718SOL     OW41647   3.355   5.372   1.426
 3718SOL    HW141648   3.263   5.355   1.410
 3718SOL    HW241649   3.396   5.369   1.339
 3719SOL     OW41650   5.210   1.699   1.415
 3719SOL    HW141651   5.126   1.654   1.410
 3719SOL    HW241652   5.259   1.668   1.338
 3720SOL     OW41653   5.212   5.349   1.433
 3720SOL    HW141654   5.118   5.337   1.417
 3720SOL    HW241655   5.250   5.358   1.346
 3721SOL     OW41656   1.567   1.503  11.427
 3721SOL    HW141657   1.548   1.479  11.517
 3721SOL    HW241658   1.483   1.530  11.391
 3722SOL     OW41659   1.594   3.378  11.428
 3722SOL    HW141660   1.546   3.349  11.506
 3722SOL    HW241661   1.525   3.394  11.363
 3723SOL     OW41662   1.576   5.248  11.428
 3723SOL    HW141663   1.538   5.220  11.511
 3723SOL    HW241664   1.506   5.234  11.364
 3724SOL     OW41665   3.453   1.505  11.423
 3724SOL    HW141666   3.420   1.477  11.509
 3724SOL    HW241667   3.374   1.513  11.369
 3725SOL     OW41668   3.359   5.192  11.426
 3725SOL    HW141669   3.358   5.182  11.521
 3725SOL    HW241670   3.272   5.227  11.405
 3726SOL     OW41671   5.276   1.513  11.430
 3726SOL    HW141672   5.262   1.484  11.521
 3726SOL    HW241673   5.189   1.541  11.401
 3727SOL     OW41674   5.338   5.207  11.441
 3727SOL    HW141675   5.287   5.195  11.521
 3727SOL    HW241676   5.276   5.247  11.379
 3728SOL     OW41677   1.098   1.119  11.414
 3728SOL    HW141678   1.025   1.072  11.453
 3728SOL    HW241679   1.163   1.052  11.397
 3729SOL     OW41680   1.102   2.970  11.454
 3729SOL    HW141681   1.029   2.920  11.491
 3729SOL    HW241682   1.161   2.904  11.419
 3730SOL     OW41683   1.079   4.834  11.418
 3730SOL    HW141684   1.012   4.786  11.467
 3730SOL    HW241685   1.096   4.779  11.341
 3731SOL     OW41686   2.943   1.112  11.415
 3731SOL    HW141687   2.860   1.071  11.439
 3731SOL    HW241688   3.000   1.039  11.393
 3732SOL     OW41689   2.918   2.879  11.325
 3732SOL    HW141690   2.876   2.798  11.296
 3732SOL    HW241691   3.012   2.860  11.322
 3733SOL     OW41692   2.971   4.826  11.423
 3733SOL    HW141693   2.900   4.790  11.475
 3733SOL    HW241694   2.948   4.802  11.333
 3734SOL     OW41695   4.808   1.115  11.427
 3734SOL    HW141696   4.732   1.065  11.455
 3734SOL    HW241697   4.873   1.049  11.402
 3735SOL     OW41698   4.811   2.973  11.419
 3735SOL    HW141699   4.736   2.929  11.460
 3735SOL    HW241700   4.874   2.903  11.403
 3736SOL     OW41701   4.811   4.822  11.417
 3736SOL    HW141702   4.742   4.777  11.466
 3736SOL    HW241703   4.811   4.781  11.331
 3737SOL     OW41704   1.366   0.472  11.415
 3737SOL    HW141705   1.321   0.557  11.421
 3737SOL    HW241706   1.330   0.421  11.487
 3738SOL     OW41707   1.324   4.204  11.398
 3738SOL    HW141708   1.290   4.294  11.404
 3738SOL    HW241709   1.301   4.164  11.482
 3739SOL     OW41710   1.353   6.042  11.397
 3739SOL    HW141711   1.285   6.104  11.370
 3739SOL    HW241712   1.322   6.007  11.481
 3740SOL     OW41713   3.152   0.453  11.383
 3740SOL    HW141714   3.109   0.539  11.389
 3740SOL    HW241715   3.163   0.426  11.474
 3741SOL     OW41716   3.185   2.322  11.391
 3741SOL    HW141717   3.132   2.402  11.387
 3741SOL    HW241718   3.167   2.285  11.477
 3742SOL     OW41719   3.231   4.208  11.379
 3742SOL    HW141720   3.169   4.243  11.315
 3742SOL    HW241721   3.184   4.212  11.462
 3743SOL     OW41722   3.221   6.045  11.384
 3743SOL    HW141723   3.201   6.138  11.389
 3743SOL    HW241724   3.186   6.009  11.466
 3744SOL     OW41725   5.033   2.327  11.389
 3744SOL    HW141726   4.980   2.407  11.387
 3744SOL    HW241727   5.022   2.294  11.478
 3745SOL     OW41728   5.059   6.057  11.399
 3745SOL    HW141729   5.061   6.152  11.407
 3745SOL    HW241730   5.035   6.026  11.487
 3746SOL     OW41731   0.818   1.608  11.393
 3746SOL    HW141732   0.819   1.689  11.343
 3746SOL    HW241733   0.767   1.547  11.340
 3747SOL     OW41734   0.862   3.448  11.401
 3747SOL    HW141735   0.899   3.469  11.315
 3747SOL    HW241736   0.778   3.408  11.381
 3748SOL     OW41737   0.840   5.306  11.373
 3748SOL    HW141738   0.812   5.392  11.342
 3748SOL    HW241739   0.759   5.259  11.391
 3749SOL     OW41740   2.693   1.571  11.395
 3749SOL    HW141741   2.692   1.591  11.301
 3749SOL    HW241742   2.617   1.513  11.407
 3750SOL     OW41743   2.579   3.307  11.298
 3750SOL    HW141744   2.646   3.372  11.320
 3750SOL    HW241745   2.538   3.343  11.219
 3751SOL     OW41746   2.683   5.320  11.399
 3751SOL    HW141747   2.701   5.325  11.305
 3751SOL    HW241748   2.606   5.264  11.406
 3752SOL     OW41749   4.557   3.446  11.406
 3752SOL    HW141750   4.605   3.402  11.336
 3752SOL    HW241751   4.486   3.386  11.428
 3753SOL     OW41752   4.537   5.287  11.363
 3753SOL    HW141753   4.559   5.302  11.271
 3753SOL    HW241754   4.443   5.304  11.368
 3754SOL     OW41755   6.431   1.611  11.433
 3754SOL    HW141756   6.413   1.684  11.375
 3754SOL    HW241757   6.372   1.541  11.403
 3755SOL     OW41758   6.427   3.449  11.381
 3755SOL    HW141759   0.050   3.479  11.326
 3755SOL    HW241760   6.349   3.470  11.330
 3756SOL     OW41761   0.001   5.319  11.386
 3756SOL    HW141762   6.444   5.400  11.336
 3756SOL    HW241763   6.361   5.285  11.389
 3757SOL     OW41764   1.311   0.942  11.363
 3757SOL    HW141765   1.386   0.890  11.392
 3757SOL    HW241766   1.329   0.960  11.270
 3758SOL     OW41767   1.289   2.785  11.381
 3758SOL    HW141768   1.359   2.721  11.396
 3758SOL    HW241769   1.331   2.856  11.333
 3759SOL     OW41770   1.280   0.041  11.471
 3759SOL    HW141771   1.357   6.436  11.457
 3759SOL    HW241772   1.301   0.123  11.425
 3760SOL     OW41773   3.148   0.918  11.364
 3760SOL    HW141774   3.223   0.865  11.392
 3760SOL    HW241775   3.187   0.998  11.328
 3761SOL     OW41776   3.179   2.808  11.316
 3761SOL    HW141777   3.238   2.743  11.354
 3761SOL    HW241778   3.182   2.792  11.222
 3762SOL     OW41779   3.108   0.044  11.413
 3762SOL    HW141780   3.184   6.436  11.414
 3762SOL    HW241781   3.126   0.106  11.342
 3763SOL     OW41782   5.009   0.937  11.366
 3763SOL    HW141783   5.071   0.876  11.404
 3763SOL    HW241784   5.049   0.964  11.283
 3764SOL     OW41785   5.008   2.777  11.392
 3764SOL    HW141786   5.079   2.716  11.412
 3764SOL    HW241787   5.051   2.851  11.350
 3765SOL     OW41788   5.007   0.042  11.491
 3765SOL    HW141789   5.078   6.435  11.460
 3765SOL    HW241790   5.016   0.121  11.438
 3766SOL     OW41791   1.403   0.594   1.455
 3766SOL    HW141792   1.357   0.564   1.534
 3766SOL    HW241793   1.495   0.574   1.473
 3767SOL     OW41794   1.414   2.427   1.450
 3767SOL    HW141795   1.405   2.409   1.544
 3767SOL    HW241796   1.508   2.419   1.433
 3768SOL     OW41797   1.417   6.200   1.464
 3768SOL    HW141798   1.353   6.163   1.524
 3768SOL    HW241799   1.501   6.191   1.510
 3769SOL     OW41800   3.258   2.452   1.452
 3769SOL    HW141801   3.201   2.420   1.522
 3769SOL    HW241802   3.346   2.427   1.480
 3770SOL     OW41803   5.122   0.576   1.459
 3770SOL    HW141804   5.071   0.553   1.536
 3770SOL    HW241805   5.213   0.566   1.487
 3771SOL     OW41806   5.140   2.426   1.452
 3771SOL    HW141807   5.125   2.343   1.498
 3771SOL    HW241808   5.234   2.429   1.439
 3772SOL     OW41809   5.156   4.323   1.458
 3772SOL    HW141810   5.125   4.253   1.517
 3772SOL    HW241811   5.242   4.347   1.492
 3773SOL     OW41812   1.609   3.176   1.426
 3773SOL    HW141813   1.589   3.269   1.416
 3773SOL    HW241814   1.537   3.142   1.480
 3774SOL     OW41815   1.665   5.068   1.484
 3774SOL    HW141816   1.654   5.154   1.524
 3774SOL    HW241817   1.577   5.042   1.458
 3775SOL     OW41818   3.481   1.365   1.502
 3775SOL    HW141819   3.439   1.445   1.470
 3775SOL    HW241820   3.407   1.308   1.525
 3776SOL     OW41821   3.515   3.232   1.492
 3776SOL    HW141822   3.485   3.323   1.493
 3776SOL    HW241823   3.444   3.184   1.449
 3777SOL     OW41824   3.462   5.113   1.482
 3777SOL    HW141825   3.428   5.202   1.473
 3777SOL    HW241826   3.391   5.056   1.454
 3778SOL     OW41827   5.374   5.120   1.450
 3778SOL    HW141828   5.313   5.194   1.446
 3778SOL    HW241829   5.317   5.043   1.450
 3779SOL     OW41830   0.696   0.983  11.369
 3779SOL    HW141831   0.768   0.990  11.432
 3779SOL    HW241832   0.627   1.037  11.406
 3780SOL     OW41833   0.702   2.828  11.415
 3780SOL    HW141834   0.786   2.824  11.460
 3780SOL    HW241835   0.649   2.887  11.469
 3781SOL     OW41836   0.691   4.707  11.371
 3781SOL    HW141837   0.762   4.709  11.435
 3781SOL    HW241838   0.628   4.771  11.404
 3782SOL     OW41839   0.701   0.130  11.401
 3782SOL    HW141840   0.784   0.113  11.446
 3782SOL    HW241841   0.643   0.165  11.469
 3783SOL     OW41842   2.602   1.045  11.390
 3783SOL    HW141843   2.642   1.005  11.467
 3783SOL    HW241844   2.516   1.074  11.420
 3784SOL     OW41845   2.575   2.839  11.379
 3784SOL    HW141846   2.603   2.803  11.464
 3784SOL    HW241847   2.486   2.872  11.395
 3785SOL     OW41848   2.538   4.675  11.450
 3785SOL    HW141849   2.622   4.697  11.492
 3785SOL    HW241850   2.487   4.756  11.454
 3786SOL     OW41851   2.603   0.215  11.391
 3786SOL    HW141852   2.672   0.162  11.430
 3786SOL    HW241853   2.529   0.207  11.451
 3787SOL     OW41854   4.435   1.023  11.351
 3787SOL    HW141855   4.492   0.996  11.423
 3787SOL    HW241856   4.360   1.063  11.394
 3788SOL     OW41857   4.426   2.852  11.380
 3788SOL    HW141858   4.505   2.844  11.433
 3788SOL    HW241859   4.373   2.917  11.425
 3789SOL     OW41860   4.441   0.128  11.400
 3789SOL    HW141861   4.517   0.123  11.459
 3789SOL    HW241862   4.372   0.166  11.453
 3790SOL     OW41863   6.288   0.960  11.386
 3790SOL    HW141864   6.346   0.937  11.459
 3790SOL    HW241865   6.230   1.027  11.423
 3791SOL     OW41866   6.317   4.725  11.407
 3791SOL    HW141867   6.391   4.668  11.431
 3791SOL    HW241868   6.260   4.723  11.484
 3792SOL     OW41869   6.362   0.197  11.447
 3792SOL    HW141870   6.381   0.128  11.511
 3792SOL    HW241871   6.288   0.164  11.396
 3793SOL     OW41872   1.057   0.939   1.479
 3793SOL    HW141873   1.049   1.014   1.421
 3793SOL    HW241874   1.148   0.913   1.472
 3794SOL     OW41875   1.099   4.694   1.483
 3794SOL    HW141876   1.075   4.752   1.411
 3794SOL    HW241877   1.168   4.639   1.447
 3795SOL     OW41878   2.994   1.031   1.491
 3795SOL    HW141879   2.951   1.060   1.411
 3795SOL    HW241880   3.050   0.958   1.464
 3796SOL     OW41881   2.972   2.883   1.495
 3796SOL    HW141882   2.934   2.911   1.412
 3796SOL    HW241883   3.031   2.812   1.472
 3797SOL     OW41884   2.964   4.721   1.487
 3797SOL    HW141885   2.941   4.778   1.413
 3797SOL    HW241886   3.022   4.655   1.448
 3798SOL     OW41887   4.841   2.865   1.455
 3798SOL    HW141888   4.792   2.920   1.394
 3798SOL    HW241889   4.898   2.812   1.399
 3799SOL     OW41890   4.821   4.722   1.494
 3799SOL    HW141891   4.795   4.776   1.419
 3799SOL    HW241892   4.891   4.666   1.460
 3800SOL     OW41893   1.672   1.236  11.407
 3800SOL    HW141894   1.733   1.231  11.334
 3800SOL    HW241895   1.639   1.326  11.405
 3801SOL     OW41896   1.689   3.141  11.326
 3801SOL    HW141897   1.781   3.132  11.354
 3801SOL    HW241898   1.661   3.225  11.362
 3802SOL     OW41899   1.671   4.997  11.372
 3802SOL    HW141900   1.767   4.992  11.380
 3802SOL    HW241901   1.651   5.089  11.386
 3803SOL     OW41902   3.566   1.240  11.387
 3803SOL    HW141903   3.658   1.240  11.360
 3803SOL    HW241904   3.538   1.331  11.379
 3804SOL     OW41905   3.515   4.961  11.428
 3804SOL    HW141906   3.609   4.961  11.410
 3804SOL    HW241907   3.486   5.049  11.403
 3805SOL     OW41908   5.377   1.262  11.360
 3805SOL    HW141909   5.471   1.265  11.378
 3805SOL    HW241910   5.346   1.351  11.379
 3806SOL     OW41911   5.435   3.105  11.364
 3806SOL    HW141912   5.530   3.108  11.371
 3806SOL    HW241913   5.403   3.165  11.431
 3807SOL     OW41914   5.430   4.951  11.418
 3807SOL    HW141915   5.520   4.957  11.386
 3807SOL    HW241916   5.398   5.041  11.419
 3808SOL     OW41917   0.103   1.229  11.354
 3808SOL    HW141918   0.033   1.219  11.417
 3808SOL    HW241919   0.098   1.150  11.300
 3809SOL     OW41920   0.100   4.930  11.330
 3809SOL    HW141921   0.028   4.868  11.347
 3809SOL    HW241922   0.169   4.876  11.292
 3810SOL     OW41923   1.941   3.081  11.396
 3810SOL    HW141924   1.922   3.022  11.469
 3810SOL    HW241925   2.036   3.077  11.386
 3811SOL     OW41926   1.946   4.951  11.376
 3811SOL    HW141927   1.950   4.919  11.467
 3811SOL    HW241928   1.968   4.875  11.323
 3812SOL     OW41929   3.841   1.209  11.362
 3812SOL    HW141930   3.863   1.170  11.446
 3812SOL    HW241931   3.910   1.180  11.302
 3813SOL     OW41932   3.798   3.140  11.404
 3813SOL    HW141933   3.765   3.073  11.464
 3813SOL    HW241934   3.886   3.111  11.381
 3814SOL     OW41935   3.783   4.945  11.383
 3814SOL    HW141936   3.831   4.888  11.443
 3814SOL    HW241937   3.842   4.958  11.309
 3815SOL     OW41938   5.652   1.234  11.388
 3815SOL    HW141939   5.657   1.184  11.469
 3815SOL    HW241940   5.699   1.181  11.324
 3816SOL     OW41941   5.710   3.101  11.366
 3816SOL    HW141942   5.743   3.062  11.447
 3816SOL    HW241943   5.767   3.066  11.298
 3817SOL     OW41944   5.703   4.944  11.361
 3817SOL    HW141945   5.749   4.920  11.441
 3817SOL    HW241946   5.725   4.874  11.299
 3818SOL     OW41947   0.625   0.716  11.405
 3818SOL    HW141948   0.657   0.806  11.397
 3818SOL    HW241949   0.574   0.701  11.326
 3819SOL     OW41950   0.625   2.566  11.378
 3819SOL    HW141951   0.657   2.656  11.385
 3819SOL    HW241952   0.541   2.574  11.334
 3820SOL     OW41953   0.592   4.450  11.388
 3820SOL    HW141954   0.635   4.535  11.380
 3820SOL    HW241955   0.534   4.445  11.312
 3821SOL     OW41956   2.439   2.583  11.383
 3821SOL    HW141957   2.492   2.660  11.361
 3821SOL    HW241958   2.373   2.580  11.313
 3822SOL     OW41959   2.478   4.429  11.357
 3822SOL    HW141960   2.501   4.519  11.382
 3822SOL    HW241961   2.407   4.439  11.294
 3823SOL     OW41962   4.318   2.601  11.396
 3823SOL    HW141963   4.360   2.686  11.382
 3823SOL    HW241964   4.257   2.592  11.323
 3824SOL     OW41965   4.292   4.493  11.420
 3824SOL    HW141966   4.343   4.573  11.433
 3824SOL    HW241967   4.247   4.506  11.337
 3825SOL     OW41968   4.326   6.288  11.418
 3825SOL    HW141969   4.364   6.370  11.385
 3825SOL    HW241970   4.248   6.275  11.363
 3826SOL     OW41971   6.208   0.695  11.371
 3826SOL    HW141972   6.244   0.783  11.372
 3826SOL    HW241973   6.125   0.703  11.323
 3827SOL     OW41974   6.200   4.441  11.363
 3827SOL    HW141975   6.218   4.533  11.345
 3827SOL    HW241976   6.122   4.421  11.312
 3828SOL     OW41977   0.011   0.428  11.362
 3828SOL    HW141978   6.383   0.477  11.335
 3828SOL    HW241979   6.428   0.342  11.388
 3829SOL     OW41980   6.397   2.247  11.335
 3829SOL    HW141981   6.305   2.227  11.315
 3829SOL    HW241982   6.445   2.172  11.301
 3830SOL     OW41983   6.435   4.105  11.388
 3830SOL    HW141984   6.347   4.136  11.369
 3830SOL    HW241985   0.006   4.045  11.317
 3831SOL     OW41986   6.419   5.918  11.334
 3831SOL    HW141987   6.351   5.973  11.374
 3831SOL    HW241988   6.436   5.958  11.249
 3832SOL     OW41989   1.892   0.403  11.367
 3832SOL    HW141990   1.802   0.410  11.399
 3832SOL    HW241991   1.887   0.342  11.293
 3833SOL     OW41992   1.872   2.191  11.373
 3833SOL    HW141993   1.798   2.242  11.406
 3833SOL    HW241994   1.831   2.122  11.320
 3834SOL     OW41995   1.878   5.926  11.362
 3834SOL    HW141996   1.798   5.961  11.400
 3834SOL    HW241997   1.848   5.852  11.308
 3835SOL     OW41998   3.740   0.383  11.398
 3835SOL    HW141999   3.659   0.419  11.434
 3835SOL    HW242000   3.719   0.362  11.307
 3836SOL     OW42001   3.722   2.233  11.356
 3836SOL    HW142002   3.644   2.274  11.392
 3836SOL    HW242003   3.691   2.154  11.313
 3837SOL     OW42004   3.729   5.966  11.345
 3837SOL    HW142005   3.654   5.974  11.404
 3837SOL    HW242006   3.691   5.938  11.261
 3838SOL     OW42007   5.593   0.323  11.372
 3838SOL    HW142008   5.519   0.371  11.409
 3838SOL    HW242009   5.555   0.273  11.300
 3839SOL     OW42010   5.578   5.979  11.381
 3839SOL    HW142011   5.490   5.979  11.418
 3839SOL    HW242012   5.586   5.894  11.337
 3840SOL     OW42013   0.829   0.419  11.388
 3840SOL    HW142014   0.738   0.427  11.358
 3840SOL    HW242015   0.864   0.346  11.337
 3841SOL     OW42016   0.845   2.345  11.390
 3841SOL    HW142017   0.778   2.406  11.358
 3841SOL    HW242018   0.891   2.317  11.311
 3842SOL     OW42019   0.879   4.184  11.355
 3842SOL    HW142020   0.841   4.241  11.288
 3842SOL    HW242021   0.904   4.105  11.307
 3843SOL     OW42022   0.900   6.051  11.328
 3843SOL    HW142023   0.883   6.087  11.241
 3843SOL    HW242024   0.908   5.957  11.314
 3844SOL     OW42025   2.710   4.210  11.286
 3844SOL    HW142026   2.619   4.222  11.259
 3844SOL    HW242027   2.721   4.115  11.293
 3845SOL     OW42028   4.646   2.310  11.386
 3845SOL    HW142029   4.558   2.331  11.355
 3845SOL    HW242030   4.676   2.241  11.326
 3846SOL     OW42031   4.639   6.055  11.351
 3846SOL    HW142032   4.548   6.075  11.331
 3846SOL    HW242033   4.653   5.968  11.315
 3847SOL     OW42034   0.224   0.602   1.506
 3847SOL    HW142035   0.143   0.653   1.514
 3847SOL    HW242036   0.223   0.569   1.417
 3848SOL     OW42037   0.216   2.515   1.517
 3848SOL    HW142038   0.126   2.545   1.530
 3848SOL    HW242039   0.214   2.471   1.432
 3849SOL     OW42040   0.227   4.371   1.520
 3849SOL    HW142041   0.156   4.391   1.581
 3849SOL    HW242042   0.183   4.354   1.437
 3850SOL     OW42043   0.262   6.176   1.527
 3850SOL    HW142044   0.200   6.112   1.562
 3850SOL    HW242045   0.261   6.162   1.433
 3851SOL     OW42046   2.065   0.666   1.507
 3851SOL    HW142047   1.979   0.658   1.549
 3851SOL    HW242048   2.053   0.629   1.420
 3852SOL     OW42049   2.079   6.202   1.528
 3852SOL    HW142050   2.008   6.262   1.551
 3852SOL    HW242051   2.066   6.185   1.434
 3853SOL     OW42052   3.870   4.409   1.467
 3853SOL    HW142053   3.788   4.370   1.499
 3853SOL    HW242054   3.900   4.350   1.399
 3854SOL     OW42055   3.966   6.226   1.500
 3854SOL    HW142056   3.873   6.229   1.525
 3854SOL    HW242057   3.968   6.165   1.425
 3855SOL     OW42058   5.793   0.659   1.504
 3855SOL    HW142059   5.705   0.640   1.538
 3855SOL    HW242060   5.793   0.622   1.416
 3856SOL     OW42061   5.784   2.480   1.505
 3856SOL    HW142062   5.696   2.484   1.542
 3856SOL    HW242063   5.774   2.429   1.425
 3857SOL     OW42064   5.832   6.249   1.428
 3857SOL    HW142065   5.742   6.267   1.455
 3857SOL    HW242066   5.824   6.193   1.351
 3858SOL     OW42067   0.620  -0.000   1.467
 3858SOL    HW142068   0.710   6.423   1.449
 3858SOL    HW242069   0.584   0.024   1.382
 3859SOL     OW42070   0.675   2.014   1.467
 3859SOL    HW142071   0.663   1.973   1.553
 3859SOL    HW242072   0.616   1.967   1.409
 3860SOL     OW42073   0.666   3.871   1.444
 3860SOL    HW142074   0.676   3.806   1.513
 3860SOL    HW242075   0.610   3.829   1.379
 3861SOL     OW42076   1.966   1.608   1.500
 3861SOL    HW142077   1.962   1.518   1.534
 3861SOL    HW242078   1.919   1.660   1.565
 3862SOL     OW42079   1.950   3.391   1.561
 3862SOL    HW142080   1.916   3.303   1.578
 3862SOL    HW242081   1.938   3.438   1.644
 3863SOL     OW42082   2.541   2.029   1.454
 3863SOL    HW142083   2.575   1.967   1.519
 3863SOL    HW242084   2.480   1.977   1.401
 3864SOL     OW42085   1.951   5.298   1.514
 3864SOL    HW142086   1.942   5.205   1.533
 3864SOL    HW242087   1.890   5.341   1.574
 3865SOL     OW42088   2.427   3.824   1.601
 3865SOL    HW142089   2.500   3.765   1.623
 3865SOL    HW242090   2.399   3.795   1.514
 3866SOL     OW42091   2.511   5.732   1.487
 3866SOL    HW142092   2.570   5.681   1.543
 3866SOL    HW242093   2.469   5.667   1.431
 3867SOL     OW42094   3.750   1.615   1.528
 3867SOL    HW142095   3.761   1.521   1.535
 3867SOL    HW242096   3.665   1.632   1.571
 3868SOL     OW42097   4.389   0.069   1.465
 3868SOL    HW142098   4.458   0.008   1.440
 3868SOL    HW242099   4.329   0.069   1.391
 3869SOL     OW42100   4.358   2.000   1.456
 3869SOL    HW142101   4.380   1.944   1.530
 3869SOL    HW242102   4.309   1.943   1.396
 3870SOL     OW42103   4.336   3.822   1.513
 3870SOL    HW142104   4.378   3.744   1.550
 3870SOL    HW242105   4.307   3.795   1.426
 3871SOL     OW42106   4.385   5.710   1.488
 3871SOL    HW142107   4.438   5.642   1.529
 3871SOL    HW242108   4.333   5.664   1.422
 3872SOL     OW42109   6.286   2.008   1.456
 3872SOL    HW142110   6.269   1.956   1.535
 3872SOL    HW242111   6.221   1.979   1.393
 3873SOL     OW42112   5.555   5.319   1.500
 3873SOL    HW142113   5.509   5.240   1.472
 3873SOL    HW242114   5.506   5.351   1.575
 3874SOL     OW42115   6.253   3.908   1.427
 3874SOL    HW142116   6.316   3.853   1.474
 3874SOL    HW242117   6.191   3.846   1.389
 3875SOL     OW42118   1.187   1.327   1.501
 3875SOL    HW142119   1.093   1.317   1.486
 3875SOL    HW242120   1.195   1.336   1.596
 3876SOL     OW42121   1.142   3.234   1.501
 3876SOL    HW142122   1.048   3.234   1.487
 3876SOL    HW242123   1.155   3.175   1.575
 3877SOL     OW42124   1.169   5.045   1.506
 3877SOL    HW142125   1.077   5.048   1.478
 3877SOL    HW242126   1.164   5.023   1.599
 3878SOL     OW42127   3.015   1.341   1.494
 3878SOL    HW142128   2.920   1.346   1.486
 3878SOL    HW242129   3.030   1.258   1.538
 3879SOL     OW42130   3.085   3.136   1.523
 3879SOL    HW142131   3.032   3.056   1.525
 3879SOL    HW242132   3.088   3.164   1.615
 3880SOL     OW42133   3.034   5.058   1.506
 3880SOL    HW142134   2.942   5.057   1.483
 3880SOL    HW242135   3.035   5.057   1.602
 3881SOL     OW42136   0.611   4.686   1.495
 3881SOL    HW142137   0.655   4.755   1.445
 3881SOL    HW242138   0.636   4.702   1.586
 3882SOL     OW42139   2.458   0.972   1.521
 3882SOL    HW142140   2.510   1.028   1.463
 3882SOL    HW242141   2.495   0.988   1.608
 3883SOL     OW42142   2.440   2.856   1.522
 3883SOL    HW142143   2.509   2.893   1.468
 3883SOL    HW242144   2.478   2.849   1.610
 3884SOL     OW42145   2.482   4.660   1.477
 3884SOL    HW142146   2.522   4.731   1.426
 3884SOL    HW242147   2.546   4.642   1.546
 3885SOL     OW42148   4.364   0.965   1.492
 3885SOL    HW142149   4.399   1.022   1.425
 3885SOL    HW242150   4.386   1.009   1.575
 3886SOL     OW42151   4.418   2.786   1.493
 3886SOL    HW142152   4.424   2.860   1.434
 3886SOL    HW242153   4.420   2.825   1.581
 3887SOL     OW42154   4.353   4.687   1.483
 3887SOL    HW142155   4.391   4.761   1.435
 3887SOL    HW242156   4.427   4.648   1.529
 3888SOL     OW42157   6.179   4.698   1.526
 3888SOL    HW142158   6.223   4.750   1.458
 3888SOL    HW242159   6.237   4.704   1.602
 3889SOL     OW42160   1.527   3.986   1.477
 3889SOL    HW142161   1.487   3.912   1.523
 3889SOL    HW242162   1.571   4.036   1.546
 3890SOL     OW42163   3.391   2.143   1.527
 3890SOL    HW142164   3.322   2.079   1.544
 3890SOL    HW242165   3.420   2.170   1.614
 3891SOL     OW42166   3.403   5.844   1.515
 3891SOL    HW142167   3.348   5.766   1.522
 3891SOL    HW242168   3.423   5.868   1.605
 3892SOL     OW42169   5.299   0.249   1.510
 3892SOL    HW142170   5.250   0.208   1.581
 3892SOL    HW242171   5.349   0.319   1.553
 3893SOL     OW42172   5.198   2.155   1.511
 3893SOL    HW142173   5.149   2.073   1.516
 3893SOL    HW242174   5.225   2.173   1.601
 3894SOL     OW42175   5.303   3.929   1.501
 3894SOL    HW142176   5.236   3.862   1.514
 3894SOL    HW242177   5.341   3.942   1.588
 3895SOL     OW42178   5.187   5.876   1.482
 3895SOL    HW142179   5.155   5.792   1.514
 3895SOL    HW242180   5.206   5.926   1.562
 3896SOL     OW42181   0.272   0.090  11.312
 3896SOL    HW142182   0.278   0.178  11.349
 3896SOL    HW242183   0.339   0.040  11.358
 3897SOL     OW42184   0.324   1.937  11.288
 3897SOL    HW142185   0.309   2.023  11.327
 3897SOL    HW242186   0.326   1.877  11.362
 3898SOL     OW42187   0.279   3.773  11.340
 3898SOL    HW142188   0.282   3.868  11.351
 3898SOL    HW242189   0.312   3.739  11.423
 3899SOL     OW42190   0.211   5.642  11.361
 3899SOL    HW142191   0.233   5.735  11.370
 3899SOL    HW242192   0.269   5.598  11.423
 3900SOL     OW42193   2.144   1.901  11.346
 3900SOL    HW142194   2.122   1.993  11.362
 3900SOL    HW242195   2.164   1.866  11.432
 3901SOL     OW42196   4.046   0.071  11.345
 3901SOL    HW142197   4.030   0.158  11.382
 3901SOL    HW242198   4.042   0.012  11.420
 3902SOL     OW42199   5.920   0.070  11.355
 3902SOL    HW142200   5.895   0.160  11.376
 3902SOL    HW242201   5.913   0.022  11.438
 3903SOL     OW42202   5.885   1.924  11.322
 3903SOL    HW142203   5.870   2.014  11.350
 3903SOL    HW242204   5.899   1.876  11.403
 3904SOL     OW42205   5.816   3.776  11.334
 3904SOL    HW142206   5.828   3.870  11.350
 3904SOL    HW242207   5.867   3.733  11.402
 3905SOL     OW42208   0.065   6.428   1.447
 3905SOL    HW142209   0.159   6.431   1.467
 3905SOL    HW242210   0.023   6.418   1.533
 3906SOL     OW42211   0.033   3.787   1.509
 3906SOL    HW142212   0.066   3.859   1.456
 3906SOL    HW242213   0.090   3.784   1.585
 3907SOL     OW42214   0.049   5.646   1.499
 3907SOL    HW142215   0.055   5.651   1.404
 3907SOL    HW242216   6.418   5.598   1.515
 3908SOL     OW42217   1.707   2.788  11.374
 3908SOL    HW142218   1.783   2.732  11.357
 3908SOL    HW242219   1.691   2.832  11.291
 3909SOL     OW42220   1.698   4.666  11.369
 3909SOL    HW142221   1.755   4.593  11.345
 3909SOL    HW242222   1.687   4.715  11.287
 3910SOL     OW42223   3.581   4.642  11.369
 3910SOL    HW142224   3.649   4.586  11.331
 3910SOL    HW242225   3.563   4.707  11.301
 3911SOL     OW42226   5.392   0.957  11.390
 3911SOL    HW142227   5.439   0.886  11.346
 3911SOL    HW242228   5.385   1.026  11.323
 3912SOL     OW42229   5.426   2.771  11.399
 3912SOL    HW142230   5.515   2.737  11.400
 3912SOL    HW242231   5.416   2.809  11.311
 3913SOL     OW42232   2.575   1.569   1.483
 3913SOL    HW142233   2.576   1.612   1.398
 3913SOL    HW242234   2.483   1.568   1.509
 3914SOL     OW42235   2.549   5.364   1.532
 3914SOL    HW142236   2.568   5.383   1.440
 3914SOL    HW242237   2.467   5.314   1.530
 3915SOL     OW42238   4.422   1.589   1.494
 3915SOL    HW142239   4.414   1.616   1.402
 3915SOL    HW242240   4.356   1.520   1.503
 3916SOL     OW42241   4.394   3.494   1.512
 3916SOL    HW142242   4.405   3.504   1.418
 3916SOL    HW242243   4.325   3.429   1.522
 3917SOL     OW42244   4.385   5.336   1.531
 3917SOL    HW142245   4.401   5.359   1.440
 3917SOL    HW242246   4.319   5.266   1.526
 3918SOL     OW42247   6.189   1.621   1.489
 3918SOL    HW142248   6.227   1.630   1.401
 3918SOL    HW242249   6.186   1.526   1.504
 3919SOL     OW42250   6.272   5.320   1.495
 3919SOL    HW142251   6.267   5.333   1.401
 3919SOL    HW242252   6.208   5.251   1.513
 3920SOL     OW42253   1.297   3.656  11.366
 3920SOL    HW142254   1.363   3.724  11.359
 3920SOL    HW242255   1.216   3.702  11.389
 3921SOL     OW42256   3.118   1.793  11.344
 3921SOL    HW142257   3.177   1.841  11.287
 3921SOL    HW242258   3.061   1.860  11.382
 3922SOL     OW42259   5.002   1.803  11.351
 3922SOL    HW142260   5.052   1.853  11.286
 3922SOL    HW242261   4.939   1.865  11.386
 3923SOL     OW42262   4.978   3.640  11.329
 3923SOL    HW142263   5.006   3.664  11.240
 3923SOL    HW242264   4.952   3.723  11.369
 3924SOL     OW42265   1.367   0.020   1.414
 3924SOL    HW142266   1.386   6.376   1.418
 3924SOL    HW242267   1.298   0.033   1.479
 3925SOL     OW42268   1.353   3.728   1.491
 3925SOL    HW142269   1.325   3.644   1.457
 3925SOL    HW242270   1.272   3.775   1.509
 3926SOL     OW42271   1.385   5.638   1.525
 3926SOL    HW142272   1.429   5.560   1.490
 3926SOL    HW242273   1.299   5.606   1.553
 3927SOL     OW42274   3.259   0.030   1.440
 3927SOL    HW142275   3.258   6.385   1.433
 3927SOL    HW242276   3.211   0.050   1.520
 3928SOL     OW42277   3.207   1.947   1.558
 3928SOL    HW142278   3.240   1.882   1.497
 3928SOL    HW242279   3.129   1.907   1.597
 3929SOL     OW42280   3.259   5.617   1.521
 3929SOL    HW142281   3.303   5.534   1.500
 3929SOL    HW242282   3.167   5.593   1.531
 3930SOL     OW42283   5.055   0.002   1.524
 3930SOL    HW142284   5.089   6.390   1.460
 3930SOL    HW242285   4.961   0.004   1.508
 3931SOL     OW42286   5.083   1.913   1.521
 3931SOL    HW142287   5.140   1.841   1.493
 3931SOL    HW242288   4.995   1.874   1.524
 3932SOL     OW42289   5.096   3.752   1.502
 3932SOL    HW142290   5.090   3.667   1.458
 3932SOL    HW242291   5.014   3.759   1.551
 3933SOL     OW42292   5.117   5.623   1.556
 3933SOL    HW142293   5.138   5.542   1.509
 3933SOL    HW242294   5.030   5.608   1.593
 3934SOL     OW42295   0.332   6.440   1.501
 3934SOL    HW142296   0.425   0.010   1.499
 3934SOL    HW242297   0.328   6.345   1.518
 3935SOL     OW42298   0.333   3.766   1.530
 3935SOL    HW142299   0.396   3.839   1.529
 3935SOL    HW242300   0.316   3.750   1.623
 3936SOL     OW42301   2.142   3.804   1.622
 3936SOL    HW142302   2.226   3.850   1.630
 3936SOL    HW242303   2.153   3.726   1.677
 3937SOL     OW42304   2.188   5.632   1.547
 3937SOL    HW142305   2.214   5.708   1.495
 3937SOL    HW242306   2.269   5.605   1.591
 3938SOL     OW42307   4.022   0.038   1.476
 3938SOL    HW142308   4.050   0.074   1.560
 3938SOL    HW242309   4.016   6.394   1.490
 3939SOL     OW42310   4.038   5.598   1.522
 3939SOL    HW142311   4.080   5.680   1.496
 3939SOL    HW242312   4.098   5.559   1.585
 3940SOL     OW42313   5.877   5.616   1.530
 3940SOL    HW142314   5.906   5.692   1.479
 3940SOL    HW242315   5.944   5.606   1.598
 3941SOL     OW42316   0.525   1.356   1.596
 3941SOL    HW142317   0.435   1.360   1.626
 3941SOL    HW242318   0.520   1.368   1.501
 3942SOL     OW42319   0.529   3.261   1.550
 3942SOL    HW142320   0.454   3.223   1.597
 3942SOL    HW242321   0.500   3.268   1.459
 3943SOL     OW42322   2.268   3.304   1.501
 3943SOL    HW142323   2.213   3.269   1.571
 3943SOL    HW242324   2.323   3.230   1.474
 3944SOL     OW42325   4.274   1.356   1.526
 3944SOL    HW142326   4.190   1.346   1.570
 3944SOL    HW242327   4.259   1.321   1.438
 3945SOL     OW42328   4.220   3.284   1.503
 3945SOL    HW142329   4.235   3.229   1.580
 3945SOL    HW242330   4.227   3.224   1.429
 3946SOL     OW42331   4.198   5.139   1.497
 3946SOL    HW142332   4.162   5.091   1.572
 3946SOL    HW242333   4.200   5.075   1.426
 3947SOL     OW42334   6.150   1.356   1.537
 3947SOL    HW142335   6.074   1.355   1.596
 3947SOL    HW242336   6.120   1.310   1.459
 3948SOL     OW42337   5.983   3.204   1.513
 3948SOL    HW142338   5.989   3.215   1.608
 3948SOL    HW242339   6.070   3.226   1.481
 3949SOL     OW42340   6.097   5.114   1.524
 3949SOL    HW142341   6.026   5.075   1.575
 3949SOL    HW242342   6.091   5.070   1.439
 3950SOL     OW42343   1.653   1.736  11.266
 3950SOL    HW142344   1.676   1.685  11.188
 3950SOL    HW242345   1.640   1.670  11.334
 3951SOL     OW42346   1.732   3.557  11.259
 3951SOL    HW142347   1.673   3.534  11.188
 3951SOL    HW242348   1.704   3.503  11.332
 3952SOL     OW42349   1.667   5.478  11.299
 3952SOL    HW142350   1.658   5.430  11.217
 3952SOL    HW242351   1.640   5.416  11.366
 3953SOL     OW42352   3.522   1.745  11.273
 3953SOL    HW142353   3.583   1.718  11.204
 3953SOL    HW242354   3.513   1.667  11.328
 3954SOL     OW42355   5.424   1.663  11.257
 3954SOL    HW142356   5.419   1.610  11.177
 3954SOL    HW242357   5.373   1.614  11.321
 3955SOL     OW42358   5.450   3.535  11.340
 3955SOL    HW142359   5.496   3.556  11.258
 3955SOL    HW242360   5.360   3.564  11.325
 3956SOL     OW42361   0.131   2.484  11.281
 3956SOL    HW142362   0.071   2.411  11.300
 3956SOL    HW242363   0.110   2.550  11.348
 3957SOL     OW42364   0.172   4.383  11.278
 3957SOL    HW142365   0.105   4.340  11.224
 3957SOL    HW242366   0.123   4.421  11.351
 3958SOL     OW42367   0.079   6.207  11.328
 3958SOL    HW142368   0.067   6.154  11.249
 3958SOL    HW242369   0.050   6.295  11.303
 3959SOL     OW42370   2.032   0.640  11.343
 3959SOL    HW142371   1.980   0.560  11.353
 3959SOL    HW242372   1.986   0.705  11.397
 3960SOL     OW42373   2.075   4.373  11.340
 3960SOL    HW142374   2.006   4.316  11.307
 3960SOL    HW242375   2.029   4.444  11.385
 3961SOL     OW42376   1.969   6.189  11.349
 3961SOL    HW142377   1.950   6.096  11.339
 3961SOL    HW242378   2.052   6.192  11.396
 3962SOL     OW42379   3.920   2.438  11.283
 3962SOL    HW142380   3.871   2.356  11.288
 3962SOL    HW242381   3.897   2.485  11.363
 3963SOL     OW42382   3.825   4.361  11.281
 3963SOL    HW142383   3.894   4.298  11.301
 3963SOL    HW242384   3.824   4.421  11.356
 3964SOL     OW42385   3.847   6.206  11.284
 3964SOL    HW142386   3.811   6.119  11.300
 3964SOL    HW242387   3.831   6.254  11.366
 3965SOL     OW42388   5.732   4.322  11.336
 3965SOL    HW142389   5.645   4.305  11.298
 3965SOL    HW242390   5.719   4.399  11.391
 3966SOL     OW42391   5.590   6.253  11.421
 3966SOL    HW142392   5.601   6.159  11.405
 3966SOL    HW242393   5.679   6.288  11.417
 3967SOL     OW42394   1.547   4.739   1.588
 3967SOL    HW142395   1.477   4.684   1.624
 3967SOL    HW242396   1.593   4.773   1.665
 3968SOL     OW42397   3.394   4.731   1.596
 3968SOL    HW142398   3.320   4.680   1.628
 3968SOL    HW242399   3.441   4.758   1.675
 3969SOL     OW42400   5.292   1.009   1.578
 3969SOL    HW142401   5.232   0.946   1.540
 3969SOL    HW242402   5.284   0.997   1.672
 3970SOL     OW42403   5.260   2.839   1.493
 3970SOL    HW142404   5.209   2.763   1.466
 3970SOL    HW242405   5.290   2.818   1.581
 3971SOL     OW42406   5.293   4.720   1.600
 3971SOL    HW142407   5.222   4.662   1.629
 3971SOL    HW242408   5.356   4.719   1.672
 3972SOL     OW42409   0.467   0.479   1.513
 3972SOL    HW142410   0.534   0.546   1.525
 3972SOL    HW242411   0.384   0.525   1.528
 3973SOL     OW42412   0.437   2.340   1.527
 3973SOL    HW142413   0.513   2.388   1.561
 3973SOL    HW242414   0.362   2.396   1.546
 3974SOL     OW42415   0.448   4.216   1.470
 3974SOL    HW142416   0.523   4.259   1.509
 3974SOL    HW242417   0.373   4.269   1.497
 3975SOL     OW42418   2.298   0.512   1.475
 3975SOL    HW142419   2.370   0.563   1.512
 3975SOL    HW242420   2.219   0.561   1.500
 3976SOL     OW42421   2.299   6.044   1.511
 3976SOL    HW142422   2.370   6.084   1.560
 3976SOL    HW242423   2.224   6.100   1.527
 3977SOL     OW42424   6.038   0.559   1.577
 3977SOL    HW142425   6.099   0.611   1.525
 3977SOL    HW242426   5.952   0.592   1.554
 3978SOL     OW42427   6.065   6.111   1.479
 3978SOL    HW142428   6.116   6.164   1.540
 3978SOL    HW242429   5.983   6.160   1.468
 3979SOL     OW42430   0.894   2.245   1.570
 3979SOL    HW142431   0.945   2.285   1.500
 3979SOL    HW242432   0.869   2.159   1.535
 3980SOL     OW42433   0.908   4.084   1.567
 3980SOL    HW142434   0.949   4.129   1.494
 3980SOL    HW242435   0.873   4.003   1.529
 3981SOL     OW42436   2.730   0.393   1.475
 3981SOL    HW142437   2.730   0.484   1.504
 3981SOL    HW242438   2.754   0.343   1.553
 3982SOL     OW42439   2.765   4.097   1.574
 3982SOL    HW142440   2.840   4.140   1.534
 3982SOL    HW242441   2.778   4.004   1.555
 3983SOL     OW42442   2.802   5.858   1.530
 3983SOL    HW142443   2.810   5.943   1.488
 3983SOL    HW242444   2.830   5.795   1.463
 3984SOL     OW42445   4.592   0.355   1.538
 3984SOL    HW142446   4.653   0.412   1.491
 3984SOL    HW242447   4.647   0.308   1.601
 3985SOL     OW42448   4.633   2.227   1.530
 3985SOL    HW142449   4.684   2.286   1.475
 3985SOL    HW242450   4.649   2.140   1.493
 3986SOL     OW42451   4.596   4.064   1.481
 3986SOL    HW142452   4.666   4.126   1.464
 3986SOL    HW242453   4.640   3.982   1.502
 3987SOL     OW42454   6.438   1.293   1.594
 3987SOL    HW142455   6.352   1.335   1.586
 3987SOL    HW242456   6.426   1.206   1.556
 3988SOL     OW42457   0.034   3.089   1.586
 3988SOL    HW142458   6.422   3.097   1.513
 3988SOL    HW242459   0.007   3.009   1.631
 3989SOL     OW42460   0.005   4.996   1.524
 3989SOL    HW142461   6.412   5.063   1.576
 3989SOL    HW242462   0.018   4.923   1.584
 3990SOL     OW42463   1.857   3.142   1.553
 3990SOL    HW142464   1.772   3.140   1.510
 3990SOL    HW242465   1.857   3.064   1.609
 3991SOL     OW42466   1.918   5.027   1.555
 3991SOL    HW142467   1.828   5.037   1.524
 3991SOL    HW242468   1.916   4.950   1.612
 3992SOL     OW42469   3.743   1.339   1.550
 3992SOL    HW142470   3.651   1.344   1.526
 3992SOL    HW242471   3.745   1.274   1.620
 3993SOL     OW42472   3.768   3.171   1.561
 3993SOL    HW142473   3.680   3.204   1.539
 3993SOL    HW242474   3.752   3.088   1.605
 3994SOL     OW42475   1.420   2.989  11.273
 3994SOL    HW142476   1.501   2.968  11.226
 3994SOL    HW242477   1.385   3.065  11.226
 3995SOL     OW42478   3.273   1.143  11.288
 3995SOL    HW142479   3.336   1.129  11.218
 3995SOL    HW242480   3.226   1.223  11.263
 3996SOL     OW42481   5.126   2.990  11.290
 3996SOL    HW142482   5.207   2.968  11.244
 3996SOL    HW242483   5.077   3.045  11.229
 3997SOL     OW42484   0.211   5.175  11.282
 3997SOL    HW142485   0.149   5.242  11.309
 3997SOL    HW242486   0.164   5.092  11.292
 3998SOL     OW42487   2.077   5.159  11.252
 3998SOL    HW142488   2.062   5.240  11.301
 3998SOL    HW242489   2.031   5.092  11.302
 3999SOL     OW42490   3.961   1.452  11.237
 3999SOL    HW142491   3.955   1.547  11.237
 3999SOL    HW242492   3.909   1.425  11.313
 4000SOL     OW42493   3.977   5.116  11.281
 4000SOL    HW142494   3.989   5.199  11.235
 4000SOL    HW242495   3.914   5.136  11.350
 4001SOL     OW42496   5.873   1.416  11.346
 4001SOL    HW142497   5.838   1.500  11.318
 4001SOL    HW242498   5.797   1.367  11.378
 4002SOL     OW42499   5.735   3.367  11.262
 4002SOL    HW142500   5.728   3.423  11.339
 4002SOL    HW242501   5.718   3.279  11.295
 4003SOL     OW42502   5.804   5.168  11.231
 4003SOL    HW142503   5.801   5.242  11.291
 4003SOL    HW242504   5.768   5.095  11.282
 4004SOL     OW42505   1.764   1.987  11.230
 4004SOL    HW142506   1.813   1.960  11.153
 4004SOL    HW242507   1.714   1.910  11.255
 4005SOL     OW42508   1.675   3.824  11.269
 4005SOL    HW142509   1.757   3.874  11.270
 4005SOL    HW242510   1.702   3.733  11.276
 4006SOL     OW42511   1.755   5.724  11.218
 4006SOL    HW142512   1.754   5.698  11.126
 4006SOL    HW242513   1.722   5.648  11.265
 4007SOL     OW42514   3.592   2.012  11.252
 4007SOL    HW142515   3.636   2.002  11.168
 4007SOL    HW242516   3.565   1.923  11.275
 4008SOL     OW42517   5.395   1.931  11.264
 4008SOL    HW142518   5.481   1.970  11.285
 4008SOL    HW242519   5.411   1.836  11.267
 4009SOL     OW42520   5.520   5.751  11.241
 4009SOL    HW142521   5.544   5.718  11.154
 4009SOL    HW242522   5.480   5.675  11.284
 4010SOL     OW42523   0.497   0.401  11.255
 4010SOL    HW142524   0.501   0.313  11.216
 4010SOL    HW242525   0.424   0.397  11.317
 4011SOL     OW42526   2.344   0.442  11.249
 4011SOL    HW142527   2.378   0.368  11.199
 4011SOL    HW242528   2.280   0.404  11.309
 4012SOL     OW42529   2.332   2.173  11.291
 4012SOL    HW142530   2.294   2.216  11.215
 4012SOL    HW242531   2.263   2.174  11.357
 4013SOL     OW42532   4.184   0.386  11.288
 4013SOL    HW142533   4.159   0.342  11.207
 4013SOL    HW242534   4.116   0.362  11.351
 4014SOL     OW42535   6.096   0.395  11.287
 4014SOL    HW142536   6.103   0.312  11.240
 4014SOL    HW242537   6.019   0.384  11.343
 4015SOL     OW42538   6.109   2.207  11.283
 4015SOL    HW142539   6.074   2.255  11.207
 4015SOL    HW242540   6.034   2.197  11.342
 4016SOL     OW42541   1.812   0.620   1.606
 4016SOL    HW142542   1.763   0.599   1.526
 4016SOL    HW242543   1.817   0.537   1.653
 4017SOL     OW42544   1.751   6.244   1.599
 4017SOL    HW142545   1.743   6.217   1.507
 4017SOL    HW242546   1.754   6.162   1.648
 4018SOL     OW42547   3.584   0.669   1.558
 4018SOL    HW142548   3.559   0.620   1.480
 4018SOL    HW242549   3.617   0.603   1.619
 4019SOL     OW42550   3.552   2.449   1.635
 4019SOL    HW142551   3.559   2.439   1.540
 4019SOL    HW242552   3.536   2.361   1.668
 4020SOL     OW42553   3.626   6.188   1.596
 4020SOL    HW142554   3.594   6.184   1.506
 4020SOL    HW242555   3.611   6.100   1.630
 4021SOL     OW42556   5.531   0.631   1.608
 4021SOL    HW142557   5.492   0.616   1.522
 4021SOL    HW242558   5.471   0.589   1.670
 4022SOL     OW42559   5.526   2.473   1.603
 4022SOL    HW142560   5.476   2.449   1.525
 4022SOL    HW242561   5.503   2.407   1.667
 4023SOL     OW42562   5.390   4.347   1.586
 4023SOL    HW142563   5.437   4.327   1.506
 4023SOL    HW242564   5.457   4.348   1.654
 4024SOL     OW42565   0.580   1.914  11.176
 4024SOL    HW142566   0.491   1.924  11.211
 4024SOL    HW242567   0.574   1.948  11.086
 4025SOL     OW42568   2.357   0.037  11.308
 4025SOL    HW142569   2.280   0.093  11.309
 4025SOL    HW242570   2.411   0.073  11.237
 4026SOL     OW42571   2.390   1.910  11.220
 4026SOL    HW142572   2.307   1.886  11.263
 4026SOL    HW242573   2.401   2.003  11.239
 4027SOL     OW42574   4.250   0.043  11.160
 4027SOL    HW142575   4.182   0.034  11.227
 4027SOL    HW242576   4.221   0.116  11.105
 4028SOL     OW42577   6.178   0.096  11.277
 4028SOL    HW142578   6.089   0.076  11.306
 4028SOL    HW242579   6.167   0.133  11.190
 4029SOL     OW42580   6.131   1.939  11.202
 4029SOL    HW142581   6.042   1.915  11.228
 4029SOL    HW242582   6.139   2.031  11.225
 4030SOL     OW42583   1.146   1.673   1.670
 4030SOL    HW142584   1.052   1.678   1.651
 4030SOL    HW242585   1.187   1.660   1.584
 4031SOL     OW42586   1.159   5.511   1.611
 4031SOL    HW142587   1.069   5.501   1.641
 4031SOL    HW242588   1.172   5.440   1.548
 4032SOL     OW42589   3.009   1.783   1.635
 4032SOL    HW142590   2.925   1.755   1.672
 4032SOL    HW242591   3.026   1.720   1.565
 4033SOL     OW42592   3.023   3.677   1.550
 4033SOL    HW142593   2.997   3.666   1.641
 4033SOL    HW242594   3.064   3.594   1.526
 4034SOL     OW42595   4.870   5.512   1.603
 4034SOL    HW142596   4.782   5.489   1.630
 4034SOL    HW242597   4.895   5.443   1.541
 4035SOL     OW42598   0.200   0.914   1.565
 4035SOL    HW142599   0.260   0.987   1.583
 4035SOL    HW242600   0.247   0.836   1.594
 4036SOL     OW42601   0.332   2.760   1.609
 4036SOL    HW142602   0.348   2.792   1.520
 4036SOL    HW242603   0.305   2.669   1.597
 4037SOL     OW42604   0.280   4.656   1.631
 4037SOL    HW142605   0.365   4.698   1.623
 4037SOL    HW242606   0.288   4.574   1.582
 4038SOL     OW42607   2.140   0.915   1.603
 4038SOL    HW142608   2.230   0.932   1.576
 4038SOL    HW242609   2.118   0.831   1.562
 4039SOL     OW42610   2.180   2.863   1.612
 4039SOL    HW142611   2.273   2.880   1.594
 4039SOL    HW242612   2.156   2.798   1.546
 4040SOL     OW42613   4.144   4.664   1.658
 4040SOL    HW142614   4.218   4.673   1.599
 4040SOL    HW242615   4.082   4.608   1.611
 4041SOL     OW42616   5.877   0.885   1.629
 4041SOL    HW142617   5.922   0.931   1.559
 4041SOL    HW242618   5.842   0.805   1.588
 4042SOL     OW42619   5.937   4.685   1.660
 4042SOL    HW142620   6.021   4.689   1.614
 4042SOL    HW242621   5.879   4.636   1.602
 4043SOL     OW42622   0.827   1.849  11.259
 4043SOL    HW142623   0.872   1.871  11.177
 4043SOL    HW242624   0.736   1.873  11.243
 4044SOL     OW42625   0.838   3.774  11.281
 4044SOL    HW142626   0.871   3.851  11.236
 4044SOL    HW242627   0.749   3.797  11.306
 4045SOL     OW42628   0.808   5.577  11.253
 4045SOL    HW142629   0.852   5.607  11.174
 4045SOL    HW242630   0.717   5.603  11.241
 4046SOL     OW42631   4.502   6.396  11.198
 4046SOL    HW142632   4.514   0.013  11.265
 4046SOL    HW242633   4.411   6.407  11.169
 4047SOL     OW42634   6.420   6.427  11.215
 4047SOL    HW142635   0.015   0.046  11.166
 4047SOL    HW242636   6.337   0.016  11.242
 4048SOL     OW42637   6.361   1.806  11.260
 4048SOL    HW142638   6.421   1.865  11.214
 4048SOL    HW242639   6.274   1.843  11.242
 4049SOL     OW42640   6.436   5.551  11.248
 4049SOL    HW142641   0.071   5.582  11.281
 4049SOL    HW242642   6.384   5.630  11.236
 4050SOL     OW42643   0.338   4.855  11.193
 4050SOL    HW142644   0.325   4.923  11.128
 4050SOL    HW242645   0.368   4.779  11.143
 4051SOL     OW42646   2.247   1.115  11.217
 4051SOL    HW142647   2.207   1.181  11.161
 4051SOL    HW242648   2.237   1.033  11.169
 4052SOL     OW42649   4.065   1.112  11.211
 4052SOL    HW142650   4.057   1.174  11.138
 4052SOL    HW242651   4.104   1.034  11.172
 4053SOL     OW42652   0.642   1.451  11.213
 4053SOL    HW142653   0.643   1.373  11.157
 4053SOL    HW242654   0.592   1.515  11.163
 4054SOL     OW42655   0.682   3.391  11.170
 4054SOL    HW142656   0.701   3.323  11.106
 4054SOL    HW242657   0.592   3.417  11.151
 4055SOL     OW42658   0.172   3.554  11.226
 4055SOL    HW142659   0.209   3.633  11.265
 4055SOL    HW242660   0.192   3.561  11.133
 4056SOL     OW42661   2.180   1.652  11.228
 4056SOL    HW142662   2.148   1.735  11.264
 4056SOL    HW242663   2.213   1.676  11.141
 4057SOL     OW42664   3.964   1.725  11.195
 4057SOL    HW142665   3.982   1.787  11.265
 4057SOL    HW242666   4.041   1.730  11.138
 4058SOL     OW42667   3.958   3.558  11.301
 4058SOL    HW142668   4.013   3.630  11.332
 4058SOL    HW242669   3.973   3.556  11.207
 4059SOL     OW42670   3.987   5.370  11.185
 4059SOL    HW142671   3.987   5.443  11.246
 4059SOL    HW242672   3.986   5.410  11.099
 4060SOL     OW42673   0.943   0.222  11.226
 4060SOL    HW142674   0.867   0.192  11.175
 4060SOL    HW242675   1.006   0.250  11.160
 4061SOL     OW42676   0.383   2.584  11.251
 4061SOL    HW142677   0.394   2.569  11.157
 4061SOL    HW242678   0.296   2.551  11.270
 4062SOL     OW42679   0.419   4.400  11.178
 4062SOL    HW142680   0.435   4.306  11.182
 4062SOL    HW242681   0.330   4.411  11.213
 4063SOL     OW42682   0.950   3.990  11.168
 4063SOL    HW142683   0.925   4.034  11.087
 4063SOL    HW242684   1.046   3.993  11.168
 4064SOL     OW42685   2.235   0.690  11.171
 4064SOL    HW142686   2.288   0.612  11.185
 4064SOL    HW242687   2.161   0.680  11.230
 4065SOL     OW42688   2.844   0.191  11.190
 4065SOL    HW142689   2.800   0.277  11.188
 4065SOL    HW242690   2.937   0.212  11.185
 4066SOL     OW42691   4.706   0.173  11.254
 4066SOL    HW142692   4.628   0.227  11.239
 4066SOL    HW242693   4.731   0.143  11.167
 4067SOL     OW42694   4.143   2.561  11.191
 4067SOL    HW142695   4.169   2.507  11.117
 4067SOL    HW242696   4.062   2.521  11.223
 4068SOL     OW42697   4.714   2.121  11.200
 4068SOL    HW142698   4.680   2.134  11.112
 4068SOL    HW242699   4.809   2.133  11.192
 4069SOL     OW42700   4.113   6.232  11.265
 4069SOL    HW142701   4.131   6.198  11.177
 4069SOL    HW242702   4.018   6.232  11.271
 4070SOL     OW42703   4.703   5.811  11.226
 4070SOL    HW142704   4.676   5.810  11.135
 4070SOL    HW242705   4.796   5.834  11.223
 4071SOL     OW42706   5.985   4.337  11.233
 4071SOL    HW142707   5.989   4.247  11.204
 4071SOL    HW242708   5.897   4.347  11.270
 4072SOL     OW42709   0.586   2.570   1.655
 4072SOL    HW142710   0.588   2.661   1.627
 4072SOL    HW242711   0.529   2.569   1.732
 4073SOL     OW42712   0.615   4.427   1.608
 4073SOL    HW142713   0.614   4.505   1.553
 4073SOL    HW242714   0.593   4.458   1.695
 4074SOL     OW42715   0.623   6.280   1.686
 4074SOL    HW142716   0.615   6.344   1.615
 4074SOL    HW242717   0.545   6.295   1.740
 4075SOL     OW42718   2.452   0.704   1.600
 4075SOL    HW142719   2.460   0.796   1.574
 4075SOL    HW242720   2.385   0.704   1.668
 4076SOL     OW42721   4.348   0.718   1.609
 4076SOL    HW142722   4.345   0.802   1.563
 4076SOL    HW242723   4.280   0.724   1.675
 4077SOL     OW42724   4.336   2.566   1.655
 4077SOL    HW142725   4.372   2.627   1.591
 4077SOL    HW242726   4.248   2.598   1.671
 4078SOL     OW42727   4.343   6.344   1.687
 4078SOL    HW142728   4.319   6.394   1.609
 4078SOL    HW242729   4.259   6.326   1.730
 4079SOL     OW42730   6.167   6.349   1.616
 4079SOL    HW142731   6.187   6.405   1.541
 4079SOL    HW242732   6.092   6.390   1.658
 4080SOL     OW42733   1.422   3.449  11.226
 4080SOL    HW142734   1.467   3.484  11.149
 4080SOL    HW242735   1.369   3.522  11.258
 4081SOL     OW42736   0.988   5.164  11.181
 4081SOL    HW142737   0.972   5.226  11.110
 4081SOL    HW242738   0.947   5.204  11.258
 4082SOL     OW42739   4.693   3.318  11.208
 4082SOL    HW142740   4.694   3.392  11.147
 4082SOL    HW242741   4.785   3.304  11.230
 4083SOL     OW42742   4.773   5.163  11.231
 4083SOL    HW142743   4.719   5.204  11.164
 4083SOL    HW242744   4.718   5.162  11.310
 4084SOL     OW42745   1.239   0.539   1.671
 4084SOL    HW142746   1.226   0.463   1.728
 4084SOL    HW242747   1.214   0.614   1.725
 4085SOL     OW42748   1.239   6.095   1.640
 4085SOL    HW142749   1.260   6.008   1.674
 4085SOL    HW242750   1.181   6.133   1.706
 4086SOL     OW42751   3.066   2.382   1.639
 4086SOL    HW142752   3.083   2.308   1.698
 4086SOL    HW242753   3.012   2.442   1.691
 4087SOL     OW42754   4.947   0.530   1.667
 4087SOL    HW142755   4.959   0.453   1.722
 4087SOL    HW242756   4.938   0.603   1.729
 4088SOL     OW42757   1.633   2.544  11.207
 4088SOL    HW142758   1.572   2.572  11.274
 4088SOL    HW242759   1.593   2.571  11.124
 4089SOL     OW42760   1.645   4.385  11.215
 4089SOL    HW142761   1.589   4.406  11.289
 4089SOL    HW242762   1.596   4.413  11.138
 4090SOL     OW42763   3.415   0.616  11.224
 4090SOL    HW142764   3.384   0.676  11.292
 4090SOL    HW242765   3.426   0.671  11.147
 4091SOL     OW42766   0.247   1.363   1.665
 4091SOL    HW142767   0.154   1.343   1.654
 4091SOL    HW242768   0.255   1.390   1.756
 4092SOL     OW42769   0.280   3.171   1.672
 4092SOL    HW142770   0.189   3.146   1.657
 4092SOL    HW242771   0.278   3.225   1.751
 4093SOL     OW42772   2.008   1.348   1.600
 4093SOL    HW142773   1.966   1.265   1.621
 4093SOL    HW242774   2.067   1.364   1.674
 4094SOL     OW42775   2.123   3.188   1.692
 4094SOL    HW142776   2.037   3.145   1.693
 4094SOL    HW242777   2.121   3.247   1.768
 4095SOL     OW42778   0.931   4.614   1.681
 4095SOL    HW142779   0.997   4.642   1.617
 4095SOL    HW242780   0.934   4.518   1.679
 4096SOL     OW42781   2.826   0.890   1.656
 4096SOL    HW142782   2.892   0.940   1.609
 4096SOL    HW242783   2.875   0.822   1.702
 4097SOL     OW42784   2.813   2.783   1.694
 4097SOL    HW142785   2.870   2.825   1.630
 4097SOL    HW242786   2.855   2.698   1.711
 4098SOL     OW42787   2.754   4.616   1.628
 4098SOL    HW142788   2.824   4.672   1.594
 4098SOL    HW242789   2.795   4.565   1.697
 4099SOL     OW42790   4.678   2.783   1.667
 4099SOL    HW142791   4.736   2.812   1.597
 4099SOL    HW242792   4.673   2.688   1.656
 4100SOL     OW42793   4.597   4.606   1.588
 4100SOL    HW142794   4.674   4.656   1.563
 4100SOL    HW242795   4.607   4.590   1.681
 4101SOL     OW42796   4.685   0.005   1.617
 4101SOL    HW142797   4.644   0.079   1.662
 4101SOL    HW242798   4.664   6.379   1.671
 4102SOL     OW42799   3.107   0.263  11.201
 4102SOL    HW142800   3.162   0.288  11.127
 4102SOL    HW242801   3.122   0.331  11.266
 4103SOL     OW42802   3.135   2.199  11.150
 4103SOL    HW142803   3.173   2.112  11.156
 4103SOL    HW242804   3.156   2.241  11.233
 4104SOL     OW42805   4.979   2.183  11.167
 4104SOL    HW142806   5.038   2.107  11.167
 4104SOL    HW242807   5.005   2.233  11.244
 4105SOL     OW42808   4.963   5.893  11.208
 4105SOL    HW142809   5.043   5.857  11.169
 4105SOL    HW242810   4.995   5.951  11.277
 4106SOL     OW42811   0.031   4.770   1.679
 4106SOL    HW142812   0.117   4.730   1.670
 4106SOL    HW242813  -0.000   4.743   1.765
 4107SOL     OW42814   1.936   1.087   1.661
 4107SOL    HW142815   2.014   1.039   1.633
 4107SOL    HW242816   1.883   1.022   1.707
 4108SOL     OW42817   1.946   2.945   1.714
 4108SOL    HW142818   2.032   2.917   1.682
 4108SOL    HW242819   1.924   2.881   1.782
 4109SOL     OW42820   1.914   4.794   1.706
 4109SOL    HW142821   1.992   4.797   1.762
 4109SOL    HW242822   1.934   4.724   1.643
 4110SOL     OW42823   3.732   2.927   1.683
 4110SOL    HW142824   3.784   2.954   1.758
 4110SOL    HW242825   3.702   2.839   1.705
 4111SOL     OW42826   0.783   1.299   1.666
 4111SOL    HW142827   0.690   1.315   1.650
 4111SOL    HW242828   0.786   1.259   1.753
 4112SOL     OW42829   4.479   1.234   1.697
 4112SOL    HW142830   4.418   1.287   1.644
 4112SOL    HW242831   4.557   1.289   1.705
 4113SOL     OW42832   4.421   3.135   1.698
 4113SOL    HW142833   4.417   3.041   1.715
 4113SOL    HW242834   4.515   3.156   1.701
 4114SOL     OW42835   1.659   5.310   1.605
 4114SOL    HW142836   1.706   5.380   1.651
 4114SOL    HW242837   1.596   5.356   1.550
 4115SOL     OW42838   5.338   5.395   1.673
 4115SOL    HW142839   5.310   5.485   1.690
 4115SOL    HW242840   5.291   5.370   1.593
 4116SOL     OW42841   1.334   4.611   1.699
 4116SOL    HW142842   1.285   4.594   1.779
 4116SOL    HW242843   1.271   4.594   1.628
 4117SOL     OW42844   3.169   4.614   1.693
 4117SOL    HW142845   3.154   4.552   1.763
 4117SOL    HW242846   3.090   4.608   1.638
 4118SOL     OW42847   5.072   4.572   1.689
 4118SOL    HW142848   4.993   4.590   1.740
 4118SOL    HW242849   5.042   4.567   1.598
 4119SOL     OW42850   1.664   2.949  11.146
 4119SOL    HW142851   1.682   2.987  11.060
 4119SOL    HW242852   1.678   3.021  11.208
 4120SOL     OW42853   1.689   4.840  11.154
 4120SOL    HW142854   1.723   4.893  11.081
 4120SOL    HW242855   1.668   4.904  11.222
 4121SOL     OW42856   3.598   2.942  11.010
 4121SOL    HW142857   3.668   2.897  11.058
 4121SOL    HW242858   3.544   2.982  11.079
 4122SOL     OW42859   3.573   4.820  11.163
 4122SOL    HW142860   3.651   4.818  11.109
 4122SOL    HW242861   3.568   4.911  11.195
 4123SOL     OW42862   5.456   1.100  11.150
 4123SOL    HW142863   5.511   1.143  11.085
 4123SOL    HW242864   5.420   1.172  11.202
 4124SOL     OW42865   5.363   2.938  11.167
 4124SOL    HW142866   5.443   2.918  11.118
 4124SOL    HW242867   5.390   3.004  11.231
 4125SOL     OW42868   0.136   5.856   1.638
 4125SOL    HW142869   0.105   5.779   1.590
 4125SOL    HW242870   0.175   5.820   1.717
 4126SOL     OW42871   1.996   0.259   1.690
 4126SOL    HW142872   1.970   0.282   1.600
 4126SOL    HW242873   1.958   0.172   1.703
 4127SOL     OW42874   1.887   2.064   1.623
 4127SOL    HW142875   1.896   2.111   1.540
 4127SOL    HW242876   1.960   2.095   1.677
 4128SOL     OW42877   1.877   3.908   1.702
 4128SOL    HW142878   1.861   3.995   1.664
 4128SOL    HW242879   1.966   3.886   1.673
 4129SOL     OW42880   1.068   2.534  11.130
 4129SOL    HW142881   1.092   2.539  11.223
 4129SOL    HW242882   0.994   2.594  11.121
 4130SOL     OW42883   2.950   2.560  11.138
 4130SOL    HW142884   2.970   2.553  11.231
 4130SOL    HW242885   2.857   2.536  11.131
 4131SOL     OW42886   2.914   4.364  11.177
 4131SOL    HW142887   2.954   4.396  11.258
 4131SOL    HW242888   2.841   4.310  11.205
 4132SOL     OW42889   4.781   2.559  11.139
 4132SOL    HW142890   4.815   2.557  11.228
 4132SOL    HW242891   4.694   2.520  11.145
 4133SOL     OW42892   4.742   4.442  11.159
 4133SOL    HW142893   4.779   4.459  11.245
 4133SOL    HW242894   4.753   4.347  11.147
 4134SOL     OW42895   4.724   6.252  11.160
 4134SOL    HW142896   4.730   6.195  11.237
 4134SOL    HW242897   4.641   6.298  11.171
 4135SOL     OW42898   3.262   1.953  11.170
 4135SOL    HW142899   3.238   1.925  11.082
 4135SOL    HW242900   3.358   1.953  11.170
 4136SOL     OW42901   5.146   1.963  11.166
 4136SOL    HW142902   5.167   1.947  11.074
 4136SOL    HW242903   5.231   1.962  11.211
 4137SOL     OW42904   2.262   3.580   1.728
 4137SOL    HW142905   2.318   3.638   1.780
 4137SOL    HW242906   2.321   3.542   1.662
 4138SOL     OW42907   2.385   5.530   1.701
 4138SOL    HW142908   2.416   5.563   1.786
 4138SOL    HW242909   2.459   5.480   1.667
 4139SOL     OW42910   4.218   5.490   1.691
 4139SOL    HW142911   4.265   5.526   1.767
 4139SOL    HW242912   4.281   5.433   1.648
 4140SOL     OW42913   6.014   1.683   1.684
 4140SOL    HW142914   6.068   1.720   1.754
 4140SOL    HW242915   6.076   1.666   1.613
 4141SOL     OW42916   0.747   2.372   1.767
 4141SOL    HW142917   0.803   2.327   1.704
 4141SOL    HW242918   0.706   2.443   1.717
 4142SOL     OW42919   0.881   4.344   1.659
 4142SOL    HW142920   0.887   4.249   1.650
 4142SOL    HW242921   0.788   4.364   1.644
 4143SOL     OW42922   2.680   4.294   1.733
 4143SOL    HW142923   2.706   4.223   1.673
 4143SOL    HW242924   2.641   4.360   1.676
 4144SOL     OW42925   4.470   0.510   1.727
 4144SOL    HW142926   4.519   0.469   1.656
 4144SOL    HW242927   4.433   0.589   1.689
 4145SOL     OW42928   4.586   2.462   1.665
 4145SOL    HW142929   4.590   2.371   1.634
 4145SOL    HW242930   4.493   2.482   1.669
 4146SOL     OW42931   2.464   4.004   1.796
 4146SOL    HW142932   2.460   3.955   1.714
 4146SOL    HW242933   2.516   4.082   1.775
 4147SOL     OW42934   4.323   0.256   1.658
 4147SOL    HW142935   4.348   0.208   1.580
 4147SOL    HW242936   4.366   0.341   1.649
 4148SOL     OW42937   2.679   5.337   1.772
 4148SOL    HW142938   2.642   5.342   1.683
 4148SOL    HW242939   2.690   5.429   1.798
 4149SOL     OW42940   4.616   5.421   1.654
 4149SOL    HW142941   4.533   5.387   1.620
 4149SOL    HW242942   4.596   5.444   1.745
 4150SOL     OW42943   1.865   1.797   1.677
 4150SOL    HW142944   1.823   1.794   1.763
 4150SOL    HW242945   1.860   1.889   1.652
 4151SOL     OW42946   1.896   3.578   1.755
 4151SOL    HW142947   1.959   3.584   1.827
 4151SOL    HW242948   1.828   3.642   1.777
 4152SOL     OW42949   1.837   5.500   1.691
 4152SOL    HW142950   1.920   5.494   1.739
 4152SOL    HW242951   1.832   5.592   1.663
 4153SOL     OW42952   1.258   1.285  11.071
 4153SOL    HW142953   1.295   1.373  11.066
 4153SOL    HW242954   1.201   1.287  11.148
 4154SOL     OW42955   1.346   3.205  11.128
 4154SOL    HW142956   1.376   3.289  11.163
 4154SOL    HW242957   1.273   3.227  11.071
 4155SOL     OW42958   1.254   5.095  11.244
 4155SOL    HW142959   1.287   5.069  11.157
 4155SOL    HW242960   1.160   5.108  11.231
 4156SOL     OW42961   3.133   1.366  11.219
 4156SOL    HW142962   3.129   1.461  11.203
 4156SOL    HW242963   3.042   1.340  11.231
 4157SOL     OW42964   0.688   4.693   1.761
 4157SOL    HW142965   0.683   4.711   1.855
 4157SOL    HW242966   0.780   4.673   1.744
 4158SOL     OW42967   2.601   0.992   1.760
 4158SOL    HW142968   2.618   0.981   1.853
 4158SOL    HW242969   2.680   0.959   1.717
 4159SOL     OW42970   2.561   2.857   1.762
 4159SOL    HW142971   2.560   2.867   1.857
 4159SOL    HW242972   2.651   2.834   1.741
 4160SOL     OW42973   4.440   2.871   1.757
 4160SOL    HW142974   4.433   2.874   1.853
 4160SOL    HW242975   4.528   2.838   1.740
 4161SOL     OW42976   4.482   0.090   1.802
 4161SOL    HW142977   4.427   0.164   1.776
 4161SOL    HW242978   4.440   0.014   1.763
 4162SOL     OW42979   3.722   4.534  11.099
 4162SOL    HW142980   3.764   4.468  11.153
 4162SOL    HW242981   3.662   4.485  11.042
 4163SOL     OW42982   5.540   0.806  11.229
 4163SOL    HW142983   5.614   0.804  11.289
 4163SOL    HW242984   5.559   0.878  11.169
 4164SOL     OW42985   1.590   0.375  11.103
 4164SOL    HW142986   1.609   0.344  11.191
 4164SOL    HW242987   1.595   0.470  11.109
 4165SOL     OW42988   1.607   5.926  11.081
 4165SOL    HW142989   1.650   5.872  11.148
 4165SOL    HW242990   1.600   6.013  11.121
 4166SOL     OW42991   3.516   5.930  11.168
 4166SOL    HW142992   3.445   5.880  11.209
 4166SOL    HW242993   3.472   6.005  11.129
 4167SOL     OW42994   5.372   5.966  11.124
 4167SOL    HW142995   5.431   5.910  11.175
 4167SOL    HW242996   5.392   6.054  11.153
 4168SOL     OW42997   3.458   2.229   1.785
 4168SOL    HW142998   3.497   2.175   1.854
 4168SOL    HW242999   3.417   2.302   1.832
 4169SOL     OW43000   5.236   5.980   1.724
 4169SOL    HW143001   5.285   5.914   1.773
 4169SOL    HW243002   5.223   6.051   1.788
 4170SOL     OW43003   1.839   0.845   1.769
 4170SOL    HW143004   1.890   0.792   1.830
 4170SOL    HW243005   1.817   0.785   1.698
 4171SOL     OW43006   1.884   6.443   1.730
 4171SOL    HW143007   1.911   6.398   1.810
 4171SOL    HW243008   1.827   6.380   1.685
 4172SOL     OW43009   3.666   2.668   1.750
 4172SOL    HW143010   3.720   2.625   1.816
 4172SOL    HW243011   3.620   2.597   1.706
 4173SOL     OW43012   3.764   6.389   1.708
 4173SOL    HW143013   3.825   6.340   1.763
 4173SOL    HW243014   3.708   6.321   1.668
 4174SOL     OW43015   5.557   0.812   1.813
 4174SOL    HW143016   5.646   0.848   1.815
 4174SOL    HW243017   5.556   0.756   1.735
 4175SOL     OW43018   0.698   1.112  11.124
 4175SOL    HW143019   0.698   1.066  11.208
 4175SOL    HW243020   0.735   1.048  11.062
 4176SOL     OW43021   2.537   0.172  11.133
 4176SOL    HW143022   2.566   0.193  11.222
 4176SOL    HW243023   2.616   0.143  11.088
 4177SOL     OW43024   4.477   0.231  11.101
 4177SOL    HW143025   4.418   0.180  11.157
 4177SOL    HW243026   4.528   0.165  11.053
 4178SOL     OW43027   1.205   1.366   1.776
 4178SOL    HW143028   1.257   1.438   1.810
 4178SOL    HW243029   1.152   1.337   1.851
 4179SOL     OW43030   3.101   3.230   1.768
 4179SOL    HW143031   3.172   3.260   1.825
 4179SOL    HW243032   3.022   3.237   1.823
 4180SOL     OW43033   1.867   3.624  11.021
 4180SOL    HW143034   1.847   3.600  11.112
 4180SOL    HW243035   1.939   3.687  11.029
 4181SOL     OW43036   1.888   5.478  11.035
 4181SOL    HW143037   1.934   5.522  11.107
 4181SOL    HW243038   1.918   5.522  10.956
 4182SOL     OW43039   3.713   1.705  11.081
 4182SOL    HW143040   3.801   1.700  11.119
 4182SOL    HW243041   3.709   1.792  11.041
 4183SOL     OW43042   5.583   3.621  11.109
 4183SOL    HW143043   5.666   3.581  11.136
 4183SOL    HW243044   5.603   3.715  11.101
 4184SOL     OW43045   0.892   3.560  11.125
 4184SOL    HW143046   0.811   3.510  11.131
 4184SOL    HW243047   0.874   3.640  11.174
 4185SOL     OW43048   4.615   3.505  11.022
 4185SOL    HW143049   4.570   3.430  10.982
 4185SOL    HW243050   4.551   3.576  11.019
 4186SOL     OW43051   4.593   5.319  11.085
 4186SOL    HW143052   4.531   5.298  11.016
 4186SOL    HW243053   4.652   5.384  11.046
 4187SOL     OW43054   4.198   0.277  11.019
 4187SOL    HW143055   4.228   0.229  10.942
 4187SOL    HW243056   4.274   0.327  11.048
 4188SOL     OW43057   6.156   0.226  11.041
 4188SOL    HW143058   6.184   0.187  10.959
 4188SOL    HW243059   6.157   0.321  11.024
 4189SOL     OW43060   0.799   4.272  11.108
 4189SOL    HW143061   0.827   4.221  11.032
 4189SOL    HW243062   0.740   4.338  11.072
 4190SOL     OW43063   0.839   6.102  11.062
 4190SOL    HW143064   0.846   6.049  10.983
 4190SOL    HW243065   0.768   6.164  11.043
 4191SOL     OW43066   6.426   0.564  10.988
 4191SOL    HW143067   6.425   0.520  11.073
 4191SOL    HW243068   6.345   0.614  10.985
 4192SOL     OW43069   6.446   4.280  11.100
 4192SOL    HW143070   0.025   4.260  11.011
 4192SOL    HW243071   6.369   4.335  11.089
 4193SOL     OW43072   6.433   6.092  11.092
 4193SOL    HW143073   0.016   6.070  11.005
 4193SOL    HW243074   6.384   6.174  11.079
 4194SOL     OW43075   2.303   1.764  11.008
 4194SOL    HW143076   2.345   1.819  11.073
 4194SOL    HW243077   2.355   1.775  10.929
 4195SOL     OW43078   4.195   1.754  11.053
 4195SOL    HW143079   4.265   1.811  11.082
 4195SOL    HW243080   4.232   1.705  10.980
 4196SOL     OW43081   1.496   3.843   1.714
 4196SOL    HW143082   1.455   3.765   1.677
 4196SOL    HW243083   1.560   3.810   1.775
 4197SOL     OW43084   1.342   5.813   1.732
 4197SOL    HW143085   1.360   5.755   1.657
 4197SOL    HW243086   1.364   5.760   1.808
 4198SOL     OW43087   5.180   0.137   1.725
 4198SOL    HW143088   5.129   0.081   1.667
 4198SOL    HW243089   5.186   0.087   1.807
 4199SOL     OW43090   1.061   6.198   1.821
 4199SOL    HW143091   1.068   6.202   1.916
 4199SOL    HW243092   0.967   6.206   1.803
 4200SOL     OW43093   2.900   0.682   1.829
 4200SOL    HW143094   2.940   0.680   1.916
 4200SOL    HW243095   2.806   0.676   1.845
 4201SOL     OW43096   2.894   2.533   1.795
 4201SOL    HW143097   2.920   2.551   1.885
 4201SOL    HW243098   2.806   2.495   1.803
 4202SOL     OW43099   2.905   4.454   1.794
 4202SOL    HW143100   2.916   4.476   1.887
 4202SOL    HW243101   2.840   4.383   1.793
 4203SOL     OW43102   0.085   0.169  11.053
 4203SOL    HW143103   0.089   0.231  10.980
 4203SOL    HW243104   0.162   0.190  11.106
 4204SOL     OW43105   0.065   1.987  11.128
 4204SOL    HW143106   0.066   2.026  11.041
 4204SOL    HW243107   0.157   1.974  11.149
 4205SOL     OW43108   3.846   0.123  10.977
 4205SOL    HW143109   3.862   0.216  10.991
 4205SOL    HW243110   3.909   0.079  11.034
 4206SOL     OW43111   3.728   1.978  11.019
 4206SOL    HW143112   3.692   1.983  10.930
 4206SOL    HW243113   3.822   1.991  11.007
 4207SOL     OW43114   1.676   4.845   1.819
 4207SOL    HW143115   1.760   4.825   1.777
 4207SOL    HW243116   1.688   4.933   1.855
 4208SOL     OW43117   3.518   4.851   1.830
 4208SOL    HW143118   3.580   4.883   1.764
 4208SOL    HW243119   3.523   4.916   1.900
 4209SOL     OW43120   5.364   1.095   1.848
 4209SOL    HW143121   5.436   1.088   1.784
 4209SOL    HW243122   5.359   1.188   1.868
 4210SOL     OW43123   3.218   0.908  11.042
 4210SOL    HW143124   3.145   0.880  11.097
 4210SOL    HW243125   3.194   0.880  10.954
 4211SOL     OW43126   3.151   2.735  11.058
 4211SOL    HW143127   3.078   2.675  11.069
 4211SOL    HW243128   3.173   2.730  10.965
 4212SOL     OW43129   5.003   2.766  10.972
 4212SOL    HW143130   4.941   2.764  11.045
 4212SOL    HW243131   5.009   2.674  10.944
 4213SOL     OW43132   1.591   3.522  11.024
 4213SOL    HW143133   1.655   3.586  10.993
 4213SOL    HW243134   1.597   3.450  10.961
 4214SOL     OW43135   1.657   5.331  11.072
 4214SOL    HW143136   1.734   5.383  11.047
 4214SOL    HW243137   1.634   5.283  10.992
 4215SOL     OW43138   0.861   5.003  10.978
 4215SOL    HW143139   0.789   4.949  11.012
 4215SOL    HW243140   0.910   5.030  11.055
 4216SOL     OW43141   4.554   3.211  10.985
 4216SOL    HW143142   4.525   3.119  10.988
 4216SOL    HW243143   4.601   3.224  11.067
 4217SOL     OW43144   3.813   4.782  11.038
 4217SOL    HW143145   3.899   4.765  10.998
 4217SOL    HW243146   3.780   4.695  11.060
 4218SOL     OW43147   5.583   2.872  11.032
 4218SOL    HW143148   5.676   2.895  11.032
 4218SOL    HW243149   5.575   2.803  10.966
 4219SOL     OW43150   3.120   2.170   1.818
 4219SOL    HW143151   3.171   2.105   1.769
 4219SOL    HW243152   3.142   2.154   1.910
 4220SOL     OW43153   5.048   2.203   1.798
 4220SOL    HW143154   4.961   2.164   1.799
 4220SOL    HW243155   5.056   2.246   1.883
 4221SOL     OW43156   4.656   0.889  10.945
 4221SOL    HW143157   4.726   0.945  10.913
 4221SOL    HW243158   4.661   0.898  11.040
 4222SOL     OW43159   4.655   2.784  11.005
 4222SOL    HW143160   4.691   2.787  10.917
 4222SOL    HW243161   4.697   2.708  11.046
 4223SOL     OW43162   4.652   4.536  10.919
 4223SOL    HW143163   4.669   4.630  10.930
 4223SOL    HW243164   4.679   4.496  11.002
 4224SOL     OW43165   4.706   0.060  11.002
 4224SOL    HW143166   4.743   0.042  10.915
 4224SOL    HW243167   4.704   6.424  11.045
 4225SOL     OW43168   0.277   5.095  11.030
 4225SOL    HW143169   0.217   5.144  10.974
 4225SOL    HW243170   0.265   5.132  11.117
 4226SOL     OW43171   2.065   5.047  10.995
 4226SOL    HW143172   1.973   5.022  11.006
 4226SOL    HW243173   2.088   5.091  11.077
 4227SOL     OW43174   4.012   1.303  11.024
 4227SOL    HW143175   3.927   1.309  10.981
 4227SOL    HW243176   4.005   1.361  11.100
 4228SOL     OW43177   5.766   5.095  10.966
 4228SOL    HW143178   5.671   5.096  10.980
 4228SOL    HW243179   5.803   5.123  11.049
 4229SOL     OW43180   3.380   4.436   1.846
 4229SOL    HW143181   3.346   4.426   1.936
 4229SOL    HW243182   3.464   4.479   1.857
 4230SOL     OW43183   5.303   0.682   1.803
 4230SOL    HW143184   5.261   0.678   1.889
 4230SOL    HW243185   5.378   0.739   1.815
 4231SOL     OW43186   5.295   4.501   1.868
 4231SOL    HW143187   5.250   4.480   1.950
 4231SOL    HW243188   5.233   4.479   1.799
 4232SOL     OW43189   3.057   2.379  10.958
 4232SOL    HW143190   3.087   2.306  11.013
 4232SOL    HW243191   3.030   2.446  11.021
 4233SOL     OW43192   3.119   6.116  11.013
 4233SOL    HW143193   3.093   6.044  11.070
 4233SOL    HW243194   3.053   6.184  11.029
 4234SOL     OW43195   4.897   2.366  10.973
 4234SOL    HW143196   4.937   2.304  11.034
 4234SOL    HW243197   4.868   2.439  11.028
 4235SOL     OW43198   4.826   6.033  11.011
 4235SOL    HW143199   4.881   5.994  11.079
 4235SOL    HW243200   4.796   6.116  11.048
 4236SOL     OW43201   1.348   1.600   1.873
 4236SOL    HW143202   1.424   1.603   1.816
 4236SOL    HW243203   1.279   1.645   1.823
 4237SOL     OW43204   2.880   3.246   1.915
 4237SOL    HW143205   2.796   3.278   1.882
 4237SOL    HW243206   2.859   3.205   1.999
 4238SOL     OW43207   0.620   4.446  11.002
 4238SOL    HW143208   0.605   4.524  10.949
 4238SOL    HW243209   0.545   4.443  11.061
 4239SOL     OW43210   6.195   0.705  10.980
 4239SOL    HW143211   6.190   0.773  10.912
 4239SOL    HW243212   6.109   0.708  11.023
 4240SOL     OW43213   0.320   0.724   1.809
 4240SOL    HW143214   0.370   0.647   1.835
 4240SOL    HW243215   0.245   0.726   1.868
 4241SOL     OW43216   0.416   2.564   1.872
 4241SOL    HW143217   0.402   2.470   1.887
 4241SOL    HW243218   0.330   2.603   1.883
 4242SOL     OW43219   0.387   6.277   1.842
 4242SOL    HW143220   0.372   6.194   1.798
 4242SOL    HW243221   0.300   6.305   1.870
 4243SOL     OW43222   2.241   0.682   1.769
 4243SOL    HW143223   2.211   0.604   1.815
 4243SOL    HW243224   2.164   0.739   1.766
 4244SOL     OW43225   2.864   2.058   1.814
 4244SOL    HW143226   2.832   2.074   1.725
 4244SOL    HW243227   2.952   2.096   1.815
 4245SOL     OW43228   4.170   0.692   1.814
 4245SOL    HW143229   4.177   0.597   1.822
 4245SOL    HW243230   4.077   0.710   1.830
 4246SOL     OW43231   4.133   6.284   1.857
 4246SOL    HW143232   4.151   6.191   1.872
 4246SOL    HW243233   4.043   6.296   1.887
 4247SOL     OW43234   5.996   0.667   1.892
 4247SOL    HW143235   6.017   0.589   1.842
 4247SOL    HW243236   5.949   0.723   1.830
 4248SOL     OW43237   0.253   3.706   1.779
 4248SOL    HW143238   0.241   3.747   1.865
 4248SOL    HW243239   0.249   3.612   1.797
 4249SOL     OW43240   2.091   3.592   1.945
 4249SOL    HW143241   2.144   3.615   2.022
 4249SOL    HW243242   2.155   3.584   1.874
 4250SOL     OW43243   2.086   5.515   1.791
 4250SOL    HW143244   2.148   5.505   1.864
 4250SOL    HW243245   2.141   5.538   1.716
 4251SOL     OW43246   0.320   2.936   1.824
 4251SOL    HW143247   0.324   3.015   1.771
 4251SOL    HW243248   0.327   2.864   1.761
 4252SOL     OW43249   2.209   3.002   1.870
 4252SOL    HW143250   2.199   3.073   1.807
 4252SOL    HW243251   2.233   2.926   1.816
 4253SOL     OW43252   2.133   4.812   1.865
 4253SOL    HW143253   2.172   4.896   1.890
 4253SOL    HW243254   2.201   4.747   1.885
 4254SOL     OW43255   6.029   4.787   1.896
 4254SOL    HW143256   5.974   4.865   1.908
 4254SOL    HW243257   5.991   4.742   1.821
 4255SOL     OW43258   2.678   5.597   1.845
 4255SOL    HW143259   2.739   5.668   1.862
 4255SOL    HW243260   2.598   5.623   1.890
 4256SOL     OW43261   4.561   5.533   1.896
 4256SOL    HW143262   4.625   5.603   1.883
 4256SOL    HW243263   4.477   5.578   1.903
 4257SOL     OW43264   2.191   0.923  11.030
 4257SOL    HW143265   2.237   0.909  10.947
 4257SOL    HW243266   2.199   0.840  11.076
 4258SOL     OW43267   2.273   2.797  11.014
 4258SOL    HW143268   2.306   2.848  10.941
 4258SOL    HW243269   2.199   2.748  10.978
 4259SOL     OW43270   4.032   4.633  10.939
 4259SOL    HW143271   4.117   4.633  10.895
 4259SOL    HW243272   3.990   4.552  10.909
 4260SOL     OW43273   4.858   3.625  10.963
 4260SOL    HW143274   4.775   3.588  10.991
 4260SOL    HW243275   4.874   3.586  10.877
 4261SOL     OW43276   4.798   5.456  10.941
 4261SOL    HW143277   4.858   5.382  10.949
 4261SOL    HW243278   4.842   5.517  10.881
 4262SOL     OW43279   2.360   3.771   1.898
 4262SOL    HW143280   2.341   3.786   1.991
 4262SOL    HW243281   2.396   3.854   1.868
 4263SOL     OW43282   2.432   5.670   1.944
 4263SOL    HW143283   2.424   5.677   2.039
 4263SOL    HW243284   2.392   5.751   1.911
 4264SOL     OW43285   4.348   3.767   1.915
 4264SOL    HW143286   4.263   3.767   1.958
 4264SOL    HW243287   4.334   3.812   1.832
 4265SOL     OW43288   4.320   5.650   1.899
 4265SOL    HW143289   4.269   5.645   1.980
 4265SOL    HW243290   4.295   5.734   1.860
 4266SOL     OW43291   0.395   2.298   1.915
 4266SOL    HW143292   0.458   2.257   1.856
 4266SOL    HW243293   0.411   2.256   2.000
 4267SOL     OW43294   2.144   0.451   1.885
 4267SOL    HW143295   2.121   0.399   1.808
 4267SOL    HW243296   2.173   0.386   1.949
 4268SOL     OW43297   1.718   3.771   1.864
 4268SOL    HW143298   1.771   3.830   1.811
 4268SOL    HW243299   1.727   3.805   1.954
 4269SOL     OW43300   3.701   0.029   1.958
 4269SOL    HW143301   3.713   0.025   1.863
 4269SOL    HW243302   3.633   0.095   1.971
 4270SOL     OW43303   0.244   1.435   1.929
 4270SOL    HW143304   0.258   1.519   1.973
 4270SOL    HW243305   0.212   1.377   1.998
 4271SOL     OW43306   2.098   3.318   1.920
 4271SOL    HW143307   2.076   3.405   1.954
 4271SOL    HW243308   2.066   3.257   1.986
 4272SOL     OW43309   1.423   4.840   1.931
 4272SOL    HW143310   1.507   4.831   1.886
 4272SOL    HW243311   1.368   4.888   1.870
 4273SOL     OW43312   3.260   4.828   1.938
 4273SOL    HW143313   3.344   4.829   1.893
 4273SOL    HW243314   3.198   4.863   1.875
 4274SOL     OW43315   1.801   4.980  10.938
 4274SOL    HW143316   1.727   5.020  10.893
 4274SOL    HW243317   1.828   4.908  10.882
 4275SOL     OW43318   5.609   1.224  10.963
 4275SOL    HW143319   5.551   1.293  10.930
 4275SOL    HW243320   5.620   1.165  10.888
 4276SOL     OW43321   0.902   4.100  10.913
 4276SOL    HW143322   0.959   4.142  10.849
 4276SOL    HW243323   0.855   4.033  10.864
 4277SOL     OW43324   4.684   2.193  10.936
 4277SOL    HW143325   4.754   2.257  10.926
 4277SOL    HW243326   4.665   2.163  10.847
 4278SOL     OW43327   5.259   2.888  10.903
 4278SOL    HW143328   5.171   2.853  10.919
 4278SOL    HW243329   5.292   2.912  10.990
 4279SOL     OW43330   0.105   4.403   1.948
 4279SOL    HW143331   0.068   4.327   1.994
 4279SOL    HW243332   0.117   4.468   2.017
 4280SOL     OW43333   1.969   0.672   1.932
 4280SOL    HW143334   2.021   0.592   1.937
 4280SOL    HW243335   1.964   0.703   2.023
 4281SOL     OW43336   1.993   2.483   1.982
 4281SOL    HW143337   1.922   2.419   1.979
 4281SOL    HW243338   1.990   2.517   2.071
 4282SOL     OW43339   1.948   6.277   1.947
 4282SOL    HW143340   1.953   6.181   1.950
 4282SOL    HW243341   1.987   6.306   2.029
 4283SOL     OW43342   3.871   6.268   1.945
 4283SOL    HW143343   3.846   6.202   2.009
 4283SOL    HW243344   3.818   6.345   1.969
 4284SOL     OW43345   5.297   5.338   1.943
 4284SOL    HW143346   5.316   5.346   1.850
 4284SOL    HW243347   5.362   5.277   1.977
 4285SOL     OW43348   0.466   1.309  10.936
 4285SOL    HW143349   0.372   1.325  10.924
 4285SOL    HW243350   0.499   1.293  10.847
 4286SOL     OW43351   0.497   5.021  10.878
 4286SOL    HW143352   0.419   5.038  10.931
 4286SOL    HW243353   0.515   5.105  10.835
 4287SOL     OW43354   4.199   1.389  10.846
 4287SOL    HW143355   4.143   1.359  10.916
 4287SOL    HW243356   4.194   1.321  10.779
 4288SOL     OW43357   3.166   1.898  10.918
 4288SOL    HW143358   3.215   1.846  10.854
 4288SOL    HW243359   3.080   1.911  10.879
 4289SOL     OW43360   5.092   3.762  10.920
 4289SOL    HW143361   5.095   3.755  10.824
 4289SOL    HW243362   5.008   3.722  10.944
 4290SOL     OW43363   4.994   1.797   1.989
 4290SOL    HW143364   5.043   1.850   1.927
 4290SOL    HW243365   4.939   1.860   2.037
 4291SOL     OW43366   4.962   5.597   1.954
 4291SOL    HW143367   5.044   5.548   1.956
 4291SOL    HW243368   4.940   5.611   2.046
 4292SOL     OW43369   4.330   1.626  10.856
 4292SOL    HW143370   4.409   1.613  10.804
 4292SOL    HW243371   4.284   1.541  10.851
 4293SOL     OW43372   4.424   5.280  10.856
 4293SOL    HW143373   4.424   5.323  10.771
 4293SOL    HW243374   4.333   5.252  10.869
 4294SOL     OW43375   6.311   1.670  10.820
 4294SOL    HW143376   6.242   1.652  10.756
 4294SOL    HW243377   6.273   1.645  10.904
 4295SOL     OW43378   6.271   5.380  10.854
 4295SOL    HW143379   6.229   5.424  10.780
 4295SOL    HW243380   6.198   5.349  10.908
 4296SOL     OW43381   1.779   0.992   2.011
 4296SOL    HW143382   1.840   0.923   2.037
 4296SOL    HW243383   1.766   0.979   1.917
 4297SOL     OW43384   1.678   4.628   2.001
 4297SOL    HW143385   1.769   4.632   2.032
 4297SOL    HW243386   1.672   4.698   1.936
 4298SOL     OW43387   3.555   4.625   1.991
 4298SOL    HW143388   3.643   4.643   2.024
 4298SOL    HW243389   3.535   4.701   1.935
 4299SOL     OW43390   5.411   0.907   2.044
 4299SOL    HW143391   5.475   0.857   1.993
 4299SOL    HW243392   5.382   0.977   1.985
 4300SOL     OW43393   0.065   0.016  10.806
 4300SOL    HW143394   0.069   0.111  10.806
 4300SOL    HW243395   0.069   6.441  10.899
 4301SOL     OW43396   1.563   0.215  10.882
 4301SOL    HW143397   1.467   0.210  10.885
 4301SOL    HW243398   1.585   0.276  10.952
 4302SOL     OW43399   1.546   5.876  10.813
 4302SOL    HW143400   1.499   5.794  10.830
 4302SOL    HW243401   1.575   5.906  10.899
 4303SOL     OW43402   3.402   2.026  10.874
 4303SOL    HW143403   3.309   2.010  10.895
 4303SOL    HW243404   3.408   2.120  10.861
 4304SOL     OW43405   2.464   4.850  10.847
 4304SOL    HW143406   2.421   4.874  10.765
 4304SOL    HW243407   2.509   4.768  10.827
 4305SOL     OW43408   1.179   1.248  10.808
 4305SOL    HW143409   1.087   1.236  10.828
 4305SOL    HW243410   1.223   1.249  10.893
 4306SOL     OW43411   6.408   3.449  10.882
 4306SOL    HW143412   6.366   3.376  10.835
 4306SOL    HW243413   6.338   3.514  10.891
 4307SOL     OW43414   0.635   1.989  10.894
 4307SOL    HW143415   0.727   1.986  10.868
 4307SOL    HW243416   0.589   2.027  10.819
 4308SOL     OW43417   0.092   5.268  10.889
 4308SOL    HW143418   0.015   5.237  10.842
 4308SOL    HW243419   0.066   5.353  10.925
 4309SOL     OW43420   0.683   5.727  10.803
 4309SOL    HW143421   0.755   5.673  10.771
 4309SOL    HW243422   0.612   5.712  10.740
 4310SOL     OW43423   1.799   3.447  10.820
 4310SOL    HW143424   1.869   3.382  10.831
 4310SOL    HW243425   1.826   3.520  10.875
 4311SOL     OW43426   1.851   5.256  10.861
 4311SOL    HW143427   1.860   5.168  10.899
 4311SOL    HW243428   1.882   5.315  10.930
 4312SOL     OW43429   4.318   0.154  10.811
 4312SOL    HW143430   4.402   0.124  10.775
 4312SOL    HW243431   4.273   0.193  10.736
 4313SOL     OW43432   6.250   3.722  10.745
 4313SOL    HW143433   6.264   3.808  10.784
 4313SOL    HW243434   6.178   3.735  10.684
 4314SOL     OW43435   0.121   0.565  10.764
 4314SOL    HW143436   0.074   0.574  10.847
 4314SOL    HW243437   0.199   0.620  10.774
 4315SOL     OW43438   0.254   2.517  10.766
 4315SOL    HW143439   0.180   2.524  10.825
 4315SOL    HW243440   0.223   2.459  10.695
 4316SOL     OW43441   2.117   4.292  10.840
 4316SOL    HW143442   2.046   4.334  10.890
 4316SOL    HW243443   2.085   4.293  10.749
 4317SOL     OW43444   3.934   4.397  10.828
 4317SOL    HW143445   3.858   4.342  10.847
 4317SOL    HW243446   3.972   4.358  10.749
 4318SOL     OW43447   5.768   2.504  10.745
 4318SOL    HW143448   5.681   2.512  10.705
 4318SOL    HW243449   5.827   2.489  10.671
 4319SOL     OW43450   0.901   0.450   2.047
 4319SOL    HW143451   0.970   0.515   2.028
 4319SOL    HW243452   0.918   0.379   1.985
 4320SOL     OW43453   2.727   4.203   1.984
 4320SOL    HW143454   2.699   4.243   1.902
 4320SOL    HW243455   2.775   4.124   1.958
 4321SOL     OW43456   6.449   2.252   2.058
 4321SOL    HW143457   6.353   2.252   2.052
 4321SOL    HW243458   0.028   2.200   1.984
 4322SOL     OW43459   5.574   2.286   1.947
 4322SOL    HW143460   5.552   2.308   2.037
 4322SOL    HW243461   5.611   2.197   1.952
 4323SOL     OW43462   0.601   2.616   2.071
 4323SOL    HW143463   0.671   2.664   2.027
 4323SOL    HW243464   0.537   2.598   2.002
 4324SOL     OW43465   0.583   6.289   2.033
 4324SOL    HW143466   0.595   6.383   2.040
 4324SOL    HW243467   0.515   6.278   1.967
 4325SOL     OW43468   2.426   6.339   2.094
 4325SOL    HW143469   2.479   6.414   2.121
 4325SOL    HW243470   2.399   6.360   2.004
 4326SOL     OW43471   4.301   0.715   2.052
 4326SOL    HW143472   4.392   0.741   2.035
 4326SOL    HW243473   4.259   0.718   1.966
 4327SOL     OW43474   4.356   2.548   2.008
 4327SOL    HW143475   4.414   2.623   1.992
 4327SOL    HW243476   4.317   2.529   1.923
 4328SOL     OW43477   4.289   4.518   2.099
 4328SOL    HW143478   4.359   4.567   2.056
 4328SOL    HW243479   4.234   4.487   2.027
 4329SOL     OW43480   4.350   6.376   2.016
 4329SOL    HW143481   4.402   6.442   1.970
 4329SOL    HW243482   4.275   6.361   1.959
 4330SOL     OW43483   6.160   0.800   2.110
 4330SOL    HW143484   6.239   0.802   2.055
 4330SOL    HW243485   6.096   0.750   2.058
 4331SOL     OW43486   6.155   6.387   2.053
 4331SOL    HW143487   6.229   6.418   2.001
 4331SOL    HW243488   6.098   6.344   1.990
 4332SOL     OW43489   2.033   3.091   2.055
 4332SOL    HW143490   1.996   3.015   2.099
 4332SOL    HW243491   2.098   3.054   1.995
 4333SOL     OW43492   3.837   3.044   2.023
 4333SOL    HW143493   3.800   2.995   2.096
 4333SOL    HW243494   3.837   3.135   2.053
 4334SOL     OW43495   5.801   3.054   2.067
 4334SOL    HW143496   5.789   3.011   2.152
 4334SOL    HW243497   5.731   3.018   2.012
 4335SOL     OW43498   3.527   5.026   2.035
 4335SOL    HW143499   3.579   5.092   2.080
 4335SOL    HW243500   3.462   4.998   2.100
 4336SOL     OW43501   2.910   0.929  10.808
 4336SOL    HW143502   2.905   0.967  10.721
 4336SOL    HW243503   3.001   0.900  10.817
 4337SOL     OW43504   4.834   0.976  10.745
 4337SOL    HW143505   4.752   0.942  10.710
 4337SOL    HW243506   4.896   0.904  10.735
 4338SOL     OW43507   4.794   2.803  10.771
 4338SOL    HW143508   4.784   2.863  10.697
 4338SOL    HW243509   4.882   2.820  10.803
 4339SOL     OW43510   0.685   4.740   2.038
 4339SOL    HW143511   0.764   4.729   2.091
 4339SOL    HW243512   0.642   4.817   2.077
 4340SOL     OW43513   2.660   0.933   2.041
 4340SOL    HW143514   2.701   0.936   2.127
 4340SOL    HW243515   2.567   0.943   2.058
 4341SOL     OW43516   2.568   2.879   2.037
 4341SOL    HW143517   2.622   2.861   2.114
 4341SOL    HW243518   2.487   2.915   2.072
 4342SOL     OW43519   2.571   0.113   2.149
 4342SOL    HW143520   2.659   0.116   2.186
 4342SOL    HW243521   2.547   0.206   2.138
 4343SOL     OW43522   4.452   2.891   2.027
 4343SOL    HW143523   4.547   2.894   2.037
 4343SOL    HW243524   4.418   2.924   2.110
 4344SOL     OW43525   6.313   2.999   2.075
 4344SOL    HW143526   6.358   2.925   2.117
 4344SOL    HW243527   6.221   2.988   2.101
 4345SOL     OW43528   6.296   4.711   1.919
 4345SOL    HW143529   6.300   4.655   1.996
 4345SOL    HW243530   6.205   4.741   1.916
 4346SOL     OW43531   1.613   3.240  10.834
 4346SOL    HW143532   1.671   3.309  10.801
 4346SOL    HW243533   1.595   3.185  10.757
 4347SOL     OW43534   1.615   5.100  10.785
 4347SOL    HW143535   1.652   5.178  10.744
 4347SOL    HW243536   1.577   5.050  10.712
 4348SOL     OW43537   5.422   1.362  10.830
 4348SOL    HW143538   5.393   1.437  10.777
 4348SOL    HW243539   5.393   1.285  10.781
 4349SOL     OW43540   3.269   6.113  10.784
 4349SOL    HW143541   3.205   6.105  10.855
 4349SOL    HW243542   3.343   6.159  10.824
 4350SOL     OW43543   5.058   0.680  10.719
 4350SOL    HW143544   5.016   0.626  10.787
 4350SOL    HW243545   5.138   0.633  10.697
 4351SOL     OW43546   1.254   4.649   2.029
 4351SOL    HW143547   1.312   4.597   2.085
 4351SOL    HW243548   1.310   4.719   1.996
 4352SOL     OW43549   3.151   4.642   2.108
 4352SOL    HW143550   3.222   4.579   2.119
 4352SOL    HW243551   3.185   4.705   2.044
 4353SOL     OW43552   5.030   0.910   2.036
 4353SOL    HW143553   5.102   0.848   2.024
 4353SOL    HW243554   5.062   0.992   2.000
 4354SOL     OW43555   5.059   4.717   2.031
 4354SOL    HW143556   5.090   4.640   2.078
 4354SOL    HW243557   5.121   4.728   1.959
 4355SOL     OW43558   2.694   5.282   2.041
 4355SOL    HW143559   2.705   5.298   1.947
 4355SOL    HW243560   2.609   5.239   2.048
 4356SOL     OW43561   4.551   3.455   2.057
 4356SOL    HW143562   4.508   3.515   1.996
 4356SOL    HW243563   4.492   3.379   2.061
 4357SOL     OW43564   4.572   5.319   2.064
 4357SOL    HW143565   4.571   5.391   2.001
 4357SOL    HW243566   4.499   5.263   2.038
 4358SOL     OW43567   3.132   0.504   2.128
 4358SOL    HW143568   3.075   0.580   2.116
 4358SOL    HW243569   3.132   0.489   2.223
 4359SOL     OW43570   5.050   2.323   2.052
 4359SOL    HW143571   5.008   2.409   2.052
 4359SOL    HW243572   5.072   2.307   2.143
 4360SOL     OW43573   1.078   2.950   2.085
 4360SOL    HW143574   1.013   2.918   2.147
 4360SOL    HW243575   1.100   2.874   2.032
 4361SOL     OW43576   1.018   4.783   2.002
 4361SOL    HW143577   0.974   4.769   2.086
 4361SOL    HW243578   1.096   4.728   2.006
 4362SOL     OW43579   2.909   2.983   2.100
 4362SOL    HW143580   2.849   2.923   2.146
 4362SOL    HW243581   2.919   2.944   2.013
 4363SOL     OW43582   4.712   2.906   2.061
 4363SOL    HW143583   4.743   2.959   2.134
 4363SOL    HW243584   4.789   2.893   2.006
 4364SOL     OW43585   1.500   1.495   2.100
 4364SOL    HW143586   1.425   1.475   2.157
 4364SOL    HW243587   1.461   1.532   2.021
 4365SOL     OW43588   3.341   1.467   2.098
 4365SOL    HW143589   3.357   1.524   2.174
 4365SOL    HW243590   3.319   1.528   2.028
 4366SOL     OW43591   5.178   3.343   2.183
 4366SOL    HW143592   5.136   3.260   2.162
 4366SOL    HW243593   5.249   3.351   2.118
 4367SOL     OW43594   3.347   3.528  10.751
 4367SOL    HW143595   3.253   3.512  10.740
 4367SOL    HW243596   3.388   3.484  10.677
 4368SOL     OW43597   1.361   4.578  10.677
 4368SOL    HW143598   1.349   4.511  10.745
 4368SOL    HW243599   1.296   4.556  10.611
 4369SOL     OW43600   3.166   0.850  10.781
 4369SOL    HW143601   3.167   0.762  10.744
 4369SOL    HW243602   3.204   0.906  10.714
 4370SOL     OW43603   3.197   2.681  10.789
 4370SOL    HW143604   3.198   2.586  10.775
 4370SOL    HW243605   3.249   2.716  10.717
 4371SOL     OW43606   3.289   1.127  10.764
 4371SOL    HW143607   3.308   1.079  10.844
 4371SOL    HW243608   3.215   1.182  10.786
 4372SOL     OW43609   0.085   0.293  10.793
 4372SOL    HW143610   0.084   0.264  10.702
 4372SOL    HW243611   0.097   0.388  10.788
 4373SOL     OW43612   0.078   5.970  10.701
 4373SOL    HW143613   6.446   5.922  10.692
 4373SOL    HW243614   0.061   6.055  10.661
 4374SOL     OW43615   1.883   0.407  10.710
 4374SOL    HW143616   1.884   0.327  10.658
 4374SOL    HW243617   1.976   0.431  10.718
 4375SOL     OW43618   1.893   2.150  10.673
 4375SOL    HW143619   1.804   2.160  10.708
 4375SOL    HW243620   1.933   2.236  10.684
 4376SOL     OW43621   3.827   5.953  10.671
 4376SOL    HW143622   3.742   5.942  10.714
 4376SOL    HW243623   3.843   6.047  10.673
 4377SOL     OW43624   1.238   1.502  10.720
 4377SOL    HW143625   1.215   1.411  10.733
 4377SOL    HW243626   1.163   1.539  10.673
 4378SOL     OW43627   4.901   3.504  10.725
 4378SOL    HW143628   4.968   3.436  10.718
 4378SOL    HW243629   4.836   3.481  10.659
 4379SOL     OW43630   1.144   0.577   2.109
 4379SOL    HW143631   1.196   0.652   2.138
 4379SOL    HW243632   1.095   0.550   2.188
 4380SOL     OW43633   2.984   0.736   2.096
 4380SOL    HW143634   3.058   0.794   2.080
 4380SOL    HW243635   2.915   0.793   2.128
 4381SOL     OW43636   2.921   4.511   2.057
 4381SOL    HW143637   2.997   4.563   2.082
 4381SOL    HW243638   2.897   4.464   2.137
 4382SOL     OW43639   4.951   0.683   2.174
 4382SOL    HW143640   4.954   0.769   2.131
 4382SOL    HW243641   4.859   0.671   2.195
 4383SOL     OW43642   5.856   0.301   2.160
 4383SOL    HW143643   5.799   0.375   2.142
 4383SOL    HW243644   5.859   0.295   2.256
 4384SOL     OW43645   4.390   3.231   2.082
 4384SOL    HW143646   4.316   3.216   2.141
 4384SOL    HW243647   4.361   3.196   1.998
 4385SOL     OW43648   6.187   3.249   2.113
 4385SOL    HW143649   6.124   3.181   2.135
 4385SOL    HW243650   6.263   3.201   2.079
 4386SOL     OW43651   1.470   4.548   2.158
 4386SOL    HW143652   1.490   4.457   2.183
 4386SOL    HW243653   1.543   4.574   2.102
 4387SOL     OW43654   3.366   4.474   2.124
 4387SOL    HW143655   3.404   4.423   2.195
 4387SOL    HW243656   3.438   4.527   2.091
 4388SOL     OW43657   5.212   0.704   2.061
 4388SOL    HW143658   5.150   0.675   2.127
 4388SOL    HW243659   5.278   0.754   2.109
 4389SOL     OW43660   5.182   4.479   2.125
 4389SOL    HW143661   5.133   4.415   2.177
 4389SOL    HW243662   5.265   4.490   2.173
 4390SOL     OW43663   1.110   2.415  10.709
 4390SOL    HW143664   1.028   2.463  10.696
 4390SOL    HW243665   1.126   2.419  10.803
 4391SOL     OW43666   2.693   1.494  10.647
 4391SOL    HW143667   2.647   1.436  10.707
 4391SOL    HW243668   2.786   1.473  10.659
 4392SOL     OW43669   2.953   2.416  10.711
 4392SOL    HW143670   2.905   2.497  10.727
 4392SOL    HW243671   2.991   2.394  10.796
 4393SOL     OW43672   4.616   3.202  10.706
 4393SOL    HW143673   4.591   3.205  10.799
 4393SOL    HW243674   4.638   3.293  10.685
 4394SOL     OW43675   4.633   5.167  10.712
 4394SOL    HW143676   4.568   5.185  10.780
 4394SOL    HW243677   4.637   5.247  10.660
 4395SOL     OW43678   3.443   2.259   2.081
 4395SOL    HW143679   3.390   2.325   2.126
 4395SOL    HW243680   3.520   2.248   2.138
 4396SOL     OW43681   0.370   3.045   2.078
 4396SOL    HW143682   0.352   2.975   2.141
 4396SOL    HW243683   0.357   3.003   1.993
 4397SOL     OW43684   6.040   1.167   2.174
 4397SOL    HW143685   5.987   1.129   2.245
 4397SOL    HW243686   6.064   1.092   2.119
 4398SOL     OW43687   6.051   3.002   2.151
 4398SOL    HW143688   6.008   2.967   2.229
 4398SOL    HW243689   5.979   3.028   2.093
 4399SOL     OW43690   1.085   3.752   2.150
 4399SOL    HW143691   1.028   3.785   2.080
 4399SOL    HW243692   1.040   3.674   2.182
 4400SOL     OW43693   2.872   1.846   2.123
 4400SOL    HW143694   2.804   1.888   2.069
 4400SOL    HW243695   2.823   1.801   2.191
 4401SOL     OW43696   4.813   5.633   2.189
 4401SOL    HW143697   4.756   5.638   2.112
 4401SOL    HW243698   4.776   5.562   2.241
 4402SOL     OW43699   1.741   2.855  10.715
 4402SOL    HW143700   1.703   2.791  10.655
 4402SOL    HW243701   1.686   2.851  10.793
 4403SOL     OW43702   1.737   0.128  10.693
 4403SOL    HW143703   1.688   0.168  10.621
 4403SOL    HW243704   1.687   0.151  10.771
 4404SOL     OW43705   5.489   1.060  10.751
 4404SOL    HW143706   5.498   1.007  10.671
 4404SOL    HW243707   5.432   1.009  10.807
 4405SOL     OW43708   5.430   2.777  10.715
 4405SOL    HW143709   5.419   2.838  10.642
 4405SOL    HW243710   5.372   2.810  10.783
 4406SOL     OW43711   0.078   1.760  10.689
 4406SOL    HW143712   0.000   1.725  10.733
 4406SOL    HW243713   0.131   1.796  10.759
 4407SOL     OW43714   0.127   3.544  10.697
 4407SOL    HW143715   0.079   3.504  10.769
 4407SOL    HW243716   0.133   3.636  10.721
 4408SOL     OW43717   1.934   5.490  10.756
 4408SOL    HW143718   1.895   5.403  10.763
 4408SOL    HW243719   1.999   5.482  10.686
 4409SOL     OW43720   3.816   1.809  10.788
 4409SOL    HW143721   3.794   1.717  10.805
 4409SOL    HW243722   3.900   1.806  10.742
 4410SOL     OW43723   5.678   3.714  10.713
 4410SOL    HW143724   5.604   3.657  10.734
 4410SOL    HW243725   5.739   3.702  10.785
 4411SOL     OW43726   0.259   3.187  10.695
 4411SOL    HW143727   0.189   3.129  10.666
 4411SOL    HW243728   0.225   3.228  10.774
 4412SOL     OW43729   2.079   4.921  10.744
 4412SOL    HW143730   2.033   4.997  10.709
 4412SOL    HW243731   2.103   4.947  10.833
 4413SOL     OW43732   3.952   3.172  10.688
 4413SOL    HW143733   3.894   3.101  10.660
 4413SOL    HW243734   3.955   3.163  10.783
 4414SOL     OW43735   5.784   3.168  10.715
 4414SOL    HW143736   5.719   3.098  10.719
 4414SOL    HW243737   5.780   3.208  10.802
 4415SOL     OW43738   5.825   5.020  10.706
 4415SOL    HW143739   5.768   4.943  10.705
 4415SOL    HW243740   5.818   5.054  10.795
 4416SOL     OW43741   1.651   0.514  10.626
 4416SOL    HW143742   1.672   0.607  10.620
 4416SOL    HW243743   1.727   0.474  10.668
 4417SOL     OW43744   5.529   2.531  10.623
 4417SOL    HW143745   5.496   2.615  10.656
 4417SOL    HW243746   5.450   2.478  10.610
 4418SOL     OW43747   5.396   4.385  10.686
 4418SOL    HW143748   5.392   4.437  10.606
 4418SOL    HW243749   5.410   4.295  10.656
 4419SOL     OW43750   2.765   0.761  10.641
 4419SOL    HW143751   2.791   0.795  10.727
 4419SOL    HW243752   2.791   0.830  10.580
 4420SOL     OW43753   4.615   4.452  10.659
 4420SOL    HW143754   4.625   4.467  10.753
 4420SOL    HW243755   4.625   4.538  10.619
 4421SOL     OW43756   0.122   4.562   2.170
 4421SOL    HW143757   0.187   4.544   2.238
 4421SOL    HW243758   0.088   4.649   2.191
 4422SOL     OW43759   1.943   0.825   2.164
 4422SOL    HW143760   2.028   0.864   2.183
 4422SOL    HW243761   1.882   0.868   2.225
 4423SOL     OW43762   1.244   1.530   2.189
 4423SOL    HW143763   1.245   1.587   2.112
 4423SOL    HW243764   1.256   1.589   2.263
 4424SOL     OW43765   1.266   5.368   2.261
 4424SOL    HW143766   1.267   5.363   2.165
 4424SOL    HW243767   1.304   5.285   2.290
 4425SOL     OW43768   4.936   3.484   2.262
 4425SOL    HW143769   4.954   3.521   2.175
 4425SOL    HW243770   5.018   3.443   2.287
 4426SOL     OW43771   0.726   3.028  10.721
 4426SOL    HW143772   0.811   3.062  10.693
 4426SOL    HW243773   0.666   3.050  10.649
 4427SOL     OW43774   0.654   4.890  10.689
 4427SOL    HW143775   0.738   4.924  10.720
 4427SOL    HW243776   0.590   4.924  10.752
 4428SOL     OW43777   0.319   5.847  10.604
 4428SOL    HW143778   0.378   5.922  10.610
 4428SOL    HW243779   0.238   5.878  10.646
 4429SOL     OW43780   4.160   0.303  10.647
 4429SOL    HW143781   4.161   0.390  10.688
 4429SOL    HW243782   4.068   0.276  10.650
 4430SOL     OW43783   1.108   1.299   2.161
 4430SOL    HW143784   1.148   1.244   2.228
 4430SOL    HW243785   1.149   1.385   2.173
 4431SOL     OW43786   4.742   5.030   2.189
 4431SOL    HW143787   4.787   4.945   2.180
 4431SOL    HW243788   4.799   5.092   2.145
 4432SOL     OW43789   3.724   3.318   2.215
 4432SOL    HW143790   3.687   3.396   2.173
 4432SOL    HW243791   3.735   3.343   2.306
 4433SOL     OW43792   3.657   5.224   2.208
 4433SOL    HW143793   3.614   5.307   2.227
 4433SOL    HW243794   3.715   5.210   2.283
 4434SOL     OW43795   2.234   3.616   2.179
 4434SOL    HW143796   2.289   3.542   2.207
 4434SOL    HW243797   2.245   3.681   2.249
 4435SOL     OW43798   0.896   2.831   2.254
 4435SOL    HW143799   0.906   2.759   2.316
 4435SOL    HW243800   0.821   2.881   2.286
 4436SOL     OW43801   0.892   4.726   2.242
 4436SOL    HW143802   0.929   4.642   2.268
 4436SOL    HW243803   0.899   4.781   2.320
 4437SOL     OW43804   2.759   0.939   2.298
 4437SOL    HW143805   2.765   0.875   2.370
 4437SOL    HW243806   2.752   1.024   2.342
 4438SOL     OW43807   2.728   2.832   2.259
 4438SOL    HW143808   2.746   2.746   2.295
 4438SOL    HW243809   2.728   2.890   2.335
 4439SOL     OW43810   0.586   2.450   2.283
 4439SOL    HW143811   0.588   2.505   2.205
 4439SOL    HW243812   0.647   2.492   2.344
 4440SOL     OW43813   0.679   6.167   2.255
 4440SOL    HW143814   0.651   6.201   2.170
 4440SOL    HW243815   0.603   6.178   2.312
 4441SOL     OW43816   4.296   2.487   2.268
 4441SOL    HW143817   4.308   2.505   2.174
 4441SOL    HW243818   4.382   2.502   2.306
 4442SOL     OW43819   4.316   6.185   2.206
 4442SOL    HW143820   4.330   6.252   2.139
 4442SOL    HW243821   4.363   6.217   2.283
 4443SOL     OW43822   0.353   5.315  10.631
 4443SOL    HW143823   0.286   5.329  10.698
 4443SOL    HW243824   0.322   5.240  10.581
 4444SOL     OW43825   4.051   5.282  10.661
 4444SOL    HW143826   3.980   5.343  10.639
 4444SOL    HW243827   4.026   5.200  10.619
 4445SOL     OW43828   1.450   1.160   2.243
 4445SOL    HW143829   1.423   1.073   2.213
 4445SOL    HW243830   1.482   1.204   2.164
 4446SOL     OW43831   1.487   4.869   2.201
 4446SOL    HW143832   1.470   4.782   2.235
 4446SOL    HW243833   1.461   4.865   2.109
 4447SOL     OW43834   3.328   4.917   2.191
 4447SOL    HW143835   3.276   4.872   2.257
 4447SOL    HW243836   3.293   4.885   2.107
 4448SOL     OW43837   0.494   3.840  10.517
 4448SOL    HW143838   0.454   3.758  10.488
 4448SOL    HW243839   0.421   3.891  10.552
 4449SOL     OW43840   0.511   5.648  10.601
 4449SOL    HW143841   0.474   5.564  10.574
 4449SOL    HW243842   0.439   5.710  10.593
 4450SOL     OW43843   2.390   3.777  10.564
 4450SOL    HW143844   2.318   3.716  10.551
 4450SOL    HW243845   2.363   3.832  10.637
 4451SOL     OW43846   4.224   3.812  10.613
 4451SOL    HW143847   4.223   3.755  10.536
 4451SOL    HW243848   4.158   3.879  10.594
 4452SOL     OW43849   6.056   3.755  10.562
 4452SOL    HW143850   6.064   3.678  10.506
 4452SOL    HW243851   5.968   3.787  10.547
 4453SOL     OW43852   1.799   1.039   2.278
 4453SOL    HW143853   1.782   1.042   2.184
 4453SOL    HW243854   1.724   1.082   2.318
 4454SOL     OW43855   3.589   0.990   2.257
 4454SOL    HW143856   3.601   1.051   2.185
 4454SOL    HW243857   3.630   1.034   2.332
 4455SOL     OW43858   3.688   2.928   2.226
 4455SOL    HW143859   3.602   2.927   2.182
 4455SOL    HW243860   3.667   2.937   2.319
 4456SOL     OW43861   5.503   1.045   2.268
 4456SOL    HW143862   5.473   0.993   2.193
 4456SOL    HW243863   5.429   1.044   2.329
 4457SOL     OW43864   1.612   0.267  10.505
 4457SOL    HW143865   1.624   0.356  10.539
 4457SOL    HW243866   1.523   0.266  10.469
 4458SOL     OW43867   1.427   3.921  10.552
 4458SOL    HW143868   1.499   3.964  10.599
 4458SOL    HW243869   1.462   3.835  10.527
 4459SOL     OW43870   1.513   5.861   2.253
 4459SOL    HW143871   1.456   5.826   2.322
 4459SOL    HW243872   1.498   5.955   2.255
 4460SOL     OW43873   2.331   4.903  10.618
 4460SOL    HW143874   2.323   4.960  10.542
 4460SOL    HW243875   2.242   4.900  10.655
 4461SOL     OW43876   4.154   1.196  10.655
 4461SOL    HW143877   4.205   1.192  10.574
 4461SOL    HW243878   4.067   1.164  10.630
 4462SOL     OW43879   6.000   3.113  10.563
 4462SOL    HW143880   5.987   3.164  10.483
 4462SOL    HW243881   5.925   3.135  10.618
 4463SOL     OW43882   0.097   0.149  10.559
 4463SOL    HW143883   0.078   0.074  10.615
 4463SOL    HW243884   0.169   0.120  10.503
 4464SOL     OW43885   1.951   4.744  10.577
 4464SOL    HW143886   1.952   4.657  10.616
 4464SOL    HW243887   2.008   4.796  10.633
 4465SOL     OW43888   1.944   0.198  10.537
 4465SOL    HW143889   1.872   0.154  10.584
 4465SOL    HW243890   2.008   0.128  10.521
 4466SOL     OW43891   0.513   0.173   2.298
 4466SOL    HW143892   0.491   0.244   2.358
 4466SOL    HW243893   0.547   0.217   2.220
 4467SOL     OW43894   0.526   2.192   2.232
 4467SOL    HW143895   0.589   2.139   2.280
 4467SOL    HW243896   0.555   2.282   2.245
 4468SOL     OW43897   2.447   5.788   2.275
 4468SOL    HW143898   2.454   5.743   2.359
 4468SOL    HW243899   2.450   5.881   2.297
 4469SOL     OW43900   2.086   1.036   2.320
 4469SOL    HW143901   2.085   1.029   2.415
 4469SOL    HW243902   2.000   1.073   2.297
 4470SOL     OW43903   5.811   2.918   2.304
 4470SOL    HW143904   5.854   2.836   2.324
 4470SOL    HW243905   5.782   2.951   2.390
 4471SOL     OW43906   0.194   4.195  10.522
 4471SOL    HW143907   0.264   4.251  10.488
 4471SOL    HW243908   0.123   4.256  10.542
 4472SOL     OW43909   2.029   4.294  10.577
 4472SOL    HW143910   2.101   4.253  10.529
 4472SOL    HW243911   1.970   4.325  10.509
 4473SOL     OW43912   3.907   2.323  10.596
 4473SOL    HW143913   3.956   2.295  10.518
 4473SOL    HW243914   3.873   2.409  10.573
 4474SOL     OW43915   2.900   1.006  10.550
 4474SOL    HW143916   2.837   1.078  10.542
 4474SOL    HW243917   2.947   1.007  10.466
 4475SOL     OW43918   2.835   4.840  10.596
 4475SOL    HW143919   2.748   4.860  10.561
 4475SOL    HW243920   2.870   4.772  10.538
 4476SOL     OW43921   4.730   2.983  10.570
 4476SOL    HW143922   4.684   3.053  10.616
 4476SOL    HW243923   4.665   2.949  10.508
 4477SOL     OW43924   0.749   1.664  10.470
 4477SOL    HW143925   0.670   1.686  10.520
 4477SOL    HW243926   0.723   1.673  10.379
 4478SOL     OW43927   2.465   5.383  10.535
 4478SOL    HW143928   2.489   5.476  10.539
 4478SOL    HW243929   2.543   5.340  10.500
 4479SOL     OW43930   4.423   5.369  10.591
 4479SOL    HW143931   4.339   5.413  10.579
 4479SOL    HW243932   4.472   5.389  10.511
 4480SOL     OW43933   6.313   3.510  10.569
 4480SOL    HW143934   6.296   3.581  10.631
 4480SOL    HW243935   6.408   3.508  10.559
 4481SOL     OW43936   0.972   0.496   2.305
 4481SOL    HW143937   0.923   0.476   2.226
 4481SOL    HW243938   0.958   0.420   2.362
 4482SOL     OW43939   0.950   6.124   2.234
 4482SOL    HW143940   0.856   6.146   2.237
 4482SOL    HW243941   0.959   6.051   2.294
 4483SOL     OW43942   0.043   2.375   2.303
 4483SOL    HW143943   0.039   2.332   2.218
 4483SOL    HW243944   0.136   2.375   2.326
 4484SOL     OW43945   0.734   0.573  10.556
 4484SOL    HW143946   0.776   0.650  10.593
 4484SOL    HW243947   0.806   0.518  10.525
 4485SOL     OW43948   0.691   6.113  10.550
 4485SOL    HW143949   0.736   6.197  10.539
 4485SOL    HW243950   0.754   6.048  10.519
 4486SOL     OW43951   2.642   0.541  10.538
 4486SOL    HW143952   2.679   0.622  10.571
 4486SOL    HW243953   2.652   0.478  10.610
 4487SOL     OW43954   2.649   4.285  10.490
 4487SOL    HW143955   2.619   4.326  10.570
 4487SOL    HW243956   2.672   4.196  10.516
 4488SOL     OW43957   6.338   0.536  10.612
 4488SOL    HW143958   6.410   0.560  10.670
 4488SOL    HW243959   6.380   0.483  10.544
 4489SOL     OW43960   6.418   4.344  10.556
 4489SOL    HW143961   6.355   4.416  10.566
 4489SOL    HW243962   6.368   4.273  10.517
 4490SOL     OW43963   2.782   1.677   2.317
 4490SOL    HW143964   2.868   1.655   2.354
 4490SOL    HW243965   2.749   1.593   2.284
 4491SOL     OW43966   2.751   5.332   2.303
 4491SOL    HW143967   2.846   5.338   2.308
 4491SOL    HW243968   2.732   5.318   2.211
 4492SOL     OW43969   4.656   3.477   2.305
 4492SOL    HW143970   4.752   3.481   2.303
 4492SOL    HW243971   4.630   3.475   2.213
 4493SOL     OW43972   4.671   5.420   2.293
 4493SOL    HW143973   4.670   5.346   2.353
 4493SOL    HW243974   4.642   5.384   2.210
 4494SOL     OW43975   1.018   1.592  10.565
 4494SOL    HW143976   0.931   1.627  10.547
 4494SOL    HW243977   1.043   1.547  10.485
 4495SOL     OW43978   4.699   1.547  10.544
 4495SOL    HW143979   4.713   1.587  10.458
 4495SOL    HW243980   4.760   1.473  10.546
 4496SOL     OW43981   4.722   3.411  10.539
 4496SOL    HW143982   4.692   3.472  10.471
 4496SOL    HW243983   4.722   3.326  10.496
 4497SOL     OW43984   6.170   3.405   2.337
 4497SOL    HW143985   6.207   3.489   2.309
 4497SOL    HW243986   6.175   3.349   2.260
 4498SOL     OW43987   4.863   1.328  10.550
 4498SOL    HW143988   4.888   1.301  10.638
 4498SOL    HW243989   4.838   1.246  10.506
 4499SOL     OW43990   4.567   3.206   2.302
 4499SOL    HW143991   4.596   3.293   2.329
 4499SOL    HW243992   4.515   3.221   2.222
 4500SOL     OW43993   4.610   5.169   2.382
 4500SOL    HW143994   4.657   5.113   2.319
 4500SOL    HW243995   4.518   5.147   2.371
 4501SOL     OW43996   1.969   3.641   2.290
 4501SOL    HW143997   1.912   3.564   2.285
 4501SOL    HW243998   2.041   3.622   2.230
 4502SOL     OW43999   5.661   3.668   2.267
 4502SOL    HW144000   5.642   3.576   2.288
 4502SOL    HW244001   5.753   3.680   2.289
 4503SOL     OW44002   3.013   2.209  10.543
 4503SOL    HW144003   2.978   2.276  10.601
 4503SOL    HW244004   3.081   2.254  10.492
 4504SOL     OW44005   3.003   5.964  10.529
 4504SOL    HW144006   2.944   6.034  10.557
 4504SOL    HW244007   3.085   6.008  10.510
 4505SOL     OW44008   1.396   5.973  10.511
 4505SOL    HW144009   1.401   6.048  10.571
 4505SOL    HW244010   1.468   5.916  10.539
 4506SOL     OW44011   3.295   4.220  10.534
 4506SOL    HW144012   3.219   4.239  10.589
 4506SOL    HW244013   3.312   4.127  10.548
 4507SOL     OW44014   3.235   6.110  10.516
 4507SOL    HW144015   3.244   6.114  10.611
 4507SOL    HW244016   3.319   6.077  10.485
 4508SOL     OW44017   1.607   2.668  10.560
 4508SOL    HW144018   1.521   2.628  10.557
 4508SOL    HW244019   1.648   2.645  10.476
 4509SOL     OW44020   3.402   2.658  10.524
 4509SOL    HW144021   3.363   2.646  10.438
 4509SOL    HW244022   3.497   2.655  10.508
 4510SOL     OW44023   5.361   4.520  10.454
 4510SOL    HW144024   5.268   4.538  10.460
 4510SOL    HW244025   5.395   4.585  10.392
 4511SOL     OW44026   5.292   6.374  10.444
 4511SOL    HW144027   5.222   6.425  10.484
 4511SOL    HW244028   5.363   6.436  10.429
 4512SOL     OW44029   1.257   3.992   2.361
 4512SOL    HW144030   1.218   3.936   2.293
 4512SOL    HW244031   1.336   3.946   2.388
 4513SOL     OW44032   4.956   4.151   2.346
 4513SOL    HW144033   4.884   4.089   2.335
 4513SOL    HW244034   5.015   4.110   2.409
 4514SOL     OW44035   4.995   5.849   2.293
 4514SOL    HW144036   4.930   5.788   2.259
 4514SOL    HW244037   5.020   5.813   2.378
 4515SOL     OW44038   0.308   4.530   2.366
 4515SOL    HW144039   0.398   4.558   2.348
 4515SOL    HW244040   0.317   4.461   2.432
 4516SOL     OW44041   0.396   6.365   2.313
 4516SOL    HW144042   0.440   6.450   2.302
 4516SOL    HW244043   0.349   6.373   2.396
 4517SOL     OW44044   2.162   4.557   2.344
 4517SOL    HW144045   2.249   4.587   2.370
 4517SOL    HW244046   2.141   4.488   2.407
 4518SOL     OW44047   5.954   2.700   2.373
 4518SOL    HW144048   6.049   2.690   2.370
 4518SOL    HW244049   5.922   2.613   2.397
 4519SOL     OW44050   4.449   1.804   2.277
 4519SOL    HW144051   4.373   1.846   2.318
 4519SOL    HW244052   4.503   1.777   2.351
 4520SOL     OW44053   4.411   3.631   2.347
 4520SOL    HW144054   4.444   3.716   2.317
 4520SOL    HW244055   4.489   3.575   2.349
 4521SOL     OW44056   4.425   5.540   2.337
 4521SOL    HW144057   4.446   5.620   2.384
 4521SOL    HW244058   4.508   5.494   2.330
 4522SOL     OW44059   1.459   1.247  10.454
 4522SOL    HW144060   1.432   1.258  10.545
 4522SOL    HW244061   1.551   1.222  10.459
 4523SOL     OW44062   1.534   4.952  10.570
 4523SOL    HW144063   1.475   4.877  10.582
 4523SOL    HW244064   1.575   4.937  10.485
 4524SOL     OW44065   3.367   1.211  10.505
 4524SOL    HW144066   3.345   1.182  10.593
 4524SOL    HW244067   3.462   1.210  10.502
 4525SOL     OW44068   0.605   3.147  10.502
 4525SOL    HW144069   0.512   3.163  10.519
 4525SOL    HW244070   0.633   3.222  10.450
 4526SOL     OW44071   4.349   5.144  10.435
 4526SOL    HW144072   4.382   5.056  10.456
 4526SOL    HW244073   4.374   5.197  10.510
 4527SOL     OW44074   0.430   0.419   2.403
 4527SOL    HW144075   0.335   0.419   2.420
 4527SOL    HW244076   0.453   0.511   2.399
 4528SOL     OW44077   0.318   2.359   2.341
 4528SOL    HW144078   0.350   2.270   2.324
 4528SOL    HW244079   0.395   2.415   2.330
 4529SOL     OW44080   4.071   2.432   2.416
 4529SOL    HW144081   4.079   2.337   2.410
 4529SOL    HW244082   4.145   2.466   2.366
 4530NA      NA44083   4.208   0.472  12.698
 4531NA      NA44084   5.908   0.019  12.745
 4532NA      NA44085   1.273   5.514   0.158
 4533NA      NA44086   3.029   5.063  12.676
 4534NA      NA44087   4.374   3.843  12.658
 4535NA      NA44088   4.313   6.317   0.187
 4536NA      NA44089   1.118   1.011  12.675
 4537NA      NA44090   1.461   3.084  12.612
 4538NA      NA44091   1.460   4.946  12.610
 4539NA      NA44092   1.951   0.829   0.299
 4540NA      NA44093   2.954   1.353   0.394
 4541NA      NA44094   4.815   3.214   0.393
 4542NA      NA44095   5.949   1.818   0.397
 4543NA      NA44096   3.385   5.813  12.426
 4544NA      NA44097   0.490   3.136  12.459
 4545NA      NA44098   0.113   4.248   0.372
 4546NA      NA44099   5.903   0.818   0.471
 4547NA      NA44100   1.498   1.796   0.528
 4548NA      NA44101   1.045   0.758   0.492
 4549NA      NA44102   1.341   2.706   0.558
 4550NA      NA44103   4.094   5.464  12.261
 4551NA      NA44104   2.213   5.126   0.595
 4552NA      NA44105   4.074   5.129   0.599
 4553NA      NA44106   6.284   2.507   0.580
 4554NA      NA44107   0.485   4.098  12.160
 4555NA      NA44108   2.335   5.950  12.158
 4556NA      NA44109   5.165   3.954   0.652
 4557NA      NA44110   1.912   6.140   0.644
 4558NA      NA44111   2.554   2.054  12.202
 4559NA      NA44112   5.327   1.992  12.163
 4560NA      NA44113   3.048   0.202  12.179
 4561NA      NA44114   5.033   1.464   0.686
 4562NA      NA44115   1.070   6.302  12.210
 4563NA      NA44116   3.210   2.432  12.143
 4564NA      NA44117   5.393   4.594   0.791
 4565NA      NA44118   5.345   6.431   0.752
 4566NA      NA44119   6.207   6.070   0.784
 4567NA      NA44120   1.061   3.217  12.044
 4568NA      NA44121   3.815   1.570  12.064
 4569NA      NA44122   5.933   4.284   0.816
 4570NA      NA44123   1.621   5.012   0.819
 4571NA      NA44124   4.083   1.524   0.834
 4572NA      NA44125   0.369   0.570  11.997
 4573NA      NA44126   4.742   0.416  11.924
 4574NA      NA44127   0.837   4.733   0.913
 4575NA      NA44128   1.433   6.396   0.950
 4576NA      NA44129   1.766   0.927   1.042
 4577NA      NA44130   0.332   4.530  11.662
 4578CL      CL44131   2.195   1.929   0.134
 4579CL      CL44132   5.281   0.223  12.691
 4580CL      CL44133   0.650   1.989  12.655
 4581CL      CL44134   0.590   6.322   0.197
 4582CL      CL44135   2.453   6.316   0.188
 4583CL      CL44136   4.336   4.429   0.174
 4584CL      CL44137   4.410   0.960   0.201
 4585CL      CL44138   3.280   0.586  12.644
 4586CL      CL44139   1.333   4.198   0.216
 4587CL      CL44140   5.061   4.571  12.619
 4588CL      CL44141   6.198   3.271   0.235
 4589CL      CL44142   0.482   3.016   0.262
 4590CL      CL44143   1.938   4.553   0.290
 4591CL      CL44144   0.744   4.890  12.536
 4592CL      CL44145   0.506   5.616  12.452
 4593CL      CL44146   6.104   1.897  12.446
 4594CL      CL44147   3.453   2.043   0.419
 4595CL      CL44148   5.316   2.045   0.421
 4596CL      CL44149   4.289   3.881   0.436
 4597CL      CL44150   4.469   6.116  12.397
 4598CL      CL44151   6.286   0.526  12.470
 4599CL      CL44152   4.715   5.281  12.415
 4600CL      CL44153   1.403   2.339  12.379
 4601CL      CL44154   5.212   3.050  12.332
 4602CL      CL44155   3.350   0.610   0.482
 4603CL      CL44156   0.140   6.341  12.274
 4604CL      CL44157   2.451   2.726   0.555
 4605CL      CL44158   2.213   1.403   0.597
 4606CL      CL44159   3.305   5.813   0.650
 4607CL      CL44160   5.964   1.314  12.209
 4608CL      CL44161   5.965   3.176  12.207
 4609CL      CL44162   1.615   3.849  12.176
 4610CL      CL44163   2.011   4.876  12.183
 4611CL      CL44164   1.014   3.742   0.664
 4612CL      CL44165   4.313   3.165   0.728
 4613CL      CL44166   3.831   2.413  12.092
 4614CL      CL44167   4.691   4.505   0.759
 4615CL      CL44168   2.602   0.438   0.774
 4616CL      CL44169   0.033   3.149   0.832
 4617CL      CL44170   5.934   2.420  11.996
 4618CL      CL44171   5.683   5.292   0.890
 4619CL      CL44172   4.112   6.397  11.995
 4620CL      CL44173   4.735   2.258  11.936
 4621CL      CL44174   5.376   0.594  11.884
 4622CL      CL44175   0.883   5.247  11.901
 4623CL      CL44176   2.749   1.525  11.902
 4624CL      CL44177   0.589   1.304  11.911
 4625CL      CL44178   4.747   5.597  11.836
 4626CL      CL44179   0.485   2.236   0.989
 4627CL      CL44180   0.484   4.096   0.987
 4628CL      CL44181   1.624   2.951  11.784
 4629CL      CL44182   3.067   1.813   1.156
   6.44980   6.44980  12.86200
