System: peptide + 128 MYC + 4480 SOL
44382
    1LEU      N    1   2.124   3.615   1.432
    1LEU     H1    2   2.135   3.515   1.431
    1LEU     H2    3   2.203   3.656   1.477
    1LEU     H3    4   2.041   3.638   1.483
    1LEU     CA    5   2.113   3.665   1.295
    1LEU     HA    6   2.031   3.619   1.260
    1LEU     CB    7   2.096   3.818   1.294
    1LEU    HB1    8   2.093   3.847   1.198
    1LEU    HB2    9   2.177   3.857   1.337
    1LEU     CG   10   1.972   3.877   1.364
    1LEU     HG   11   1.971   3.840   1.457
    1LEU    CD1   12   1.840   3.834   1.299
    1LEU   HD11   13   1.763   3.875   1.348
    1LEU   HD12   14   1.838   3.865   1.204
    1LEU   HD13   15   1.832   3.735   1.302
    1LEU    CD2   16   1.981   4.030   1.370
    1LEU   HD21   17   1.899   4.067   1.416
    1LEU   HD22   18   2.062   4.057   1.420
    1LEU   HD23   19   1.985   4.067   1.277
    1LEU      C   20   2.229   3.623   1.206
    1LEU      O   21   2.338   3.600   1.256
    2ILE      N   22   2.212   3.619   1.070
    2ILE      H   23   2.119   3.633   1.036
    2ILE     CA   24   2.317   3.597   0.969
    2ILE     HA   25   2.372   3.524   1.010
    2ILE     CB   26   2.263   3.545   0.833
    2ILE     HB   27   2.342   3.536   0.773
    2ILE    CG2   28   2.199   3.406   0.849
    2ILE   HG21   29   2.165   3.374   0.761
    2ILE   HG22   30   2.268   3.342   0.883
    2ILE   HG23   31   2.123   3.412   0.914
    2ILE    CG1   32   2.170   3.644   0.758
    2ILE   HG11   33   2.213   3.735   0.760
    2ILE   HG12   34   2.083   3.648   0.807
    2ILE     CD   35   2.141   3.611   0.612
    2ILE    HD1   36   2.080   3.681   0.574
    2ILE    HD2   37   2.226   3.609   0.560
    2ILE    HD3   38   2.096   3.522   0.606
    2ILE      C   39   2.404   3.719   0.953
    2ILE      O   40   2.520   3.703   0.916
    3SER      N   41   2.357   3.846   0.973
    3SER      H   42   2.260   3.856   0.996
    3SER     CA   43   2.435   3.970   0.964
    3SER     HA   44   2.494   3.959   0.883
    3SER     CB   45   2.346   4.094   0.944
    3SER    HB1   46   2.402   4.175   0.929
    3SER    HB2   47   2.287   4.108   1.023
    3SER     OG   48   2.263   4.080   0.832
    3SER     HG   49   2.207   4.162   0.822
    3SER      C   50   2.522   3.986   1.086
    3SER      O   51   2.639   4.015   1.070
    4GLY      N   52   2.474   3.962   1.212
    4GLY      H   53   2.376   3.943   1.220
    4GLY     CA   54   2.552   3.961   1.336
    4GLY    HA1   55   2.489   3.945   1.412
    4GLY    HA2   56   2.594   4.052   1.346
    4GLY      C   57   2.660   3.856   1.337
    4GLY      O   58   2.764   3.882   1.396
    5LEU      N   59   2.646   3.737   1.271
    5LEU      H   60   2.557   3.719   1.230
    5LEU     CA   61   2.748   3.633   1.256
    5LEU     HA   62   2.782   3.613   1.348
    5LEU     CB   63   2.689   3.504   1.194
    5LEU    HB1   64   2.646   3.531   1.108
    5LEU    HB2   65   2.620   3.470   1.257
    5LEU     CG   66   2.784   3.386   1.162
    5LEU     HG   67   2.855   3.423   1.102
    5LEU    CD1   68   2.710   3.275   1.087
    5LEU   HD11   69   2.773   3.200   1.068
    5LEU   HD12   70   2.635   3.241   1.144
    5LEU   HD13   71   2.673   3.310   1.001
    5LEU    CD2   72   2.856   3.331   1.285
    5LEU   HD21   73   2.916   3.256   1.258
    5LEU   HD22   74   2.912   3.404   1.326
    5LEU   HD23   75   2.789   3.299   1.351
    5LEU      C   76   2.862   3.686   1.172
    5LEU      O   77   2.976   3.670   1.211
    6ALA      N   78   2.836   3.739   1.049
    6ALA      H   79   2.740   3.756   1.025
    6ALA     CA   80   2.936   3.775   0.948
    6ALA     HA   81   3.020   3.807   0.991
    6ALA     CB   82   2.967   3.649   0.868
    6ALA    HB1   83   3.035   3.671   0.798
    6ALA    HB2   84   3.003   3.579   0.929
    6ALA    HB3   85   2.884   3.616   0.824
    6ALA      C   86   2.886   3.893   0.868
    6ALA      O   87   2.828   3.874   0.763
    7ALA      N   88   2.896   4.020   0.919
    7ALA      H   89   2.942   4.031   1.007
    7ALA     CA   90   2.845   4.141   0.853
    7ALA     HA   91   2.752   4.117   0.825
    7ALA     CB   92   2.841   4.260   0.949
    7ALA    HB1   93   2.805   4.341   0.901
    7ALA    HB2   94   2.782   4.239   1.027
    7ALA    HB3   95   2.933   4.279   0.982
    7ALA      C   96   2.925   4.177   0.731
    7ALA      O   97   2.866   4.222   0.634
    8ASN      N   98   3.061   4.162   0.728
    8ASN      H   99   3.104   4.125   0.811
    8ASN     CA  100   3.149   4.194   0.616
    8ASN     HA  101   3.103   4.267   0.567
    8ASN     CB  102   3.288   4.241   0.666
    8ASN    HB1  103   3.344   4.265   0.587
    8ASN    HB2  104   3.331   4.166   0.716
    8ASN     CG  105   3.281   4.361   0.756
    8ASN    OD1  106   3.233   4.465   0.715
    8ASN    ND2  107   3.327   4.355   0.885
    8ASN   HD21  108   3.366   4.270   0.920
    8ASN   HD22  109   3.321   4.436   0.943
    8ASN      C  110   3.163   4.078   0.519
    8ASN      O  111   3.218   4.103   0.413
    9PHE      N  112   3.113   3.952   0.542
    9PHE      H  113   3.068   3.937   0.629
    9PHE     CA  114   3.121   3.838   0.449
    9PHE     HA  115   3.196   3.862   0.388
    9PHE     CB  116   3.153   3.706   0.520
    9PHE    HB1  117   3.157   3.633   0.451
    9PHE    HB2  118   3.079   3.686   0.584
    9PHE     CG  119   3.283   3.705   0.597
    9PHE    CD1  120   3.393   3.631   0.549
    9PHE    HD1  121   3.386   3.583   0.462
    9PHE    CE1  122   3.512   3.623   0.624
    9PHE    HE1  123   3.588   3.568   0.589
    9PHE     CZ  124   3.524   3.691   0.745
    9PHE     HZ  125   3.609   3.684   0.798
    9PHE    CE2  126   3.417   3.767   0.793
    9PHE    HE2  127   3.425   3.817   0.879
    9PHE    CD2  128   3.297   3.774   0.720
    9PHE    HD2  129   3.221   3.828   0.755
    9PHE      C  130   2.993   3.824   0.370
    9PHE      O  131   3.003   3.769   0.262
   10LEU      N  132   2.870   3.868   0.412
   10LEU      H  133   2.863   3.903   0.505
   10LEU     CA  134   2.749   3.868   0.329
   10LEU     HA  135   2.744   3.773   0.299
   10LEU     CB  136   2.620   3.902   0.407
   10LEU    HB1  137   2.545   3.904   0.340
   10LEU    HB2  138   2.632   3.993   0.446
   10LEU     CG  139   2.578   3.807   0.521
   10LEU     HG  140   2.656   3.799   0.582
   10LEU    CD1  141   2.547   3.664   0.476
   10LEU   HD11  142   2.520   3.609   0.555
   10LEU   HD12  143   2.472   3.665   0.409
   10LEU   HD13  144   2.628   3.624   0.433
   10LEU    CD2  145   2.458   3.866   0.596
   10LEU   HD21  146   2.431   3.804   0.669
   10LEU   HD22  147   2.483   3.954   0.634
   10LEU   HD23  148   2.381   3.877   0.532
   10LEU      C  149   2.762   3.958   0.207
   10LEU      O  150   2.714   3.912   0.105
   11PRO      N  151   2.821   4.082   0.203
   11PRO     CD  152   2.868   4.162   0.317
   11PRO    HD1  153   2.921   4.104   0.379
   11PRO    HD2  154   2.789   4.200   0.366
   11PRO     CG  155   2.953   4.272   0.257
   11PRO    HG1  156   3.047   4.241   0.240
   11PRO    HG2  157   2.956   4.353   0.316
   11PRO     CB  158   2.879   4.300   0.128
   11PRO    HB1  159   2.937   4.348   0.063
   11PRO    HB2  160   2.796   4.354   0.145
   11PRO     CA  161   2.845   4.159   0.080
   11PRO     HA  162   2.763   4.155   0.023
   11PRO      C  163   2.954   4.101  -0.009
   11PRO      O  164   2.954   4.134  -0.126
   12GLN      N  165   3.050   4.015   0.037
   12GLN      H  166   3.050   3.996   0.136
   12GLN     CA  167   3.155   3.947  -0.041
   12GLN     HA  168   3.183   4.016  -0.108
   12GLN     CB  169   3.274   3.904   0.048
   12GLN    HB1  170   3.339   3.854  -0.009
   12GLN    HB2  171   3.239   3.844   0.120
   12GLN     CG  172   3.349   4.020   0.115
   12GLN    HG1  173   3.283   4.076   0.164
   12GLN    HG2  174   3.393   4.074   0.044
   12GLN     CD  175   3.456   3.979   0.214
   12GLN    OE1  176   3.501   3.866   0.214
   12GLN    NE2  177   3.504   4.069   0.304
   12GLN   HE21  178   3.468   4.163   0.305
   12GLN   HE22  179   3.574   4.042   0.370
   12GLN      C  180   3.102   3.824  -0.113
   12GLN      O  181   3.154   3.792  -0.218
   13ILE      N  182   3.003   3.747  -0.059
   13ILE      H  183   2.969   3.776   0.030
   13ILE     CA  184   2.939   3.627  -0.115
   13ILE     HA  185   3.009   3.573  -0.162
   13ILE     CB  186   2.877   3.538  -0.002
   13ILE     HB  187   2.812   3.597   0.046
   13ILE    CG2  188   2.796   3.418  -0.057
   13ILE   HG21  189   2.759   3.366   0.020
   13ILE   HG22  190   2.721   3.452  -0.113
   13ILE   HG23  191   2.856   3.360  -0.111
   13ILE    CG1  192   2.984   3.489   0.098
   13ILE   HG11  193   3.047   3.565   0.116
   13ILE   HG12  194   3.034   3.414   0.056
   13ILE     CD  195   2.930   3.440   0.233
   13ILE    HD1  196   3.007   3.411   0.291
   13ILE    HD2  197   2.881   3.514   0.278
   13ILE    HD3  198   2.869   3.363   0.218
   13ILE      C  199   2.836   3.671  -0.216
   13ILE      O  200   2.823   3.605  -0.318
   14LEU      N  201   2.758   3.782  -0.196
   14LEU      H  202   2.769   3.827  -0.107
   14LEU     CA  203   2.661   3.843  -0.288
   14LEU     HA  204   2.604   3.767  -0.320
   14LEU     CB  205   2.573   3.946  -0.217
   14LEU    HB1  206   2.633   4.018  -0.182
   14LEU    HB2  207   2.528   3.900  -0.140
   14LEU     CG  208   2.462   4.015  -0.299
   14LEU     HG  209   2.507   4.059  -0.377
   14LEU    CD1  210   2.360   3.917  -0.359
   14LEU   HD11  211   2.292   3.968  -0.411
   14LEU   HD12  212   2.407   3.853  -0.420
   14LEU   HD13  213   2.316   3.867  -0.285
   14LEU    CD2  214   2.391   4.122  -0.216
   14LEU   HD21  215   2.320   4.166  -0.271
   14LEU   HD22  216   2.349   4.080  -0.135
   14LEU   HD23  217   2.457   4.191  -0.187
   14LEU      C  218   2.733   3.904  -0.406
   14LEU      O  219   2.677   3.901  -0.514
   15LYS      N  220   2.856   3.963  -0.394
   15LYS      H  221   2.894   3.967  -0.301
   15LYS     CA  222   2.939   4.019  -0.502
   15LYS     HA  223   2.878   4.073  -0.560
   15LYS     CB  224   3.047   4.111  -0.442
   15LYS    HB1  225   3.106   4.056  -0.383
   15LYS    HB2  226   3.001   4.181  -0.387
   15LYS     CG  227   3.138   4.183  -0.542
   15LYS    HG1  228   3.081   4.238  -0.604
   15LYS    HG2  229   3.189   4.115  -0.594
   15LYS     CD  230   3.238   4.277  -0.473
   15LYS    HD1  231   3.293   4.223  -0.409
   15LYS    HD2  232   3.187   4.347  -0.423
   15LYS     CE  233   3.333   4.345  -0.572
   15LYS    HE1  234   3.280   4.399  -0.637
   15LYS    HE2  235   3.385   4.276  -0.621
   15LYS     NZ  236   3.428   4.435  -0.507
   15LYS    HZ1  237   3.487   4.476  -0.577
   15LYS    HZ2  238   3.379   4.506  -0.458
   15LYS    HZ3  239   3.484   4.383  -0.443
   15LYS      C  240   2.998   3.910  -0.588
   15LYS      O  241   3.018   3.935  -0.706
   16LYS      N  242   3.033   3.788  -0.537
   16LYS      H  243   3.018   3.774  -0.439
   16LYS     CA  244   3.091   3.675  -0.611
   16LYS     HA  245   3.164   3.712  -0.668
   16LYS     CB  246   3.146   3.571  -0.511
   16LYS    HB1  247   3.069   3.534  -0.459
   16LYS    HB2  248   3.209   3.618  -0.449
   16LYS     CG  249   3.222   3.452  -0.572
   16LYS    HG1  250   3.299   3.487  -0.625
   16LYS    HG2  251   3.160   3.403  -0.633
   16LYS     CD  252   3.274   3.355  -0.466
   16LYS    HD1  253   3.196   3.322  -0.412
   16LYS    HD2  254   3.337   3.405  -0.406
   16LYS     CE  255   3.348   3.232  -0.521
   16LYS    HE1  256   3.289   3.185  -0.586
   16LYS    HE2  257   3.371   3.171  -0.445
   16LYS     NZ  258   3.473   3.263  -0.590
   16LYS    HZ1  259   3.514   3.177  -0.622
   16LYS    HZ2  260   3.454   3.322  -0.668
   16LYS    HZ3  261   3.536   3.309  -0.527
   16LYS      C  262   2.988   3.613  -0.704
   16LYS      O  263   3.023   3.583  -0.817
   17ILE      N  264   2.861   3.590  -0.662
   17ILE      H  265   2.840   3.616  -0.568
   17ILE     CA  266   2.749   3.530  -0.738
   17ILE     HA  267   2.793   3.462  -0.795
   17ILE     CB  268   2.646   3.459  -0.644
   17ILE     HB  269   2.577   3.416  -0.703
   17ILE    CG2  270   2.714   3.347  -0.563
   17ILE   HG21  271   2.646   3.303  -0.504
   17ILE   HG22  272   2.753   3.280  -0.626
   17ILE   HG23  273   2.786   3.387  -0.507
   17ILE    CG1  274   2.564   3.557  -0.556
   17ILE   HG11  275   2.519   3.623  -0.616
   17ILE   HG12  276   2.628   3.605  -0.496
   17ILE     CD  277   2.455   3.498  -0.466
   17ILE    HD1  278   2.411   3.572  -0.415
   17ILE    HD2  279   2.387   3.451  -0.522
   17ILE    HD3  280   2.496   3.433  -0.402
   17ILE      C  281   2.685   3.630  -0.832
   17ILE      O  282   2.628   3.588  -0.931
   18ALA      N  283   2.686   3.765  -0.805
   18ALA      H  284   2.727   3.792  -0.718
   18ALA     CA  285   2.634   3.873  -0.890
   18ALA     HA  286   2.554   3.834  -0.936
   18ALA     CB  287   2.592   3.994  -0.805
   18ALA    HB1  288   2.557   4.066  -0.865
   18ALA    HB2  289   2.520   3.966  -0.741
   18ALA    HB3  290   2.671   4.028  -0.754
   18ALA      C  291   2.734   3.913  -0.995
   18ALA      O  292   2.692   3.969  -1.095
   19ARG      N  293   2.867   3.884  -0.985
   19ARG      H  294   2.899   3.849  -0.896
   19ARG     CA  295   2.968   3.898  -1.090
   19ARG     HA  296   2.954   3.987  -1.134
   19ARG     CB  297   3.110   3.895  -1.031
   19ARG    HB1  298   3.125   3.804  -0.991
   19ARG    HB2  299   3.116   3.964  -0.959
   19ARG     CG  300   3.223   3.921  -1.132
   19ARG    HG1  301   3.210   4.013  -1.171
   19ARG    HG2  302   3.217   3.853  -1.205
   19ARG     CD  303   3.363   3.915  -1.072
   19ARG    HD1  304   3.431   3.935  -1.142
   19ARG    HD2  305   3.380   3.824  -1.034
   19ARG     NE  306   3.380   4.012  -0.964
   19ARG     HE  307   3.296   4.040  -0.917
   19ARG     CZ  308   3.496   4.069  -0.920
   19ARG    NH1  309   3.611   3.996  -0.913
   19ARG   HH11  310   3.612   3.900  -0.941
   19ARG   HH12  311   3.695   4.039  -0.881
   19ARG    NH2  312   3.494   4.199  -0.881
   19ARG   HH21  313   3.408   4.251  -0.885
   19ARG   HH22  314   3.578   4.243  -0.849
   19ARG      C  315   2.946   3.789  -1.193
   19ARG      O  316   2.954   3.819  -1.312
   20LYS      N  317   2.914   3.662  -1.156
   20LYS      H  318   2.912   3.643  -1.057
   20LYS     CA  319   2.882   3.550  -1.245
   20LYS     HA  320   2.960   3.542  -1.307
   20LYS     CB  321   2.864   3.418  -1.167
   20LYS    HB1  322   2.783   3.427  -1.109
   20LYS    HB2  323   2.945   3.405  -1.110
   20LYS     CG  324   2.845   3.293  -1.254
   20LYS    HG1  325   2.925   3.285  -1.314
   20LYS    HG2  326   2.763   3.306  -1.310
   20LYS     CD  327   2.830   3.164  -1.174
   20LYS    HD1  328   2.748   3.172  -1.117
   20LYS    HD2  329   2.911   3.154  -1.115
   20LYS     CE  330   2.818   3.037  -1.260
   20LYS    HE1  331   2.814   2.957  -1.200
   20LYS    HE2  332   2.898   3.030  -1.319
   20LYS     NZ  333   2.700   3.032  -1.346
   20LYS    HZ1  334   2.700   2.946  -1.397
   20LYS    HZ2  335   2.617   3.036  -1.289
   20LYS    HZ3  336   2.702   3.109  -1.409
   20LYS      C  337   2.760   3.581  -1.330
   20LYS      O  338   2.760   3.543  -1.446
   21SER      N  339   2.651   3.649  -1.281
   21SER      H  340   2.656   3.681  -1.186
   21SER     CA  341   2.528   3.680  -1.356
   21SER     HA  342   2.496   3.590  -1.384
   21SER     CB  343   2.420   3.747  -1.269
   21SER    HB1  344   2.399   3.690  -1.189
   21SER    HB2  345   2.337   3.762  -1.322
   21SER     OG  346   2.458   3.872  -1.219
   21SER     HG  347   2.384   3.911  -1.164
   21SER      C  348   2.555   3.761  -1.481
   21SER    OC1  349   2.638   3.864  -1.485
   21SER    OC2  350   2.499   3.730  -1.585
   22MYC     C1  351   0.339   6.824   9.682
   22MYC     C2  352   0.427   6.704   9.720
   22MYC     O3  353   0.345   6.593   9.755
   22MYC     C4  354   0.544   6.723   9.817
   22MYC     C5  355   0.528   6.677   9.963
   22MYC     C6  356   0.456   6.771  10.061
   22MYC     C7  357   0.483   6.731  10.207
   22MYC     C8  358   0.396   6.804  10.311
   22MYC     C9  359   0.441   6.770  10.454
   22MYC    C10  360   0.384   6.854  10.569
   22MYC    C11  361   0.454   6.840  10.706
   22MYC    C12  362   0.467   6.694  10.753
   22MYC    C13  363   0.545   6.687  10.885
   22MYC    C14  364   0.548   6.548  10.951
   22MYC    C15  365   0.624   6.546  11.085
   22MYC    C16  366   0.644   6.404  11.140
   22MYC    C17  367   0.517   6.337  11.189
   22MYC    C18  368   0.521   6.188  11.212
   22MYC    C19  369   0.505   6.282  11.329
   22MYC    C20  370   0.252   6.808   9.556
   22MYC    C21  371   0.330   6.803   9.424
   22MYC    C22  372   0.237   6.778   9.304
   22MYC    C23  373   0.314   6.733   9.178
   22MYC    C24  374   0.229   6.737   9.050
   22MYC    C25  375   0.310   6.728   8.919
   22MYC    C26  376   0.228   6.761   8.793
   22MYC    C27  377   0.293   6.739   8.655
   22MYC    C28  378   0.222   6.804   8.535
   22MYC    C29  379   0.281   6.753   8.402
   22MYC    C30  380   0.208   6.799   8.275
   22MYC    C31  381   0.257   6.751   8.137
   22MYC    C32  382   0.154   6.796   8.032
   22MYC    C33  383   0.200   6.761   7.889
   22MYC    C34  384   0.105   6.805   7.777
   22MYC    C35  385   0.150   6.758   7.637
   22MYC    C36  386   0.069   6.808   7.516
   22MYC    C37  387   0.118   6.741   7.386
   22MYC    C38  388   0.057   6.796   7.256
   22MYC    C39  389   0.134   6.748   7.132
   22MYC    C40  390   0.068   6.793   7.001
   22MYC    C41  391   0.142   6.727   6.884
   22MYC    C42  392   0.060   6.726   6.754
   22MYC    C43  393   0.148   6.677   6.637
   22MYC    C44  394   0.399   6.114  11.159
   22MYC    C45  395   0.404   6.060  11.015
   22MYC    C46  396   0.425   6.170  10.910
   22MYC    C47  397   0.414   6.117  10.766
   22MYC    C48  398   0.464   6.206  10.651
   22MYC    C49  399   0.434   6.145  10.513
   22MYC    C50  400   0.448   6.241  10.394
   22MYC    C51  401   0.372   6.202  10.266
   22MYC    C52  402   0.432   6.249  10.132
   22MYC    C53  403   0.371   6.172  10.014
   22MYC    C54  404   0.434   6.232   9.887
   22MYC    C55  405   0.385   6.163   9.759
   22MYC    C56  406   0.461   6.211   9.634
   22MYC    C57  407   0.381   6.177   9.507
   22MYC    C58  408   0.459   6.207   9.379
   22MYC    C59  409   0.453   6.346   9.321
   22MYC    C60  410   0.399   6.230   9.243
   22MYC    C61  411   0.473   6.161   9.129
   22MYC    C62  412   0.421   6.192   8.988
   22MYC    C63  413   0.517   6.144   8.877
   22MYC    C64  414   0.465   6.175   8.736
   22MYC    C65  415   0.577   6.147   8.635
   22MYC    C66  416   0.551   6.197   8.492
   22MYC    C67  417   0.626   6.118   8.383
   22MYC    C68  418   0.580   6.172   8.247
   22MYC    C69  419   0.610   6.080   8.128
   22MYC    C70  420   0.571   6.147   7.995
   22MYC    C71  421   0.584   6.065   7.865
   22MYC    C72  422   0.568   6.153   7.740
   22MYC    C73  423   0.597   6.076   7.610
   22MYC    C74  424   0.558   6.153   7.483
   22MYC    C75  425   0.594   6.075   7.355
   22MYC    C76  426   0.587   6.167   7.232
   22MYC    C77  427   0.648   6.108   7.104
   22MYC    C78  428   0.613   6.200   6.986
   22MYC    C79  429   0.665   6.148   6.851
   22MYC    C80  430   0.681   6.256   6.743
   22MYC    C81  431   0.251   6.857   9.802
   22MYC    O82  432   0.144   6.803   9.825
   22MYC    O83  433   0.269   6.979   9.855
   22MYC     H1  434   0.411   6.904   9.660
   22MYC     H2  435   0.474   6.674   9.625
   22MYC     H3  436   0.399   6.547   9.822
   22MYC     H4  437   0.637   6.674   9.785
   22MYC     H5  438   0.578   6.827   9.814
   22MYC     H6  439   0.483   6.577   9.970
   22MYC     H7  440   0.625   6.663  10.011
   22MYC     H8  441   0.473   6.878  10.040
   22MYC     H9  442   0.347   6.763  10.046
   22MYC   0H10  443   0.539   6.229  10.129
   22MYC   1H10  444   0.381   6.063  10.014
   22MYC   2H10  445   0.264   6.197  10.015
   22MYC   3H10  446   0.416   6.340   9.888
   22MYC   4H10  447   0.543   6.224   9.897
   22MYC   5H10  448   0.403   6.055   9.758
   22MYC   6H10  449   0.277   6.174   9.747
   22MYC   7H10  450   0.467   6.319   9.648
   22MYC   8H10  451   0.565   6.176   9.623
   22MYC   9H10  452   0.357   6.071   9.519
   22MYC    H10  453   0.468   6.624  10.220
   22MYC   0H11  454   0.289   6.235   9.510
   22MYC   1H11  455   0.558   6.162   9.384
   22MYC   2H11  456   0.383   6.421   9.356
   22MYC   3H11  457   0.544   6.393   9.283
   22MYC   4H11  458   0.290   6.232   9.237
   22MYC   5H11  459   0.578   6.193   9.126
   22MYC   6H11  460   0.466   6.053   9.143
   22MYC   7H11  461   0.325   6.142   8.975
   22MYC   8H11  462   0.404   6.300   8.983
   22MYC   9H11  463   0.618   6.183   8.890
   22MYC    H11  464   0.586   6.758  10.233
   22MYC   0H12  465   0.520   6.035   8.894
   22MYC   1H12  466   0.369   6.125   8.720
   22MYC   2H12  467   0.448   6.283   8.728
   22MYC   3H12  468   0.675   6.182   8.670
   22MYC   4H12  469   0.592   6.038   8.629
   22MYC   5H12  470   0.443   6.190   8.478
   22MYC   6H12  471   0.562   6.306   8.486
   22MYC   7H12  472   0.734   6.131   8.394
   22MYC   8H12  473   0.606   6.010   8.391
   22MYC   9H12  474   0.474   6.201   8.250
   22MYC    H12  475   0.408   6.913  10.308
   22MYC   0H13  476   0.634   6.267   8.236
   22MYC   1H13  477   0.714   6.048   8.135
   22MYC   2H13  478   0.550   5.988   8.133
   22MYC   3H13  479   0.471   6.189   8.004
   22MYC   4H13  480   0.642   6.228   7.973
   22MYC   5H13  481   0.679   6.010   7.856
   22MYC   6H13  482   0.500   5.995   7.872
   22MYC   7H13  483   0.462   6.181   7.749
   22MYC   8H13  484   0.627   6.245   7.748
   22MYC   9H13  485   0.699   6.037   7.603
   22MYC    H13  486   0.290   6.779  10.299
   22MYC   0H14  487   0.522   5.996   7.605
   22MYC   1H14  488   0.448   6.160   7.484
   22MYC   2H14  489   0.602   6.253   7.487
   22MYC   3H14  490   0.693   6.028   7.355
   22MYC   4H14  491   0.524   5.992   7.338
   22MYC   5H14  492   0.483   6.200   7.221
   22MYC   6H14  493   0.635   6.263   7.257
   22MYC   7H14  494   0.752   6.084   7.127
   22MYC   8H14  495   0.607   6.007   7.090
   22MYC   9H14  496   0.507   6.226   6.979
   22MYC    H14  497   0.427   6.665  10.485
   22MYC   0H15  498   0.670   6.290   7.012
   22MYC   1H15  499   0.757   6.090   6.859
   22MYC   2H15  500   0.594   6.075   6.811
   22MYC   3H15  501   0.764   6.327   6.756
   22MYC   4H15  502   0.589   6.316   6.744
   22MYC   5H15  503   0.697   6.211   6.644
   22MYC   6H15  504   0.188   7.002   9.905
   22MYC    H15  505   0.550   6.781  10.454
   22MYC    H16  506   0.395   6.958  10.534
   22MYC    H17  507   0.277   6.833  10.578
   22MYC    H18  508   0.552   6.888  10.704
   22MYC    H19  509   0.403   6.892  10.787
   22MYC    H20  510   0.368   6.652  10.773
   22MYC    H21  511   0.523   6.628  10.685
   22MYC    H22  512   0.650   6.715  10.868
   22MYC    H23  513   0.506   6.759  10.958
   22MYC    H24  514   0.448   6.514  10.980
   22MYC    H25  515   0.591   6.478  10.878
   22MYC    H26  516   0.725   6.586  11.075
   22MYC    H27  517   0.568   6.599  11.163
   22MYC    H28  518   0.699   6.339  11.070
   22MYC    H29  519   0.721   6.425  11.216
   22MYC    H30  520   0.428   6.365  11.133
   22MYC    H31  521   0.616   6.137  11.199
   22MYC    H32  522   0.407   6.288  11.375
   22MYC    H33  523   0.596   6.298  11.387
   22MYC    H34  524   0.198   6.713   9.564
   22MYC    H35  525   0.183   6.893   9.547
   22MYC    H36  526   0.375   6.902   9.407
   22MYC    H37  527   0.412   6.731   9.430
   22MYC    H38  528   0.163   6.701   9.327
   22MYC    H39  529   0.181   6.870   9.282
   22MYC    H40  530   0.398   6.803   9.166
   22MYC    H41  531   0.359   6.634   9.190
   22MYC    H42  532   0.158   6.655   9.062
   22MYC    H43  533   0.178   6.834   9.041
   22MYC    H44  534   0.395   6.797   8.921
   22MYC    H45  535   0.354   6.628   8.910
   22MYC    H46  536   0.134   6.704   8.790
   22MYC    H47  537   0.206   6.867   8.810
   22MYC    H48  538   0.398   6.770   8.665
   22MYC    H49  539   0.300   6.631   8.637
   22MYC    H50  540   0.113   6.800   8.540
   22MYC    H51  541   0.235   6.913   8.542
   22MYC    H52  542   0.380   6.798   8.394
   22MYC    H53  543   0.299   6.644   8.406
   22MYC    H54  544   0.107   6.761   8.293
   22MYC    H55  545   0.205   6.908   8.286
   22MYC    H56  546   0.359   6.786   8.114
   22MYC    H57  547   0.272   6.643   8.134
   22MYC    H58  548   0.055   6.752   8.043
   22MYC    H59  549   0.145   6.905   8.044
   22MYC    H60  550   0.298   6.809   7.880
   22MYC    H61  551   0.214   6.653   7.876
   22MYC    H62  552   0.007   6.757   7.787
   22MYC    H63  553   0.089   6.913   7.779
   22MYC    H64  554   0.255   6.782   7.618
   22MYC    H65  555   0.150   6.649   7.639
   22MYC    H66  556  -0.035   6.783   7.542
   22MYC    H67  557   0.081   6.917   7.513
   22MYC    H68  558   0.227   6.751   7.382
   22MYC    H69  559   0.087   6.636   7.394
   22MYC    H70  560  -0.045   6.755   7.254
   22MYC    H71  561   0.056   6.906   7.256
   22MYC    H72  562   0.239   6.776   7.143
   22MYC    H73  563   0.124   6.639   7.131
   22MYC    H74  564  -0.035   6.753   7.002
   22MYC    H75  565   0.060   6.902   6.987
   22MYC    H76  566   0.236   6.782   6.880
   22MYC    H77  567   0.180   6.625   6.901
   22MYC    H78  568  -0.023   6.656   6.763
   22MYC    H79  569   0.015   6.823   6.732
   22MYC    H80  570   0.093   6.670   6.542
   22MYC    H81  571   0.191   6.578   6.656
   22MYC    H82  572   0.234   6.740   6.614
   22MYC    H83  573   0.365   6.035  11.227
   22MYC    H84  574   0.314   6.184  11.165
   22MYC    H85  575   0.485   5.986  11.014
   22MYC    H86  576   0.317   5.994  10.999
   22MYC    H87  577   0.350   6.250  10.916
   22MYC    H88  578   0.523   6.217  10.925
   22MYC    H89  579   0.462   6.019  10.762
   22MYC    H90  580   0.307   6.104  10.749
   22MYC    H91  581   0.417   6.303  10.672
   22MYC    H92  582   0.570   6.234  10.657
   22MYC    H93  583   0.496   6.057  10.492
   22MYC    H94  584   0.325   6.128  10.518
   22MYC    H95  585   0.409   6.337  10.433
   22MYC    H96  586   0.551   6.261  10.362
   22MYC    H97  587   0.380   6.093  10.258
   22MYC    H98  588   0.269   6.238  10.267
   22MYC    H99  589   0.421   6.358  10.123
   23MYC     C1  590   1.444  -0.155   9.580
   23MYC     C2  591   1.323  -0.223   9.648
   23MYC     O3  592   1.234  -0.121   9.692
   23MYC     C4  593   1.359  -0.329   9.754
   23MYC     C5  594   1.294  -0.315   9.892
   23MYC     C6  595   1.368  -0.214   9.982
   23MYC     C7  596   1.301  -0.198  10.120
   23MYC     C8  597   1.401  -0.146  10.224
   23MYC     C9  598   1.335  -0.123  10.361
   23MYC    C10  599   1.420  -0.036  10.455
   23MYC    C11  600   1.531  -0.117  10.524
   23MYC    C12  601   1.482  -0.197  10.646
   23MYC    C13  602   1.504  -0.124  10.780
   23MYC    C14  603   1.444  -0.202  10.898
   23MYC    C15  604   1.486  -0.140  11.033
   23MYC    C16  605   1.372  -0.149  11.136
   23MYC    C17  606   1.274  -0.034  11.119
   23MYC    C18  607   1.156  -0.048  11.025
   23MYC    C19  608   1.134  -0.040  11.174
   23MYC    C20  609   1.414  -0.098   9.440
   23MYC    C21  610   1.391  -0.209   9.336
   23MYC    C22  611   1.390  -0.148   9.195
   23MYC    C23  612   1.363  -0.240   9.075
   23MYC    C24  613   1.424  -0.162   8.957
   23MYC    C25  614   1.377  -0.223   8.824
   23MYC    C26  615   1.448  -0.149   8.710
   23MYC    C27  616   1.377  -0.160   8.574
   23MYC    C28  617   1.432  -0.070   8.462
   23MYC    C29  618   1.331  -0.059   8.346
   23MYC    C30  619   1.396  -0.009   8.216
   23MYC    C31  620   1.308  -0.008   8.089
   23MYC    C32  621   1.389   0.017   7.960
   23MYC    C33  622   1.316   0.041   7.827
   23MYC    C34  623   1.418   0.039   7.711
   23MYC    C35  624   1.359   0.067   7.571
   23MYC    C36  625   1.462   0.031   7.463
   23MYC    C37  626   1.443   0.113   7.335
   23MYC    C38  627   1.510   0.051   7.211
   23MYC    C39  628   1.488   0.146   7.092
   23MYC    C40  629   1.551   0.102   6.958
   23MYC    C41  630   1.499   0.190   6.843
   23MYC    C42  631   1.521   0.113   6.712
   23MYC    C43  632   1.466   0.183   6.586
   23MYC    C44  633   1.127   0.070  10.933
   23MYC    C45  634   0.982   0.092  10.885
   23MYC    C46  635   0.944  -0.017  10.784
   23MYC    C47  636   0.890   0.037  10.651
   23MYC    C48  637   0.898  -0.064  10.535
   23MYC    C49  638   0.858  -0.002  10.400
   23MYC    C50  639   0.878  -0.098  10.282
   23MYC    C51  640   0.844  -0.023  10.152
   23MYC    C52  641   0.828  -0.113  10.029
   23MYC    C53  642   0.788  -0.041   9.899
   23MYC    C54  643   0.855  -0.114   9.782
   23MYC    C55  644   0.824  -0.039   9.652
   23MYC    C56  645   0.909  -0.087   9.534
   23MYC    C57  646   0.847  -0.048   9.399
   23MYC    C58  647   0.914  -0.117   9.282
   23MYC    C59  648   1.046  -0.073   9.222
   23MYC    C60  649   0.917  -0.047   9.148
   23MYC    C61  650   0.878  -0.127   9.025
   23MYC    C62  651   0.985  -0.114   8.916
   23MYC    C63  652   0.956  -0.175   8.778
   23MYC    C64  653   0.964  -0.070   8.666
   23MYC    C65  654   0.953  -0.137   8.529
   23MYC    C66  655   0.961  -0.036   8.413
   23MYC    C67  656   0.947  -0.102   8.275
   23MYC    C68  657   0.948   0.006   8.165
   23MYC    C69  658   0.945  -0.059   8.026
   23MYC    C70  659   0.939   0.044   7.913
   23MYC    C71  660   0.915  -0.015   7.773
   23MYC    C72  661   0.954   0.079   7.658
   23MYC    C73  662   0.905   0.018   7.526
   23MYC    C74  663   0.983   0.082   7.410
   23MYC    C75  664   0.945   0.008   7.280
   23MYC    C76  665   1.013   0.067   7.155
   23MYC    C77  666   0.981  -0.014   7.028
   23MYC    C78  667   1.079   0.019   6.914
   23MYC    C79  668   1.056  -0.059   6.784
   23MYC    C80  669   1.160  -0.015   6.680
   23MYC    C81  670   1.504  -0.041   9.663
   23MYC    O82  671   1.476   0.076   9.646
   23MYC    O83  672   1.614  -0.081   9.730
   23MYC     H1  673   1.519  -0.234   9.573
   23MYC     H2  674   1.272  -0.280   9.569
   23MYC     H3  675   1.284  -0.050   9.734
   23MYC     H4  676   1.326  -0.424   9.709
   23MYC     H5  677   1.467  -0.343   9.766
   23MYC     H6  678   1.189  -0.286   9.882
   23MYC     H7  679   1.298  -0.412   9.943
   23MYC     H8  680   1.474  -0.238   9.996
   23MYC     H9  681   1.364  -0.115   9.936
   23MYC   0H10  682   0.754  -0.190  10.055
   23MYC   1H10  683   0.680  -0.043   9.879
   23MYC   2H10  684   0.815   0.065   9.911
   23MYC   3H10  685   0.964  -0.108   9.797
   23MYC   4H10  686   0.826  -0.220   9.787
   23MYC   5H10  687   0.716  -0.047   9.633
   23MYC   6H10  688   0.840   0.069   9.662
   23MYC   7H10  689   1.015  -0.056   9.539
   23MYC   8H10  690   0.919  -0.195   9.550
   23MYC   9H10  691   0.739  -0.068   9.402
   23MYC    H10  692   1.216  -0.129  10.121
   23MYC   0H11  693   0.853   0.060   9.381
   23MYC   1H11  694   0.905  -0.225   9.284
   23MYC   2H11  695   1.092   0.016   9.264
   23MYC   3H11  696   1.112  -0.156   9.199
   23MYC   4H11  697   0.890   0.058   9.141
   23MYC   5H11  698   0.855  -0.232   9.050
   23MYC   6H11  699   0.794  -0.081   8.973
   23MYC   7H11  700   1.010  -0.008   8.904
   23MYC   8H11  701   1.081  -0.152   8.953
   23MYC   9H11  702   1.023  -0.259   8.759
   23MYC    H11  703   1.266  -0.293  10.162
   23MYC   0H12  704   0.854  -0.216   8.774
   23MYC   1H12  705   0.896   0.016   8.675
   23MYC   2H12  706   1.062  -0.022   8.671
   23MYC   3H12  707   1.039  -0.201   8.504
   23MYC   4H12  708   0.857  -0.187   8.511
   23MYC   5H12  709   0.877   0.032   8.432
   23MYC   6H12  710   1.049   0.027   8.427
   23MYC   7H12  711   1.031  -0.172   8.261
   23MYC   8H12  712   0.855  -0.161   8.268
   23MYC   9H12  713   0.866   0.078   8.176
   23MYC    H12  714   1.493  -0.204  10.241
   23MYC   0H13  715   1.037   0.070   8.172
   23MYC   1H13  716   1.026  -0.133   8.019
   23MYC   2H13  717   0.859  -0.125   8.010
   23MYC   3H13  718   0.868   0.126   7.931
   23MYC   4H13  719   1.036   0.095   7.913
   23MYC   5H13  720   0.978  -0.105   7.767
   23MYC   6H13  721   0.807  -0.028   7.758
   23MYC   7H13  722   0.895   0.171   7.673
   23MYC   8H13  723   1.061   0.101   7.645
   23MYC   9H13  724   0.927  -0.089   7.527
   23MYC    H13  725   1.434  -0.046  10.192
   23MYC   0H14  726   0.796   0.021   7.516
   23MYC   1H14  727   0.952   0.187   7.408
   23MYC   2H14  728   1.090   0.064   7.423
   23MYC   3H14  729   0.977  -0.095   7.304
   23MYC   4H14  730   0.838  -0.007   7.262
   23MYC   5H14  731   0.992   0.174   7.144
   23MYC   6H14  732   1.121   0.051   7.163
   23MYC   7H14  733   1.000  -0.119   7.053
   23MYC   8H14  734   0.877   0.014   7.010
   23MYC   9H14  735   1.070   0.128   6.903
   23MYC    H14  736   1.238  -0.073  10.349
   23MYC   0H15  737   1.181   0.004   6.953
   23MYC   1H15  738   1.076  -0.161   6.818
   23MYC   2H15  739   0.952  -0.045   6.750
   23MYC   3H15  740   1.261  -0.029   6.719
   23MYC   4H15  741   1.146   0.092   6.660
   23MYC   5H15  742   1.151  -0.073   6.587
   23MYC   6H15  743   1.656   0.004   9.753
   23MYC    H15  744   1.303  -0.218  10.406
   23MYC    H16  745   1.461   0.045  10.393
   23MYC    H17  746   1.354   0.004  10.533
   23MYC    H18  747   1.580  -0.187  10.455
   23MYC    H19  748   1.606  -0.047  10.562
   23MYC    H20  749   1.375  -0.217  10.633
   23MYC    H21  750   1.537  -0.292  10.650
   23MYC    H22  751   1.611  -0.118  10.804
   23MYC    H23  752   1.462  -0.023  10.778
   23MYC    H24  753   1.336  -0.219  10.897
   23MYC    H25  754   1.486  -0.303  10.890
   23MYC    H26  755   1.575  -0.185  11.077
   23MYC    H27  756   1.505  -0.034  11.014
   23MYC    H28  757   1.327  -0.249  11.132
   23MYC    H29  758   1.411  -0.133  11.237
   23MYC    H30  759   1.317   0.066  11.124
   23MYC    H31  760   1.140  -0.143  10.975
   23MYC    H32  761   1.098   0.054  11.216
   23MYC    H33  762   1.098  -0.131  11.221
   23MYC    H34  763   1.330  -0.029   9.448
   23MYC    H35  764   1.502  -0.041   9.407
   23MYC    H36  765   1.464  -0.291   9.339
   23MYC    H37  766   1.290  -0.251   9.345
   23MYC    H38  767   1.330  -0.056   9.192
   23MYC    H39  768   1.487  -0.101   9.177
   23MYC    H40  769   1.417  -0.334   9.090
   23MYC    H41  770   1.256  -0.263   9.071
   23MYC    H42  771   1.402  -0.054   8.950
   23MYC    H43  772   1.533  -0.171   8.959
   23MYC    H44  773   1.398  -0.331   8.826
   23MYC    H45  774   1.268  -0.209   8.813
   23MYC    H46  775   1.444  -0.039   8.721
   23MYC    H47  776   1.554  -0.178   8.711
   23MYC    H48  777   1.388  -0.264   8.541
   23MYC    H49  778   1.269  -0.148   8.589
   23MYC    H50  779   1.452   0.029   8.504
   23MYC    H51  780   1.531  -0.106   8.430
   23MYC    H52  781   1.280  -0.150   8.314
   23MYC    H53  782   1.253   0.012   8.377
   23MYC    H54  783   1.441   0.088   8.239
   23MYC    H55  784   1.484  -0.071   8.196
   23MYC    H56  785   1.247  -0.099   8.080
   23MYC    H57  786   1.238   0.075   8.099
   23MYC    H58  787   1.461   0.098   7.976
   23MYC    H59  788   1.457  -0.069   7.957
   23MYC    H60  789   1.242  -0.040   7.817
   23MYC    H61  790   1.257   0.133   7.825
   23MYC    H62  791   1.494   0.115   7.732
   23MYC    H63  792   1.466  -0.058   7.722
   23MYC    H64  793   1.269   0.006   7.557
   23MYC    H65  794   1.329   0.171   7.555
   23MYC    H66  795   1.564   0.055   7.497
   23MYC    H67  796   1.454  -0.077   7.445
   23MYC    H68  797   1.338   0.128   7.307
   23MYC    H69  798   1.489   0.211   7.348
   23MYC    H70  799   1.616   0.034   7.231
   23MYC    H71  800   1.455  -0.042   7.194
   23MYC    H72  801   1.379   0.149   7.077
   23MYC    H73  802   1.510   0.252   7.111
   23MYC    H74  803   1.658   0.123   6.964
   23MYC    H75  804   1.549  -0.006   6.944
   23MYC    H76  805   1.394   0.220   6.853
   23MYC    H77  806   1.558   0.283   6.846
   23MYC    H78  807   1.629   0.101   6.697
   23MYC    H79  808   1.472   0.015   6.713
   23MYC    H80  809   1.421   0.105   6.524
   23MYC    H81  810   1.539   0.241   6.528
   23MYC    H82  811   1.383   0.251   6.609
   23MYC    H83  812   1.160   0.152  10.997
   23MYC    H84  813   1.187   0.064  10.842
   23MYC    H85  814   0.909   0.081  10.966
   23MYC    H86  815   0.973   0.192  10.841
   23MYC    H87  816   1.029  -0.083  10.761
   23MYC    H88  817   0.863  -0.075  10.830
   23MYC    H89  818   0.785   0.064  10.667
   23MYC    H90  819   0.935   0.132  10.618
   23MYC    H91  820   0.997  -0.111  10.533
   23MYC    H92  821   0.838  -0.152  10.559
   23MYC    H93  822   0.755   0.032  10.420
   23MYC    H94  823   0.924   0.084  10.384
   23MYC    H95  824   0.983  -0.129  10.286
   23MYC    H96  825   0.810  -0.181  10.305
   23MYC    H97  826   0.756   0.039  10.173
   23MYC    H98  827   0.921   0.052  10.129
   23MYC    H99  828   0.917  -0.175  10.011
   24MYC     C1  829   2.316   6.445   9.494
   24MYC     C2  830   2.176   6.497   9.529
   24MYC     O3  831   2.179   6.639   9.532
   24MYC     C4  832   2.106   6.441   9.654
   24MYC     C5  833   2.089   6.521   9.784
   24MYC     C6  834   2.206   6.508   9.883
   24MYC     C7  835   2.175   6.579  10.015
   24MYC     C8  836   2.297   6.563  10.107
   24MYC     C9  837   2.297   6.653  10.232
   24MYC    C10  838   2.397   6.608  10.339
   24MYC    C11  839   2.343   6.512  10.447
   24MYC    C12  840   2.241   6.579  10.541
   24MYC    C13  841   2.249   6.542  10.690
   24MYC    C14  842   2.178   6.655  10.767
   24MYC    C15  843   2.224   6.691  10.909
   24MYC    C16  844   2.195   6.589  11.021
   24MYC    C17  845   2.045   6.581  11.043
   24MYC    C18  846   1.994   6.461  11.119
   24MYC    C19  847   1.999   6.596  11.186
   24MYC    C20  848   2.361   6.502   9.358
   24MYC    C21  849   2.284   6.455   9.234
   24MYC    C22  850   2.356   6.501   9.106
   24MYC    C23  851   2.284   6.453   8.978
   24MYC    C24  852   2.332   6.518   8.847
   24MYC    C25  853   2.320   6.422   8.727
   24MYC    C26  854   2.321   6.496   8.592
   24MYC    C27  855   2.317   6.400   8.472
   24MYC    C28  856   2.308   6.477   8.339
   24MYC    C29  857   2.279   6.382   8.221
   24MYC    C30  858   2.251   6.469   8.097
   24MYC    C31  859   2.239   6.398   7.961
   24MYC    C32  860   2.201   6.501   7.853
   24MYC    C33  861   2.182   6.441   7.713
   24MYC    C34  862   2.178   6.542   7.598
   24MYC    C35  863   2.177   6.469   7.462
   24MYC    C36  864   2.157   6.561   7.340
   24MYC    C37  865   2.110   6.487   7.214
   24MYC    C38  866   2.094   6.575   7.089
   24MYC    C39  867   2.021   6.498   6.978
   24MYC    C40  868   2.021   6.579   6.847
   24MYC    C41  869   1.959   6.499   6.730
   24MYC    C42  870   1.904   6.596   6.624
   24MYC    C43  871   1.866   6.517   6.497
   24MYC    C44  872   1.866   6.397  11.066
   24MYC    C45  873   1.902   6.282  10.971
   24MYC    C46  874   1.918   6.336  10.828
   24MYC    C47  875   1.904   6.229  10.719
   24MYC    C48  876   1.951   6.272  10.579
   24MYC    C49  877   1.921   6.169  10.468
   24MYC    C50  878   1.966   6.218  10.329
   24MYC    C51  879   1.893   6.144  10.216
   24MYC    C52  880   1.940   6.171  10.072
   24MYC    C53  881   1.853   6.101   9.965
   24MYC    C54  882   1.914   6.124   9.826
   24MYC    C55  883   1.827   6.063   9.716
   24MYC    C56  884   1.892   6.088   9.579
   24MYC    C57  885   1.800   6.068   9.457
   24MYC    C58  886   1.874   6.071   9.324
   24MYC    C59  887   1.900   6.201   9.252
   24MYC    C60  888   1.797   6.104   9.198
   24MYC    C61  889   1.822   6.042   9.062
   24MYC    C62  890   1.844   6.137   8.943
   24MYC    C63  891   1.851   6.071   8.804
   24MYC    C64  892   1.895   6.171   8.696
   24MYC    C65  893   1.940   6.097   8.569
   24MYC    C66  894   1.958   6.185   8.444
   24MYC    C67  895   1.907   6.107   8.322
   24MYC    C68  896   1.930   6.182   8.190
   24MYC    C69  897   1.850   6.109   8.080
   24MYC    C70  898   1.842   6.196   7.953
   24MYC    C71  899   1.754   6.144   7.838
   24MYC    C72  900   1.829   6.165   7.705
   24MYC    C73  901   1.765   6.092   7.586
   24MYC    C74  902   1.848   6.134   7.463
   24MYC    C75  903   1.768   6.102   7.337
   24MYC    C76  904   1.846   6.161   7.218
   24MYC    C77  905   1.797   6.094   7.088
   24MYC    C78  906   1.894   6.120   6.971
   24MYC    C79  907   1.872   6.039   6.843
   24MYC    C80  908   1.728   6.037   6.788
   24MYC    C81  909   2.417   6.464   9.606
   24MYC    O82  910   2.469   6.571   9.630
   24MYC    O83  911   2.481   6.347   9.628
   24MYC     H1  912   2.312   6.337   9.475
   24MYC     H2  913   2.114   6.466   9.443
   24MYC     H3  914   2.259   6.670   9.577
   24MYC     H4  915   2.002   6.419   9.624
   24MYC     H5  916   2.154   6.343   9.670
   24MYC     H6  917   2.063   6.626   9.769
   24MYC     H7  918   2.004   6.477   9.838
   24MYC     H8  919   2.221   6.402   9.906
   24MYC     H9  920   2.295   6.556   9.841
   24MYC   0H10  921   2.044   6.137  10.072
   24MYC   1H10  922   1.835   5.996   9.989
   24MYC   2H10  923   1.760   6.160   9.963
   24MYC   3H10  924   1.927   6.229   9.796
   24MYC   4H10  925   2.012   6.075   9.827
   24MYC   5H10  926   1.814   5.955   9.729
   24MYC   6H10  927   1.723   6.099   9.716
   24MYC   7H10  928   1.937   6.188   9.572
   24MYC   8H10  929   1.979   6.021   9.571
   24MYC   9H10  930   1.745   5.975   9.473
   24MYC    H10  931   2.157   6.686   9.997
   24MYC   0H11  932   1.718   6.139   9.445
   24MYC   1H11  933   1.961   6.007   9.317
   24MYC   2H11  934   1.859   6.292   9.296
   24MYC   3H11  935   1.998   6.210   9.206
   24MYC   4H11  936   1.693   6.132   9.214
   24MYC   5H11  937   1.914   5.982   9.063
   24MYC   6H11  938   1.741   5.972   9.039
   24MYC   7H11  939   1.759   6.206   8.949
   24MYC   8H11  940   1.934   6.198   8.961
   24MYC   9H11  941   1.917   5.985   8.816
   24MYC    H11  942   2.087   6.535  10.064
   24MYC   0H12  943   1.750   6.030   8.788
   24MYC   1H12  944   1.820   6.246   8.671
   24MYC   2H12  945   1.977   6.231   8.737
   24MYC   3H12  946   2.032   6.042   8.590
   24MYC   4H12  947   1.869   6.015   8.551
   24MYC   5H12  948   1.912   6.283   8.460
   24MYC   6H12  949   2.066   6.192   8.423
   24MYC   7H12  950   1.960   6.012   8.314
   24MYC   8H12  951   1.803   6.089   8.353
   24MYC   9H12  952   1.892   6.284   8.198
   24MYC    H12  953   2.324   6.460  10.131
   24MYC   0H13  954   2.038   6.180   8.168
   24MYC   1H13  955   1.902   6.015   8.056
   24MYC   2H13  956   1.749   6.082   8.113
   24MYC   3H13  957   1.795   6.289   7.988
   24MYC   4H13  958   1.942   6.231   7.927
   24MYC   5H13  959   1.726   6.040   7.860
   24MYC   6H13  960   1.663   6.205   7.831
   24MYC   7H13  961   1.833   6.273   7.686
   24MYC   8H13  962   1.930   6.127   7.723
   24MYC   9H13  963   1.769   5.983   7.597
   24MYC    H13  964   2.391   6.590  10.057
   24MYC   0H14  965   1.659   6.119   7.579
   24MYC   1H14  966   1.873   6.241   7.472
   24MYC   2H14  967   1.944   6.080   7.461
   24MYC   3H14  968   1.772   5.994   7.316
   24MYC   4H14  969   1.668   6.148   7.337
   24MYC   5H14  970   1.832   6.269   7.206
   24MYC   6H14  971   1.951   6.134   7.234
   24MYC   7H14  972   1.784   5.986   7.105
   24MYC   8H14  973   1.696   6.123   7.055
   24MYC   9H14  974   1.882   6.227   6.947
   24MYC    H14  975   2.325   6.754  10.199
   24MYC   0H15  976   1.996   6.105   7.009
   24MYC   1H15  977   1.938   6.082   6.767
   24MYC   2H15  978   1.902   5.936   6.864
   24MYC   3H15  979   1.673   6.130   6.808
   24MYC   4H15  980   1.667   5.951   6.816
   24MYC   5H15  981   1.730   6.034   6.678
   24MYC   6H15  982   2.575   6.362   9.651
   24MYC    H15  983   2.196   6.659  10.274
   24MYC    H16  984   2.492   6.573  10.298
   24MYC    H17  985   2.434   6.697  10.392
   24MYC    H18  986   2.303   6.418  10.407
   24MYC    H19  987   2.422   6.478  10.516
   24MYC    H20  988   2.245   6.688  10.527
   24MYC    H21  989   2.143   6.557  10.497
   24MYC    H22  990   2.198   6.448  10.713
   24MYC    H23  991   2.356   6.541  10.714
   24MYC    H24  992   2.196   6.752  10.720
   24MYC    H25  993   2.074   6.621  10.761
   24MYC    H26  994   2.332   6.709  10.908
   24MYC    H27  995   2.181   6.790  10.930
   24MYC    H28  996   2.235   6.492  10.992
   24MYC    H29  997   2.247   6.618  11.114
   24MYC    H30  998   1.980   6.631  10.973
   24MYC    H31  999   2.062   6.393  11.171
   24MYC    H32 1000   1.898   6.629  11.211
   24MYC    H33 1001   2.071   6.600  11.268
   24MYC    H34 1002   2.371   6.612   9.363
   24MYC    H35 1003   2.461   6.460   9.345
   24MYC    H36 1004   2.285   6.346   9.222
   24MYC    H37 1005   2.180   6.489   9.232
   24MYC    H38 1006   2.369   6.610   9.099
   24MYC    H39 1007   2.455   6.456   9.097
   24MYC    H40 1008   2.315   6.350   8.959
   24MYC    H41 1009   2.175   6.455   8.987
   24MYC    H42 1010   2.282   6.614   8.829
   24MYC    H43 1011   2.437   6.541   8.866
   24MYC    H44 1012   2.405   6.352   8.724
   24MYC    H45 1013   2.224   6.369   8.729
   24MYC    H46 1014   2.239   6.569   8.587
   24MYC    H47 1015   2.418   6.545   8.589
   24MYC    H48 1016   2.410   6.342   8.467
   24MYC    H49 1017   2.234   6.331   8.489
   24MYC    H50 1018   2.233   6.556   8.349
   24MYC    H51 1019   2.404   6.528   8.328
   24MYC    H52 1020   2.364   6.319   8.193
   24MYC    H53 1021   2.189   6.322   8.235
   24MYC    H54 1022   2.157   6.522   8.115
   24MYC    H55 1023   2.330   6.545   8.093
   24MYC    H56 1024   2.315   6.325   7.930
   24MYC    H57 1025   2.158   6.325   7.972
   24MYC    H58 1026   2.109   6.553   7.883
   24MYC    H59 1027   2.278   6.577   7.836
   24MYC    H60 1028   2.267   6.373   7.699
   24MYC    H61 1029   2.098   6.370   7.715
   24MYC    H62 1030   2.090   6.608   7.600
   24MYC    H63 1031   2.270   6.603   7.594
   24MYC    H64 1032   2.260   6.399   7.452
   24MYC    H65 1033   2.086   6.408   7.460
   24MYC    H66 1034   2.086   6.644   7.353
   24MYC    H67 1035   2.255   6.606   7.320
   24MYC    H68 1036   2.185   6.408   7.201
   24MYC    H69 1037   2.020   6.434   7.247
   24MYC    H70 1038   2.040   6.668   7.109
   24MYC    H71 1039   2.196   6.596   7.053
   24MYC    H72 1040   2.078   6.406   6.960
   24MYC    H73 1041   1.924   6.460   7.012
   24MYC    H74 1042   1.963   6.672   6.856
   24MYC    H75 1043   2.126   6.606   6.829
   24MYC    H76 1044   2.028   6.434   6.674
   24MYC    H77 1045   1.882   6.434   6.771
   24MYC    H78 1046   1.826   6.660   6.666
   24MYC    H79 1047   1.988   6.658   6.589
   24MYC    H80 1048   1.839   6.588   6.418
   24MYC    H81 1049   1.771   6.472   6.528
   24MYC    H82 1050   1.937   6.442   6.461
   24MYC    H83 1051   1.815   6.352  11.152
   24MYC    H84 1052   1.803   6.473  11.018
   24MYC    H85 1053   1.986   6.225  11.012
   24MYC    H86 1054   1.814   6.217  10.959
   24MYC    H87 1055   1.843   6.413  10.805
   24MYC    H88 1056   2.019   6.380  10.824
   24MYC    H89 1057   1.969   6.144  10.740
   24MYC    H90 1058   1.801   6.191  10.716
   24MYC    H91 1059   1.905   6.367  10.551
   24MYC    H92 1060   2.057   6.297  10.587
   24MYC    H93 1061   1.980   6.079  10.485
   24MYC    H94 1062   1.816   6.139  10.480
   24MYC    H95 1063   1.931   6.321  10.315
   24MYC    H96 1064   2.075   6.220  10.319
   24MYC    H97 1065   1.889   6.035  10.226
   24MYC    H98 1066   1.787   6.169  10.224
   24MYC    H99 1067   1.942   6.279  10.053
   25MYC     C1 1068   2.921   6.475   9.629
   25MYC     C2 1069   2.866   6.388   9.743
   25MYC     O3 1070   2.741   6.443   9.784
   25MYC     C4 1071   2.957   6.373   9.866
   25MYC     C5 1072   2.893   6.312   9.992
   25MYC     C6 1073   2.826   6.408  10.091
   25MYC     C7 1074   2.828   6.350  10.233
   25MYC     C8 1075   2.792   6.456  10.339
   25MYC     C9 1076   2.821   6.397  10.478
   25MYC    C10 1077   2.786   6.491  10.594
   25MYC    C11 1078   2.845   6.456  10.732
   25MYC    C12 1079   2.783   6.338  10.808
   25MYC    C13 1080   2.823   6.330  10.956
   25MYC    C14 1081   2.742   6.219  11.026
   25MYC    C15 1082   2.767   6.216  11.178
   25MYC    C16 1083   2.662   6.139  11.259
   25MYC    C17 1084   2.520   6.195  11.258
   25MYC    C18 1085   2.434   6.140  11.147
   25MYC    C19 1086   2.408   6.099  11.290
   25MYC    C20 1087   2.847   6.443   9.497
   25MYC    C21 1088   2.919   6.499   9.373
   25MYC    C22 1089   2.854   6.449   9.243
   25MYC    C23 1090   2.925   6.517   9.126
   25MYC    C24 1091   2.848   6.500   8.994
   25MYC    C25 1092   2.926   6.531   8.865
   25MYC    C26 1093   2.844   6.575   8.743
   25MYC    C27 1094   2.938   6.580   8.621
   25MYC    C28 1095   2.877   6.642   8.493
   25MYC    C29 1096   2.970   6.619   8.373
   25MYC    C30 1097   2.886   6.655   8.250
   25MYC    C31 1098   2.958   6.620   8.119
   25MYC    C32 1099   2.884   6.683   7.999
   25MYC    C33 1100   2.931   6.632   7.862
   25MYC    C34 1101   2.875   6.702   7.738
   25MYC    C35 1102   2.958   6.665   7.614
   25MYC    C36 1103   2.867   6.659   7.490
   25MYC    C37 1104   2.956   6.659   7.365
   25MYC    C38 1105   2.879   6.675   7.233
   25MYC    C39 1106   2.957   6.619   7.114
   25MYC    C40 1107   2.953   6.712   6.991
   25MYC    C41 1108   2.992   6.648   6.856
   25MYC    C42 1109   2.920   6.723   6.743
   25MYC    C43 1110   2.940   6.641   6.615
   25MYC    C44 1111   2.331   6.225  11.074
   25MYC    C45 1112   2.295   6.190  10.929
   25MYC    C46 1113   2.412   6.194  10.829
   25MYC    C47 1114   2.355   6.153  10.692
   25MYC    C48 1115   2.460   6.128  10.583
   25MYC    C49 1116   2.398   6.090  10.448
   25MYC    C50 1117   2.503   6.071  10.338
   25MYC    C51 1118   2.443   6.062  10.196
   25MYC    C52 1119   2.544   6.080  10.082
   25MYC    C53 1120   2.482   6.090   9.942
   25MYC    C54 1121   2.582   6.063   9.829
   25MYC    C55 1122   2.506   6.034   9.699
   25MYC    C56 1123   2.591   6.044   9.572
   25MYC    C57 1124   2.500   6.026   9.449
   25MYC    C58 1125   2.574   6.044   9.318
   25MYC    C59 1126   2.611   6.177   9.258
   25MYC    C60 1127   2.495   6.099   9.202
   25MYC    C61 1128   2.501   6.022   9.071
   25MYC    C62 1129   2.466   6.105   8.946
   25MYC    C63 1130   2.476   6.009   8.827
   25MYC    C64 1131   2.439   6.064   8.688
   25MYC    C65 1132   2.457   5.964   8.573
   25MYC    C66 1133   2.389   6.018   8.446
   25MYC    C67 1134   2.375   5.923   8.325
   25MYC    C68 1135   2.324   5.992   8.198
   25MYC    C69 1136   2.350   5.912   8.070
   25MYC    C70 1137   2.357   6.009   7.951
   25MYC    C71 1138   2.358   5.928   7.821
   25MYC    C72 1139   2.376   6.011   7.693
   25MYC    C73 1140   2.516   6.000   7.630
   25MYC    C74 1141   2.516   6.049   7.485
   25MYC    C75 1142   2.649   6.049   7.409
   25MYC    C76 1143   2.626   6.101   7.266
   25MYC    C77 1144   2.747   6.094   7.171
   25MYC    C78 1145   2.734   6.149   7.028
   25MYC    C79 1146   2.855   6.112   6.941
   25MYC    C80 1147   2.884   6.200   6.818
   25MYC    C81 1148   2.925   6.622   9.668
   25MYC    O82 1149   2.836   6.703   9.652
   25MYC    O83 1150   3.039   6.659   9.730
   25MYC     H1 1151   3.026   6.447   9.614
   25MYC     H2 1152   2.846   6.285   9.711
   25MYC     H3 1153   2.746   6.435   9.881
   25MYC     H4 1154   3.034   6.302   9.832
   25MYC     H5 1155   3.000   6.469   9.899
   25MYC     H6 1156   2.816   6.245   9.951
   25MYC     H7 1157   2.976   6.256  10.039
   25MYC     H8 1158   2.855   6.514  10.081
   25MYC     H9 1159   2.719   6.405  10.069
   25MYC   0H10 1160   2.601   5.987  10.094
   25MYC   1H10 1161   2.406   6.010   9.943
   25MYC   2H10 1162   2.426   6.184   9.932
   25MYC   3H10 1163   2.644   6.153   9.814
   25MYC   4H10 1164   2.653   5.982   9.851
   25MYC   5H10 1165   2.455   5.938   9.711
   25MYC   6H10 1166   2.426   6.110   9.693
   25MYC   7H10 1167   2.655   6.132   9.558
   25MYC   8H10 1168   2.667   5.965   9.571
   25MYC   9H10 1169   2.464   5.922   9.445
   25MYC    H10 1170   2.756   6.268  10.237
   25MYC   0H11 1171   2.411   6.088   9.463
   25MYC   1H11 1172   2.644   5.962   9.302
   25MYC   2H11 1173   2.591   6.264   9.321
   25MYC   3H11 1174   2.705   6.169   9.204
   25MYC   4H11 1175   2.398   6.143   9.225
   25MYC   5H11 1176   2.601   5.979   9.060
   25MYC   6H11 1177   2.432   5.937   9.082
   25MYC   7H11 1178   2.363   6.143   8.942
   25MYC   8H11 1179   2.540   6.186   8.937
   25MYC   9H11 1180   2.576   5.966   8.815
   25MYC    H11 1181   2.927   6.304  10.248
   25MYC   0H12 1182   2.407   5.924   8.839
   25MYC   1H12 1183   2.335   6.098   8.694
   25MYC   2H12 1184   2.501   6.152   8.668
   25MYC   3H12 1185   2.565   5.950   8.560
   25MYC   4H12 1186   2.402   5.876   8.609
   25MYC   5H12 1187   2.294   6.067   8.469
   25MYC   6H12 1188   2.447   6.102   8.407
   25MYC   7H12 1189   2.473   5.876   8.307
   25MYC   8H12 1190   2.316   5.835   8.352
   25MYC   9H12 1191   2.218   6.013   8.220
   25MYC    H12 1192   2.858   6.542  10.320
   25MYC   0H13 1193   2.362   6.095   8.192
   25MYC   1H13 1194   2.452   5.870   8.070
   25MYC   2H13 1195   2.274   5.836   8.047
   25MYC   3H13 1196   2.267   6.072   7.958
   25MYC   4H13 1197   2.443   6.078   7.958
   25MYC   5H13 1198   2.430   5.845   7.826
   25MYC   6H13 1199   2.260   5.879   7.811
   25MYC   7H13 1200   2.306   5.975   7.616
   25MYC   8H13 1201   2.348   6.116   7.708
   25MYC   9H13 1202   2.595   6.044   7.692
   25MYC    H13 1203   2.689   6.493  10.332
   25MYC   0H14 1204   2.538   5.893   7.621
   25MYC   1H14 1205   2.434   5.998   7.432
   25MYC   2H14 1206   2.482   6.154   7.485
   25MYC   3H14 1207   2.720   6.114   7.462
   25MYC   4H14 1208   2.690   5.947   7.412
   25MYC   5H14 1209   2.545   6.037   7.229
   25MYC   6H14 1210   2.585   6.203   7.263
   25MYC   7H14 1211   2.836   6.134   7.222
   25MYC   8H14 1212   2.763   5.987   7.152
   25MYC   9H14 1213   2.643   6.110   6.981
   25MYC    H14 1214   2.767   6.302  10.488
   25MYC   0H15 1215   2.733   6.259   7.029
   25MYC   1H15 1216   2.941   6.117   7.009
   25MYC   2H15 1217   2.844   6.011   6.901
   25MYC   3H15 1218   2.956   6.279   6.843
   25MYC   4H15 1219   2.790   6.245   6.784
   25MYC   5H15 1220   2.932   6.149   6.734
   25MYC   6H15 1221   3.048   6.755   9.713
   25MYC    H15 1222   2.928   6.373  10.488
   25MYC    H16 1223   2.820   6.591  10.565
   25MYC    H17 1224   2.677   6.492  10.609
   25MYC    H18 1225   2.953   6.442  10.717
   25MYC    H19 1226   2.847   6.544  10.798
   25MYC    H20 1227   2.674   6.349  10.803
   25MYC    H21 1228   2.797   6.243  10.755
   25MYC    H22 1229   2.930   6.308  10.961
   25MYC    H23 1230   2.804   6.430  10.996
   25MYC    H24 1231   2.641   6.249  10.997
   25MYC    H25 1232   2.773   6.126  10.977
   25MYC    H26 1233   2.873   6.204  11.203
   25MYC    H27 1234   2.747   6.320  11.207
   25MYC    H28 1235   2.653   6.031  11.238
   25MYC    H29 1236   2.696   6.143  11.363
   25MYC    H30 1237   2.503   6.298  11.288
   25MYC    H31 1238   2.486   6.064  11.090
   25MYC    H32 1239   2.324   6.144  11.342
   25MYC    H33 1240   2.436   5.997  11.318
   25MYC    H34 1241   2.831   6.335   9.490
   25MYC    H35 1242   2.746   6.485   9.504
   25MYC    H36 1243   2.912   6.608   9.379
   25MYC    H37 1244   3.024   6.468   9.361
   25MYC    H38 1245   2.857   6.339   9.243
   25MYC    H39 1246   2.747   6.476   9.244
   25MYC    H40 1247   2.936   6.625   9.145
   25MYC    H41 1248   3.023   6.469   9.116
   25MYC    H42 1249   2.810   6.399   8.974
   25MYC    H43 1250   2.752   6.553   8.997
   25MYC    H44 1251   2.988   6.617   8.893
   25MYC    H45 1252   2.991   6.448   8.836
   25MYC    H46 1253   2.756   6.512   8.732
   25MYC    H47 1254   2.805   6.676   8.761
   25MYC    H48 1255   3.027   6.642   8.635
   25MYC    H49 1256   2.970   6.477   8.602
   25MYC    H50 1257   2.780   6.595   8.472
   25MYC    H51 1258   2.855   6.748   8.507
   25MYC    H52 1259   3.058   6.685   8.382
   25MYC    H53 1260   2.994   6.513   8.364
   25MYC    H54 1261   2.786   6.609   8.245
   25MYC    H55 1262   2.870   6.764   8.245
   25MYC    H56 1263   3.066   6.637   8.108
   25MYC    H57 1264   2.952   6.511   8.108
   25MYC    H58 1265   2.780   6.648   8.010
   25MYC    H59 1266   2.880   6.792   7.995
   25MYC    H60 1267   3.036   6.665   7.859
   25MYC    H61 1268   2.919   6.523   7.860
   25MYC    H62 1269   2.772   6.669   7.721
   25MYC    H63 1270   2.875   6.812   7.748
   25MYC    H64 1271   3.040   6.739   7.610
   25MYC    H65 1272   3.006   6.568   7.632
   25MYC    H66 1273   2.824   6.559   7.503
   25MYC    H67 1274   2.789   6.737   7.488
   25MYC    H68 1275   3.031   6.738   7.376
   25MYC    H69 1276   3.008   6.562   7.365
   25MYC    H70 1277   2.782   6.623   7.239
   25MYC    H71 1278   2.863   6.784   7.233
   25MYC    H72 1279   3.062   6.616   7.146
   25MYC    H73 1280   2.919   6.518   7.094
   25MYC    H74 1281   2.849   6.744   6.981
   25MYC    H75 1282   3.007   6.806   7.009
   25MYC    H76 1283   3.098   6.636   6.831
   25MYC    H77 1284   2.956   6.545   6.864
   25MYC    H78 1285   2.814   6.723   6.772
   25MYC    H79 1286   2.942   6.829   6.726
   25MYC    H80 1287   2.864   6.662   6.538
   25MYC    H81 1288   2.933   6.534   6.638
   25MYC    H82 1289   3.045   6.651   6.585
   25MYC    H83 1290   2.233   6.228  11.125
   25MYC    H84 1291   2.367   6.328  11.069
   25MYC    H85 1292   2.246   6.092  10.922
   25MYC    H86 1293   2.209   6.253  10.903
   25MYC    H87 1294   2.450   6.297  10.831
   25MYC    H88 1295   2.493   6.126  10.857
   25MYC    H89 1296   2.290   6.066  10.702
   25MYC    H90 1297   2.300   6.236  10.646
   25MYC    H91 1298   2.520   6.220  10.575
   25MYC    H92 1299   2.515   6.036  10.607
   25MYC    H93 1300   2.334   6.002  10.463
   25MYC    H94 1301   2.333   6.172  10.415
   25MYC    H95 1302   2.572   6.157  10.339
   25MYC    H96 1303   2.561   5.980  10.357
   25MYC    H97 1304   2.389   5.966  10.197
   25MYC    H98 1305   2.365   6.138  10.186
   25MYC    H99 1306   2.594   6.175  10.107
   26MYC     C1 1307   3.398   6.571   9.556
   26MYC     C2 1308   3.387   6.494   9.688
   26MYC     O3 1309   3.268   6.417   9.696
   26MYC     C4 1310   3.413   6.581   9.812
   26MYC     C5 1311   3.460   6.504   9.937
   26MYC     C6 1312   3.351   6.486  10.043
   26MYC     C7 1313   3.337   6.614  10.128
   26MYC     C8 1314   3.270   6.595  10.265
   26MYC     C9 1315   3.297   6.708  10.366
   26MYC    C10 1316   3.268   6.661  10.509
   26MYC    C11 1317   3.310   6.753  10.624
   26MYC    C12 1318   3.352   6.665  10.743
   26MYC    C13 1319   3.385   6.755  10.863
   26MYC    C14 1320   3.456   6.670  10.970
   26MYC    C15 1321   3.455   6.738  11.109
   26MYC    C16 1322   3.543   6.660  11.208
   26MYC    C17 1323   3.502   6.515  11.227
   26MYC    C18 1324   3.570   6.405  11.148
   26MYC    C19 1325   3.601   6.423  11.294
   26MYC    C20 1326   3.411   6.459   9.451
   26MYC    C21 1327   3.456   6.509   9.313
   26MYC    C22 1328   3.401   6.425   9.196
   26MYC    C23 1329   3.472   6.453   9.062
   26MYC    C24 1330   3.388   6.413   8.940
   26MYC    C25 1331   3.465   6.410   8.807
   26MYC    C26 1332   3.370   6.414   8.686
   26MYC    C27 1333   3.454   6.424   8.558
   26MYC    C28 1334   3.368   6.399   8.433
   26MYC    C29 1335   3.454   6.392   8.306
   26MYC    C30 1336   3.398   6.476   8.190
   26MYC    C31 1337   3.472   6.444   8.059
   26MYC    C32 1338   3.445   6.561   7.963
   26MYC    C33 1339   3.516   6.535   7.829
   26MYC    C34 1340   3.471   6.631   7.717
   26MYC    C35 1341   3.522   6.579   7.581
   26MYC    C36 1342   3.460   6.644   7.457
   26MYC    C37 1343   3.494   6.563   7.331
   26MYC    C38 1344   3.439   6.625   7.201
   26MYC    C39 1345   3.444   6.532   7.079
   26MYC    C40 1346   3.390   6.605   6.955
   26MYC    C41 1347   3.386   6.509   6.835
   26MYC    C42 1348   3.379   6.594   6.707
   26MYC    C43 1349   3.380   6.504   6.583
   26MYC    C44 1350   3.484   6.288  11.103
   26MYC    C45 1351   3.548   6.206  10.990
   26MYC    C46 1352   3.530   6.262  10.848
   26MYC    C47 1353   3.623   6.208  10.738
   26MYC    C48 1354   3.599   6.259  10.595
   26MYC    C49 1355   3.681   6.189  10.486
   26MYC    C50 1356   3.641   6.243  10.348
   26MYC    C51 1357   3.714   6.164  10.237
   26MYC    C52 1358   3.679   6.212  10.095
   26MYC    C53 1359   3.777   6.165   9.986
   26MYC    C54 1360   3.712   6.178   9.847
   26MYC    C55 1361   3.807   6.143   9.732
   26MYC    C56 1362   3.743   6.161   9.593
   26MYC    C57 1363   3.835   6.152   9.470
   26MYC    C58 1364   3.763   6.168   9.337
   26MYC    C59 1365   3.707   6.051   9.260
   26MYC    C60 1366   3.831   6.121   9.211
   26MYC    C61 1367   3.822   6.208   9.086
   26MYC    C62 1368   3.794   6.128   8.957
   26MYC    C63 1369   3.824   6.205   8.827
   26MYC    C64 1370   3.771   6.133   8.703
   26MYC    C65 1371   3.836   6.173   8.569
   26MYC    C66 1372   3.776   6.093   8.452
   26MYC    C67 1373   3.820   6.168   8.325
   26MYC    C68 1374   3.760   6.108   8.197
   26MYC    C69 1375   3.815   6.175   8.070
   26MYC    C70 1376   3.722   6.143   7.952
   26MYC    C71 1377   3.763   6.206   7.818
   26MYC    C72 1378   3.670   6.162   7.704
   26MYC    C73 1379   3.740   6.177   7.567
   26MYC    C74 1380   3.645   6.139   7.452
   26MYC    C75 1381   3.710   6.120   7.314
   26MYC    C76 1382   3.622   6.136   7.189
   26MYC    C77 1383   3.697   6.098   7.061
   26MYC    C78 1384   3.613   6.133   6.937
   26MYC    C79 1385   3.667   6.087   6.801
   26MYC    C80 1386   3.570   6.120   6.686
   26MYC    C81 1387   3.288   6.672   9.528
   26MYC    O82 1388   3.206   6.668   9.438
   26MYC    O83 1389   3.303   6.785   9.600
   26MYC     H1 1390   3.490   6.629   9.569
   26MYC     H2 1391   3.473   6.425   9.688
   26MYC     H3 1392   3.223   6.437   9.780
   26MYC     H4 1393   3.496   6.644   9.780
   26MYC     H5 1394   3.326   6.641   9.841
   26MYC     H6 1395   3.510   6.409   9.914
   26MYC     H7 1396   3.541   6.562   9.982
   26MYC     H8 1397   3.252   6.469   9.998
   26MYC     H9 1398   3.370   6.404  10.113
   26MYC   0H10 1399   3.682   6.322  10.092
   26MYC   1H10 1400   3.874   6.215   9.995
   26MYC   2H10 1401   3.802   6.060  10.004
   26MYC   3H10 1402   3.631   6.104   9.839
   26MYC   4H10 1403   3.671   6.277   9.824
   26MYC   5H10 1404   3.892   6.213   9.734
   26MYC   6H10 1405   3.842   6.041   9.753
   26MYC   7H10 1406   3.672   6.079   9.580
   26MYC   8H10 1407   3.689   6.257   9.596
   26MYC   9H10 1408   3.903   6.237   9.487
   26MYC    H10 1409   3.439   6.654  10.133
   26MYC   0H11 1410   3.904   6.067   9.469
   26MYC   1H11 1411   3.707   6.260   9.323
   26MYC   2H11 1412   3.724   5.951   9.301
   26MYC   3H11 1413   3.609   6.074   9.219
   26MYC   4H11 1414   3.925   6.070   9.226
   26MYC   5H11 1415   3.749   6.288   9.103
   26MYC   6H11 1416   3.919   6.254   9.065
   26MYC   7H11 1417   3.861   6.041   8.960
   26MYC   8H11 1418   3.691   6.091   8.966
   26MYC   9H11 1419   3.776   6.304   8.821
   26MYC    H11 1420   3.284   6.687  10.066
   26MYC   0H12 1421   3.933   6.209   8.828
   26MYC   1H12 1422   3.794   6.027   8.722
   26MYC   2H12 1423   3.663   6.147   8.689
   26MYC   3H12 1424   3.832   6.281   8.551
   26MYC   4H12 1425   3.943   6.156   8.580
   26MYC   5H12 1426   3.791   5.985   8.445
   26MYC   6H12 1427   3.666   6.090   8.450
   26MYC   7H12 1428   3.800   6.276   8.322
   26MYC   8H12 1429   3.929   6.156   8.322
   26MYC   9H12 1430   3.780   6.000   8.191
   26MYC    H12 1431   3.162   6.582  10.255
   26MYC   0H13 1432   3.651   6.114   8.203
   26MYC   1H13 1433   3.834   6.282   8.084
   26MYC   2H13 1434   3.913   6.132   8.047
   26MYC   3H13 1435   3.709   6.036   7.935
   26MYC   4H13 1436   3.619   6.176   7.966
   26MYC   5H13 1437   3.761   6.315   7.830
   26MYC   6H13 1438   3.863   6.163   7.807
   26MYC   7H13 1439   3.627   6.062   7.716
   26MYC   8H13 1440   3.585   6.231   7.701
   26MYC   9H13 1441   3.768   6.281   7.546
   26MYC    H13 1442   3.317   6.501  10.299
   26MYC   0H14 1443   3.827   6.110   7.561
   26MYC   1H14 1444   3.602   6.041   7.472
   26MYC   2H14 1445   3.555   6.201   7.451
   26MYC   3H14 1446   3.787   6.198   7.308
   26MYC   4H14 1447   3.759   6.022   7.303
   26MYC   5H14 1448   3.531   6.076   7.201
   26MYC   6H14 1449   3.588   6.240   7.190
   26MYC   7H14 1450   3.793   6.151   7.056
   26MYC   8H14 1451   3.723   5.991   7.068
   26MYC   9H14 1452   3.512   6.091   6.951
   26MYC    H14 1453   3.402   6.741  10.364
   26MYC   0H15 1454   3.608   6.242   6.924
   26MYC   1H15 1455   3.761   6.138   6.778
   26MYC   2H15 1456   3.685   5.979   6.809
   26MYC   3H15 1457   3.548   6.227   6.689
   26MYC   4H15 1458   3.473   6.069   6.701
   26MYC   5H15 1459   3.612   6.098   6.587
   26MYC   6H15 1460   3.237   6.843   9.560
   26MYC    H15 1461   3.244   6.801  10.342
   26MYC    H16 1462   3.162   6.635  10.515
   26MYC    H17 1463   3.321   6.566  10.523
   26MYC    H18 1464   3.391   6.817  10.588
   26MYC    H19 1465   3.231   6.824  10.651
   26MYC    H20 1466   3.276   6.589  10.762
   26MYC    H21 1467   3.441   6.607  10.713
   26MYC    H22 1468   3.454   6.835  10.836
   26MYC    H23 1469   3.288   6.792  10.899
   26MYC    H24 1470   3.404   6.574  10.970
   26MYC    H25 1471   3.560   6.652  10.939
   26MYC    H26 1472   3.497   6.839  11.101
   26MYC    H27 1473   3.354   6.737  11.150
   26MYC    H28 1474   3.648   6.668  11.176
   26MYC    H29 1475   3.539   6.703  11.308
   26MYC    H30 1476   3.398   6.518  11.257
   26MYC    H31 1477   3.640   6.442  11.074
   26MYC    H32 1478   3.570   6.360  11.377
   26MYC    H33 1479   3.699   6.465  11.313
   26MYC    H34 1480   3.474   6.372   9.475
   26MYC    H35 1481   3.313   6.416   9.425
   26MYC    H36 1482   3.430   6.616   9.306
   26MYC    H37 1483   3.565   6.504   9.311
   26MYC    H38 1484   3.402   6.318   9.221
   26MYC    H39 1485   3.298   6.453   9.173
   26MYC    H40 1486   3.493   6.561   9.061
   26MYC    H41 1487   3.569   6.401   9.063
   26MYC    H42 1488   3.338   6.317   8.956
   26MYC    H43 1489   3.310   6.489   8.927
   26MYC    H44 1490   3.528   6.499   8.803
   26MYC    H45 1491   3.526   6.319   8.801
   26MYC    H46 1492   3.315   6.320   8.698
   26MYC    H47 1493   3.295   6.494   8.688
   26MYC    H48 1494   3.499   6.524   8.556
   26MYC    H49 1495   3.532   6.347   8.564
   26MYC    H50 1496   3.316   6.303   8.446
   26MYC    H51 1497   3.294   6.477   8.414
   26MYC    H52 1498   3.557   6.423   8.331
   26MYC    H53 1499   3.462   6.288   8.271
   26MYC    H54 1500   3.291   6.454   8.175
   26MYC    H55 1501   3.404   6.583   8.211
   26MYC    H56 1502   3.579   6.458   8.079
   26MYC    H57 1503   3.447   6.342   8.026
   26MYC    H58 1504   3.336   6.576   7.957
   26MYC    H59 1505   3.488   6.651   8.007
   26MYC    H60 1506   3.621   6.563   7.844
   26MYC    H61 1507   3.510   6.431   7.795
   26MYC    H62 1508   3.362   6.636   7.727
   26MYC    H63 1509   3.518   6.730   7.726
   26MYC    H64 1510   3.632   6.583   7.579
   26MYC    H65 1511   3.496   6.472   7.577
   26MYC    H66 1512   3.352   6.646   7.472
   26MYC    H67 1513   3.502   6.745   7.448
   26MYC    H68 1514   3.603   6.566   7.321
   26MYC    H69 1515   3.462   6.458   7.329
   26MYC    H70 1516   3.335   6.651   7.226
   26MYC    H71 1517   3.494   6.718   7.181
   26MYC    H72 1518   3.548   6.510   7.049
   26MYC    H73 1519   3.397   6.434   7.096
   26MYC    H74 1520   3.288   6.630   6.985
   26MYC    H75 1521   3.449   6.692   6.924
   26MYC    H76 1522   3.481   6.454   6.828
   26MYC    H77 1523   3.299   6.444   6.851
   26MYC    H78 1524   3.286   6.650   6.718
   26MYC    H79 1525   3.467   6.659   6.698
   26MYC    H80 1526   3.383   6.565   6.492
   26MYC    H81 1527   3.293   6.439   6.572
   26MYC    H82 1528   3.470   6.441   6.595
   26MYC    H83 1529   3.476   6.212  11.182
   26MYC    H84 1530   3.381   6.320  11.081
   26MYC    H85 1531   3.657   6.201  11.005
   26MYC    H86 1532   3.506   6.105  10.996
   26MYC    H87 1533   3.425   6.244  10.821
   26MYC    H88 1534   3.543   6.371  10.860
   26MYC    H89 1535   3.728   6.223  10.766
   26MYC    H90 1536   3.616   6.098  10.738
   26MYC    H91 1537   3.493   6.242  10.571
   26MYC    H92 1538   3.620   6.366  10.582
   26MYC    H93 1539   3.787   6.208  10.508
   26MYC    H94 1540   3.667   6.081  10.493
   26MYC    H95 1541   3.534   6.228  10.330
   26MYC    H96 1542   3.658   6.351  10.342
   26MYC    H97 1543   3.821   6.174  10.258
   26MYC    H98 1544   3.683   6.060  10.248
   26MYC    H99 1545   3.578   6.178  10.068
   27MYC     C1 1546   3.941   6.641   9.594
   27MYC     C2 1547   4.080   6.595   9.638
   27MYC     O3 1548   4.081   6.455   9.665
   27MYC     C4 1549   4.148   6.687   9.740
   27MYC     C5 1550   4.180   6.625   9.878
   27MYC     C6 1551   4.065   6.616   9.979
   27MYC     C7 1552   4.121   6.570  10.115
   27MYC     C8 1553   4.010   6.534  10.214
   27MYC     C9 1554   4.061   6.500  10.355
   27MYC    C10 1555   3.952   6.433  10.440
   27MYC    C11 1556   3.953   6.469  10.589
   27MYC    C12 1557   4.072   6.416  10.671
   27MYC    C13 1558   4.043   6.274  10.722
   27MYC    C14 1559   4.144   6.233  10.830
   27MYC    C15 1560   4.117   6.110  10.917
   27MYC    C16 1561   4.229   6.095  11.022
   27MYC    C17 1562   4.362   6.056  10.959
   27MYC    C18 1563   4.478   6.152  10.946
   27MYC    C19 1564   4.482   6.042  11.050
   27MYC    C20 1565   3.887   6.580   9.463
   27MYC    C21 1566   3.970   6.627   9.342
   27MYC    C22 1567   3.903   6.568   9.216
   27MYC    C23 1568   3.946   6.651   9.094
   27MYC    C24 1569   3.912   6.597   8.954
   27MYC    C25 1570   4.010   6.652   8.849
   27MYC    C26 1571   4.001   6.572   8.718
   27MYC    C27 1572   4.073   6.638   8.599
   27MYC    C28 1573   4.061   6.553   8.471
   27MYC    C29 1574   4.121   6.617   8.345
   27MYC    C30 1575   4.100   6.529   8.221
   27MYC    C31 1576   4.133   6.586   8.081
   27MYC    C32 1577   4.092   6.501   7.960
   27MYC    C33 1578   4.154   6.559   7.832
   27MYC    C34 1579   4.096   6.490   7.707
   27MYC    C35 1580   4.132   6.558   7.574
   27MYC    C36 1581   4.057   6.490   7.458
   27MYC    C37 1582   4.084   6.529   7.312
   27MYC    C38 1583   3.975   6.474   7.218
   27MYC    C39 1584   3.985   6.527   7.074
   27MYC    C40 1585   3.857   6.509   6.992
   27MYC    C41 1586   3.881   6.547   6.845
   27MYC    C42 1587   3.749   6.541   6.767
   27MYC    C43 1588   3.768   6.598   6.625
   27MYC    C44 1589   4.570   6.145  10.825
   27MYC    C45 1590   4.640   6.279  10.794
   27MYC    C46 1591   4.551   6.375  10.713
   27MYC    C47 1592   4.626   6.498  10.660
   27MYC    C48 1593   4.576   6.541  10.521
   27MYC    C49 1594   4.609   6.447  10.404
   27MYC    C50 1595   4.555   6.482  10.264
   27MYC    C51 1596   4.591   6.384  10.152
   27MYC    C52 1597   4.540   6.432  10.016
   27MYC    C53 1598   4.553   6.324   9.907
   27MYC    C54 1599   4.468   6.367   9.786
   27MYC    C55 1600   4.511   6.287   9.661
   27MYC    C56 1601   4.441   6.329   9.531
   27MYC    C57 1602   4.472   6.245   9.406
   27MYC    C58 1603   4.562   6.319   9.309
   27MYC    C59 1604   4.515   6.442   9.235
   27MYC    C60 1605   4.534   6.312   9.161
   27MYC    C61 1606   4.632   6.308   9.044
   27MYC    C62 1607   4.559   6.369   8.923
   27MYC    C63 1608   4.652   6.391   8.802
   27MYC    C64 1609   4.578   6.455   8.684
   27MYC    C65 1610   4.678   6.472   8.568
   27MYC    C66 1611   4.596   6.500   8.440
   27MYC    C67 1612   4.669   6.494   8.305
   27MYC    C68 1613   4.583   6.526   8.182
   27MYC    C69 1614   4.633   6.479   8.044
   27MYC    C70 1615   4.549   6.526   7.924
   27MYC    C71 1616   4.614   6.469   7.796
   27MYC    C72 1617   4.535   6.519   7.673
   27MYC    C73 1618   4.618   6.485   7.548
   27MYC    C74 1619   4.529   6.499   7.423
   27MYC    C75 1620   4.610   6.443   7.304
   27MYC    C76 1621   4.519   6.422   7.182
   27MYC    C77 1622   4.581   6.381   7.048
   27MYC    C78 1623   4.478   6.348   6.939
   27MYC    C79 1624   4.536   6.290   6.809
   27MYC    C80 1625   4.452   6.182   6.738
   27MYC    C81 1626   3.837   6.602   9.698
   27MYC    O82 1627   3.779   6.495   9.709
   27MYC    O83 1628   3.811   6.697   9.791
   27MYC     H1 1629   3.949   6.749   9.578
   27MYC     H2 1630   4.139   6.611   9.546
   27MYC     H3 1631   4.016   6.444   9.737
   27MYC     H4 1632   4.244   6.720   9.699
   27MYC     H5 1633   4.087   6.777   9.754
   27MYC     H6 1634   4.233   6.531   9.862
   27MYC     H7 1635   4.256   6.694   9.917
   27MYC     H8 1636   4.034   6.721   9.983
   27MYC     H9 1637   3.983   6.553   9.942
   27MYC   0H10 1638   4.595   6.520   9.981
   27MYC   1H10 1639   4.659   6.327   9.880
   27MYC   2H10 1640   4.518   6.226   9.942
   27MYC   3H10 1641   4.364   6.344   9.813
   27MYC   4H10 1642   4.494   6.472   9.769
   27MYC   5H10 1643   4.620   6.294   9.646
   27MYC   6H10 1644   4.492   6.181   9.679
   27MYC   7H10 1645   4.332   6.332   9.546
   27MYC   8H10 1646   4.459   6.436   9.514
   27MYC   9H10 1647   4.524   6.154   9.437
   27MYC    H10 1648   4.180   6.478  10.101
   27MYC   0H11 1649   4.377   6.223   9.355
   27MYC   1H11 1650   4.669   6.311   9.330
   27MYC   2H11 1651   4.416   6.484   9.250
   27MYC   3H11 1652   4.587   6.521   9.213
   27MYC   4H11 1653   4.442   6.261   9.134
   27MYC   5H11 1654   4.720   6.370   9.065
   27MYC   6H11 1655   4.670   6.208   9.020
   27MYC   7H11 1656   4.479   6.299   8.893
   27MYC   8H11 1657   4.507   6.461   8.952
   27MYC   9H11 1658   4.734   6.456   8.834
   27MYC    H11 1659   4.184   6.642  10.168
   27MYC   0H12 1660   4.681   6.290   8.771
   27MYC   1H12 1661   4.498   6.388   8.651
   27MYC   2H12 1662   4.537   6.552   8.713
   27MYC   3H12 1663   4.754   6.548   8.589
   27MYC   4H12 1664   4.733   6.381   8.544
   27MYC   5H12 1665   4.518   6.423   8.432
   27MYC   6H12 1666   4.555   6.600   8.456
   27MYC   7H12 1667   4.748   6.569   8.310
   27MYC   8H12 1668   4.722   6.398   8.298
   27MYC   9H12 1669   4.494   6.463   8.197
   27MYC    H12 1670   3.951   6.626  10.222
   27MYC   0H13 1671   4.546   6.629   8.184
   27MYC   1H13 1672   4.738   6.508   8.030
   27MYC   2H13 1673   4.640   6.369   8.047
   27MYC   3H13 1674   4.447   6.490   7.941
   27MYC   4H13 1675   4.542   6.635   7.918
   27MYC   5H13 1676   4.717   6.506   7.791
   27MYC   6H13 1677   4.624   6.360   7.800
   27MYC   7H13 1678   4.443   6.459   7.678
   27MYC   8H13 1679   4.516   6.627   7.667
   27MYC   9H13 1680   4.702   6.555   7.548
   27MYC    H13 1681   3.949   6.452  10.174
   27MYC   0H14 1682   4.657   6.382   7.555
   27MYC   1H14 1683   4.441   6.434   7.422
   27MYC   2H14 1684   4.508   6.602   7.394
   27MYC   3H14 1685   4.688   6.514   7.276
   27MYC   4H14 1686   4.657   6.350   7.338
   27MYC   5H14 1687   4.447   6.343   7.208
   27MYC   6H14 1688   4.473   6.521   7.173
   27MYC   7H14 1689   4.652   6.452   7.003
   27MYC   8H14 1690   4.643   6.292   7.064
   27MYC   9H14 1691   4.407   6.275   6.979
   27MYC    H14 1692   4.149   6.435  10.350
   27MYC   0H15 1693   4.422   6.436   6.904
   27MYC   1H15 1694   4.555   6.365   6.731
   27MYC   2H15 1695   4.631   6.239   6.830
   27MYC   3H15 1696   4.347   6.209   6.723
   27MYC   4H15 1697   4.452   6.086   6.790
   27MYC   5H15 1698   4.502   6.151   6.645
   27MYC   6H15 1699   3.737   6.659   9.841
   27MYC    H15 1700   4.102   6.589  10.405
   27MYC    H16 1701   3.854   6.467  10.406
   27MYC    H17 1702   3.959   6.323  10.430
   27MYC    H18 1703   3.948   6.579  10.595
   27MYC    H19 1704   3.854   6.442  10.628
   27MYC    H20 1705   4.167   6.430  10.618
   27MYC    H21 1706   4.078   6.478  10.762
   27MYC    H22 1707   3.939   6.262  10.756
   27MYC    H23 1708   4.062   6.207  10.637
   27MYC    H24 1709   4.239   6.201  10.784
   27MYC    H25 1710   4.155   6.314  10.904
   27MYC    H26 1711   4.028   6.121  10.981
   27MYC    H27 1712   4.092   6.018  10.862
   27MYC    H28 1713   4.249   6.189  11.075
   27MYC    H29 1714   4.200   6.018  11.094
   27MYC    H30 1715   4.349   5.979  10.884
   27MYC    H31 1716   4.455   6.251  10.983
   27MYC    H32 1717   4.539   5.951  11.037
   27MYC    H33 1718   4.470   6.081  11.151
   27MYC    H34 1719   3.875   6.471   9.470
   27MYC    H35 1720   3.788   6.625   9.447
   27MYC    H36 1721   3.971   6.736   9.336
   27MYC    H37 1722   4.073   6.593   9.358
   27MYC    H38 1723   3.939   6.465   9.209
   27MYC    H39 1724   3.794   6.554   9.217
   27MYC    H40 1725   3.898   6.748   9.108
   27MYC    H41 1726   4.053   6.675   9.096
   27MYC    H42 1727   3.924   6.488   8.954
   27MYC    H43 1728   3.808   6.624   8.931
   27MYC    H44 1729   3.979   6.756   8.834
   27MYC    H45 1730   4.115   6.652   8.881
   27MYC    H46 1731   4.034   6.468   8.732
   27MYC    H47 1732   3.898   6.547   8.691
   27MYC    H48 1733   4.024   6.735   8.587
   27MYC    H49 1734   4.181   6.652   8.615
   27MYC    H50 1735   4.103   6.453   8.491
   27MYC    H51 1736   3.955   6.544   8.447
   27MYC    H52 1737   4.071   6.715   8.341
   27MYC    H53 1738   4.227   6.637   8.364
   27MYC    H54 1739   4.167   6.448   8.250
   27MYC    H55 1740   4.002   6.482   8.214
   27MYC    H56 1741   4.089   6.686   8.075
   27MYC    H57 1742   4.242   6.601   8.079
   27MYC    H58 1743   4.128   6.397   7.969
   27MYC    H59 1744   3.982   6.501   7.954
   27MYC    H60 1745   4.132   6.666   7.833
   27MYC    H61 1746   4.262   6.544   7.826
   27MYC    H62 1747   4.144   6.391   7.697
   27MYC    H63 1748   3.988   6.474   7.717
   27MYC    H64 1749   4.107   6.664   7.588
   27MYC    H65 1750   4.240   6.545   7.562
   27MYC    H66 1751   4.078   6.382   7.464
   27MYC    H67 1752   3.950   6.511   7.476
   27MYC    H68 1753   4.083   6.639   7.306
   27MYC    H69 1754   4.182   6.499   7.275
   27MYC    H70 1755   3.980   6.365   7.225
   27MYC    H71 1756   3.879   6.503   7.262
   27MYC    H72 1757   3.996   6.636   7.080
   27MYC    H73 1758   4.074   6.486   7.024
   27MYC    H74 1759   3.812   6.408   6.994
   27MYC    H75 1760   3.786   6.582   7.034
   27MYC    H76 1761   3.925   6.648   6.844
   27MYC    H77 1762   3.951   6.475   6.800
   27MYC    H78 1763   3.715   6.437   6.756
   27MYC    H79 1764   3.669   6.596   6.817
   27MYC    H80 1765   3.692   6.561   6.555
   27MYC    H81 1766   3.858   6.568   6.570
   27MYC    H82 1767   3.753   6.706   6.619
   27MYC    H83 1768   4.642   6.063  10.841
   27MYC    H84 1769   4.508   6.110  10.742
   27MYC    H85 1770   4.671   6.326  10.888
   27MYC    H86 1771   4.727   6.262  10.730
   27MYC    H87 1772   4.508   6.313  10.633
   27MYC    H88 1773   4.466   6.414  10.770
   27MYC    H89 1774   4.603   6.574  10.737
   27MYC    H90 1775   4.732   6.472  10.653
   27MYC    H91 1776   4.468   6.562  10.525
   27MYC    H92 1777   4.611   6.642  10.499
   27MYC    H93 1778   4.717   6.428  10.403
   27MYC    H94 1779   4.571   6.348  10.433
   27MYC    H95 1780   4.446   6.474  10.256
   27MYC    H96 1781   4.580   6.586  10.240
   27MYC    H97 1782   4.699   6.365  10.153
   27MYC    H98 1783   4.547   6.284  10.167
   27MYC    H99 1784   4.435   6.464  10.023
   28MYC     C1 1785   4.808  -0.511   9.557
   28MYC     C2 1786   4.923  -0.441   9.630
   28MYC     O3 1787   5.041  -0.520   9.619
   28MYC     C4 1788   4.903  -0.395   9.775
   28MYC     C5 1789   5.010  -0.296   9.822
   28MYC     C6 1790   5.084  -0.343   9.948
   28MYC     C7 1791   5.008  -0.314  10.079
   28MYC     C8 1792   5.100  -0.333  10.200
   28MYC     C9 1793   5.043  -0.273  10.330
   28MYC    C10 1794   5.073  -0.370  10.447
   28MYC    C11 1795   4.989  -0.350  10.574
   28MYC    C12 1796   5.041  -0.232  10.658
   28MYC    C13 1797   5.021  -0.241  10.810
   28MYC    C14 1798   5.073  -0.117  10.883
   28MYC    C15 1799   5.029  -0.115  11.031
   28MYC    C16 1800   5.079  -0.000  11.120
   28MYC    C17 1801   5.231  -0.010  11.133
   28MYC    C18 1802   5.326   0.088  11.069
   28MYC    C19 1803   5.292   0.101  11.215
   28MYC    C20 1804   4.834  -0.528   9.406
   28MYC    C21 1805   4.884  -0.407   9.327
   28MYC    C22 1806   4.865  -0.427   9.175
   28MYC    C23 1807   4.937  -0.329   9.081
   28MYC    C24 1808   4.916  -0.367   8.934
   28MYC    C25 1809   4.988  -0.269   8.839
   28MYC    C26 1810   4.960  -0.288   8.689
   28MYC    C27 1811   5.017  -0.186   8.589
   28MYC    C28 1812   4.973  -0.225   8.447
   28MYC    C29 1813   5.038  -0.140   8.336
   28MYC    C30 1814   5.004  -0.186   8.193
   28MYC    C31 1815   5.062  -0.109   8.073
   28MYC    C32 1816   4.984  -0.139   7.944
   28MYC    C33 1817   5.050  -0.073   7.823
   28MYC    C34 1818   4.996  -0.120   7.687
   28MYC    C35 1819   5.086  -0.085   7.568
   28MYC    C36 1820   5.041  -0.159   7.441
   28MYC    C37 1821   5.102  -0.113   7.307
   28MYC    C38 1822   5.049  -0.179   7.179
   28MYC    C39 1823   5.110  -0.102   7.061
   28MYC    C40 1824   5.086  -0.178   6.929
   28MYC    C41 1825   5.178  -0.129   6.815
   28MYC    C42 1826   5.105  -0.142   6.680
   28MYC    C43 1827   5.175  -0.055   6.574
   28MYC    C44 1828   5.463   0.043  11.019
   28MYC    C45 1829   5.541   0.120  10.911
   28MYC    C46 1830   5.481   0.115  10.769
   28MYC    C47 1831   5.591   0.151  10.667
   28MYC    C48 1832   5.545   0.142  10.521
   28MYC    C49 1833   5.652   0.183  10.419
   28MYC    C50 1834   5.599   0.173  10.275
   28MYC    C51 1835   5.708   0.201  10.171
   28MYC    C52 1836   5.649   0.203  10.029
   28MYC    C53 1837   5.748   0.182   9.913
   28MYC    C54 1838   5.682   0.207   9.776
   28MYC    C55 1839   5.778   0.214   9.656
   28MYC    C56 1840   5.730   0.257   9.516
   28MYC    C57 1841   5.835   0.230   9.408
   28MYC    C58 1842   5.789   0.291   9.276
   28MYC    C59 1843   5.670   0.228   9.207
   28MYC    C60 1844   5.808   0.213   9.148
   28MYC    C61 1845   5.849   0.272   9.014
   28MYC    C62 1846   5.788   0.203   8.891
   28MYC    C63 1847   5.645   0.249   8.857
   28MYC    C64 1848   5.577   0.174   8.741
   28MYC    C65 1849   5.619   0.221   8.601
   28MYC    C66 1850   5.544   0.145   8.491
   28MYC    C67 1851   5.611   0.166   8.354
   28MYC    C68 1852   5.515   0.134   8.237
   28MYC    C69 1853   5.590   0.125   8.103
   28MYC    C70 1854   5.498   0.093   7.984
   28MYC    C71 1855   5.576   0.122   7.854
   28MYC    C72 1856   5.492   0.085   7.731
   28MYC    C73 1857   5.559   0.150   7.608
   28MYC    C74 1858   5.477   0.129   7.479
   28MYC    C75 1859   5.554   0.155   7.348
   28MYC    C76 1860   5.476   0.130   7.218
   28MYC    C77 1861   5.555   0.153   7.089
   28MYC    C78 1862   5.479   0.096   6.968
   28MYC    C79 1863   5.557   0.143   6.844
   28MYC    C80 1864   5.502   0.082   6.714
   28MYC    C81 1865   4.779  -0.641   9.632
   28MYC    O82 1866   4.834  -0.747   9.609
   28MYC    O83 1867   4.682  -0.630   9.725
   28MYC     H1 1868   4.722  -0.443   9.569
   28MYC     H2 1869   4.943  -0.349   9.573
   28MYC     H3 1870   5.105  -0.487   9.684
   28MYC     H4 1871   4.807  -0.348   9.799
   28MYC     H5 1872   4.897  -0.488   9.835
   28MYC     H6 1873   5.081  -0.279   9.741
   28MYC     H7 1874   4.960  -0.201   9.849
   28MYC     H8 1875   5.096  -0.452   9.945
   28MYC     H9 1876   5.184  -0.300   9.959
   28MYC   0H10 1877   5.605   0.303  10.020
   28MYC   1H10 1878   5.836   0.247   9.919
   28MYC   2H10 1879   5.795   0.083   9.919
   28MYC   3H10 1880   5.618   0.122   9.748
   28MYC   4H10 1881   5.626   0.301   9.772
   28MYC   5H10 1882   5.864   0.275   9.686
   28MYC   6H10 1883   5.816   0.112   9.644
   28MYC   7H10 1884   5.644   0.196   9.488
   28MYC   8H10 1885   5.709   0.365   9.514
   28MYC   9H10 1886   5.932   0.271   9.439
   28MYC    H10 1887   4.997  -0.205  10.072
   28MYC   0H11 1888   5.861   0.126   9.384
   28MYC   1H11 1889   5.812   0.397   9.267
   28MYC   2H11 1890   5.624   0.143   9.256
   28MYC   3H11 1891   5.598   0.292   9.156
   28MYC   4H11 1892   5.855   0.116   9.158
   28MYC   5H11 1893   5.813   0.375   9.008
   28MYC   6H11 1894   5.958   0.281   9.009
   28MYC   7H11 1895   5.849   0.224   8.802
   28MYC   8H11 1896   5.794   0.097   8.918
   28MYC   9H11 1897   5.587   0.227   8.947
   28MYC    H11 1898   4.917  -0.376  10.083
   28MYC   0H12 1899   5.647   0.358   8.844
   28MYC   1H12 1900   5.592   0.066   8.753
   28MYC   2H12 1901   5.473   0.198   8.765
   28MYC   3H12 1902   5.602   0.329   8.593
   28MYC   4H12 1903   5.724   0.192   8.585
   28MYC   5H12 1904   5.529   0.040   8.519
   28MYC   6H12 1905   5.442   0.187   8.493
   28MYC   7H12 1906   5.653   0.267   8.343
   28MYC   8H12 1907   5.702   0.105   8.343
   28MYC   9H12 1908   5.469   0.036   8.256
   28MYC    H12 1909   5.127  -0.439  10.209
   28MYC   0H13 1910   5.438   0.211   8.228
   28MYC   1H13 1911   5.632   0.226   8.096
   28MYC   2H13 1912   5.671   0.051   8.104
   28MYC   3H13 1913   5.454  -0.007   7.994
   28MYC   4H13 1914   5.409   0.157   7.979
   28MYC   5H13 1915   5.617   0.224   7.852
   28MYC   6H13 1916   5.671   0.067   7.854
   28MYC   7H13 1917   5.494  -0.024   7.723
   28MYC   8H13 1918   5.387   0.112   7.742
   28MYC   9H13 1919   5.569   0.257   7.630
   28MYC    H13 1920   5.200  -0.291  10.186
   28MYC   0H14 1921   5.660   0.108   7.603
   28MYC   1H14 1922   5.437   0.028   7.493
   28MYC   2H14 1923   5.389   0.193   7.481
   28MYC   3H14 1924   5.580   0.261   7.348
   28MYC   4H14 1925   5.648   0.099   7.354
   28MYC   5H14 1926   5.433   0.029   7.222
   28MYC   6H14 1927   5.397   0.206   7.224
   28MYC   7H14 1928   5.573   0.261   7.088
   28MYC   8H14 1929   5.650   0.100   7.104
   28MYC   9H14 1930   5.462  -0.012   6.971
   28MYC    H14 1931   5.090  -0.178  10.356
   28MYC   0H15 1932   5.379   0.141   6.971
   28MYC   1H15 1933   5.558   0.253   6.848
   28MYC   2H15 1934   5.662   0.110   6.850
   28MYC   3H15 1935   5.401   0.120   6.696
   28MYC   4H15 1936   5.505  -0.027   6.719
   28MYC   5H15 1937   5.569   0.106   6.631
   28MYC   6H15 1938   4.663  -0.724   9.740
   28MYC    H15 1939   4.934  -0.274  10.328
   28MYC    H16 1940   5.063  -0.476  10.422
   28MYC    H17 1941   5.177  -0.362  10.482
   28MYC    H18 1942   4.881  -0.355  10.554
   28MYC    H19 1943   5.007  -0.435  10.640
   28MYC    H20 1944   5.151  -0.232  10.650
   28MYC    H21 1945   5.019  -0.135  10.610
   28MYC    H22 1946   4.914  -0.255  10.831
   28MYC    H23 1947   5.061  -0.340  10.835
   28MYC    H24 1948   5.183  -0.115  10.887
   28MYC    H25 1949   5.046  -0.025  10.829
   28MYC    H26 1950   4.920  -0.105  11.035
   28MYC    H27 1951   5.051  -0.211  11.078
   28MYC    H28 1952   5.037   0.090  11.075
   28MYC    H29 1953   5.027  -0.013  11.216
   28MYC    H30 1954   5.271  -0.108  11.156
   28MYC    H31 1955   5.287   0.167  11.005
   28MYC    H32 1956   5.360   0.068  11.292
   28MYC    H33 1957   5.223   0.183  11.235
   28MYC    H34 1958   4.909  -0.607   9.392
   28MYC    H35 1959   4.742  -0.566   9.359
   28MYC    H36 1960   4.834  -0.314   9.358
   28MYC    H37 1961   4.991  -0.403   9.352
   28MYC    H38 1962   4.893  -0.530   9.150
   28MYC    H39 1963   4.760  -0.422   9.143
   28MYC    H40 1964   4.923  -0.222   9.100
   28MYC    H41 1965   5.044  -0.338   9.106
   28MYC    H42 1966   4.954  -0.467   8.911
   28MYC    H43 1967   4.809  -0.374   8.909
   28MYC    H44 1968   4.945  -0.169   8.855
   28MYC    H45 1969   5.096  -0.263   8.860
   28MYC    H46 1970   5.009  -0.385   8.671
   28MYC    H47 1971   4.851  -0.291   8.680
   28MYC    H48 1972   4.977  -0.087   8.611
   28MYC    H49 1973   5.126  -0.170   8.582
   28MYC    H50 1974   5.002  -0.330   8.429
   28MYC    H51 1975   4.864  -0.217   8.449
   28MYC    H52 1976   4.995  -0.039   8.338
   28MYC    H53 1977   5.146  -0.132   8.353
   28MYC    H54 1978   5.031  -0.292   8.185
   28MYC    H55 1979   4.895  -0.185   8.184
   28MYC    H56 1980   5.064  -0.001   8.093
   28MYC    H57 1981   5.167  -0.141   8.065
   28MYC    H58 1982   4.981  -0.248   7.926
   28MYC    H59 1983   4.883  -0.098   7.958
   28MYC    H60 1984   5.055   0.037   7.832
   28MYC    H61 1985   5.159  -0.088   7.826
   28MYC    H62 1986   4.974  -0.227   7.682
   28MYC    H63 1987   4.899  -0.070   7.680
   28MYC    H64 1988   5.088   0.024   7.550
   28MYC    H65 1989   5.193  -0.102   7.588
   28MYC    H66 1990   5.071  -0.263   7.454
   28MYC    H67 1991   4.932  -0.154   7.448
   28MYC    H68 1992   5.098  -0.003   7.302
   28MYC    H69 1993   5.209  -0.137   7.317
   28MYC    H70 1994   5.084  -0.283   7.172
   28MYC    H71 1995   4.939  -0.181   7.175
   28MYC    H72 1996   5.064  -0.003   7.058
   28MYC    H73 1997   5.216  -0.077   7.068
   28MYC    H74 1998   5.093  -0.286   6.947
   28MYC    H75 1999   4.980  -0.162   6.907
   28MYC    H76 2000   5.200  -0.023   6.830
   28MYC    H77 2001   5.267  -0.192   6.817
   28MYC    H78 2002   5.101  -0.248   6.652
   28MYC    H79 2003   4.999  -0.115   6.686
   28MYC    H80 2004   5.115  -0.073   6.485
   28MYC    H81 2005   5.277  -0.093   6.562
   28MYC    H82 2006   5.168   0.053   6.594
   28MYC    H83 2007   5.524   0.032  11.109
   28MYC    H84 2008   5.447  -0.057  10.977
   28MYC    H85 2009   5.558   0.225  10.939
   28MYC    H86 2010   5.641   0.076  10.903
   28MYC    H87 2011   5.442   0.016  10.741
   28MYC    H88 2012   5.405   0.192  10.754
   28MYC    H89 2013   5.627   0.255  10.669
   28MYC    H90 2014   5.687   0.101  10.684
   28MYC    H91 2015   5.508   0.041  10.498
   28MYC    H92 2016   5.452   0.200  10.510
   28MYC    H93 2017   5.683   0.285  10.441
   28MYC    H94 2018   5.746   0.127  10.432
   28MYC    H95 2019   5.551   0.075  10.260
   28MYC    H96 2020   5.520   0.249  10.267
   28MYC    H97 2021   5.751   0.301  10.185
   28MYC    H98 2022   5.786   0.124  10.172
   28MYC    H99 2023   5.567   0.132  10.015
   29MYC     C1 2024   6.279   6.333   9.539
   29MYC     C2 2025   6.179   6.438   9.588
   29MYC     O3 2026   6.229   6.572   9.581
   29MYC     C4 2027   6.116   6.417   9.727
   29MYC     C5 2028   6.191   6.460   9.854
   29MYC     C6 2029   6.117   6.404   9.977
   29MYC     C7 2030   6.177   6.445  10.112
   29MYC     C8 2031   6.119   6.366  10.230
   29MYC     C9 2032   6.188   6.392  10.366
   29MYC    C10 2033   6.212   6.262  10.444
   29MYC    C11 2034   6.265   6.287  10.586
   29MYC    C12 2035   6.151   6.319  10.683
   29MYC    C13 2036   6.193   6.342  10.830
   29MYC    C14 2037   6.087   6.294  10.930
   29MYC    C15 2038   6.118   6.333  11.076
   29MYC    C16 2039   6.078   6.222  11.174
   29MYC    C17 2040   5.931   6.210  11.211
   29MYC    C18 2041   5.836   6.141  11.116
   29MYC    C19 2042   5.872   6.076  11.247
   29MYC    C20 2043   6.328   6.379   9.401
   29MYC    C21 2044   6.219   6.405   9.295
   29MYC    C22 2045   6.283   6.424   9.157
   29MYC    C23 2046   6.179   6.424   9.044
   29MYC    C24 2047   6.251   6.446   8.910
   29MYC    C25 2048   6.155   6.471   8.793
   29MYC    C26 2049   6.226   6.489   8.657
   29MYC    C27 2050   6.137   6.456   8.537
   29MYC    C28 2051   6.215   6.481   8.407
   29MYC    C29 2052   6.138   6.439   8.281
   29MYC    C30 2053   6.217   6.463   8.151
   29MYC    C31 2054   6.137   6.437   8.023
   29MYC    C32 2055   6.224   6.459   7.898
   29MYC    C33 2056   6.144   6.423   7.771
   29MYC    C34 2057   6.224   6.454   7.643
   29MYC    C35 2058   6.148   6.412   7.516
   29MYC    C36 2059   6.232   6.420   7.388
   29MYC    C37 2060   6.158   6.369   7.264
   29MYC    C38 2061   6.244   6.349   7.138
   29MYC    C39 2062   6.156   6.338   7.012
   29MYC    C40 2063   6.239   6.292   6.891
   29MYC    C41 2064   6.148   6.252   6.773
   29MYC    C42 2065   6.220   6.201   6.647
   29MYC    C43 2066   6.121   6.192   6.530
   29MYC    C44 2067   5.691   6.179  11.091
   29MYC    C45 2068   5.636   6.149  10.950
   29MYC    C46 2069   5.713   6.219  10.837
   29MYC    C47 2070   5.644   6.203  10.701
   29MYC    C48 2071   5.725   6.255  10.582
   29MYC    C49 2072   5.641   6.209  10.461
   29MYC    C50 2073   5.708   6.231  10.324
   29MYC    C51 2074   5.610   6.223  10.206
   29MYC    C52 2075   5.679   6.245  10.071
   29MYC    C53 2076   5.577   6.246   9.956
   29MYC    C54 2077   5.650   6.223   9.822
   29MYC    C55 2078   5.564   6.246   9.697
   29MYC    C56 2079   5.639   6.212   9.567
   29MYC    C57 2080   5.567   6.252   9.437
   29MYC    C58 2081   5.642   6.190   9.320
   29MYC    C59 2082   5.763   6.267   9.272
   29MYC    C60 2083   5.644   6.248   9.180
   29MYC    C61 2084   5.650   6.156   9.059
   29MYC    C62 2085   5.701   6.232   8.935
   29MYC    C63 2086   5.749   6.149   8.815
   29MYC    C64 2087   5.747   6.232   8.685
   29MYC    C65 2088   5.817   6.164   8.566
   29MYC    C66 2089   5.782   6.240   8.438
   29MYC    C67 2090   5.803   6.169   8.303
   29MYC    C68 2091   5.751   6.243   8.179
   29MYC    C69 2092   5.755   6.151   8.055
   29MYC    C70 2093   5.711   6.221   7.926
   29MYC    C71 2094   5.738   6.136   7.801
   29MYC    C72 2095   5.733   6.214   7.668
   29MYC    C73 2096   5.755   6.116   7.552
   29MYC    C74 2097   5.788   6.186   7.419
   29MYC    C75 2098   5.710   6.121   7.304
   29MYC    C76 2099   5.767   6.156   7.165
   29MYC    C77 2100   5.671   6.133   7.047
   29MYC    C78 2101   5.739   6.169   6.914
   29MYC    C79 2102   5.645   6.171   6.793
   29MYC    C80 2103   5.726   6.222   6.673
   29MYC    C81 2104   6.400   6.319   9.631
   29MYC    O82 2105   6.499   6.391   9.629
   29MYC    O83 2106   6.386   6.216   9.718
   29MYC     H1 2107   6.231   6.236   9.522
   29MYC     H2 2108   6.088   6.437   9.527
   29MYC     H3 2109   6.287   6.582   9.659
   29MYC     H4 2110   6.017   6.464   9.725
   29MYC     H5 2111   6.101   6.308   9.729
   29MYC     H6 2112   6.297   6.433   9.848
   29MYC     H7 2113   6.184   6.569   9.862
   29MYC     H8 2114   6.013   6.438   9.965
   29MYC     H9 2115   6.108   6.295   9.964
   29MYC   0H10 2116   5.755   6.167  10.063
   29MYC   1H10 2117   5.498   6.174   9.979
   29MYC   2H10 2118   5.519   6.340   9.957
   29MYC   3H10 2119   5.734   6.293   9.819
   29MYC   4H10 2120   5.698   6.124   9.827
   29MYC   5H10 2121   5.481   6.176   9.710
   29MYC   6H10 2122   5.531   6.350   9.710
   29MYC   7H10 2123   5.741   6.251   9.570
   29MYC   8H10 2124   5.657   6.104   9.569
   29MYC   9H10 2125   5.462   6.219   9.437
   29MYC    H10 2126   6.286   6.432  10.104
   29MYC   0H11 2127   5.563   6.361   9.432
   29MYC   1H11 2128   5.657   6.082   9.324
   29MYC   2H11 2129   5.781   6.361   9.324
   29MYC   3H11 2130   5.849   6.203   9.256
   29MYC   4H11 2131   5.581   6.334   9.161
   29MYC   5H11 2132   5.719   6.072   9.079
   29MYC   6H11 2133   5.548   6.121   9.040
   29MYC   7H11 2134   5.615   6.295   8.908
   29MYC   8H11 2135   5.780   6.301   8.964
   29MYC   9H11 2136   5.848   6.108   8.836
   29MYC    H11 2137   6.157   6.551  10.133
   29MYC   0H12 2138   5.687   6.060   8.799
   29MYC   1H12 2139   5.642   6.251   8.660
   29MYC   2H12 2140   5.798   6.328   8.700
   29MYC   3H12 2141   5.924   6.181   8.584
   29MYC   4H12 2142   5.794   6.057   8.559
   29MYC   5H12 2143   5.682   6.286   8.430
   29MYC   6H12 2144   5.835   6.336   8.439
   29MYC   7H12 2145   5.902   6.126   8.287
   29MYC   8H12 2146   5.743   6.076   8.309
   29MYC   9H12 2147   5.649   6.284   8.184
   29MYC    H12 2148   6.011   6.383  10.237
   29MYC   0H13 2149   5.822   6.324   8.159
   29MYC   1H13 2150   5.857   6.111   8.045
   29MYC   2H13 2151   5.696   6.059   8.067
   29MYC   3H13 2152   5.604   6.247   7.929
   29MYC   4H13 2153   5.771   6.313   7.918
   29MYC   5H13 2154   5.836   6.089   7.807
   29MYC   6H13 2155   5.672   6.048   7.794
   29MYC   7H13 2156   5.639   6.271   7.659
   29MYC   8H13 2157   5.807   6.295   7.674
   29MYC   9H13 2158   5.831   6.038   7.566
   29MYC    H13 2159   6.133   6.261  10.201
   29MYC   0H14 2160   5.662   6.059   7.541
   29MYC   1H14 2161   5.769   6.292   7.438
   29MYC   2H14 2162   5.894   6.167   7.396
   29MYC   3H14 2163   5.721   6.012   7.308
   29MYC   4H14 2164   5.605   6.150   7.318
   29MYC   5H14 2165   5.797   6.261   7.159
   29MYC   6H14 2166   5.862   6.107   7.142
   29MYC   7H14 2167   5.649   6.025   7.052
   29MYC   8H14 2168   5.578   6.189   7.063
   29MYC   9H14 2169   5.785   6.268   6.921
   29MYC    H14 2170   6.288   6.433  10.347
   29MYC   0H15 2171   5.829   6.107   6.901
   29MYC   1H15 2172   5.625   6.064   6.777
   29MYC   2H15 2173   5.559   6.235   6.816
   29MYC   3H15 2174   5.830   6.188   6.674
   29MYC   4H15 2175   5.725   6.331   6.684
   29MYC   5H15 2176   5.691   6.189   6.574
   29MYC   6H15 2177   6.471   6.201   9.764
   29MYC    H15 2178   6.136   6.466  10.428
   29MYC    H16 2179   6.117   6.206  10.447
   29MYC    H17 2180   6.271   6.185  10.391
   29MYC    H18 2181   6.323   6.199  10.616
   29MYC    H19 2182   6.344   6.363  10.592
   29MYC    H20 2183   6.103   6.414  10.658
   29MYC    H21 2184   6.088   6.229  10.677
   29MYC    H22 2185   6.291   6.296  10.849
   29MYC    H23 2186   6.220   6.448  10.835
   29MYC    H24 2187   5.993   6.342  10.899
   29MYC    H25 2188   6.079   6.186  10.917
   29MYC    H26 2189   6.226   6.351  11.081
   29MYC    H27 2190   6.068   6.428  11.101
   29MYC    H28 2191   6.116   6.125  11.137
   29MYC    H29 2192   6.139   6.253  11.259
   29MYC    H30 2193   5.891   6.295  11.264
   29MYC    H31 2194   5.876   6.091  11.029
   29MYC    H32 2195   5.796   6.079  11.325
   29MYC    H33 2196   5.937   5.989  11.242
   29MYC    H34 2197   6.385   6.473   9.400
   29MYC    H35 2198   6.399   6.310   9.355
   29MYC    H36 2199   6.156   6.315   9.296
   29MYC    H37 2200   6.161   6.497   9.314
   29MYC    H38 2201   6.344   6.515   9.150
   29MYC    H39 2202   6.343   6.333   9.141
   29MYC    H40 2203   6.119   6.332   9.044
   29MYC    H41 2204   6.116   6.506   9.079
   29MYC    H42 2205   6.320   6.531   8.924
   29MYC    H43 2206   6.310   6.354   8.901
   29MYC    H44 2207   6.082   6.388   8.792
   29MYC    H45 2208   6.096   6.562   8.810
   29MYC    H46 2209   6.278   6.585   8.641
   29MYC    H47 2210   6.316   6.427   8.658
   29MYC    H48 2211   6.112   6.349   8.545
   29MYC    H49 2212   6.049   6.521   8.539
   29MYC    H50 2213   6.246   6.586   8.403
   29MYC    H51 2214   6.307   6.422   8.417
   29MYC    H52 2215   6.117   6.332   8.294
   29MYC    H53 2216   6.042   6.491   8.274
   29MYC    H54 2217   6.253   6.567   8.154
   29MYC    H55 2218   6.308   6.402   8.146
   29MYC    H56 2219   6.094   6.337   8.032
   29MYC    H57 2220   6.048   6.502   8.023
   29MYC    H58 2221   6.251   6.566   7.892
   29MYC    H59 2222   6.317   6.402   7.904
   29MYC    H60 2223   6.133   6.314   7.773
   29MYC    H61 2224   6.049   6.477   7.771
   29MYC    H62 2225   6.250   6.561   7.647
   29MYC    H63 2226   6.323   6.408   7.648
   29MYC    H64 2227   6.094   6.316   7.522
   29MYC    H65 2228   6.061   6.478   7.510
   29MYC    H66 2229   6.282   6.516   7.371
   29MYC    H67 2230   6.313   6.346   7.395
   29MYC    H68 2231   6.097   6.280   7.282
   29MYC    H69 2232   6.085   6.448   7.243
   29MYC    H70 2233   6.308   6.436   7.120
   29MYC    H71 2234   6.308   6.260   7.148
   29MYC    H72 2235   6.067   6.276   7.029
   29MYC    H73 2236   6.103   6.428   6.981
   29MYC    H74 2237   6.310   6.370   6.862
   29MYC    H75 2238   6.302   6.205   6.912
   29MYC    H76 2239   6.075   6.179   6.809
   29MYC    H77 2240   6.097   6.344   6.744
   29MYC    H78 2241   6.296   6.277   6.625
   29MYC    H79 2242   6.261   6.101   6.666
   29MYC    H80 2243   6.169   6.202   6.432
   29MYC    H81 2244   6.045   6.272   6.530
   29MYC    H82 2245   6.065   6.098   6.528
   29MYC    H83 2246   5.620   6.125  11.154
   29MYC    H84 2247   5.677   6.286  11.115
   29MYC    H85 2248   5.623   6.040  10.937
   29MYC    H86 2249   5.531   6.179  10.938
   29MYC    H87 2250   5.716   6.327  10.854
   29MYC    H88 2251   5.816   6.183  10.827
   29MYC    H89 2252   5.621   6.096  10.686
   29MYC    H90 2253   5.548   6.256  10.705
   29MYC    H91 2254   5.733   6.364  10.580
   29MYC    H92 2255   5.825   6.209  10.583
   29MYC    H93 2256   5.610   6.104  10.471
   29MYC    H94 2257   5.545   6.261  10.468
   29MYC    H95 2258   5.757   6.329  10.311
   29MYC    H96 2259   5.783   6.152  10.313
   29MYC    H97 2260   5.575   6.119  10.211
   29MYC    H98 2261   5.521   6.286  10.213
   29MYC    H99 2262   5.728   6.344  10.072
   30MYC     C1 2263   7.087   0.786   9.549
   30MYC     C2 2264   7.082   0.837   9.695
   30MYC     O3 2265   7.211   0.869   9.745
   30MYC     C4 2266   7.010   0.738   9.789
   30MYC     C5 2267   6.950   0.800   9.916
   30MYC     C6 2268   7.045   0.864  10.018
   30MYC     C7 2269   7.060   0.789  10.152
   30MYC     C8 2270   7.122   0.876  10.263
   30MYC     C9 2271   7.025   0.977  10.326
   30MYC    C10 2272   6.985   0.955  10.473
   30MYC    C11 2273   6.890   0.837  10.503
   30MYC    C12 2274   6.829   0.839  10.644
   30MYC    C13 2275   6.931   0.823  10.757
   30MYC    C14 2276   6.858   0.815  10.892
   30MYC    C15 2277   6.941   0.756  11.008
   30MYC    C16 2278   6.858   0.705  11.126
   30MYC    C17 2279   6.773   0.814  11.190
   30MYC    C18 2280   6.635   0.836  11.132
   30MYC    C19 2281   6.651   0.790  11.275
   30MYC    C20 2282   7.147   0.893   9.456
   30MYC    C21 2283   7.080   0.906   9.318
   30MYC    C22 2284   7.078   0.773   9.240
   30MYC    C23 2285   6.996   0.786   9.111
   30MYC    C24 2286   6.993   0.659   9.024
   30MYC    C25 2287   6.899   0.681   8.904
   30MYC    C26 2288   6.962   0.750   8.782
   30MYC    C27 2289   6.865   0.757   8.663
   30MYC    C28 2290   6.909   0.685   8.534
   30MYC    C29 2291   6.815   0.707   8.415
   30MYC    C30 2292   6.882   0.648   8.290
   30MYC    C31 2293   6.807   0.706   8.169
   30MYC    C32 2294   6.870   0.653   8.039
   30MYC    C33 2295   6.794   0.700   7.914
   30MYC    C34 2296   6.864   0.650   7.787
   30MYC    C35 2297   6.804   0.671   7.647
   30MYC    C36 2298   6.896   0.628   7.531
   30MYC    C37 2299   6.827   0.643   7.394
   30MYC    C38 2300   6.899   0.573   7.278
   30MYC    C39 2301   6.836   0.620   7.145
   30MYC    C40 2302   6.889   0.541   7.024
   30MYC    C41 2303   6.881   0.621   6.893
   30MYC    C42 2304   6.948   0.539   6.781
   30MYC    C43 2305   6.913   0.598   6.643
   30MYC    C44 2306   6.580   0.974  11.099
   30MYC    C45 2307   6.453   0.961  11.013
   30MYC    C46 2308   6.483   0.931  10.865
   30MYC    C47 2309   6.369   0.935  10.762
   30MYC    C48 2310   6.412   0.873  10.628
   30MYC    C49 2311   6.315   0.890  10.510
   30MYC    C50 2312   6.351   0.805  10.387
   30MYC    C51 2313   6.421   0.879  10.273
   30MYC    C52 2314   6.413   0.800  10.141
   30MYC    C53 2315   6.481   0.874  10.024
   30MYC    C54 2316   6.476   0.794   9.893
   30MYC    C55 2317   6.519   0.871   9.768
   30MYC    C56 2318   6.523   0.796   9.633
   30MYC    C57 2319   6.530   0.889   9.511
   30MYC    C58 2320   6.503   0.809   9.384
   30MYC    C59 2321   6.618   0.755   9.303
   30MYC    C60 2322   6.545   0.878   9.256
   30MYC    C61 2323   6.445   0.866   9.142
   30MYC    C62 2324   6.509   0.827   9.008
   30MYC    C63 2325   6.411   0.842   8.890
   30MYC    C64 2326   6.470   0.792   8.758
   30MYC    C65 2327   6.385   0.845   8.641
   30MYC    C66 2328   6.459   0.820   8.509
   30MYC    C67 2329   6.372   0.863   8.389
   30MYC    C68 2330   6.451   0.854   8.257
   30MYC    C69 2331   6.359   0.846   8.134
   30MYC    C70 2332   6.427   0.825   7.998
   30MYC    C71 2333   6.333   0.850   7.879
   30MYC    C72 2334   6.397   0.835   7.741
   30MYC    C73 2335   6.292   0.825   7.629
   30MYC    C74 2336   6.359   0.798   7.493
   30MYC    C75 2337   6.264   0.817   7.373
   30MYC    C76 2338   6.337   0.843   7.241
   30MYC    C77 2339   6.252   0.850   7.113
   30MYC    C78 2340   6.334   0.803   6.992
   30MYC    C79 2341   6.259   0.815   6.858
   30MYC    C80 2342   6.352   0.788   6.739
   30MYC    C81 2343   7.148   0.647   9.536
   30MYC    O82 2344   7.266   0.635   9.509
   30MYC    O83 2345   7.064   0.547   9.501
   30MYC     H1 2346   6.982   0.774   9.522
   30MYC     H2 2347   7.029   0.932   9.688
   30MYC     H3 2348   7.277   0.831   9.685
   30MYC     H4 2349   6.928   0.682   9.743
   30MYC     H5 2350   7.088   0.667   9.816
   30MYC     H6 2351   6.872   0.875   9.896
   30MYC     H7 2352   6.895   0.723   9.971
   30MYC     H8 2353   7.145   0.884   9.978
   30MYC     H9 2354   7.003   0.964  10.037
   30MYC   0H10 2355   6.309   0.791  10.108
   30MYC   1H10 2356   6.433   0.973  10.024
   30MYC   2H10 2357   6.583   0.898  10.056
   30MYC   3H10 2358   6.538   0.706   9.915
   30MYC   4H10 2359   6.377   0.752   9.869
   30MYC   5H10 2360   6.455   0.960   9.756
   30MYC   6H10 2361   6.612   0.926   9.787
   30MYC   7H10 2362   6.611   0.731   9.631
   30MYC   8H10 2363   6.433   0.734   9.630
   30MYC   9H10 2364   6.456   0.969   9.522
   30MYC    H10 2365   6.961   0.756  10.184
   30MYC   0H11 2366   6.628   0.938   9.507
   30MYC   1H11 2367   6.405   0.763   9.383
   30MYC   2H11 2368   6.715   0.773   9.348
   30MYC   3H11 2369   6.602   0.658   9.256
   30MYC   4H11 2370   6.594   0.975   9.268
   30MYC   5H11 2371   6.375   0.783   9.156
   30MYC   6H11 2372   6.391   0.961   9.142
   30MYC   7H11 2373   6.598   0.887   8.984
   30MYC   8H11 2374   6.550   0.725   9.010
   30MYC   9H11 2375   6.319   0.788   8.917
   30MYC    H11 2376   7.122   0.700  10.137
   30MYC   0H12 2377   6.386   0.949   8.887
   30MYC   1H12 2378   6.572   0.830   8.742
   30MYC   2H12 2379   6.468   0.682   8.753
   30MYC   3H12 2380   6.287   0.799   8.629
   30MYC   4H12 2381   6.369   0.952   8.659
   30MYC   5H12 2382   6.555   0.871   8.522
   30MYC   6H12 2383   6.483   0.714   8.513
   30MYC   7H12 2384   6.275   0.812   8.387
   30MYC   8H12 2385   6.347   0.969   8.396
   30MYC   9H12 2386   6.510   0.945   8.240
   30MYC    H12 2387   7.151   0.815  10.350
   30MYC   0H13 2388   6.519   0.768   8.263
   30MYC   1H13 2389   6.278   0.772   8.143
   30MYC   2H13 2390   6.308   0.943   8.131
   30MYC   3H13 2391   6.525   0.874   7.990
   30MYC   4H13 2392   6.457   0.721   7.982
   30MYC   5H13 2393   6.250   0.779   7.896
   30MYC   6H13 2394   6.300   0.953   7.895
   30MYC   7H13 2395   6.474   0.910   7.719
   30MYC   8H13 2396   6.454   0.741   7.737
   30MYC   9H13 2397   6.224   0.746   7.662
   30MYC    H13 2398   7.217   0.920  10.232
   30MYC   0H14 2399   6.236   0.920   7.624
   30MYC   1H14 2400   6.450   0.856   7.474
   30MYC   2H14 2401   6.399   0.696   7.502
   30MYC   3H14 2402   6.193   0.734   7.369
   30MYC   4H14 2403   6.200   0.904   7.391
   30MYC   5H14 2404   6.390   0.939   7.252
   30MYC   6H14 2405   6.411   0.762   7.230
   30MYC   7H14 2406   6.167   0.781   7.125
   30MYC   8H14 2407   6.214   0.953   7.105
   30MYC   9H14 2408   6.420   0.870   6.986
   30MYC    H14 2409   7.057   1.080  10.306
   30MYC   0H15 2410   6.368   0.700   7.006
   30MYC   1H15 2411   6.182   0.737   6.849
   30MYC   2H15 2412   6.214   0.915   6.854
   30MYC   3H15 2413   6.399   0.690   6.754
   30MYC   4H15 2414   6.426   0.866   6.719
   30MYC   5H15 2415   6.288   0.780   6.650
   30MYC   6H15 2416   7.112   0.469   9.468
   30MYC    H15 2417   6.930   0.982  10.270
   30MYC    H16 2418   7.075   0.943  10.534
   30MYC    H17 2419   6.932   1.049  10.496
   30MYC    H18 2420   6.809   0.847  10.430
   30MYC    H19 2421   6.949   0.746  10.488
   30MYC    H20 2422   6.767   0.929  10.654
   30MYC    H21 2423   6.759   0.754  10.647
   30MYC    H22 2424   6.985   0.728  10.748
   30MYC    H23 2425   7.007   0.900  10.741
   30MYC    H24 2426   6.816   0.911  10.923
   30MYC    H25 2427   6.783   0.736  10.880
   30MYC    H26 2428   7.006   0.673  10.979
   30MYC    H27 2429   7.008   0.834  11.048
   30MYC    H28 2430   6.788   0.630  11.085
   30MYC    H29 2431   6.929   0.662  11.198
   30MYC    H30 2432   6.825   0.907  11.213
   30MYC    H31 2433   6.620   0.760  11.056
   30MYC    H32 2434   6.613   0.858  11.351
   30MYC    H33 2435   6.624   0.686  11.293
   30MYC    H34 2436   7.144   0.986   9.513
   30MYC    H35 2437   7.255   0.872   9.445
   30MYC    H36 2438   6.982   0.954   9.314
   30MYC    H37 2439   7.138   0.977   9.260
   30MYC    H38 2440   7.179   0.735   9.217
   30MYC    H39 2441   7.031   0.699   9.305
   30MYC    H40 2442   6.891   0.802   9.138
   30MYC    H41 2443   7.021   0.865   9.039
   30MYC    H42 2444   7.094   0.632   8.993
   30MYC    H43 2445   6.952   0.577   9.084
   30MYC    H44 2446   6.860   0.584   8.872
   30MYC    H45 2447   6.812   0.734   8.947
   30MYC    H46 2448   6.992   0.852   8.811
   30MYC    H47 2449   7.056   0.698   8.760
   30MYC    H48 2450   6.765   0.718   8.684
   30MYC    H49 2451   6.837   0.862   8.649
   30MYC    H50 2452   7.005   0.731   8.507
   30MYC    H51 2453   6.913   0.578   8.558
   30MYC    H52 2454   6.717   0.660   8.430
   30MYC    H53 2455   6.793   0.815   8.410
   30MYC    H54 2456   6.988   0.676   8.281
   30MYC    H55 2457   6.869   0.539   8.285
   30MYC    H56 2458   6.704   0.669   8.179
   30MYC    H57 2459   6.804   0.816   8.162
   30MYC    H58 2460   6.968   0.701   8.031
   30MYC    H59 2461   6.883   0.544   8.038
   30MYC    H60 2462   6.692   0.658   7.912
   30MYC    H61 2463   6.780   0.809   7.912
   30MYC    H62 2464   6.960   0.700   7.772
   30MYC    H63 2465   6.896   0.546   7.795
   30MYC    H64 2466   6.713   0.610   7.643
   30MYC    H65 2467   6.779   0.776   7.631
   30MYC    H66 2468   6.994   0.676   7.525
   30MYC    H67 2469   6.918   0.521   7.538
   30MYC    H68 2470   6.725   0.603   7.403
   30MYC    H69 2471   6.814   0.750   7.375
   30MYC    H70 2472   7.003   0.608   7.277
   30MYC    H71 2473   6.883   0.465   7.282
   30MYC    H72 2474   6.729   0.600   7.149
   30MYC    H73 2475   6.851   0.727   7.125
   30MYC    H74 2476   6.996   0.530   7.043
   30MYC    H75 2477   6.851   0.441   7.001
   30MYC    H76 2478   6.775   0.641   6.872
   30MYC    H77 2479   6.945   0.710   6.888
   30MYC    H78 2480   7.057   0.536   6.795
   30MYC    H79 2481   6.909   0.436   6.787
   30MYC    H80 2482   6.976   0.547   6.569
   30MYC    H81 2483   6.942   0.703   6.653
   30MYC    H82 2484   6.806   0.586   6.628
   30MYC    H83 2485   6.566   1.034  11.189
   30MYC    H84 2486   6.654   1.029  11.040
   30MYC    H85 2487   6.378   0.898  11.063
   30MYC    H86 2488   6.405   1.059  11.013
   30MYC    H87 2489   6.561   0.995  10.823
   30MYC    H88 2490   6.519   0.827  10.864
   30MYC    H89 2491   6.282   0.882  10.802
   30MYC    H90 2492   6.333   1.038  10.750
   30MYC    H91 2493   6.510   0.916  10.604
   30MYC    H92 2494   6.426   0.766  10.646
   30MYC    H93 2495   6.210   0.876  10.540
   30MYC    H94 2496   6.313   0.998  10.487
   30MYC    H95 2497   6.417   0.723  10.417
   30MYC    H96 2498   6.256   0.772  10.345
   30MYC    H97 2499   6.373   0.977  10.258
   30MYC    H98 2500   6.529   0.896  10.287
   30MYC    H99 2501   6.445   0.696  10.154
   31MYC     C1 2502   1.201   0.274   9.692
   31MYC     C2 2503   1.083   0.355   9.750
   31MYC     O3 2504   1.119   0.487   9.786
   31MYC     C4 2505   1.027   0.271   9.866
   31MYC     C5 2506   0.925   0.349   9.950
   31MYC     C6 2507   0.999   0.419  10.065
   31MYC     C7 2508   1.046   0.325  10.177
   31MYC     C8 2509   1.166   0.381  10.255
   31MYC     C9 2510   1.182   0.308  10.389
   31MYC    C10 2511   1.308   0.344  10.468
   31MYC    C11 2512   1.310   0.309  10.618
   31MYC    C12 2513   1.215   0.393  10.705
   31MYC    C13 2514   1.279   0.409  10.844
   31MYC    C14 2515   1.184   0.468  10.950
   31MYC    C15 2516   1.241   0.467  11.093
   31MYC    C16 2517   1.121   0.497  11.184
   31MYC    C17 2518   1.100   0.648  11.194
   31MYC    C18 2519   0.970   0.710  11.148
   31MYC    C19 2520   1.004   0.707  11.295
   31MYC    C20 2521   1.243   0.328   9.554
   31MYC    C21 2522   1.132   0.325   9.447
   31MYC    C22 2523   1.193   0.349   9.308
   31MYC    C23 2524   1.093   0.331   9.192
   31MYC    C24 2525   1.155   0.339   9.052
   31MYC    C25 2526   1.063   0.343   8.928
   31MYC    C26 2527   1.131   0.311   8.794
   31MYC    C27 2528   1.032   0.347   8.682
   31MYC    C28 2529   1.103   0.332   8.547
   31MYC    C29 2530   1.007   0.365   8.431
   31MYC    C30 2531   1.087   0.366   8.300
   31MYC    C31 2532   1.014   0.403   8.170
   31MYC    C32 2533   1.091   0.375   8.040
   31MYC    C33 2534   1.011   0.411   7.913
   31MYC    C34 2535   1.085   0.390   7.780
   31MYC    C35 2536   1.026   0.456   7.654
   31MYC    C36 2537   1.110   0.418   7.531
   31MYC    C37 2538   1.044   0.457   7.398
   31MYC    C38 2539   1.130   0.405   7.281
   31MYC    C39 2540   1.074   0.458   7.147
   31MYC    C40 2541   1.171   0.427   7.032
   31MYC    C41 2542   1.129   0.495   6.901
   31MYC    C42 2543   1.212   0.440   6.784
   31MYC    C43 2544   1.180   0.510   6.651
   31MYC    C44 2545   0.981   0.845  11.080
   31MYC    C45 2546   0.903   0.845  10.947
   31MYC    C46 2547   0.993   0.789  10.835
   31MYC    C47 2548   0.962   0.858  10.702
   31MYC    C48 2549   1.030   0.796  10.579
   31MYC    C49 2550   1.036   0.887  10.455
   31MYC    C50 2551   1.065   0.805  10.328
   31MYC    C51 2552   1.116   0.894  10.213
   31MYC    C52 2553   1.123   0.821  10.078
   31MYC    C53 2554   1.175   0.910   9.964
   31MYC    C54 2555   1.153   0.844   9.827
   31MYC    C55 2556   1.227   0.915   9.712
   31MYC    C56 2557   1.211   0.833   9.582
   31MYC    C57 2558   1.289   0.892   9.463
   31MYC    C58 2559   1.254   0.824   9.331
   31MYC    C59 2560   1.324   0.834   9.199
   31MYC    C60 2561   1.190   0.900   9.218
   31MYC    C61 2562   1.078   0.853   9.126
   31MYC    C62 2563   1.098   0.882   8.976
   31MYC    C63 2564   0.972   0.856   8.892
   31MYC    C64 2565   1.009   0.851   8.743
   31MYC    C65 2566   0.882   0.854   8.656
   31MYC    C66 2567   0.923   0.833   8.509
   31MYC    C67 2568   0.830   0.883   8.398
   31MYC    C68 2569   0.884   0.863   8.256
   31MYC    C69 2570   0.785   0.902   8.145
   31MYC    C70 2571   0.814   0.811   8.024
   31MYC    C71 2572   0.758   0.871   7.894
   31MYC    C72 2573   0.818   0.808   7.767
   31MYC    C73 2574   0.769   0.880   7.640
   31MYC    C74 2575   0.822   0.813   7.511
   31MYC    C75 2576   0.755   0.846   7.377
   31MYC    C76 2577   0.845   0.784   7.269
   31MYC    C77 2578   0.798   0.820   7.127
   31MYC    C78 2579   0.895   0.785   7.014
   31MYC    C79 2580   0.869   0.861   6.883
   31MYC    C80 2581   0.956   0.806   6.769
   31MYC    C81 2582   1.323   0.272   9.784
   31MYC    O82 2583   1.417   0.349   9.782
   31MYC    O83 2584   1.326   0.162   9.863
   31MYC     H1 2585   1.176   0.171   9.665
   31MYC     H2 2586   1.005   0.359   9.673
   31MYC     H3 2587   1.211   0.494   9.817
   31MYC     H4 2588   0.981   0.177   9.834
   31MYC     H5 2589   1.106   0.231   9.931
   31MYC     H6 2590   0.873   0.428   9.895
   31MYC     H7 2591   0.856   0.273   9.990
   31MYC     H8 2592   1.090   0.473  10.035
   31MYC     H9 2593   0.943   0.502  10.109
   31MYC   0H10 2594   1.018   0.797  10.056
   31MYC   1H10 2595   1.130   1.010   9.964
   31MYC   2H10 2596   1.282   0.921   9.986
   31MYC   3H10 2597   1.180   0.738   9.828
   31MYC   4H10 2598   1.045   0.848   9.811
   31MYC   5H10 2599   1.184   1.015   9.700
   31MYC   6H10 2600   1.333   0.927   9.737
   31MYC   7H10 2601   1.249   0.731   9.591
   31MYC   8H10 2602   1.103   0.826   9.568
   31MYC   9H10 2603   1.261   0.997   9.452
   31MYC    H10 2604   0.964   0.313  10.249
   31MYC   0H11 2605   1.396   0.891   9.483
   31MYC   1H11 2606   1.205   0.728   9.347
   31MYC   2H11 2607   1.411   0.899   9.209
   31MYC   3H11 2608   1.336   0.742   9.141
   31MYC   4H11 2609   1.204   1.008   9.219
   31MYC   5H11 2610   1.079   0.744   9.140
   31MYC   6H11 2611   0.982   0.890   9.165
   31MYC   7H11 2612   1.138   0.984   8.973
   31MYC   8H11 2613   1.180   0.823   8.935
   31MYC   9H11 2614   0.927   0.758   8.913
   31MYC    H11 2615   1.074   0.226  10.140
   31MYC   0H12 2616   0.889   0.927   8.899
   31MYC   1H12 2617   1.065   0.943   8.718
   31MYC   2H12 2618   1.073   0.765   8.721
   31MYC   3H12 2619   0.811   0.773   8.673
   31MYC   4H12 2620   0.836   0.953   8.661
   31MYC   5H12 2621   1.018   0.887   8.501
   31MYC   6H12 2622   0.946   0.728   8.488
   31MYC   7H12 2623   0.736   0.826   8.404
   31MYC   8H12 2624   0.811   0.989   8.418
   31MYC   9H12 2625   0.980   0.916   8.245
   31MYC    H12 2626   1.256   0.380  10.191
   31MYC   0H13 2627   0.909   0.757   8.243
   31MYC   1H13 2628   0.682   0.895   8.181
   31MYC   2H13 2629   0.797   1.007   8.115
   31MYC   3H13 2630   0.922   0.814   8.010
   31MYC   4H13 2631   0.778   0.709   8.045
   31MYC   5H13 2632   0.648   0.864   7.896
   31MYC   6H13 2633   0.781   0.977   7.901
   31MYC   7H13 2634   0.926   0.825   7.765
   31MYC   8H13 2635   0.803   0.700   7.767
   31MYC   9H13 2636   0.660   0.865   7.638
   31MYC    H13 2637   1.158   0.488  10.276
   31MYC   0H14 2638   0.780   0.989   7.636
   31MYC   1H14 2639   0.929   0.833   7.510
   31MYC   2H14 2640   0.810   0.706   7.531
   31MYC   3H14 2641   0.654   0.805   7.365
   31MYC   4H14 2642   0.748   0.956   7.383
   31MYC   5H14 2643   0.947   0.822   7.284
   31MYC   6H14 2644   0.840   0.674   7.275
   31MYC   7H14 2645   0.701   0.772   7.109
   31MYC   8H14 2646   0.779   0.928   7.136
   31MYC   9H14 2647   1.002   0.801   7.035
   31MYC    H14 2648   1.092   0.333  10.448
   31MYC   0H15 2649   0.874   0.678   7.003
   31MYC   1H15 2650   0.764   0.845   6.854
   31MYC   2H15 2651   0.888   0.969   6.884
   31MYC   3H15 2652   0.929   0.700   6.760
   31MYC   4H15 2653   1.062   0.820   6.791
   31MYC   5H15 2654   0.935   0.862   6.677
   31MYC   6H15 2655   1.410   0.175   9.911
   31MYC    H15 2656   1.170   0.201  10.367
   31MYC    H16 2657   1.388   0.288  10.418
   31MYC    H17 2658   1.335   0.446  10.438
   31MYC    H18 2659   1.302   0.200  10.630
   31MYC    H19 2660   1.415   0.326  10.648
   31MYC    H20 2661   1.192   0.493  10.667
   31MYC    H21 2662   1.119   0.341  10.715
   31MYC    H22 2663   1.318   0.311  10.872
   31MYC    H23 2664   1.361   0.481  10.833
   31MYC    H24 2665   1.164   0.568  10.911
   31MYC    H25 2666   1.095   0.407  10.930
   31MYC    H26 2667   1.287   0.372  11.124
   31MYC    H27 2668   1.319   0.545  11.098
   31MYC    H28 2669   1.034   0.436  11.157
   31MYC    H29 2670   1.142   0.457  11.283
   31MYC    H30 2671   1.190   0.702  11.167
   31MYC    H31 2672   0.895   0.641  11.110
   31MYC    H32 2673   1.037   0.801  11.338
   31MYC    H33 2674   0.942   0.638  11.352
   31MYC    H34 2675   1.260   0.435   9.568
   31MYC    H35 2676   1.332   0.277   9.516
   31MYC    H36 2677   1.089   0.225   9.439
   31MYC    H37 2678   1.058   0.399   9.479
   31MYC    H38 2679   1.234   0.449   9.293
   31MYC    H39 2680   1.274   0.276   9.297
   31MYC    H40 2681   1.044   0.233   9.202
   31MYC    H41 2682   1.014   0.408   9.198
   31MYC    H42 2683   1.218   0.429   9.046
   31MYC    H43 2684   1.221   0.252   9.049
   31MYC    H44 2685   0.984   0.268   8.938
   31MYC    H45 2686   1.021   0.444   8.927
   31MYC    H46 2687   1.219   0.375   8.779
   31MYC    H47 2688   1.169   0.208   8.797
   31MYC    H48 2689   0.947   0.278   8.689
   31MYC    H49 2690   1.006   0.452   8.694
   31MYC    H50 2691   1.191   0.397   8.549
   31MYC    H51 2692   1.135   0.227   8.540
   31MYC    H52 2693   0.942   0.278   8.429
   31MYC    H53 2694   0.953   0.460   8.441
   31MYC    H54 2695   1.175   0.431   8.309
   31MYC    H55 2696   1.135   0.268   8.302
   31MYC    H56 2697   0.923   0.344   8.183
   31MYC    H57 2698   0.978   0.507   8.170
   31MYC    H58 2699   1.188   0.426   8.039
   31MYC    H59 2700   1.108   0.267   8.052
   31MYC    H60 2701   0.914   0.360   7.909
   31MYC    H61 2702   0.980   0.516   7.916
   31MYC    H62 2703   1.189   0.424   7.791
   31MYC    H63 2704   1.087   0.282   7.761
   31MYC    H64 2705   0.918   0.440   7.640
   31MYC    H65 2706   1.025   0.565   7.668
   31MYC    H66 2707   1.201   0.479   7.532
   31MYC    H67 2708   1.143   0.314   7.530
   31MYC    H68 2709   0.949   0.407   7.377
   31MYC    H69 2710   1.044   0.566   7.383
   31MYC    H70 2711   1.233   0.440   7.287
   31MYC    H71 2712   1.132   0.296   7.276
   31MYC    H72 2713   0.978   0.417   7.115
   31MYC    H73 2714   1.061   0.566   7.159
   31MYC    H74 2715   1.273   0.453   7.065
   31MYC    H75 2716   1.165   0.319   7.016
   31MYC    H76 2717   1.020   0.489   6.890
   31MYC    H77 2718   1.137   0.602   6.920
   31MYC    H78 2719   1.320   0.448   6.803
   31MYC    H79 2720   1.191   0.333   6.766
   31MYC    H80 2721   1.210   0.449   6.564
   31MYC    H81 2722   1.228   0.608   6.660
   31MYC    H82 2723   1.071   0.519   6.647
   31MYC    H83 2724   0.934   0.920  11.145
   31MYC    H84 2725   1.084   0.877  11.058
   31MYC    H85 2726   0.810   0.789  10.958
   31MYC    H86 2727   0.874   0.948  10.925
   31MYC    H87 2728   1.099   0.805  10.856
   31MYC    H88 2729   0.973   0.681  10.832
   31MYC    H89 2730   0.855   0.855  10.676
   31MYC    H90 2731   0.987   0.965  10.699
   31MYC    H91 2732   1.129   0.771  10.620
   31MYC    H92 2733   0.979   0.700  10.562
   31MYC    H93 2734   0.940   0.939  10.446
   31MYC    H94 2735   1.114   0.961  10.475
   31MYC    H95 2736   1.144   0.730  10.339
   31MYC    H96 2737   0.973   0.749  10.308
   31MYC    H97 2738   1.056   0.985  10.200
   31MYC    H98 2739   1.221   0.913  10.238
   31MYC    H99 2740   1.181   0.728  10.074
   32MYC     C1 2741   2.363   0.504   9.613
   32MYC     C2 2742   2.245   0.557   9.696
   32MYC     O3 2743   2.276   0.689   9.740
   32MYC     C4 2744   2.205   0.460   9.808
   32MYC     C5 2745   2.119   0.529   9.915
   32MYC     C6 2746   2.204   0.591  10.027
   32MYC     C7 2747   2.134   0.606  10.164
   32MYC     C8 2748   2.245   0.638  10.265
   32MYC     C9 2749   2.197   0.609  10.409
   32MYC    C10 2750   2.308   0.640  10.510
   32MYC    C11 2751   2.261   0.606  10.653
   32MYC    C12 2752   2.124   0.665  10.690
   32MYC    C13 2753   2.090   0.638  10.838
   32MYC    C14 2754   1.947   0.682  10.873
   32MYC    C15 2755   1.933   0.683  11.026
   32MYC    C16 2756   1.792   0.715  11.078
   32MYC    C17 2757   1.751   0.862  11.075
   32MYC    C18 2758   1.608   0.904  11.100
   32MYC    C19 2759   1.715   0.934  11.202
   32MYC    C20 2760   2.381   0.571   9.476
   32MYC    C21 2761   2.265   0.601   9.379
   32MYC    C22 2762   2.308   0.654   9.242
   32MYC    C23 2763   2.237   0.598   9.118
   32MYC    C24 2764   2.257   0.688   8.994
   32MYC    C25 2765   2.251   0.621   8.856
   32MYC    C26 2766   2.243   0.715   8.735
   32MYC    C27 2767   2.214   0.638   8.605
   32MYC    C28 2768   2.247   0.730   8.486
   32MYC    C29 2769   2.191   0.669   8.356
   32MYC    C30 2770   2.205   0.773   8.243
   32MYC    C31 2771   2.168   0.712   8.107
   32MYC    C32 2772   2.197   0.797   7.981
   32MYC    C33 2773   2.167   0.730   7.846
   32MYC    C34 2774   2.162   0.825   7.725
   32MYC    C35 2775   2.121   0.749   7.598
   32MYC    C36 2776   2.118   0.839   7.474
   32MYC    C37 2777   2.160   0.751   7.355
   32MYC    C38 2778   2.122   0.804   7.215
   32MYC    C39 2779   2.199   0.746   7.096
   32MYC    C40 2780   2.134   0.772   6.959
   32MYC    C41 2781   2.202   0.707   6.837
   32MYC    C42 2782   2.129   0.726   6.704
   32MYC    C43 2783   2.182   0.642   6.587
   32MYC    C44 2784   1.539   1.018  11.027
   32MYC    C45 2785   1.470   0.982  10.895
   32MYC    C46 2786   1.564   0.945  10.779
   32MYC    C47 2787   1.483   0.946  10.649
   32MYC    C48 2788   1.568   0.904  10.528
   32MYC    C49 2789   1.488   0.886  10.397
   32MYC    C50 2790   1.569   0.797  10.301
   32MYC    C51 2791   1.493   0.786  10.167
   32MYC    C52 2792   1.570   0.703  10.063
   32MYC    C53 2793   1.505   0.699   9.924
   32MYC    C54 2794   1.590   0.635   9.813
   32MYC    C55 2795   1.518   0.647   9.678
   32MYC    C56 2796   1.589   0.582   9.558
   32MYC    C57 2797   1.505   0.570   9.430
   32MYC    C58 2798   1.555   0.474   9.323
   32MYC    C59 2799   1.701   0.435   9.314
   32MYC    C60 2800   1.640   0.525   9.210
   32MYC    C61 2801   1.633   0.470   9.068
   32MYC    C62 2802   1.588   0.572   8.962
   32MYC    C63 2803   1.561   0.497   8.831
   32MYC    C64 2804   1.537   0.589   8.710
   32MYC    C65 2805   1.545   0.511   8.578
   32MYC    C66 2806   1.520   0.587   8.447
   32MYC    C67 2807   1.536   0.502   8.320
   32MYC    C68 2808   1.551   0.592   8.195
   32MYC    C69 2809   1.568   0.509   8.067
   32MYC    C70 2810   1.615   0.595   7.949
   32MYC    C71 2811   1.610   0.506   7.824
   32MYC    C72 2812   1.694   0.566   7.710
   32MYC    C73 2813   1.673   0.478   7.585
   32MYC    C74 2814   1.759   0.517   7.463
   32MYC    C75 2815   1.719   0.451   7.330
   32MYC    C76 2816   1.745   0.549   7.215
   32MYC    C77 2817   1.681   0.497   7.085
   32MYC    C78 2818   1.704   0.603   6.975
   32MYC    C79 2819   1.598   0.604   6.863
   32MYC    C80 2820   1.629   0.704   6.751
   32MYC    C81 2821   2.501   0.519   9.675
   32MYC    O82 2822   2.606   0.496   9.617
   32MYC    O83 2823   2.498   0.524   9.810
   32MYC     H1 2824   2.354   0.395   9.598
   32MYC     H2 2825   2.162   0.564   9.625
   32MYC     H3 2826   2.345   0.687   9.808
   32MYC     H4 2827   2.152   0.378   9.759
   32MYC     H5 2828   2.287   0.415   9.865
   32MYC     H6 2829   2.060   0.609   9.868
   32MYC     H7 2830   2.052   0.457   9.964
   32MYC     H8 2831   2.295   0.531  10.040
   32MYC     H9 2832   2.242   0.688   9.994
   32MYC   0H10 2833   1.604   0.604  10.093
   32MYC   1H10 2834   1.407   0.651   9.937
   32MYC   2H10 2835   1.476   0.801   9.895
   32MYC   3H10 2836   1.691   0.680   9.808
   32MYC   4H10 2837   1.613   0.532   9.841
   32MYC   5H10 2838   1.415   0.609   9.681
   32MYC   6H10 2839   1.513   0.754   9.657
   32MYC   7H10 2840   1.680   0.639   9.536
   32MYC   8H10 2841   1.611   0.478   9.586
   32MYC   9H10 2842   1.399   0.555   9.456
   32MYC    H10 2843   2.063   0.689  10.158
   32MYC   0H11 2844   1.498   0.664   9.372
   32MYC   1H11 2845   1.484   0.393   9.308
   32MYC   2H11 2846   1.769   0.478   9.387
   32MYC   3H11 2847   1.738   0.341   9.273
   32MYC   4H11 2848   1.668   0.629   9.194
   32MYC   5H11 2849   1.734   0.434   9.043
   32MYC   6H11 2850   1.573   0.378   9.066
   32MYC   7H11 2851   1.500   0.622   9.003
   32MYC   8H11 2852   1.663   0.649   8.944
   32MYC   9H11 2853   1.641   0.426   8.804
   32MYC    H11 2854   2.080   0.514  10.191
   32MYC   0H12 2855   1.476   0.430   8.849
   32MYC   1H12 2856   1.441   0.643   8.711
   32MYC   2H12 2857   1.617   0.664   8.708
   32MYC   3H12 2858   1.645   0.468   8.569
   32MYC   4H12 2859   1.479   0.423   8.585
   32MYC   5H12 2860   1.416   0.624   8.452
   32MYC   6H12 2861   1.587   0.673   8.453
   32MYC   7H12 2862   1.612   0.425   8.330
   32MYC   8H12 2863   1.444   0.445   8.305
   32MYC   9H12 2864   1.454   0.644   8.193
   32MYC    H12 2865   2.338   0.582  10.245
   32MYC   0H13 2866   1.632   0.664   8.208
   32MYC   1H13 2867   1.647   0.434   8.081
   32MYC   2H13 2868   1.473   0.459   8.042
   32MYC   3H13 2869   1.544   0.678   7.952
   32MYC   4H13 2870   1.718   0.630   7.966
   32MYC   5H13 2871   1.654   0.407   7.842
   32MYC   6H13 2872   1.506   0.489   7.792
   32MYC   7H13 2873   1.650   0.664   7.686
   32MYC   8H13 2874   1.798   0.575   7.743
   32MYC   9H13 2875   1.702   0.373   7.599
   32MYC    H13 2876   2.263   0.744  10.241
   32MYC   0H14 2877   1.570   0.478   7.547
   32MYC   1H14 2878   1.734   0.623   7.446
   32MYC   2H14 2879   1.865   0.503   7.486
   32MYC   3H14 2880   1.764   0.351   7.317
   32MYC   4H14 2881   1.614   0.420   7.331
   32MYC   5H14 2882   1.700   0.646   7.239
   32MYC   6H14 2883   1.852   0.564   7.197
   32MYC   7H14 2884   1.728   0.404   7.052
   32MYC   8H14 2885   1.575   0.476   7.104
   32MYC   9H14 2886   1.705   0.703   7.020
   32MYC    H14 2887   2.108   0.673  10.420
   32MYC   0H15 2888   1.800   0.583   6.926
   32MYC   1H15 2889   1.580   0.505   6.820
   32MYC   2H15 2890   1.500   0.628   6.906
   32MYC   3H15 2891   1.724   0.661   6.716
   32MYC   4H15 2892   1.635   0.808   6.784
   32MYC   5H15 2893   1.551   0.705   6.673
   32MYC   6H15 2894   2.583   0.488   9.840
   32MYC    H15 2895   2.171   0.503  10.418
   32MYC    H16 2896   2.397   0.580  10.485
   32MYC    H17 2897   2.335   0.746  10.503
   32MYC    H18 2898   2.265   0.498  10.669
   32MYC    H19 2899   2.336   0.650  10.720
   32MYC    H20 2900   2.138   0.773  10.678
   32MYC    H21 2901   2.050   0.620  10.623
   32MYC    H22 2902   2.129   0.542  10.873
   32MYC    H23 2903   2.147   0.707  10.901
   32MYC    H24 2904   1.917   0.779  10.830
   32MYC    H25 2905   1.876   0.613  10.824
   32MYC    H26 2906   1.969   0.583  11.055
   32MYC    H27 2907   1.995   0.760  11.074
   32MYC    H28 2908   1.724   0.649  11.023
   32MYC    H29 2909   1.787   0.682  11.182
   32MYC    H30 2910   1.808   0.926  11.008
   32MYC    H31 2911   1.546   0.820  11.128
   32MYC    H32 2912   1.746   1.037  11.215
   32MYC    H33 2913   1.714   0.876  11.294
   32MYC    H34 2914   2.421   0.672   9.496
   32MYC    H35 2915   2.449   0.512   9.414
   32MYC    H36 2916   2.206   0.509   9.366
   32MYC    H37 2917   2.195   0.667   9.432
   32MYC    H38 2918   2.298   0.763   9.232
   32MYC    H39 2919   2.417   0.645   9.233
   32MYC    H40 2920   2.283   0.501   9.099
   32MYC    H41 2921   2.129   0.592   9.139
   32MYC    H42 2922   2.186   0.771   8.995
   32MYC    H43 2923   2.354   0.737   9.012
   32MYC    H44 2924   2.330   0.545   8.848
   32MYC    H45 2925   2.160   0.558   8.857
   32MYC    H46 2926   2.160   0.784   8.754
   32MYC    H47 2927   2.343   0.758   8.725
   32MYC    H48 2928   2.282   0.551   8.612
   32MYC    H49 2929   2.111   0.602   8.606
   32MYC    H50 2930   2.191   0.822   8.507
   32MYC    H51 2931   2.355   0.743   8.480
   32MYC    H52 2932   2.249   0.580   8.329
   32MYC    H53 2933   2.088   0.638   8.374
   32MYC    H54 2934   2.153   0.868   8.262
   32MYC    H55 2935   2.311   0.799   8.230
   32MYC    H56 2936   2.208   0.611   8.091
   32MYC    H57 2937   2.061   0.690   8.111
   32MYC    H58 2938   2.133   0.886   7.988
   32MYC    H59 2939   2.301   0.828   7.991
   32MYC    H60 2940   2.234   0.644   7.832
   32MYC    H61 2941   2.070   0.682   7.867
   32MYC    H62 2942   2.101   0.915   7.741
   32MYC    H63 2943   2.265   0.860   7.709
   32MYC    H64 2944   2.190   0.666   7.579
   32MYC    H65 2945   2.026   0.695   7.608
   32MYC    H66 2946   2.016   0.877   7.458
   32MYC    H67 2947   2.193   0.919   7.484
   32MYC    H68 2948   2.264   0.718   7.365
   32MYC    H69 2949   2.101   0.660   7.369
   32MYC    H70 2950   2.014   0.787   7.199
   32MYC    H71 2951   2.128   0.913   7.203
   32MYC    H72 2952   2.307   0.767   7.096
   32MYC    H73 2953   2.187   0.638   7.110
   32MYC    H74 2954   2.030   0.739   6.973
   32MYC    H75 2955   2.137   0.880   6.938
   32MYC    H76 2956   2.303   0.747   6.822
   32MYC    H77 2957   2.209   0.598   6.847
   32MYC    H78 2958   2.024   0.695   6.719
   32MYC    H79 2959   2.130   0.832   6.677
   32MYC    H80 2960   2.140   0.661   6.487
   32MYC    H81 2961   2.168   0.536   6.612
   32MYC    H82 2962   2.291   0.649   6.580
   32MYC    H83 2963   1.468   1.061  11.099
   32MYC    H84 2964   1.603   1.106  11.018
   32MYC    H85 2965   1.388   0.910  10.910
   32MYC    H86 2966   1.422   1.072  10.855
   32MYC    H87 2967   1.653   1.008  10.767
   32MYC    H88 2968   1.605   0.846  10.802
   32MYC    H89 2969   1.407   0.869  10.666
   32MYC    H90 2970   1.436   1.042  10.623
   32MYC    H91 2971   1.647   0.976  10.505
   32MYC    H92 2972   1.617   0.812  10.560
   32MYC    H93 2973   1.392   0.839  10.421
   32MYC    H94 2974   1.473   0.987  10.360
   32MYC    H95 2975   1.666   0.848  10.294
   32MYC    H96 2976   1.586   0.702  10.352
   32MYC    H97 2977   1.390   0.752  10.186
   32MYC    H98 2978   1.468   0.879  10.116
   32MYC    H99 2979   1.663   0.758  10.044
   33MYC     C1 2980   2.639   0.988   9.694
   33MYC     C2 2981   2.770   0.908   9.698
   33MYC     O3 2982   2.746   0.768   9.715
   33MYC     C4 2983   2.878   0.953   9.798
   33MYC     C5 2984   2.850   0.917   9.945
   33MYC     C6 2985   2.812   1.041  10.026
   33MYC     C7 2986   2.789   1.014  10.176
   33MYC     C8 2987   2.698   1.126  10.232
   33MYC     C9 2988   2.659   1.098  10.378
   33MYC    C10 2989   2.518   1.037  10.393
   33MYC    C11 2990   2.467   1.044  10.538
   33MYC    C12 2991   2.557   0.979  10.645
   33MYC    C13 2992   2.488   0.981  10.782
   33MYC    C14 2993   2.552   0.872  10.870
   33MYC    C15 2994   2.493   0.864  11.012
   33MYC    C16 2995   2.594   0.829  11.122
   33MYC    C17 2996   2.654   0.689  11.107
   33MYC    C18 2997   2.782   0.658  11.036
   33MYC    C19 2998   2.777   0.655  11.186
   33MYC    C20 2999   2.552   0.941   9.576
   33MYC    C21 3000   2.599   1.007   9.445
   33MYC    C22 3001   2.502   0.964   9.333
   33MYC    C23 3002   2.549   1.028   9.201
   33MYC    C24 3003   2.434   1.044   9.101
   33MYC    C25 3004   2.493   1.094   8.968
   33MYC    C26 3005   2.390   1.108   8.855
   33MYC    C27 3006   2.461   1.165   8.730
   33MYC    C28 3007   2.390   1.147   8.595
   33MYC    C29 3008   2.469   1.187   8.469
   33MYC    C30 3009   2.387   1.197   8.340
   33MYC    C31 3010   2.476   1.225   8.217
   33MYC    C32 3011   2.401   1.257   8.086
   33MYC    C33 3012   2.478   1.240   7.954
   33MYC    C34 3013   2.387   1.216   7.832
   33MYC    C35 3014   2.464   1.216   7.699
   33MYC    C36 3015   2.381   1.190   7.572
   33MYC    C37 3016   2.453   1.192   7.437
   33MYC    C38 3017   2.360   1.165   7.317
   33MYC    C39 3018   2.440   1.166   7.186
   33MYC    C40 3019   2.336   1.171   7.073
   33MYC    C41 3020   2.409   1.138   6.941
   33MYC    C42 3021   2.311   1.128   6.822
   33MYC    C43 3022   2.385   1.094   6.692
   33MYC    C44 3023   2.792   0.530  10.953
   33MYC    C45 3024   2.938   0.502  10.914
   33MYC    C46 3025   2.999   0.594  10.807
   33MYC    C47 3026   2.977   0.543  10.663
   33MYC    C48 3027   3.046   0.633  10.559
   33MYC    C49 3028   3.013   0.581  10.418
   33MYC    C50 3029   3.107   0.636  10.310
   33MYC    C51 3030   3.086   0.566  10.174
   33MYC    C52 3031   3.159   0.646  10.064
   33MYC    C53 3032   3.131   0.585   9.926
   33MYC    C54 3033   3.197   0.674   9.820
   33MYC    C55 3034   3.135   0.658   9.680
   33MYC    C56 3035   3.198   0.739   9.565
   33MYC    C57 3036   3.129   0.699   9.434
   33MYC    C58 3037   3.182   0.776   9.314
   33MYC    C59 3038   3.123   0.913   9.291
   33MYC    C60 3039   3.094   0.801   9.194
   33MYC    C61 3040   3.157   0.805   9.056
   33MYC    C62 3041   3.137   0.677   8.973
   33MYC    C63 3042   3.224   0.676   8.846
   33MYC    C64 3043   3.155   0.598   8.734
   33MYC    C65 3044   3.246   0.576   8.612
   33MYC    C66 3045   3.183   0.537   8.477
   33MYC    C67 3046   3.286   0.525   8.364
   33MYC    C68 3047   3.220   0.531   8.225
   33MYC    C69 3048   3.325   0.508   8.115
   33MYC    C70 3049   3.256   0.502   7.978
   33MYC    C71 3050   3.352   0.524   7.859
   33MYC    C72 3051   3.284   0.545   7.723
   33MYC    C73 3052   3.374   0.544   7.599
   33MYC    C74 3053   3.298   0.560   7.466
   33MYC    C75 3054   3.382   0.547   7.338
   33MYC    C76 3055   3.300   0.599   7.219
   33MYC    C77 3056   3.359   0.559   7.083
   33MYC    C78 3057   3.265   0.573   6.963
   33MYC    C79 3058   3.343   0.535   6.836
   33MYC    C80 3059   3.266   0.552   6.704
   33MYC    C81 3060   2.544   0.972   9.812
   33MYC    O82 3061   2.497   0.867   9.852
   33MYC    O83 3062   2.504   1.088   9.867
   33MYC     H1 3063   2.664   1.094   9.687
   33MYC     H2 3064   2.824   0.924   9.604
   33MYC     H3 3065   2.758   0.748   9.810
   33MYC     H4 3066   2.974   0.910   9.770
   33MYC     H5 3067   2.888   1.062   9.793
   33MYC     H6 3068   2.763   0.850   9.949
   33MYC     H7 3069   2.943   0.876   9.987
   33MYC     H8 3070   2.882   1.123  10.008
   33MYC     H9 3071   2.719   1.076   9.980
   33MYC   0H10 3072   3.267   0.653  10.084
   33MYC   1H10 3073   3.181   0.488   9.912
   33MYC   2H10 3074   3.026   0.571   9.899
   33MYC   3H10 3075   3.189   0.777   9.857
   33MYC   4H10 3076   3.304   0.652   9.819
   33MYC   5H10 3077   3.132   0.553   9.648
   33MYC   6H10 3078   3.032   0.695   9.685
   33MYC   7H10 3079   3.178   0.845   9.587
   33MYC   8H10 3080   3.307   0.733   9.563
   33MYC   9H10 3081   3.154   0.595   9.410
   33MYC    H10 3082   2.741   0.917  10.193
   33MYC   0H11 3083   3.019   0.704   9.437
   33MYC   1H11 3084   3.290   0.773   9.302
   33MYC   2H11 3085   3.046   0.945   9.359
   33MYC   3H11 3086   3.200   0.990   9.278
   33MYC   4H11 3087   2.995   0.758   9.184
   33MYC   5H11 3088   3.120   0.893   9.000
   33MYC   6H11 3089   3.266   0.821   9.059
   33MYC   7H11 3090   3.163   0.586   9.027
   33MYC   8H11 3091   3.031   0.675   8.944
   33MYC   9H11 3092   3.246   0.779   8.814
   33MYC    H11 3093   2.886   1.016  10.226
   33MYC   0H12 3094   3.321   0.628   8.868
   33MYC   1H12 3095   3.118   0.503   8.775
   33MYC   2H12 3096   3.059   0.645   8.707
   33MYC   3H12 3097   3.297   0.671   8.595
   33MYC   4H12 3098   3.325   0.501   8.623
   33MYC   5H12 3099   3.133   0.442   8.498
   33MYC   6H12 3100   3.103   0.610   8.456
   33MYC   7H12 3101   3.343   0.619   8.362
   33MYC   8H12 3102   3.346   0.434   8.378
   33MYC   9H12 3103   3.131   0.466   8.231
   33MYC    H12 3104   2.755   1.220  10.225
   33MYC   0H13 3105   3.185   0.630   8.193
   33MYC   1H13 3106   3.398   0.589   8.123
   33MYC   2H13 3107   3.382   0.416   8.134
   33MYC   3H13 3108   3.190   0.414   7.967
   33MYC   4H13 3109   3.183   0.584   7.975
   33MYC   5H13 3110   3.412   0.614   7.875
   33MYC   6H13 3111   3.434   0.452   7.863
   33MYC   7H13 3112   3.215   0.461   7.714
   33MYC   8H13 3113   3.215   0.631   7.723
   33MYC   9H13 3114   3.460   0.612   7.607
   33MYC    H13 3115   2.608   1.144  10.172
   33MYC   0H14 3116   3.426   0.448   7.596
   33MYC   1H14 3117   3.217   0.485   7.466
   33MYC   2H14 3118   3.244   0.656   7.468
   33MYC   3H14 3119   3.466   0.616   7.352
   33MYC   4H14 3120   3.433   0.452   7.317
   33MYC   5H14 3121   3.197   0.562   7.228
   33MYC   6H14 3122   3.297   0.709   7.225
   33MYC   7H14 3123   3.451   0.619   7.077
   33MYC   8H14 3124   3.396   0.455   7.078
   33MYC   9H14 3125   3.172   0.516   6.976
   33MYC    H14 3126   2.741   1.039  10.420
   33MYC   0H15 3127   3.228   0.676   6.965
   33MYC   1H15 3128   3.425   0.607   6.827
   33MYC   2H15 3129   3.385   0.433   6.839
   33MYC   3H15 3130   3.222   0.652   6.697
   33MYC   4H15 3131   3.191   0.475   6.681
   33MYC   5H15 3132   3.339   0.546   6.623
   33MYC   6H15 3133   2.472   1.056   9.953
   33MYC    H15 3134   2.658   1.189  10.438
   33MYC    H16 3135   2.456   1.102  10.330
   33MYC    H17 3136   2.521   0.938  10.348
   33MYC    H18 3137   2.458   1.149  10.567
   33MYC    H19 3138   2.364   1.006  10.540
   33MYC    H20 3139   2.574   0.873  10.621
   33MYC    H21 3140   2.655   1.030  10.648
   33MYC    H22 3141   2.494   1.081  10.827
   33MYC    H23 3142   2.378   0.972  10.776
   33MYC    H24 3143   2.537   0.774  10.823
   33MYC    H25 3144   2.657   0.905  10.871
   33MYC    H26 3145   2.455   0.961  11.046
   33MYC    H27 3146   2.403   0.801  11.012
   33MYC    H28 3147   2.679   0.898  11.116
   33MYC    H29 3148   2.556   0.852  11.222
   33MYC    H30 3149   2.577   0.613  11.096
   33MYC    H31 3150   2.834   0.743  10.993
   33MYC    H32 3151   2.779   0.558  11.236
   33MYC    H33 3152   2.844   0.734  11.220
   33MYC    H34 3153   2.547   0.832   9.573
   33MYC    H35 3154   2.449   0.977   9.580
   33MYC    H36 3155   2.594   1.115   9.460
   33MYC    H37 3156   2.702   0.978   9.424
   33MYC    H38 3157   2.513   0.854   9.329
   33MYC    H39 3158   2.399   0.995   9.353
   33MYC    H40 3159   2.599   1.121   9.233
   33MYC    H41 3160   2.631   0.968   9.160
   33MYC    H42 3161   2.377   0.950   9.098
   33MYC    H43 3162   2.358   1.113   9.140
   33MYC    H44 3163   2.540   1.192   8.981
   33MYC    H45 3164   2.576   1.028   8.939
   33MYC    H46 3165   2.351   1.008   8.833
   33MYC    H47 3166   2.316   1.183   8.886
   33MYC    H48 3167   2.492   1.268   8.746
   33MYC    H49 3168   2.557   1.113   8.723
   33MYC    H50 3169   2.352   1.044   8.594
   33MYC    H51 3170   2.311   1.223   8.607
   33MYC    H52 3171   2.521   1.284   8.476
   33MYC    H53 3172   2.542   1.106   8.455
   33MYC    H54 3173   2.331   1.102   8.332
   33MYC    H55 3174   2.305   1.269   8.352
   33MYC    H56 3175   2.543   1.310   8.231
   33MYC    H57 3176   2.537   1.135   8.201
   33MYC    H58 3177   2.309   1.198   8.081
   33MYC    H59 3178   2.368   1.362   8.091
   33MYC    H60 3179   2.546   1.321   7.928
   33MYC    H61 3180   2.543   1.154   7.973
   33MYC    H62 3181   2.327   1.124   7.840
   33MYC    H63 3182   2.311   1.295   7.826
   33MYC    H64 3183   2.511   1.313   7.679
   33MYC    H65 3184   2.547   1.144   7.701
   33MYC    H66 3185   2.337   1.089   7.570
   33MYC    H67 3186   2.295   1.258   7.574
   33MYC    H68 3187   2.491   1.294   7.423
   33MYC    H69 3188   2.536   1.121   7.439
   33MYC    H70 3189   2.306   1.071   7.338
   33MYC    H71 3190   2.274   1.233   7.311
   33MYC    H72 3191   2.495   1.261   7.177
   33MYC    H73 3192   2.508   1.080   7.181
   33MYC    H74 3193   2.252   1.105   7.095
   33MYC    H75 3194   2.295   1.273   7.071
   33MYC    H76 3195   2.491   1.203   6.908
   33MYC    H77 3196   2.457   1.041   6.958
   33MYC    H78 3197   2.244   1.043   6.845
   33MYC    H79 3198   2.257   1.222   6.810
   33MYC    H80 3199   2.308   1.083   6.615
   33MYC    H81 3200   2.449   1.005   6.700
   33MYC    H82 3201   2.447   1.183   6.671
   33MYC    H83 3202   2.754   0.447  11.014
   33MYC    H84 3203   2.732   0.541  10.862
   33MYC    H85 3204   2.995   0.508  11.008
   33MYC    H86 3205   2.961   0.398  10.887
   33MYC    H87 3206   2.961   0.695  10.826
   33MYC    H88 3207   3.106   0.598  10.829
   33MYC    H89 3208   2.990   0.435  10.650
   33MYC    H90 3209   2.874   0.570  10.638
   33MYC    H91 3210   3.009   0.734  10.581
   33MYC    H92 3211   3.155   0.628  10.567
   33MYC    H93 3212   3.013   0.471  10.415
   33MYC    H94 3213   2.912   0.611  10.388
   33MYC    H95 3214   3.084   0.742  10.295
   33MYC    H96 3215   3.210   0.620  10.346
   33MYC    H97 3216   3.127   0.464  10.171
   33MYC    H98 3217   2.980   0.565  10.149
   33MYC    H99 3218   3.111   0.744  10.070
   34MYC     C1 3219   3.494   1.140   9.543
   34MYC     C2 3220   3.554   1.047   9.649
   34MYC     O3 3221   3.472   0.931   9.665
   34MYC     C4 3222   3.570   1.126   9.780
   34MYC     C5 3223   3.637   1.059   9.901
   34MYC     C6 3224   3.541   0.991  10.000
   34MYC     C7 3225   3.600   0.950  10.137
   34MYC     C8 3226   3.487   0.919  10.236
   34MYC     C9 3227   3.540   0.927  10.380
   34MYC    C10 3228   3.430   0.868  10.469
   34MYC    C11 3229   3.418   0.920  10.614
   34MYC    C12 3230   3.551   0.889  10.683
   34MYC    C13 3231   3.534   0.924  10.832
   34MYC    C14 3232   3.667   0.909  10.908
   34MYC    C15 3233   3.638   0.902  11.059
   34MYC    C16 3234   3.757   0.866  11.149
   34MYC    C17 3235   3.777   0.716  11.165
   34MYC    C18 3236   3.893   0.641  11.103
   34MYC    C19 3237   3.895   0.674  11.251
   34MYC    C20 3238   3.462   1.067   9.412
   34MYC    C21 3239   3.576   1.026   9.317
   34MYC    C22 3240   3.513   0.998   9.180
   34MYC    C23 3241   3.617   0.949   9.077
   34MYC    C24 3242   3.559   0.939   8.935
   34MYC    C25 3243   3.663   0.898   8.829
   34MYC    C26 3244   3.598   0.868   8.693
   34MYC    C27 3245   3.696   0.887   8.576
   34MYC    C28 3246   3.622   0.856   8.445
   34MYC    C29 3247   3.722   0.869   8.329
   34MYC    C30 3248   3.645   0.889   8.197
   34MYC    C31 3249   3.739   0.883   8.076
   34MYC    C32 3250   3.665   0.924   7.947
   34MYC    C33 3251   3.716   0.853   7.821
   34MYC    C34 3252   3.695   0.942   7.697
   34MYC    C35 3253   3.717   0.870   7.563
   34MYC    C36 3254   3.731   0.967   7.445
   34MYC    C37 3255   3.770   0.903   7.310
   34MYC    C38 3256   3.804   1.016   7.211
   34MYC    C39 3257   3.812   0.984   7.060
   34MYC    C40 3258   3.746   1.091   6.972
   34MYC    C41 3259   3.733   1.036   6.829
   34MYC    C42 3260   3.662   1.139   6.740
   34MYC    C43 3261   3.664   1.096   6.593
   34MYC    C44 3262   3.873   0.495  11.065
   34MYC    C45 3263   3.910   0.456  10.920
   34MYC    C46 3264   3.801   0.512  10.826
   34MYC    C47 3265   3.788   0.434  10.694
   34MYC    C48 3266   3.709   0.512  10.587
   34MYC    C49 3267   3.738   0.456  10.447
   34MYC    C50 3268   3.670   0.531  10.331
   34MYC    C51 3269   3.669   0.449  10.201
   34MYC    C52 3270   3.621   0.537  10.085
   34MYC    C53 3271   3.659   0.485   9.945
   34MYC    C54 3272   3.634   0.588   9.833
   34MYC    C55 3273   3.655   0.514   9.701
   34MYC    C56 3274   3.607   0.583   9.572
   34MYC    C57 3275   3.616   0.484   9.454
   34MYC    C58 3276   3.604   0.559   9.322
   34MYC    C59 3277   3.476   0.567   9.243
   34MYC    C60 3278   3.584   0.471   9.202
   34MYC    C61 3279   3.663   0.499   9.074
   34MYC    C62 3280   3.595   0.440   8.950
   34MYC    C63 3281   3.685   0.476   8.830
   34MYC    C64 3282   3.638   0.411   8.698
   34MYC    C65 3283   3.743   0.438   8.588
   34MYC    C66 3284   3.682   0.402   8.452
   34MYC    C67 3285   3.782   0.398   8.336
   34MYC    C68 3286   3.712   0.417   8.200
   34MYC    C69 3287   3.815   0.413   8.086
   34MYC    C70 3288   3.776   0.479   7.953
   34MYC    C71 3289   3.842   0.424   7.826
   34MYC    C72 3290   3.762   0.469   7.702
   34MYC    C73 3291   3.818   0.413   7.571
   34MYC    C74 3292   3.762   0.493   7.451
   34MYC    C75 3293   3.794   0.432   7.314
   34MYC    C76 3294   3.753   0.533   7.206
   34MYC    C77 3295   3.781   0.485   7.062
   34MYC    C78 3296   3.747   0.583   6.949
   34MYC    C79 3297   3.752   0.529   6.805
   34MYC    C80 3298   3.718   0.643   6.708
   34MYC    C81 3299   3.370   1.218   9.587
   34MYC    O82 3300   3.258   1.172   9.580
   34MYC    O83 3301   3.401   1.346   9.616
   34MYC     H1 3302   3.563   1.221   9.516
   34MYC     H2 3303   3.652   1.018   9.609
   34MYC     H3 3304   3.534   0.856   9.673
   34MYC     H4 3305   3.634   1.211   9.755
   34MYC     H5 3306   3.472   1.165   9.812
   34MYC     H6 3307   3.712   0.985   9.868
   34MYC     H7 3308   3.691   1.138   9.954
   34MYC     H8 3309   3.453   1.055  10.009
   34MYC     H9 3310   3.503   0.902   9.950
   34MYC   0H10 3311   3.660   0.638  10.098
   34MYC   1H10 3312   3.767   0.463   9.951
   34MYC   2H10 3313   3.607   0.390   9.932
   34MYC   3H10 3314   3.530   0.623   9.848
   34MYC   4H10 3315   3.711   0.666   9.843
   34MYC   5H10 3316   3.763   0.501   9.688
   34MYC   6H10 3317   3.614   0.412   9.697
   34MYC   7H10 3318   3.504   0.617   9.584
   34MYC   8H10 3319   3.668   0.672   9.554
   34MYC   9H10 3320   3.706   0.422   9.457
   34MYC    H10 3321   3.665   0.862  10.132
   34MYC   0H11 3322   3.527   0.421   9.465
   34MYC   1H11 3323   3.667   0.648   9.321
   34MYC   2H11 3324   3.386   0.524   9.286
   34MYC   3H11 3325   3.466   0.656   9.181
   34MYC   4H11 3326   3.558   0.367   9.218
   34MYC   5H11 3327   3.684   0.606   9.062
   34MYC   6H11 3328   3.762   0.452   9.081
   34MYC   7H11 3329   3.593   0.331   8.955
   34MYC   8H11 3330   3.494   0.482   8.947
   34MYC   9H11 3331   3.698   0.584   8.816
   34MYC    H11 3332   3.654   1.037  10.177
   34MYC   0H12 3333   3.786   0.436   8.845
   34MYC   1H12 3334   3.627   0.302   8.697
   34MYC   2H12 3335   3.544   0.456   8.664
   34MYC   3H12 3336   3.768   0.545   8.591
   34MYC   4H12 3337   3.833   0.382   8.613
   34MYC   5H12 3338   3.627   0.307   8.444
   34MYC   6H12 3339   3.609   0.483   8.435
   34MYC   7H12 3340   3.867   0.463   8.358
   34MYC   8H12 3341   3.843   0.306   8.333
   34MYC   9H12 3342   3.643   0.333   8.187
   34MYC    H12 3343   3.399   0.982  10.216
   34MYC   0H13 3344   3.670   0.519   8.193
   34MYC   1H13 3345   3.906   0.463   8.121
   34MYC   2H13 3346   3.849   0.310   8.067
   34MYC   3H13 3347   3.669   0.459   7.939
   34MYC   4H13 3348   3.802   0.585   7.965
   34MYC   5H13 3349   3.946   0.455   7.819
   34MYC   6H13 3350   3.835   0.315   7.824
   34MYC   7H13 3351   3.662   0.423   7.708
   34MYC   8H13 3352   3.753   0.577   7.688
   34MYC   9H13 3353   3.926   0.431   7.575
   34MYC    H13 3354   3.450   0.819  10.210
   34MYC   0H14 3355   3.794   0.307   7.557
   34MYC   1H14 3356   3.652   0.494   7.459
   34MYC   2H14 3357   3.798   0.596   7.453
   34MYC   3H14 3358   3.900   0.406   7.306
   34MYC   4H14 3359   3.749   0.334   7.293
   34MYC   5H14 3360   3.645   0.551   7.219
   34MYC   6H14 3361   3.802   0.631   7.210
   34MYC   7H14 3362   3.885   0.450   7.057
   34MYC   8H14 3363   3.723   0.394   7.041
   34MYC   9H14 3364   3.643   0.612   6.970
   34MYC    H14 3365   3.634   0.872  10.396
   34MYC   0H15 3366   3.798   0.680   6.953
   34MYC   1H15 3367   3.849   0.482   6.783
   34MYC   2H15 3368   3.683   0.445   6.790
   34MYC   3H15 3369   3.689   0.587   6.618
   34MYC   4H15 3370   3.804   0.709   6.694
   34MYC   5H15 3371   3.631   0.698   6.747
   34MYC   6H15 3372   3.316   1.380   9.649
   34MYC    H15 3373   3.555   1.032  10.408
   34MYC    H16 3374   3.334   0.883  10.417
   34MYC    H17 3375   3.446   0.760  10.466
   34MYC    H18 3376   3.405   1.029  10.605
   34MYC    H19 3377   3.332   0.875  10.664
   34MYC    H20 3378   3.589   0.786  10.674
   34MYC    H21 3379   3.632   0.946  10.635
   34MYC    H22 3380   3.483   1.021  10.842
   34MYC    H23 3381   3.457   0.861  10.877
   34MYC    H24 3382   3.726   0.821  10.879
   34MYC    H25 3383   3.722   1.002  10.888
   34MYC    H26 3384   3.607   1.004  11.085
   34MYC    H27 3385   3.554   0.836  11.086
   34MYC    H28 3386   3.850   0.911  11.113
   34MYC    H29 3387   3.746   0.905  11.251
   34MYC    H30 3388   3.689   0.655  11.185
   34MYC    H31 3389   3.969   0.696  11.049
   34MYC    H32 3390   3.884   0.587  11.316
   34MYC    H33 3391   3.954   0.761  11.276
   34MYC    H34 3392   3.393   0.983   9.421
   34MYC    H35 3393   3.404   1.142   9.357
   34MYC    H36 3394   3.634   1.118   9.305
   34MYC    H37 3395   3.642   0.944   9.349
   34MYC    H38 3396   3.429   0.927   9.189
   34MYC    H39 3397   3.461   1.088   9.145
   34MYC    H40 3398   3.709   1.008   9.072
   34MYC    H41 3399   3.654   0.851   9.111
   34MYC    H42 3400   3.479   0.864   8.941
   34MYC    H43 3401   3.509   1.033   8.908
   34MYC    H44 3402   3.735   0.979   8.822
   34MYC    H45 3403   3.726   0.811   8.853
   34MYC    H46 3404   3.568   0.763   8.690
   34MYC    H47 3405   3.517   0.940   8.674
   34MYC    H48 3406   3.740   0.988   8.570
   34MYC    H49 3407   3.787   0.827   8.585
   34MYC    H50 3408   3.574   0.757   8.440
   34MYC    H51 3409   3.535   0.920   8.428
   34MYC    H52 3410   3.787   0.956   8.349
   34MYC    H53 3411   3.783   0.778   8.320
   34MYC    H54 3412   3.566   0.815   8.177
   34MYC    H55 3413   3.590   0.984   8.203
   34MYC    H56 3414   3.826   0.947   8.093
   34MYC    H57 3415   3.777   0.782   8.059
   34MYC    H58 3416   3.558   0.905   7.954
   34MYC    H59 3417   3.678   1.032   7.930
   34MYC    H60 3418   3.825   0.841   7.826
   34MYC    H61 3419   3.661   0.758   7.814
   34MYC    H62 3420   3.598   0.993   7.702
   34MYC    H63 3421   3.775   1.016   7.710
   34MYC    H64 3422   3.799   0.798   7.571
   34MYC    H65 3423   3.637   0.801   7.532
   34MYC    H66 3424   3.632   1.014   7.434
   34MYC    H67 3425   3.798   1.045   7.482
   34MYC    H68 3426   3.855   0.839   7.332
   34MYC    H69 3427   3.680   0.853   7.271
   34MYC    H70 3428   3.727   1.092   7.226
   34MYC    H71 3429   3.893   1.073   7.239
   34MYC    H72 3430   3.914   0.964   7.023
   34MYC    H73 3431   3.758   0.891   7.040
   34MYC    H74 3432   3.647   1.121   7.010
   34MYC    H75 3433   3.813   1.177   6.963
   34MYC    H76 3434   3.834   1.014   6.792
   34MYC    H77 3435   3.676   0.942   6.832
   34MYC    H78 3436   3.559   1.150   6.775
   34MYC    H79 3437   3.711   1.235   6.764
   34MYC    H80 3438   3.630   1.181   6.532
   34MYC    H81 3439   3.592   1.015   6.578
   34MYC    H82 3440   3.764   1.066   6.560
   34MYC    H83 3441   3.930   0.433  11.135
   34MYC    H84 3442   3.767   0.468  11.075
   34MYC    H85 3443   4.007   0.497  10.892
   34MYC    H86 3444   3.921   0.347  10.915
   34MYC    H87 3445   3.701   0.514  10.871
   34MYC    H88 3446   3.824   0.617  10.802
   34MYC    H89 3447   3.892   0.428  10.660
   34MYC    H90 3448   3.754   0.331  10.707
   34MYC    H91 3449   3.602   0.525  10.610
   34MYC    H92 3450   3.751   0.613  10.584
   34MYC    H93 3451   3.847   0.453  10.440
   34MYC    H94 3452   3.701   0.353  10.438
   34MYC    H95 3453   3.572   0.570  10.360
   34MYC    H96 3454   3.732   0.620  10.315
   34MYC    H97 3455   3.772   0.417  10.182
   34MYC    H98 3456   3.599   0.364  10.207
   34MYC    H99 3457   3.511   0.541  10.087
   35MYC     C1 3458   4.827   0.595   9.573
   35MYC     C2 3459   4.703   0.610   9.662
   35MYC     O3 3460   4.704   0.725   9.746
   35MYC     C4 3461   4.667   0.486   9.746
   35MYC     C5 3462   4.576   0.512   9.867
   35MYC     C6 3463   4.644   0.516  10.005
   35MYC     C7 3464   4.550   0.563  10.118
   35MYC     C8 3465   4.618   0.545  10.255
   35MYC     C9 3466   4.559   0.633  10.366
   35MYC    C10 3467   4.645   0.653  10.492
   35MYC    C11 3468   4.669   0.523  10.571
   35MYC    C12 3469   4.564   0.481  10.674
   35MYC    C13 3470   4.583   0.548  10.811
   35MYC    C14 3471   4.483   0.511  10.922
   35MYC    C15 3472   4.530   0.545  11.064
   35MYC    C16 3473   4.418   0.549  11.169
   35MYC    C17 3474   4.368   0.693  11.165
   35MYC    C18 3475   4.268   0.729  11.058
   35MYC    C19 3476   4.226   0.726  11.202
   35MYC    C20 3477   4.822   0.690   9.452
   35MYC    C21 3478   4.745   0.633   9.332
   35MYC    C22 3479   4.750   0.717   9.203
   35MYC    C23 3480   4.691   0.646   9.081
   35MYC    C24 3481   4.725   0.713   8.947
   35MYC    C25 3482   4.685   0.631   8.824
   35MYC    C26 3483   4.735   0.702   8.697
   35MYC    C27 3484   4.688   0.637   8.566
   35MYC    C28 3485   4.750   0.705   8.443
   35MYC    C29 3486   4.679   0.662   8.313
   35MYC    C30 3487   4.749   0.721   8.190
   35MYC    C31 3488   4.667   0.687   8.065
   35MYC    C32 3489   4.743   0.730   7.938
   35MYC    C33 3490   4.661   0.692   7.814
   35MYC    C34 3491   4.732   0.729   7.682
   35MYC    C35 3492   4.636   0.698   7.566
   35MYC    C36 3493   4.713   0.726   7.436
   35MYC    C37 3494   4.618   0.693   7.320
   35MYC    C38 3495   4.695   0.701   7.187
   35MYC    C39 3496   4.625   0.633   7.068
   35MYC    C40 3497   4.709   0.629   6.940
   35MYC    C41 3498   4.617   0.579   6.828
   35MYC    C42 3499   4.692   0.563   6.695
   35MYC    C43 3500   4.592   0.587   6.580
   35MYC    C44 3501   4.274   0.858  10.977
   35MYC    C45 3502   4.169   0.861  10.864
   35MYC    C46 3503   4.215   0.781  10.741
   35MYC    C47 3504   4.130   0.818  10.618
   35MYC    C48 3505   4.194   0.766  10.489
   35MYC    C49 3506   4.097   0.730  10.375
   35MYC    C50 3507   4.165   0.688  10.243
   35MYC    C51 3508   4.073   0.645  10.128
   35MYC    C52 3509   4.147   0.630   9.994
   35MYC    C53 3510   4.056   0.613   9.871
   35MYC    C54 3511   4.139   0.604   9.742
   35MYC    C55 3512   4.054   0.585   9.615
   35MYC    C56 3513   4.140   0.561   9.490
   35MYC    C57 3514   4.198   0.693   9.434
   35MYC    C58 3515   4.257   0.680   9.294
   35MYC    C59 3516   4.303   0.802   9.219
   35MYC    C60 3517   4.180   0.728   9.174
   35MYC    C61 3518   4.196   0.647   9.046
   35MYC    C62 3519   4.161   0.726   8.920
   35MYC    C63 3520   4.150   0.650   8.786
   35MYC    C64 3521   4.157   0.751   8.670
   35MYC    C65 3522   4.136   0.690   8.531
   35MYC    C66 3523   4.181   0.779   8.414
   35MYC    C67 3524   4.125   0.724   8.282
   35MYC    C68 3525   4.192   0.778   8.154
   35MYC    C69 3526   4.134   0.728   8.021
   35MYC    C70 3527   4.217   0.771   7.900
   35MYC    C71 3528   4.154   0.719   7.770
   35MYC    C72 3529   4.228   0.768   7.644
   35MYC    C73 3530   4.163   0.708   7.519
   35MYC    C74 3531   4.201   0.790   7.394
   35MYC    C75 3532   4.154   0.725   7.263
   35MYC    C76 3533   4.195   0.799   7.134
   35MYC    C77 3534   4.145   0.720   7.012
   35MYC    C78 3535   4.188   0.793   6.884
   35MYC    C79 3536   4.089   0.783   6.767
   35MYC    C80 3537   4.107   0.893   6.662
   35MYC    C81 3538   4.952   0.614   9.658
   35MYC    O82 3539   4.991   0.725   9.689
   35MYC    O83 3540   5.040   0.512   9.648
   35MYC     H1 3541   4.830   0.495   9.527
   35MYC     H2 3542   4.620   0.614   9.590
   35MYC     H3 3543   4.740   0.697   9.832
   35MYC     H4 3544   4.632   0.404   9.682
   35MYC     H5 3545   4.764   0.448   9.778
   35MYC     H6 3546   4.517   0.603   9.847
   35MYC     H7 3547   4.510   0.425   9.872
   35MYC     H8 3548   4.683   0.416  10.026
   35MYC     H9 3549   4.731   0.582   9.993
   35MYC   0H10 3550   4.209   0.540  10.001
   35MYC   1H10 3551   3.989   0.527   9.878
   35MYC   2H10 3552   3.990   0.701   9.865
   35MYC   3H10 3553   4.206   0.689   9.725
   35MYC   4H10 3554   4.203   0.517   9.761
   35MYC   5H10 3555   3.993   0.496   9.635
   35MYC   6H10 3556   3.983   0.667   9.602
   35MYC   7H10 3557   4.215   0.484   9.512
   35MYC   8H10 3558   4.073   0.520   9.413
   35MYC   9H10 3559   4.132   0.780   9.434
   35MYC    H10 3560   4.523   0.669  10.110
   35MYC   0H11 3561   4.281   0.724   9.498
   35MYC   1H11 3562   4.311   0.587   9.281
   35MYC   2H11 3563   4.295   0.886   9.287
   35MYC   3H11 3564   4.395   0.800   9.160
   35MYC   4H11 3565   4.087   0.780   9.195
   35MYC   5H11 3566   4.297   0.605   9.034
   35MYC   6H11 3567   4.135   0.556   9.054
   35MYC   7H11 3568   4.059   0.765   8.935
   35MYC   8H11 3569   4.229   0.810   8.903
   35MYC   9H11 3570   4.236   0.582   8.783
   35MYC    H11 3571   4.461   0.500  10.108
   35MYC   0H12 3572   4.055   0.596   8.778
   35MYC   1H12 3573   4.078   0.826   8.688
   35MYC   2H12 3574   4.252   0.805   8.680
   35MYC   3H12 3575   4.190   0.594   8.529
   35MYC   4H12 3576   4.031   0.660   8.539
   35MYC   5H12 3577   4.141   0.881   8.417
   35MYC   6H12 3578   4.290   0.779   8.402
   35MYC   7H12 3579   4.136   0.616   8.272
   35MYC   8H12 3580   4.020   0.755   8.274
   35MYC   9H12 3581   4.184   0.887   8.165
   35MYC    H12 3582   4.620   0.439  10.284
   35MYC   0H13 3583   4.299   0.755   8.163
   35MYC   1H13 3584   4.125   0.619   8.025
   35MYC   2H13 3585   4.032   0.767   8.005
   35MYC   3H13 3586   4.214   0.880   7.885
   35MYC   4H13 3587   4.321   0.737   7.906
   35MYC   5H13 3588   4.152   0.609   7.779
   35MYC   6H13 3589   4.048   0.748   7.760
   35MYC   7H13 3590   4.219   0.877   7.637
   35MYC   8H13 3591   4.335   0.746   7.634
   35MYC   9H13 3592   4.197   0.605   7.509
   35MYC    H13 3593   4.725   0.565  10.248
   35MYC   0H14 3594   4.054   0.714   7.533
   35MYC   1H14 3595   4.155   0.890   7.399
   35MYC   2H14 3596   4.310   0.803   7.393
   35MYC   3H14 3597   4.194   0.623   7.274
   35MYC   4H14 3598   4.045   0.708   7.266
   35MYC   5H14 3599   4.146   0.897   7.138
   35MYC   6H14 3600   4.303   0.815   7.127
   35MYC   7H14 3601   4.181   0.616   7.011
   35MYC   8H14 3602   4.037   0.703   7.012
   35MYC   9H14 3603   4.198   0.899   6.910
   35MYC    H14 3604   4.541   0.732  10.323
   35MYC   0H15 3605   4.287   0.766   6.845
   35MYC   1H15 3606   4.101   0.685   6.718
   35MYC   2H15 3607   3.989   0.782   6.812
   35MYC   3H15 3608   4.214   0.909   6.640
   35MYC   4H15 3609   4.066   0.991   6.690
   35MYC   5H15 3610   4.066   0.870   6.563
   35MYC   6H15 3611   5.117   0.552   9.692
   35MYC    H15 3612   4.466   0.579  10.388
   35MYC    H16 3613   4.736   0.713  10.473
   35MYC    H17 3614   4.590   0.721  10.558
   35MYC    H18 3615   4.679   0.440  10.499
   35MYC    H19 3616   4.769   0.532  10.614
   35MYC    H20 3617   4.466   0.519  10.643
   35MYC    H21 3618   4.549   0.372  10.670
   35MYC    H22 3619   4.689   0.538  10.840
   35MYC    H23 3620   4.570   0.654  10.784
   35MYC    H24 3621   4.388   0.563  10.905
   35MYC    H25 3622   4.455   0.405  10.911
   35MYC    H26 3623   4.601   0.471  11.102
   35MYC    H27 3624   4.591   0.636  11.058
   35MYC    H28 3625   4.342   0.473  11.145
   35MYC    H29 3626   4.459   0.533  11.269
   35MYC    H30 3627   4.440   0.765  11.202
   35MYC    H31 3628   4.212   0.654  11.002
   35MYC    H32 3629   4.209   0.822  11.250
   35MYC    H33 3630   4.159   0.644  11.230
   35MYC    H34 3631   4.775   0.786   9.477
   35MYC    H35 3632   4.927   0.708   9.427
   35MYC    H36 3633   4.771   0.531   9.300
   35MYC    H37 3634   4.642   0.621   9.367
   35MYC    H38 3635   4.682   0.802   9.218
   35MYC    H39 3636   4.852   0.754   9.186
   35MYC    H40 3637   4.723   0.541   9.079
   35MYC    H41 3638   4.583   0.633   9.098
   35MYC    H42 3639   4.680   0.813   8.940
   35MYC    H43 3640   4.832   0.738   8.946
   35MYC    H44 3641   4.723   0.528   8.826
   35MYC    H45 3642   4.578   0.612   8.808
   35MYC    H46 3643   4.704   0.807   8.699
   35MYC    H47 3644   4.844   0.712   8.697
   35MYC    H48 3645   4.721   0.533   8.569
   35MYC    H49 3646   4.579   0.646   8.553
   35MYC    H50 3647   4.747   0.813   8.462
   35MYC    H51 3648   4.858   0.684   8.434
   35MYC    H52 3649   4.667   0.553   8.308
   35MYC    H53 3650   4.576   0.700   8.313
   35MYC    H54 3651   4.765   0.829   8.201
   35MYC    H55 3652   4.847   0.672   8.182
   35MYC    H56 3653   4.654   0.578   8.061
   35MYC    H57 3654   4.574   0.744   8.068
   35MYC    H58 3655   4.762   0.838   7.935
   35MYC    H59 3656   4.842   0.682   7.937
   35MYC    H60 3657   4.642   0.584   7.820
   35MYC    H61 3658   4.561   0.737   7.819
   35MYC    H62 3659   4.762   0.835   7.676
   35MYC    H63 3660   4.819   0.665   7.664
   35MYC    H64 3661   4.612   0.591   7.572
   35MYC    H65 3662   4.541   0.752   7.572
   35MYC    H66 3663   4.762   0.824   7.431
   35MYC    H67 3664   4.798   0.657   7.432
   35MYC    H68 3665   4.586   0.590   7.342
   35MYC    H69 3666   4.525   0.752   7.324
   35MYC    H70 3667   4.712   0.806   7.161
   35MYC    H71 3668   4.794   0.653   7.193
   35MYC    H72 3669   4.589   0.533   7.096
   35MYC    H73 3670   4.532   0.691   7.062
   35MYC    H74 3671   4.741   0.731   6.915
   35MYC    H75 3672   4.799   0.567   6.955
   35MYC    H76 3673   4.578   0.477   6.841
   35MYC    H77 3674   4.543   0.657   6.808
   35MYC    H78 3675   4.752   0.654   6.700
   35MYC    H79 3676   4.752   0.471   6.695
   35MYC    H80 3677   4.648   0.577   6.486
   35MYC    H81 3678   4.553   0.688   6.595
   35MYC    H82 3679   4.509   0.515   6.572
   35MYC    H83 3680   4.252   0.937  11.050
   35MYC    H84 3681   4.378   0.873  10.947
   35MYC    H85 3682   4.075   0.823  10.904
   35MYC    H86 3683   4.151   0.968  10.850
   35MYC    H87 3684   4.322   0.782  10.716
   35MYC    H88 3685   4.190   0.676  10.761
   35MYC    H89 3686   4.033   0.771  10.638
   35MYC    H90 3687   4.114   0.927  10.610
   35MYC    H91 3688   4.267   0.841  10.456
   35MYC    H92 3689   4.248   0.674  10.516
   35MYC    H93 3690   4.020   0.660  10.410
   35MYC    H94 3691   4.041   0.821  10.351
   35MYC    H95 3692   4.235   0.765  10.209
   35MYC    H96 3693   4.223   0.601  10.275
   35MYC    H97 3694   4.027   0.549  10.156
   35MYC    H98 3695   3.995   0.721  10.116
   35MYC    H99 3696   4.221   0.711   9.982
   36MYC     C1 3697   5.417   0.701   9.669
   36MYC     C2 3698   5.349   0.627   9.786
   36MYC     O3 3699   5.246   0.706   9.844
   36MYC     C4 3700   5.448   0.567   9.886
   36MYC     C5 3701   5.393   0.526  10.024
   36MYC     C6 3702   5.463   0.609  10.132
   36MYC     C7 3703   5.421   0.584  10.278
   36MYC     C8 3704   5.519   0.650  10.377
   36MYC     C9 3705   5.474   0.623  10.522
   36MYC    C10 3706   5.552   0.714  10.618
   36MYC    C11 3707   5.548   0.679  10.768
   36MYC    C12 3708   5.403   0.679  10.820
   36MYC    C13 3709   5.398   0.669  10.973
   36MYC    C14 3710   5.267   0.605  11.022
   36MYC    C15 3711   5.242   0.628  11.172
   36MYC    C16 3712   5.159   0.511  11.228
   36MYC    C17 3713   5.032   0.485  11.147
   36MYC    C18 3714   5.008   0.372  11.050
   36MYC    C19 3715   4.951   0.365  11.190
   36MYC    C20 3716   5.323   0.690   9.548
   36MYC    C21 3717   5.385   0.732   9.414
   36MYC    C22 3718   5.296   0.691   9.295
   36MYC    C23 3719   5.355   0.738   9.161
   36MYC    C24 3720   5.278   0.703   9.033
   36MYC    C25 3721   5.355   0.753   8.909
   36MYC    C26 3722   5.288   0.727   8.773
   36MYC    C27 3723   5.369   0.763   8.648
   36MYC    C28 3724   5.308   0.711   8.517
   36MYC    C29 3725   5.360   0.796   8.400
   36MYC    C30 3726   5.310   0.753   8.261
   36MYC    C31 3727   5.406   0.767   8.142
   36MYC    C32 3728   5.338   0.812   8.012
   36MYC    C33 3729   5.414   0.783   7.881
   36MYC    C34 3730   5.341   0.838   7.757
   36MYC    C35 3731   5.411   0.773   7.636
   36MYC    C36 3732   5.369   0.831   7.500
   36MYC    C37 3733   5.461   0.793   7.383
   36MYC    C38 3734   5.385   0.802   7.249
   36MYC    C39 3735   5.474   0.743   7.138
   36MYC    C40 3736   5.411   0.730   6.998
   36MYC    C41 3737   5.513   0.725   6.884
   36MYC    C42 3738   5.461   0.665   6.752
   36MYC    C43 3739   5.571   0.629   6.650
   36MYC    C44 3740   4.915   0.393  10.931
   36MYC    C45 3741   4.945   0.297  10.814
   36MYC    C46 3742   5.072   0.313  10.728
   36MYC    C47 3743   5.079   0.210  10.614
   36MYC    C48 3744   5.034   0.276  10.483
   36MYC    C49 3745   5.007   0.172  10.374
   36MYC    C50 3746   5.004   0.234  10.233
   36MYC    C51 3747   4.956   0.153  10.112
   36MYC    C52 3748   4.962   0.231   9.979
   36MYC    C53 3749   4.891   0.155   9.866
   36MYC    C54 3750   4.965   0.164   9.732
   36MYC    C55 3751   4.889   0.109   9.610
   36MYC    C56 3752   4.970   0.101   9.480
   36MYC    C57 3753   5.043   0.224   9.423
   36MYC    C58 3754   5.110   0.188   9.291
   36MYC    C59 3755   5.211   0.283   9.233
   36MYC    C60 3756   5.082   0.256   9.159
   36MYC    C61 3757   5.100   0.190   9.023
   36MYC    C62 3758   5.143   0.293   8.918
   36MYC    C63 3759   5.141   0.232   8.777
   36MYC    C64 3760   5.161   0.337   8.666
   36MYC    C65 3761   5.136   0.272   8.528
   36MYC    C66 3762   5.194   0.349   8.408
   36MYC    C67 3763   5.144   0.285   8.278
   36MYC    C68 3764   5.200   0.377   8.168
   36MYC    C69 3765   5.175   0.311   8.031
   36MYC    C70 3766   5.245   0.382   7.914
   36MYC    C71 3767   5.166   0.353   7.785
   36MYC    C72 3768   5.214   0.439   7.666
   36MYC    C73 3769   5.150   0.386   7.537
   36MYC    C74 3770   5.196   0.458   7.408
   36MYC    C75 3771   5.116   0.404   7.288
   36MYC    C76 3772   5.170   0.443   7.150
   36MYC    C77 3773   5.106   0.364   7.035
   36MYC    C78 3774   5.162   0.405   6.897
   36MYC    C79 3775   5.114   0.309   6.787
   36MYC    C80 3776   5.156   0.356   6.646
   36MYC    C81 3777   5.477   0.836   9.704
   36MYC    O82 3778   5.429   0.941   9.666
   36MYC    O83 3779   5.594   0.834   9.772
   36MYC     H1 3780   5.499   0.630   9.650
   36MYC     H2 3781   5.298   0.543   9.737
   36MYC     H3 3782   5.157   0.669   9.836
   36MYC     H4 3783   5.489   0.478   9.836
   36MYC     H5 3784   5.537   0.630   9.899
   36MYC     H6 3785   5.285   0.543  10.038
   36MYC     H7 3786   5.406   0.419  10.045
   36MYC     H8 3787   5.572   0.594  10.126
   36MYC     H9 3788   5.456   0.715  10.103
   36MYC   0H10 3789   5.067   0.255   9.956
   36MYC   1H10 3790   4.870   0.051   9.892
   36MYC   2H10 3791   4.791   0.195   9.846
   36MYC   3H10 3792   4.983   0.272   9.722
   36MYC   4H10 3793   5.059   0.108   9.738
   36MYC   5H10 3794   4.847   0.011   9.634
   36MYC   6H10 3795   4.812   0.185   9.590
   36MYC   7H10 3796   5.052   0.033   9.505
   36MYC   8H10 3797   4.909   0.054   9.402
   36MYC   9H10 3798   4.963   0.299   9.409
   36MYC    H10 3799   5.321   0.627  10.291
   36MYC   0H11 3800   5.115   0.270   9.491
   36MYC   1H11 3801   5.145   0.085   9.296
   36MYC   2H11 3802   5.223   0.379   9.281
   36MYC   3H11 3803   5.306   0.239   9.201
   36MYC   4H11 3804   5.012   0.339   9.158
   36MYC   5H11 3805   5.174   0.110   9.031
   36MYC   6H11 3806   5.003   0.147   8.994
   36MYC   7H11 3807   5.073   0.378   8.916
   36MYC   8H11 3808   5.239   0.337   8.948
   36MYC   9H11 3809   5.217   0.153   8.774
   36MYC    H11 3810   5.408   0.476  10.284
   36MYC   0H12 3811   5.045   0.182   8.758
   36MYC   1H12 3812   5.083   0.413   8.678
   36MYC   2H12 3813   5.263   0.378   8.675
   36MYC   3H12 3814   5.183   0.174   8.539
   36MYC   4H12 3815   5.030   0.246   8.524
   36MYC   5H12 3816   5.159   0.453   8.407
   36MYC   6H12 3817   5.304   0.350   8.418
   36MYC   7H12 3818   5.187   0.185   8.267
   36MYC   8H12 3819   5.034   0.283   8.280
   36MYC   9H12 3820   5.143   0.471   8.171
   36MYC    H12 3821   5.620   0.614  10.356
   36MYC   0H13 3822   5.305   0.397   8.193
   36MYC   1H13 3823   5.211   0.207   8.031
   36MYC   2H13 3824   5.068   0.305   8.012
   36MYC   3H13 3825   5.254   0.490   7.927
   36MYC   4H13 3826   5.350   0.351   7.905
   36MYC   5H13 3827   5.165   0.247   7.758
   36MYC   6H13 3828   5.061   0.383   7.798
   36MYC   7H13 3829   5.194   0.544   7.687
   36MYC   8H13 3830   5.324   0.431   7.662
   36MYC   9H13 3831   5.171   0.279   7.528
   36MYC    H13 3832   5.509   0.758  10.362
   36MYC   0H14 3833   5.042   0.397   7.553
   36MYC   1H14 3834   5.185   0.565   7.426
   36MYC   2H14 3835   5.304   0.447   7.395
   36MYC   3H14 3836   5.117   0.294   7.288
   36MYC   4H14 3837   5.007   0.413   7.300
   36MYC   5H14 3838   5.141   0.546   7.125
   36MYC   6H14 3839   5.280   0.441   7.149
   36MYC   7H14 3840   5.119   0.257   7.050
   36MYC   8H14 3841   4.998   0.383   7.030
   36MYC   9H14 3842   5.133   0.508   6.875
   36MYC    H14 3843   5.369   0.650  10.534
   36MYC   0H15 3844   5.270   0.423   6.894
   36MYC   1H15 3845   5.156   0.209   6.799
   36MYC   2H15 3846   5.005   0.299   6.786
   36MYC   3H15 3847   5.265   0.363   6.642
   36MYC   4H15 3848   5.105   0.451   6.629
   36MYC   5H15 3849   5.123   0.287   6.568
   36MYC   6H15 3850   5.606   0.930   9.781
   36MYC    H15 3851   5.485   0.517  10.550
   36MYC    H16 3852   5.655   0.706  10.582
   36MYC    H17 3853   5.521   0.818  10.602
   36MYC    H18 3854   5.607   0.589  10.789
   36MYC    H19 3855   5.606   0.762  10.811
   36MYC    H20 3856   5.360   0.776  10.793
   36MYC    H21 3857   5.349   0.594  10.777
   36MYC    H22 3858   5.486   0.611  11.005
   36MYC    H23 3859   5.408   0.770  11.014
   36MYC    H24 3860   5.186   0.644  10.959
   36MYC    H25 3861   5.278   0.496  11.009
   36MYC    H26 3862   5.334   0.646  11.229
   36MYC    H27 3863   5.177   0.716  11.181
   36MYC    H28 3864   5.224   0.423  11.234
   36MYC    H29 3865   5.138   0.532  11.333
   36MYC    H30 3866   4.977   0.578  11.135
   36MYC    H31 3867   5.101   0.328  11.016
   36MYC    H32 3868   4.843   0.370  11.192
   36MYC    H33 3869   4.998   0.285  11.248
   36MYC    H34 3870   5.280   0.590   9.532
   36MYC    H35 3871   5.234   0.752   9.565
   36MYC    H36 3872   5.392   0.841   9.422
   36MYC    H37 3873   5.484   0.687   9.406
   36MYC    H38 3874   5.284   0.582   9.297
   36MYC    H39 3875   5.197   0.736   9.310
   36MYC    H40 3876   5.362   0.848   9.161
   36MYC    H41 3877   5.460   0.709   9.152
   36MYC    H42 3878   5.267   0.594   9.020
   36MYC    H43 3879   5.176   0.743   9.034
   36MYC    H44 3880   5.370   0.862   8.918
   36MYC    H45 3881   5.455   0.709   8.906
   36MYC    H46 3882   5.271   0.619   8.769
   36MYC    H47 3883   5.184   0.759   8.773
   36MYC    H48 3884   5.365   0.873   8.644
   36MYC    H49 3885   5.475   0.740   8.665
   36MYC    H50 3886   5.329   0.605   8.496
   36MYC    H51 3887   5.200   0.730   8.518
   36MYC    H52 3888   5.338   0.902   8.416
   36MYC    H53 3889   5.469   0.783   8.399
   36MYC    H54 3890   5.268   0.651   8.267
   36MYC    H55 3891   5.222   0.812   8.232
   36MYC    H56 3892   5.486   0.838   8.166
   36MYC    H57 3893   5.453   0.669   8.130
   36MYC    H58 3894   5.240   0.763   8.004
   36MYC    H59 3895   5.309   0.918   8.015
   36MYC    H60 3896   5.512   0.833   7.875
   36MYC    H61 3897   5.432   0.675   7.878
   36MYC    H62 3898   5.236   0.808   7.757
   36MYC    H63 3899   5.342   0.947   7.763
   36MYC    H64 3900   5.518   0.792   7.651
   36MYC    H65 3901   5.402   0.663   7.641
   36MYC    H66 3902   5.264   0.814   7.473
   36MYC    H67 3903   5.375   0.938   7.524
   36MYC    H68 3904   5.550   0.857   7.390
   36MYC    H69 3905   5.489   0.687   7.387
   36MYC    H70 3906   5.296   0.739   7.258
   36MYC    H71 3907   5.357   0.905   7.228
   36MYC    H72 3908   5.570   0.797   7.135
   36MYC    H73 3909   5.510   0.642   7.160
   36MYC    H74 3910   5.349   0.639   7.000
   36MYC    H75 3911   5.348   0.817   6.975
   36MYC    H76 3912   5.565   0.820   6.867
   36MYC    H77 3913   5.589   0.657   6.923
   36MYC    H78 3914   5.404   0.574   6.775
   36MYC    H79 3915   5.377   0.722   6.712
   36MYC    H80 3916   5.523   0.552   6.588
   36MYC    H81 3917   5.669   0.600   6.691
   36MYC    H82 3918   5.594   0.714   6.584
   36MYC    H83 3919   4.816   0.363  10.967
   36MYC    H84 3920   4.915   0.495  10.891
   36MYC    H85 3921   4.946   0.198  10.862
   36MYC    H86 3922   4.857   0.304  10.750
   36MYC    H87 3923   5.074   0.418  10.696
   36MYC    H88 3924   5.151   0.302  10.803
   36MYC    H89 3925   5.180   0.166  10.617
   36MYC    H90 3926   5.013   0.125  10.637
   36MYC    H91 3927   4.945   0.338  10.504
   36MYC    H92 3928   5.111   0.347  10.452
   36MYC    H93 3929   5.088   0.098  10.379
   36MYC    H94 3930   4.918   0.114  10.403
   36MYC    H95 3931   4.929   0.313  10.250
   36MYC    H96 3932   5.101   0.276  10.207
   36MYC    H97 3933   5.018   0.062  10.110
   36MYC    H98 3934   4.852   0.123  10.131
   36MYC    H99 3935   4.910   0.323  10.008
   37MYC     C1 3936   5.899   1.077   9.535
   37MYC     C2 3937   5.950   0.938   9.575
   37MYC     O3 3938   5.861   0.827   9.564
   37MYC     C4 3939   6.019   0.932   9.712
   37MYC     C5 3940   5.936   0.908   9.840
   37MYC     C6 3941   6.006   0.951   9.970
   37MYC     C7 3942   5.906   0.937  10.087
   37MYC     C8 3943   5.968   0.989  10.217
   37MYC     C9 3944   5.881   0.995  10.344
   37MYC    C10 3945   5.935   1.092  10.450
   37MYC    C11 3946   5.852   1.105  10.579
   37MYC    C12 3947   5.891   0.994  10.678
   37MYC    C13 3948   5.826   0.998  10.817
   37MYC    C14 3949   5.896   0.918  10.929
   37MYC    C15 3950   5.819   0.928  11.061
   37MYC    C16 3951   5.851   0.816  11.161
   37MYC    C17 3952   5.788   0.679  11.137
   37MYC    C18 3953   5.869   0.554  11.114
   37MYC    C19 3954   5.790   0.571  11.241
   37MYC    C20 3955   5.817   1.081   9.405
   37MYC    C21 3956   5.915   1.080   9.286
   37MYC    C22 3957   5.842   1.101   9.153
   37MYC    C23 3958   5.941   1.083   9.036
   37MYC    C24 3959   5.875   1.100   8.898
   37MYC    C25 3960   5.941   1.019   8.785
   37MYC    C26 3961   5.861   1.013   8.653
   37MYC    C27 3962   5.933   0.929   8.546
   37MYC    C28 3963   5.849   0.926   8.418
   37MYC    C29 3964   5.915   0.838   8.310
   37MYC    C30 3965   5.855   0.874   8.173
   37MYC    C31 3966   5.912   0.792   8.056
   37MYC    C32 3967   5.863   0.861   7.927
   37MYC    C33 3968   5.904   0.784   7.801
   37MYC    C34 3969   5.876   0.876   7.680
   37MYC    C35 3970   5.866   0.789   7.554
   37MYC    C36 3971   5.856   0.877   7.428
   37MYC    C37 3972   5.854   0.797   7.296
   37MYC    C38 3973   5.861   0.885   7.171
   37MYC    C39 3974   5.876   0.806   7.040
   37MYC    C40 3975   5.872   0.896   6.915
   37MYC    C41 3976   5.894   0.811   6.788
   37MYC    C42 3977   5.883   0.893   6.658
   37MYC    C43 3978   5.961   0.824   6.545
   37MYC    C44 3979   5.822   0.457  11.007
   37MYC    C45 3980   5.932   0.431  10.903
   37MYC    C46 3981   5.894   0.481  10.763
   37MYC    C47 3982   5.990   0.440  10.651
   37MYC    C48 3983   5.963   0.509  10.516
   37MYC    C49 3984   6.042   0.444  10.401
   37MYC    C50 3985   6.025   0.524  10.271
   37MYC    C51 3986   6.085   0.459  10.145
   37MYC    C52 3987   6.092   0.550  10.022
   37MYC    C53 3988   6.152   0.472   9.904
   37MYC    C54 3989   6.126   0.552   9.775
   37MYC    C55 3990   6.186   0.475   9.656
   37MYC    C56 3991   6.164   0.538   9.518
   37MYC    C57 3992   6.242   0.454   9.415
   37MYC    C58 3993   6.221   0.508   9.274
   37MYC    C59 3994   6.104   0.463   9.190
   37MYC    C60 3995   6.242   0.410   9.162
   37MYC    C61 3996   6.309   0.451   9.031
   37MYC    C62 3997   6.216   0.400   8.920
   37MYC    C63 3998   6.270   0.430   8.779
   37MYC    C64 3999   6.170   0.459   8.666
   37MYC    C65 4000   6.245   0.463   8.532
   37MYC    C66 4001   6.141   0.462   8.418
   37MYC    C67 4002   6.216   0.447   8.285
   37MYC    C68 4003   6.115   0.470   8.171
   37MYC    C69 4004   6.187   0.459   8.035
   37MYC    C70 4005   6.087   0.482   7.921
   37MYC    C71 4006   6.157   0.453   7.788
   37MYC    C72 4007   6.053   0.442   7.676
   37MYC    C73 4008   6.125   0.426   7.541
   37MYC    C74 4009   6.035   0.442   7.418
   37MYC    C75 4010   6.119   0.406   7.294
   37MYC    C76 4011   6.053   0.447   7.161
   37MYC    C77 4012   6.147   0.420   7.043
   37MYC    C78 4013   6.083   0.424   6.903
   37MYC    C79 4014   6.181   0.404   6.786
   37MYC    C80 4015   6.117   0.418   6.646
   37MYC    C81 4016   5.823   1.135   9.653
   37MYC    O82 4017   5.703   1.124   9.673
   37MYC    O83 4018   5.891   1.215   9.738
   37MYC     H1 4019   5.985   1.145   9.519
   37MYC     H2 4020   6.042   0.925   9.518
   37MYC     H3 4021   5.889   0.761   9.630
   37MYC     H4 4022   6.090   0.849   9.702
   37MYC     H5 4023   6.085   1.019   9.726
   37MYC     H6 4024   5.835   0.951   9.834
   37MYC     H7 4025   5.919   0.800   9.851
   37MYC     H8 4026   6.094   0.888   9.984
   37MYC     H9 4027   6.052   1.050   9.960
   37MYC   0H10 4028   6.152   0.640  10.038
   37MYC   1H10 4029   6.259   0.453   9.919
   37MYC   2H10 4030   6.104   0.373   9.899
   37MYC   3H10 4031   6.019   0.572   9.762
   37MYC   4H10 4032   6.174   0.651   9.782
   37MYC   5H10 4033   6.292   0.455   9.680
   37MYC   6H10 4034   6.140   0.376   9.652
   37MYC   7H10 4035   6.064   0.554   9.475
   37MYC   8H10 4036   6.192   0.643   9.529
   37MYC   9H10 4037   6.350   0.455   9.435
   37MYC    H10 4038   5.817   0.999  10.069
   37MYC   0H11 4039   6.217   0.348   9.428
   37MYC   1H11 4040   6.255   0.610   9.259
   37MYC   2H11 4041   6.032   0.396   9.237
   37MYC   3H11 4042   6.061   0.550   9.141
   37MYC   4H11 4043   6.254   0.307   9.195
   37MYC   5H11 4044   6.321   0.559   9.038
   37MYC   6H11 4045   6.404   0.400   9.011
   37MYC   7H11 4046   6.220   0.293   8.944
   37MYC   8H11 4047   6.115   0.441   8.940
   37MYC   9H11 4048   6.334   0.519   8.780
   37MYC    H11 4049   5.876   0.833  10.101
   37MYC   0H12 4050   6.343   0.352   8.754
   37MYC   1H12 4051   6.100   0.375   8.669
   37MYC   2H12 4052   6.107   0.548   8.681
   37MYC   3H12 4053   6.309   0.552   8.528
   37MYC   4H12 4054   6.302   0.371   8.513
   37MYC   5H12 4055   6.063   0.386   8.433
   37MYC   6H12 4056   6.092   0.560   8.415
   37MYC   7H12 4057   6.293   0.525   8.292
   37MYC   8H12 4058   6.253   0.345   8.273
   37MYC   9H12 4059   6.045   0.386   8.181
   37MYC    H12 4060   6.057   0.927  10.236
   37MYC   0H13 4061   6.065   0.567   8.168
   37MYC   1H13 4062   6.268   0.531   8.016
   37MYC   2H13 4063   6.221   0.355   8.026
   37MYC   3H13 4064   5.999   0.417   7.929
   37MYC   4H13 4065   6.051   0.586   7.921
   37MYC   5H13 4066   6.230   0.532   7.762
   37MYC   6H13 4067   6.208   0.356   7.791
   37MYC   7H13 4068   5.990   0.353   7.692
   37MYC   8H13 4069   5.995   0.535   7.674
   37MYC   9H13 4070   6.207   0.499   7.535
   37MYC    H13 4071   6.009   1.090  10.200
   37MYC   0H14 4072   6.163   0.323   7.545
   37MYC   1H14 4073   5.943   0.382   7.431
   37MYC   2H14 4074   6.005   0.546   7.404
   37MYC   3H14 4075   6.220   0.449   7.297
   37MYC   4H14 4076   6.125   0.297   7.287
   37MYC   5H14 4077   5.960   0.389   7.162
   37MYC   6H14 4078   6.021   0.552   7.161
   37MYC   7H14 4079   6.238   0.481   7.038
   37MYC   8H14 4080   6.183   0.317   7.059
   37MYC   9H14 4081   6.006   0.346   6.898
   37MYC    H14 4082   5.778   1.017  10.314
   37MYC   0H15 4083   6.031   0.521   6.903
   37MYC   1H15 4084   6.260   0.478   6.801
   37MYC   2H15 4085   6.224   0.304   6.799
   37MYC   3H15 4086   6.190   0.378   6.575
   37MYC   4H15 4087   6.095   0.522   6.620
   37MYC   5H15 4088   6.024   0.362   6.635
   37MYC   6H15 4089   5.829   1.254   9.803
   37MYC    H15 4090   5.876   0.898  10.395
   37MYC    H16 4091   6.036   1.059  10.474
   37MYC    H17 4092   5.936   1.190  10.402
   37MYC    H18 4093   5.872   1.199  10.631
   37MYC    H19 4094   5.745   1.099  10.555
   37MYC    H20 4095   5.869   0.897  10.631
   37MYC    H21 4096   6.000   0.994  10.684
   37MYC    H22 4097   5.823   1.101  10.855
   37MYC    H23 4098   5.723   0.965  10.804
   37MYC    H24 4099   5.900   0.815  10.891
   37MYC    H25 4100   5.996   0.961  10.938
   37MYC    H26 4101   5.841   1.025  11.109
   37MYC    H27 4102   5.712   0.927  11.036
   37MYC    H28 4103   5.960   0.808  11.165
   37MYC    H29 4104   5.820   0.841  11.263
   37MYC    H30 4105   5.708   0.678  11.063
   37MYC    H31 4106   5.977   0.555  11.128
   37MYC    H32 4107   5.697   0.516  11.251
   37MYC    H33 4108   5.840   0.593  11.335
   37MYC    H34 4109   5.741   1.001   9.408
   37MYC    H35 4110   5.761   1.175   9.405
   37MYC    H36 4111   5.983   1.166   9.292
   37MYC    H37 4112   5.965   0.983   9.294
   37MYC    H38 4113   5.771   1.017   9.145
   37MYC    H39 4114   5.784   1.195   9.150
   37MYC    H40 4115   6.026   1.150   9.051
   37MYC    H41 4116   5.978   0.979   9.040
   37MYC    H42 4117   5.771   1.067   8.912
   37MYC    H43 4118   5.866   1.208   8.882
   37MYC    H44 4119   6.043   1.050   8.758
   37MYC    H45 4120   5.953   0.921   8.833
   37MYC    H46 4121   5.766   0.961   8.672
   37MYC    H47 4122   5.836   1.111   8.611
   37MYC    H48 4123   6.032   0.970   8.521
   37MYC    H49 4124   5.960   0.830   8.587
   37MYC    H50 4125   5.755   0.874   8.441
   37MYC    H51 4126   5.827   1.028   8.385
   37MYC    H52 4127   6.022   0.862   8.306
   37MYC    H53 4128   5.901   0.733   8.338
   37MYC    H54 4129   5.746   0.860   8.177
   37MYC    H55 4130   5.869   0.981   8.152
   37MYC    H56 4131   6.022   0.792   8.055
   37MYC    H57 4132   5.887   0.686   8.055
   37MYC    H58 4133   5.756   0.885   7.931
   37MYC    H59 4134   5.912   0.959   7.919
   37MYC    H60 4135   6.012   0.766   7.808
   37MYC    H61 4136   5.850   0.690   7.786
   37MYC    H62 4137   5.784   0.933   7.701
   37MYC    H63 4138   5.953   0.953   7.669
   37MYC    H64 4139   5.954   0.725   7.537
   37MYC    H65 4140   5.780   0.722   7.569
   37MYC    H66 4141   5.778   0.953   7.441
   37MYC    H67 4142   5.949   0.935   7.422
   37MYC    H68 4143   5.936   0.724   7.302
   37MYC    H69 4144   5.758   0.745   7.297
   37MYC    H70 4145   5.769   0.944   7.163
   37MYC    H71 4146   5.942   0.960   7.175
   37MYC    H72 4147   5.960   0.736   7.029
   37MYC    H73 4148   5.789   0.739   7.039
   37MYC    H74 4149   5.781   0.957   6.910
   37MYC    H75 4150   5.955   0.967   6.915
   37MYC    H76 4151   5.994   0.766   6.796
   37MYC    H77 4152   5.821   0.730   6.790
   37MYC    H78 4153   5.781   0.917   6.628
   37MYC    H79 4154   5.924   0.994   6.673
   37MYC    H80 4155   5.976   0.889   6.458
   37MYC    H81 4156   5.896   0.741   6.513
   37MYC    H82 4157   6.061   0.788   6.572
   37MYC    H83 4158   5.804   0.362  11.057
   37MYC    H84 4159   5.726   0.485  10.961
   37MYC    H85 4160   6.032   0.465  10.933
   37MYC    H86 4161   5.950   0.323  10.894
   37MYC    H87 4162   5.794   0.453  10.727
   37MYC    H88 4163   5.889   0.591  10.760
   37MYC    H89 4164   6.092   0.466  10.681
   37MYC    H90 4165   5.984   0.333  10.628
   37MYC    H91 4166   5.856   0.505  10.495
   37MYC    H92 4167   5.991   0.614  10.527
   37MYC    H93 4168   6.146   0.446  10.437
   37MYC    H94 4169   5.998   0.344  10.391
   37MYC    H95 4170   5.918   0.533  10.248
   37MYC    H96 4171   6.061   0.628  10.275
   37MYC    H97 4172   6.187   0.426  10.170
   37MYC    H98 4173   6.028   0.368  10.121
   37MYC    H99 4174   5.991   0.583   9.995
   38MYC     C1 4175   0.579   1.690   9.589
   38MYC     C2 4176   0.460   1.768   9.648
   38MYC     O3 4177   0.511   1.874   9.727
   38MYC     C4 4178   0.352   1.684   9.719
   38MYC     C5 4179   0.218   1.753   9.746
   38MYC     C6 4180   0.218   1.852   9.863
   38MYC     C7 4181   0.253   1.783   9.996
   38MYC     C8 4182   0.261   1.880  10.115
   38MYC     C9 4183   0.327   1.825  10.242
   38MYC    C10 4184   0.359   1.937  10.342
   38MYC    C11 4185   0.456   1.920  10.461
   38MYC    C12 4186   0.429   1.791  10.541
   38MYC    C13 4187   0.482   1.795  10.685
   38MYC    C14 4188   0.410   1.698  10.780
   38MYC    C15 4189   0.460   1.712  10.925
   38MYC    C16 4190   0.393   1.615  11.025
   38MYC    C17 4191   0.244   1.587  11.019
   38MYC    C18 4192   0.186   1.451  11.047
   38MYC    C19 4193   0.151   1.568  11.136
   38MYC    C20 4194   0.645   1.759   9.469
   38MYC    C21 4195   0.568   1.750   9.336
   38MYC    C22 4196   0.649   1.791   9.212
   38MYC    C23 4197   0.571   1.755   9.085
   38MYC    C24 4198   0.620   1.827   8.959
   38MYC    C25 4199   0.527   1.802   8.840
   38MYC    C26 4200   0.584   1.856   8.708
   38MYC    C27 4201   0.494   1.810   8.592
   38MYC    C28 4202   0.546   1.831   8.449
   38MYC    C29 4203   0.461   1.756   8.345
   38MYC    C30 4204   0.519   1.772   8.203
   38MYC    C31 4205   0.409   1.729   8.104
   38MYC    C32 4206   0.467   1.735   7.962
   38MYC    C33 4207   0.353   1.688   7.869
   38MYC    C34 4208   0.394   1.703   7.722
   38MYC    C35 4209   0.299   1.639   7.619
   38MYC    C36 4210   0.314   1.707   7.482
   38MYC    C37 4211   0.269   1.632   7.355
   38MYC    C38 4212   0.320   1.696   7.225
   38MYC    C39 4213   0.312   1.597   7.107
   38MYC    C40 4214   0.329   1.681   6.979
   38MYC    C41 4215   0.329   1.595   6.852
   38MYC    C42 4216   0.353   1.677   6.724
   38MYC    C43 4217   0.403   1.589   6.607
   38MYC    C44 4218   0.077   1.397  10.956
   38MYC    C45 4219   0.116   1.306  10.838
   38MYC    C46 4220   0.171   1.372  10.711
   38MYC    C47 4221   0.207   1.269  10.602
   38MYC    C48 4222   0.238   1.343  10.471
   38MYC    C49 4223   0.270   1.248  10.354
   38MYC    C50 4224   0.311   1.323  10.226
   38MYC    C51 4225   0.294   1.228  10.106
   38MYC    C52 4226   0.382   1.271   9.988
   38MYC    C53 4227   0.312   1.240   9.854
   38MYC    C54 4228   0.404   1.228   9.731
   38MYC    C55 4229   0.318   1.238   9.604
   38MYC    C56 4230   0.383   1.190   9.473
   38MYC    C57 4231   0.464   1.299   9.400
   38MYC    C58 4232   0.546   1.256   9.279
   38MYC    C59 4233   0.618   1.352   9.187
   38MYC    C60 4234   0.490   1.287   9.142
   38MYC    C61 4235   0.488   1.196   9.020
   38MYC    C62 4236   0.512   1.262   8.883
   38MYC    C63 4237   0.482   1.160   8.772
   38MYC    C64 4238   0.463   1.237   8.640
   38MYC    C65 4239   0.468   1.153   8.511
   38MYC    C66 4240   0.465   1.232   8.379
   38MYC    C67 4241   0.490   1.133   8.264
   38MYC    C68 4242   0.497   1.196   8.124
   38MYC    C69 4243   0.445   1.096   8.019
   38MYC    C70 4244   0.464   1.138   7.872
   38MYC    C71 4245   0.351   1.090   7.781
   38MYC    C72 4246   0.364   1.134   7.634
   38MYC    C73 4247   0.236   1.103   7.553
   38MYC    C74 4248   0.236   1.178   7.419
   38MYC    C75 4249   0.107   1.143   7.343
   38MYC    C76 4250   0.093   1.249   7.233
   38MYC    C77 4251   0.048   1.191   7.098
   38MYC    C78 4252   0.064   1.289   6.980
   38MYC    C79 4253   0.046   1.226   6.841
   38MYC    C80 4254   0.089   1.321   6.728
   38MYC    C81 4255   0.675   1.657   9.704
   38MYC    O82 4256   0.785   1.708   9.710
   38MYC    O83 4257   0.647   1.538   9.762
   38MYC     H1 4258   0.544   1.591   9.557
   38MYC     H2 4259   0.405   1.802   9.559
   38MYC     H3 4260   0.450   1.949   9.733
   38MYC     H4 4261   0.338   1.600   9.650
   38MYC     H5 4262   0.392   1.630   9.806
   38MYC     H6 4263   0.203   1.817   9.657
   38MYC     H7 4264   0.128   1.690   9.750
   38MYC     H8 4265   0.283   1.938   9.842
   38MYC     H9 4266   0.121   1.899   9.884
   38MYC   0H10 4267   0.469   1.206   9.998
   38MYC   1H10 4268   0.258   1.145   9.863
   38MYC   2H10 4269   0.236   1.316   9.833
   38MYC   3H10 4270   0.467   1.318   9.719
   38MYC   4H10 4271   0.463   1.136   9.731
   38MYC   5H10 4272   0.229   1.175   9.617
   38MYC   6H10 4273   0.272   1.337   9.595
   38MYC   7H10 4274   0.448   1.104   9.492
   38MYC   8H10 4275   0.303   1.166   9.402
   38MYC   9H10 4276   0.413   1.390   9.366
   38MYC    H10 4277   0.184   1.701  10.018
   38MYC   0H11 4278   0.538   1.328   9.475
   38MYC   1H11 4279   0.599   1.164   9.298
   38MYC   2H11 4280   0.604   1.459   9.197
   38MYC   3H11 4281   0.711   1.319   9.140
   38MYC   4H11 4282   0.412   1.362   9.133
   38MYC   5H11 4283   0.563   1.118   9.040
   38MYC   6H11 4284   0.393   1.144   9.004
   38MYC   7H11 4285   0.449   1.350   8.867
   38MYC   8H11 4286   0.614   1.302   8.880
   38MYC   9H11 4287   0.567   1.092   8.757
   38MYC    H11 4288   0.354   1.739   9.985
   38MYC   0H12 4289   0.399   1.092   8.791
   38MYC   1H12 4290   0.371   1.298   8.641
   38MYC   2H12 4291   0.550   1.302   8.627
   38MYC   3H12 4292   0.564   1.099   8.518
   38MYC   4H12 4293   0.392   1.074   8.514
   38MYC   5H12 4294   0.361   1.266   8.376
   38MYC   6H12 4295   0.531   1.320   8.377
   38MYC   7H12 4296   0.577   1.069   8.284
   38MYC   8H12 4297   0.413   1.055   8.264
   38MYC   9H12 4298   0.422   1.275   8.113
   38MYC    H12 4299   0.311   1.966  10.070
   38MYC   0H13 4300   0.599   1.234   8.107
   38MYC   1H13 4301   0.516   1.015   8.041
   38MYC   2H13 4302   0.344   1.061   8.041
   38MYC   3H13 4303   0.482   1.246   7.869
   38MYC   4H13 4304   0.561   1.093   7.844
   38MYC   5H13 4305   0.334   0.982   7.786
   38MYC   6H13 4306   0.255   1.128   7.818
   38MYC   7H13 4307   0.382   1.242   7.626
   38MYC   8H13 4308   0.445   1.080   7.583
   38MYC   9H13 4309   0.231   0.994   7.549
   38MYC    H13 4310   0.155   1.903  10.133
   38MYC   0H14 4311   0.145   1.137   7.605
   38MYC   1H14 4312   0.238   1.286   7.440
   38MYC   2H14 4313   0.320   1.149   7.354
   38MYC   3H14 4314   0.111   1.040   7.305
   38MYC   4H14 4315   0.029   1.160   7.419
   38MYC   5H14 4316   0.025   1.327   7.269
   38MYC   6H14 4317   0.182   1.312   7.220
   38MYC   7H14 4318   0.113   1.107   7.070
   38MYC   8H14 4319  -0.060   1.170   7.096
   38MYC   9H14 4320  -0.005   1.374   6.993
   38MYC    H14 4321   0.265   1.743  10.281
   38MYC   0H15 4322   0.164   1.333   6.985
   38MYC   1H15 4323   0.114   1.141   6.826
   38MYC   2H15 4324  -0.056   1.201   6.810
   38MYC   3H15 4325   0.195   1.346   6.735
   38MYC   4H15 4326   0.035   1.417   6.730
   38MYC   5H15 4327   0.073   1.284   6.626
   38MYC   6H15 4328   0.728   1.502   9.802
   38MYC    H15 4329   0.415   1.766  10.212
   38MYC    H16 4330   0.381   2.032  10.292
   38MYC    H17 4331   0.257   1.949  10.379
   38MYC    H18 4332   0.561   1.923  10.432
   38MYC    H19 4333   0.455   2.012  10.520
   38MYC    H20 4334   0.323   1.762  10.538
   38MYC    H21 4335   0.486   1.710  10.493
   38MYC    H22 4336   0.591   1.780  10.688
   38MYC    H23 4337   0.473   1.898  10.722
   38MYC    H24 4338   0.302   1.714  10.776
   38MYC    H25 4339   0.430   1.595  10.746
   38MYC    H26 4340   0.569   1.712  10.931
   38MYC    H27 4341   0.432   1.814  10.954
   38MYC    H28 4342   0.450   1.521  11.020
   38MYC    H29 4343   0.421   1.663  11.119
   38MYC    H30 4344   0.198   1.634  10.932
   38MYC    H31 4345   0.239   1.369  11.095
   38MYC    H32 4346   0.052   1.609  11.121
   38MYC    H33 4347   0.188   1.577  11.238
   38MYC    H34 4348   0.654   1.864   9.497
   38MYC    H35 4349   0.749   1.725   9.454
   38MYC    H36 4350   0.523   1.650   9.323
   38MYC    H37 4351   0.484   1.820   9.341
   38MYC    H38 4352   0.670   1.899   9.212
   38MYC    H39 4353   0.745   1.740   9.222
   38MYC    H40 4354   0.589   1.647   9.070
   38MYC    H41 4355   0.463   1.770   9.098
   38MYC    H42 4356   0.616   1.936   8.975
   38MYC    H43 4357   0.724   1.795   8.940
   38MYC    H44 4358   0.508   1.694   8.840
   38MYC    H45 4359   0.424   1.840   8.852
   38MYC    H46 4360   0.591   1.966   8.703
   38MYC    H47 4361   0.686   1.818   8.694
   38MYC    H48 4362   0.468   1.703   8.601
   38MYC    H49 4363   0.393   1.854   8.598
   38MYC    H50 4364   0.532   1.939   8.438
   38MYC    H51 4365   0.649   1.794   8.446
   38MYC    H52 4366   0.467   1.648   8.358
   38MYC    H53 4367   0.357   1.792   8.345
   38MYC    H54 4368   0.540   1.879   8.192
   38MYC    H55 4369   0.617   1.724   8.199
   38MYC    H56 4370   0.367   1.630   8.123
   38MYC    H57 4371   0.331   1.805   8.118
   38MYC    H58 4372   0.497   1.838   7.937
   38MYC    H59 4373   0.557   1.673   7.958
   38MYC    H60 4374   0.334   1.582   7.889
   38MYC    H61 4375   0.261   1.745   7.881
   38MYC    H62 4376   0.394   1.812   7.704
   38MYC    H63 4377   0.488   1.648   7.717
   38MYC    H64 4378   0.331   1.535   7.605
   38MYC    H65 4379   0.198   1.637   7.659
   38MYC    H66 4380   0.260   1.803   7.483
   38MYC    H67 4381   0.419   1.732   7.466
   38MYC    H68 4382   0.301   1.528   7.362
   38MYC    H69 4383   0.160   1.623   7.346
   38MYC    H70 4384   0.255   1.783   7.216
   38MYC    H71 4385   0.424   1.729   7.241
   38MYC    H72 4386   0.387   1.518   7.117
   38MYC    H73 4387   0.219   1.538   7.104
   38MYC    H74 4388   0.252   1.758   6.967
   38MYC    H75 4389   0.419   1.744   6.978
   38MYC    H76 4390   0.416   1.529   6.862
   38MYC    H77 4391   0.238   1.534   6.840
   38MYC    H78 4392   0.258   1.725   6.698
   38MYC    H79 4393   0.428   1.753   6.749
   38MYC    H80 4394   0.402   1.655   6.519
   38MYC    H81 4395   0.344   1.498   6.591
   38MYC    H82 4396   0.508   1.562   6.621
   38MYC    H83 4397   0.015   1.333  11.020
   38MYC    H84 4398   0.012   1.475  10.914
   38MYC    H85 4399   0.193   1.241  10.881
   38MYC    H86 4400   0.029   1.245  10.811
   38MYC    H87 4401   0.109   1.452  10.668
   38MYC    H88 4402   0.266   1.425  10.729
   38MYC    H89 4403   0.298   1.217  10.635
   38MYC    H90 4404   0.117   1.208  10.585
   38MYC    H91 4405   0.155   1.406  10.438
   38MYC    H92 4406   0.332   1.399  10.483
   38MYC    H93 4407   0.354   1.183  10.382
   38MYC    H94 4408   0.185   1.180  10.340
   38MYC    H95 4409   0.243   1.409  10.218
   38MYC    H96 4410   0.416   1.356  10.228
   38MYC    H97 4411   0.331   1.130  10.140
   38MYC    H98 4412   0.188   1.217  10.079
   38MYC    H99 4413   0.413   1.375  10.001
   39MYC     C1 4414   0.983   1.400   9.604
   39MYC     C2 4415   1.068   1.428   9.729
   39MYC     O3 4416   1.187   1.352   9.726
   39MYC     C4 4417   0.996   1.393   9.861
   39MYC     C5 4418   1.080   1.439   9.982
   39MYC     C6 4419   0.997   1.407  10.108
   39MYC     C7 4420   1.080   1.419  10.236
   39MYC     C8 4421   1.042   1.325  10.352
   39MYC     C9 4422   0.897   1.354  10.395
   39MYC    C10 4423   0.834   1.247  10.487
   39MYC    C11 4424   0.700   1.292  10.548
   39MYC    C12 4425   0.694   1.390  10.667
   39MYC    C13 4426   0.826   1.384  10.745
   39MYC    C14 4427   0.817   1.466  10.875
   39MYC    C15 4428   0.954   1.477  10.944
   39MYC    C16 4429   0.964   1.582  11.056
   39MYC    C17 4430   1.111   1.590  11.094
   39MYC    C18 4431   1.173   1.708  11.166
   39MYC    C19 4432   1.146   1.579  11.240
   39MYC    C20 4433   1.059   1.426   9.473
   39MYC    C21 4434   0.961   1.449   9.358
   39MYC    C22 4435   1.025   1.452   9.218
   39MYC    C23 4436   0.931   1.517   9.115
   39MYC    C24 4437   0.959   1.463   8.974
   39MYC    C25 4438   0.871   1.516   8.860
   39MYC    C26 4439   0.894   1.436   8.731
   39MYC    C27 4440   0.851   1.503   8.599
   39MYC    C28 4441   0.866   1.403   8.482
   39MYC    C29 4442   0.849   1.467   8.344
   39MYC    C30 4443   0.826   1.368   8.228
   39MYC    C31 4444   0.855   1.447   8.100
   39MYC    C32 4445   0.815   1.375   7.970
   39MYC    C33 4446   0.884   1.423   7.841
   39MYC    C34 4447   0.867   1.334   7.718
   39MYC    C35 4448   0.954   1.376   7.598
   39MYC    C36 4449   0.932   1.299   7.467
   39MYC    C37 4450   0.987   1.354   7.334
   39MYC    C38 4451   1.008   1.247   7.225
   39MYC    C39 4452   1.033   1.322   7.093
   39MYC    C40 4453   1.059   1.217   6.984
   39MYC    C41 4454   1.135   1.281   6.867
   39MYC    C42 4455   1.160   1.194   6.742
   39MYC    C43 4456   1.283   1.239   6.662
   39MYC    C44 4457   1.319   1.746  11.144
   39MYC    C45 4458   1.346   1.834  11.021
   39MYC    C46 4459   1.308   1.774  10.885
   39MYC    C47 4460   1.361   1.860  10.769
   39MYC    C48 4461   1.332   1.787  10.637
   39MYC    C49 4462   1.387   1.869  10.519
   39MYC    C50 4463   1.357   1.795  10.387
   39MYC    C51 4464   1.379   1.883  10.263
   39MYC    C52 4465   1.327   1.825  10.130
   39MYC    C53 4466   1.343   1.933  10.021
   39MYC    C54 4467   1.333   1.886   9.875
   39MYC    C55 4468   1.331   1.994   9.766
   39MYC    C56 4469   1.315   1.945   9.621
   39MYC    C57 4470   1.279   2.055   9.520
   39MYC    C58 4471   1.185   2.013   9.407
   39MYC    C59 4472   1.213   1.879   9.344
   39MYC    C60 4473   1.229   2.005   9.263
   39MYC    C61 4474   1.132   2.034   9.149
   39MYC    C62 4475   1.183   1.979   9.014
   39MYC    C63 4476   1.094   2.002   8.891
   39MYC    C64 4477   1.113   1.890   8.788
   39MYC    C65 4478   1.051   1.909   8.648
   39MYC    C66 4479   1.125   1.826   8.542
   39MYC    C67 4480   1.089   1.878   8.402
   39MYC    C68 4481   1.150   1.796   8.287
   39MYC    C69 4482   1.105   1.840   8.146
   39MYC    C70 4483   1.164   1.771   8.022
   39MYC    C71 4484   1.100   1.824   7.892
   39MYC    C72 4485   1.139   1.735   7.773
   39MYC    C73 4486   1.080   1.786   7.640
   39MYC    C74 4487   1.148   1.718   7.520
   39MYC    C75 4488   1.097   1.758   7.381
   39MYC    C76 4489   1.192   1.722   7.265
   39MYC    C77 4490   1.142   1.772   7.129
   39MYC    C78 4491   1.243   1.741   7.017
   39MYC    C79 4492   1.181   1.758   6.877
   39MYC    C80 4493   1.284   1.752   6.763
   39MYC    C81 4494   0.935   1.256   9.604
   39MYC    O82 4495   0.820   1.227   9.631
   39MYC    O83 4496   1.030   1.163   9.582
   39MYC     H1 4497   0.891   1.460   9.610
   39MYC     H2 4498   1.093   1.535   9.732
   39MYC     H3 4499   1.167   1.268   9.682
   39MYC     H4 4500   0.898   1.442   9.857
   39MYC     H5 4501   0.982   1.285   9.871
   39MYC     H6 4502   1.182   1.399   9.982
   39MYC     H7 4503   1.089   1.547   9.967
   39MYC     H8 4504   0.905   1.466  10.116
   39MYC     H9 4505   0.968   1.301  10.097
   39MYC   0H10 4506   1.221   1.798  10.134
   39MYC   1H10 4507   1.282   2.023  10.038
   39MYC   2H10 4508   1.445   1.971  10.030
   39MYC   3H10 4509   1.423   1.826   9.855
   39MYC   4H10 4510   1.246   1.825   9.847
   39MYC   5H10 4511   1.250   2.064   9.789
   39MYC   6H10 4512   1.426   2.049   9.769
   39MYC   7H10 4513   1.409   1.895   9.594
   39MYC   8H10 4514   1.239   1.866   9.621
   39MYC   9H10 4515   1.243   2.149   9.562
   39MYC    H10 4516   1.186   1.410  10.209
   39MYC   0H11 4517   1.371   2.092   9.474
   39MYC   1H11 4518   1.082   2.040   9.433
   39MYC   2H11 4519   1.308   1.829   9.361
   39MYC   3H11 4520   1.132   1.811   9.319
   39MYC   4H11 4521   1.331   2.037   9.243
   39MYC   5H11 4522   1.028   2.001   9.162
   39MYC   6H11 4523   1.123   2.143   9.145
   39MYC   7H11 4524   1.284   2.020   8.998
   39MYC   8H11 4525   1.193   1.870   9.023
   39MYC   9H11 4526   0.990   1.991   8.921
   39MYC    H11 4527   1.061   1.523  10.265
   39MYC   0H12 4528   1.115   2.102   8.850
   39MYC   1H12 4529   1.222   1.875   8.784
   39MYC   2H12 4530   1.074   1.795   8.827
   39MYC   3H12 4531   0.945   1.883   8.654
   39MYC   4H12 4532   1.056   2.018   8.636
   39MYC   5H12 4533   1.232   1.820   8.566
   39MYC   6H12 4534   1.088   1.722   8.545
   39MYC   7H12 4535   0.981   1.890   8.385
   39MYC   8H12 4536   1.128   1.980   8.392
   39MYC   9H12 4537   1.258   1.811   8.293
   39MYC    H12 4538   1.059   1.220  10.326
   39MYC   0H13 4539   1.142   1.690   8.313
   39MYC   1H13 4540   0.996   1.825   8.146
   39MYC   2H13 4541   1.131   1.946   8.137
   39MYC   3H13 4542   1.273   1.781   8.023
   39MYC   4H13 4543   1.150   1.663   8.032
   39MYC   5H13 4544   0.993   1.836   7.913
   39MYC   6H13 4545   1.145   1.922   7.871
   39MYC   7H13 4546   1.248   1.744   7.764
   39MYC   8H13 4547   1.121   1.630   7.798
   39MYC   9H13 4548   0.971   1.778   7.630
   39MYC    H13 4549   1.109   1.349  10.435
   39MYC   0H14 4550   1.116   1.889   7.647
   39MYC   1H14 4551   1.256   1.736   7.530
   39MYC   2H14 4552   1.134   1.610   7.527
   39MYC   3H14 4553   0.998   1.710   7.371
   39MYC   4H14 4554   1.082   1.866   7.383
   39MYC   5H14 4555   1.294   1.756   7.287
   39MYC   6H14 4556   1.196   1.612   7.266
   39MYC   7H14 4557   1.045   1.729   7.100
   39MYC   8H14 4558   1.128   1.880   7.138
   39MYC   9H14 4559   1.332   1.804   7.029
   39MYC    H14 4560   0.882   1.454  10.437
   39MYC   0H15 4561   1.288   1.641   7.022
   39MYC   1H15 4562   1.106   1.678   6.867
   39MYC   2H15 4563   1.123   1.850   6.869
   39MYC   3H15 4564   1.339   1.657   6.757
   39MYC   4H15 4565   1.358   1.831   6.782
   39MYC   5H15 4566   1.228   1.763   6.669
   39MYC   6H15 4567   0.982   1.078   9.576
   39MYC    H15 4568   0.836   1.366  10.305
   39MYC    H16 4569   0.806   1.162  10.424
   39MYC    H17 4570   0.908   1.205  10.556
   39MYC    H18 4571   0.633   1.329  10.470
   39MYC    H19 4572   0.646   1.204  10.585
   39MYC    H20 4573   0.681   1.493  10.633
   39MYC    H21 4574   0.615   1.364  10.739
   39MYC    H22 4575   0.843   1.278  10.768
   39MYC    H23 4576   0.905   1.418  10.677
   39MYC    H24 4577   0.775   1.567  10.863
   39MYC    H25 4578   0.750   1.423  10.950
   39MYC    H26 4579   0.974   1.376  10.981
   39MYC    H27 4580   1.025   1.503  10.864
   39MYC    H28 4581   0.917   1.676  11.025
   39MYC    H29 4582   0.902   1.560  11.144
   39MYC    H30 4583   1.172   1.533  11.024
   39MYC    H31 4584   1.105   1.791  11.183
   39MYC    H32 4585   1.235   1.525  11.270
   39MYC    H33 4586   1.064   1.571  11.312
   39MYC    H34 4587   1.124   1.514   9.480
   39MYC    H35 4588   1.128   1.346   9.445
   39MYC    H36 4589   0.884   1.370   9.360
   39MYC    H37 4590   0.915   1.546   9.380
   39MYC    H38 4591   1.116   1.511   9.235
   39MYC    H39 4592   1.067   1.354   9.193
   39MYC    H40 4593   0.828   1.500   9.148
   39MYC    H41 4594   0.947   1.625   9.116
   39MYC    H42 4595   1.065   1.485   8.952
   39MYC    H43 4596   0.951   1.354   8.979
   39MYC    H44 4597   0.766   1.508   8.891
   39MYC    H45 4598   0.897   1.621   8.839
   39MYC    H46 4599   0.999   1.404   8.724
   39MYC    H47 4600   0.830   1.348   8.742
   39MYC    H48 4601   0.748   1.539   8.604
   39MYC    H49 4602   0.910   1.592   8.575
   39MYC    H50 4603   0.970   1.370   8.484
   39MYC    H51 4604   0.793   1.321   8.488
   39MYC    H52 4605   0.776   1.547   8.328
   39MYC    H53 4606   0.937   1.530   8.329
   39MYC    H54 4607   0.884   1.275   8.232
   39MYC    H55 4608   0.719   1.344   8.240
   39MYC    H56 4609   0.802   1.543   8.093
   39MYC    H57 4610   0.960   1.479   8.096
   39MYC    H58 4611   0.828   1.266   7.974
   39MYC    H59 4612   0.708   1.387   7.948
   39MYC    H60 4613   0.859   1.528   7.820
   39MYC    H61 4614   0.993   1.420   7.853
   39MYC    H62 4615   0.893   1.230   7.744
   39MYC    H63 4616   0.763   1.320   7.688
   39MYC    H64 4617   0.934   1.483   7.582
   39MYC    H65 4618   1.061   1.374   7.624
   39MYC    H66 4619   0.964   1.196   7.487
   39MYC    H67 4620   0.823   1.297   7.457
   39MYC    H68 4621   0.922   1.434   7.297
   39MYC    H69 4622   1.083   1.403   7.355
   39MYC    H70 4623   1.095   1.186   7.251
   39MYC    H71 4624   0.922   1.179   7.218
   39MYC    H72 4625   0.950   1.384   7.057
   39MYC    H73 4626   1.121   1.386   7.109
   39MYC    H74 4627   1.113   1.125   7.010
   39MYC    H75 4628   0.962   1.172   6.959
   39MYC    H76 4629   1.082   1.370   6.834
   39MYC    H77 4630   1.233   1.315   6.902
   39MYC    H78 4631   1.188   1.092   6.772
   39MYC    H79 4632   1.065   1.190   6.686
   39MYC    H80 4633   1.312   1.165   6.586
   39MYC    H81 4634   1.367   1.255   6.731
   39MYC    H82 4635   1.265   1.330   6.603
   39MYC    H83 4636   1.353   1.810  11.227
   39MYC    H84 4637   1.380   1.655  11.142
   39MYC    H85 4638   1.287   1.926  11.029
   39MYC    H86 4639   1.449   1.872  11.030
   39MYC    H87 4640   1.351   1.673  10.876
   39MYC    H88 4641   1.199   1.764  10.872
   39MYC    H89 4642   1.307   1.953  10.790
   39MYC    H90 4643   1.468   1.881  10.776
   39MYC    H91 4644   1.369   1.683  10.637
   39MYC    H92 4645   1.224   1.790  10.622
   39MYC    H93 4646   1.338   1.967  10.513
   39MYC    H94 4647   1.496   1.874  10.521
   39MYC    H95 4648   1.417   1.703  10.387
   39MYC    H96 4649   1.249   1.778  10.375
   39MYC    H97 4650   1.328   1.979  10.279
   39MYC    H98 4651   1.487   1.897  10.250
   39MYC    H99 4652   1.398   1.743  10.114
   40MYC     C1 4653   1.898   0.970   9.623
   40MYC     C2 4654   1.836   1.081   9.710
   40MYC     O3 4655   1.937   1.154   9.778
   40MYC     C4 4656   1.729   1.039   9.813
   40MYC     C5 4657   1.711   1.131   9.935
   40MYC     C6 4658   1.781   1.083  10.063
   40MYC     C7 4659   1.740   1.157  10.192
   40MYC     C8 4660   1.835   1.144  10.312
   40MYC     C9 4661   1.979   1.195  10.294
   40MYC    C10 4662   2.091   1.110  10.357
   40MYC    C11 4663   2.063   1.064  10.501
   40MYC    C12 4664   2.028   1.171  10.606
   40MYC    C13 4665   2.015   1.111  10.747
   40MYC    C14 4666   1.961   1.208  10.853
   40MYC    C15 4667   2.006   1.179  10.997
   40MYC    C16 4668   1.928   1.253  11.108
   40MYC    C17 4669   1.947   1.402  11.127
   40MYC    C18 4670   1.857   1.503  11.059
   40MYC    C19 4671   1.846   1.480  11.208
   40MYC    C20 4672   1.971   1.017   9.496
   40MYC    C21 4673   1.883   1.072   9.383
   40MYC    C22 4674   1.970   1.102   9.259
   40MYC    C23 4675   1.893   1.147   9.134
   40MYC    C24 4676   1.970   1.186   9.006
   40MYC    C25 4677   1.880   1.190   8.882
   40MYC    C26 4678   1.962   1.222   8.756
   40MYC    C27 4679   1.890   1.186   8.625
   40MYC    C28 4680   1.993   1.169   8.513
   40MYC    C29 4681   1.912   1.152   8.383
   40MYC    C30 4682   2.000   1.182   8.261
   40MYC    C31 4683   1.924   1.163   8.129
   40MYC    C32 4684   2.000   1.202   8.001
   40MYC    C33 4685   1.914   1.170   7.877
   40MYC    C34 4686   1.979   1.223   7.748
   40MYC    C35 4687   1.898   1.200   7.620
   40MYC    C36 4688   1.977   1.258   7.501
   40MYC    C37 4689   1.888   1.242   7.378
   40MYC    C38 4690   1.946   1.296   7.246
   40MYC    C39 4691   1.880   1.234   7.121
   40MYC    C40 4692   1.927   1.283   6.983
   40MYC    C41 4693   1.866   1.204   6.866
   40MYC    C42 4694   1.905   1.260   6.728
   40MYC    C43 4695   1.818   1.207   6.613
   40MYC    C44 4696   1.919   1.630  11.004
   40MYC    C45 4697   1.851   1.710  10.891
   40MYC    C46 4698   1.845   1.634  10.757
   40MYC    C47 4699   1.701   1.623  10.704
   40MYC    C48 4700   1.684   1.541  10.575
   40MYC    C49 4701   1.723   1.620  10.449
   40MYC    C50 4702   1.682   1.556  10.316
   40MYC    C51 4703   1.728   1.652  10.205
   40MYC    C52 4704   1.695   1.601  10.064
   40MYC    C53 4705   1.730   1.695   9.948
   40MYC    C54 4706   1.680   1.656   9.808
   40MYC    C55 4707   1.706   1.756   9.695
   40MYC    C56 4708   1.691   1.683   9.560
   40MYC    C57 4709   1.737   1.759   9.434
   40MYC    C58 4710   1.714   1.676   9.309
   40MYC    C59 4711   1.830   1.603   9.245
   40MYC    C60 4712   1.770   1.725   9.178
   40MYC    C61 4713   1.683   1.698   9.056
   40MYC    C62 4714   1.773   1.696   8.931
   40MYC    C63 4715   1.696   1.667   8.801
   40MYC    C64 4716   1.794   1.673   8.682
   40MYC    C65 4717   1.724   1.641   8.549
   40MYC    C66 4718   1.826   1.615   8.437
   40MYC    C67 4719   1.762   1.590   8.299
   40MYC    C68 4720   1.862   1.584   8.182
   40MYC    C69 4721   1.808   1.577   8.039
   40MYC    C70 4722   1.913   1.611   7.931
   40MYC    C71 4723   1.852   1.605   7.790
   40MYC    C72 4724   1.956   1.642   7.682
   40MYC    C73 4725   1.896   1.662   7.543
   40MYC    C74 4726   1.992   1.699   7.428
   40MYC    C75 4727   1.928   1.720   7.290
   40MYC    C76 4728   2.033   1.726   7.178
   40MYC    C77 4729   1.974   1.761   7.040
   40MYC    C78 4730   2.072   1.835   6.949
   40MYC    C79 4731   2.015   1.870   6.810
   40MYC    C80 4732   2.128   1.893   6.708
   40MYC    C81 4733   1.989   0.877   9.701
   40MYC    O82 4734   2.023   0.896   9.816
   40MYC    O83 4735   2.002   0.751   9.653
   40MYC     H1 4736   1.813   0.912   9.584
   40MYC     H2 4737   1.784   1.149   9.642
   40MYC     H3 4738   2.003   1.092   9.814
   40MYC     H4 4739   1.636   1.041   9.754
   40MYC     H5 4740   1.739   0.935   9.846
   40MYC     H6 4741   1.733   1.234   9.906
   40MYC     H7 4742   1.604   1.136   9.960
   40MYC     H8 4743   1.764   0.976  10.085
   40MYC     H9 4744   1.887   1.094  10.038
   40MYC   0H10 4745   1.592   1.563  10.059
   40MYC   1H10 4746   1.698   1.795   9.980
   40MYC   2H10 4747   1.837   1.712   9.931
   40MYC   3H10 4748   1.738   1.568   9.777
   40MYC   4H10 4749   1.576   1.621   9.813
   40MYC   5H10 4750   1.644   1.847   9.701
   40MYC   6H10 4751   1.812   1.783   9.702
   40MYC   7H10 4752   1.730   1.581   9.558
   40MYC   8H10 4753   1.582   1.671   9.550
   40MYC   9H10 4754   1.682   1.853   9.420
   40MYC    H10 4755   1.723   1.264  10.172
   40MYC   0H11 4756   1.842   1.786   9.449
   40MYC   1H11 4757   1.619   1.623   9.316
   40MYC   2H11 4758   1.920   1.602   9.305
   40MYC   3H11 4759   1.822   1.507   9.195
   40MYC   4H11 4760   1.839   1.809   9.182
   40MYC   5H11 4761   1.633   1.602   9.073
   40MYC   6H11 4762   1.602   1.770   9.040
   40MYC   7H11 4763   1.817   1.796   8.917
   40MYC   8H11 4764   1.856   1.624   8.928
   40MYC   9H11 4765   1.651   1.571   8.828
   40MYC    H11 4766   1.637   1.129  10.215
   40MYC   0H12 4767   1.616   1.741   8.786
   40MYC   1H12 4768   1.832   1.775   8.670
   40MYC   2H12 4769   1.874   1.603   8.708
   40MYC   3H12 4770   1.662   1.552   8.571
   40MYC   4H12 4771   1.656   1.724   8.526
   40MYC   5H12 4772   1.884   1.707   8.424
   40MYC   6H12 4773   1.882   1.523   8.451
   40MYC   7H12 4774   1.700   1.500   8.298
   40MYC   8H12 4775   1.692   1.672   8.278
   40MYC   9H12 4776   1.917   1.679   8.188
   40MYC    H12 4777   1.788   1.207  10.389
   40MYC   0H13 4778   1.934   1.504   8.206
   40MYC   1H13 4779   1.771   1.475   8.022
   40MYC   2H13 4780   1.724   1.645   8.024
   40MYC   3H13 4781   1.963   1.705   7.957
   40MYC   4H13 4782   1.988   1.531   7.932
   40MYC   5H13 4783   1.800   1.513   7.762
   40MYC   6H13 4784   1.777   1.684   7.781
   40MYC   7H13 4785   2.020   1.724   7.718
   40MYC   8H13 4786   2.017   1.551   7.677
   40MYC   9H13 4787   1.841   1.570   7.518
   40MYC    H13 4788   1.828   1.045  10.358
   40MYC   0H14 4789   1.820   1.742   7.537
   40MYC   1H14 4790   2.047   1.792   7.446
   40MYC   2H14 4791   2.071   1.624   7.414
   40MYC   3H14 4792   1.860   1.634   7.282
   40MYC   4H14 4793   1.875   1.816   7.301
   40MYC   5H14 4794   2.098   1.809   7.205
   40MYC   6H14 4795   2.088   1.631   7.187
   40MYC   7H14 4796   1.950   1.664   6.994
   40MYC   8H14 4797   1.879   1.815   7.047
   40MYC   9H14 4798   2.113   1.922   7.002
   40MYC    H14 4799   2.005   1.197  10.187
   40MYC   0H15 4800   2.154   1.764   6.933
   40MYC   1H15 4801   1.953   1.785   6.778
   40MYC   2H15 4802   1.948   1.957   6.807
   40MYC   3H15 4803   2.182   1.798   6.704
   40MYC   4H15 4804   2.197   1.969   6.747
   40MYC   5H15 4805   2.089   1.913   6.607
   40MYC   6H15 4806   2.086   0.727   9.694
   40MYC    H15 4807   1.984   1.295  10.338
   40MYC    H16 4808   2.101   1.023  10.291
   40MYC    H17 4809   2.190   1.158  10.351
   40MYC    H18 4810   1.980   0.993  10.505
   40MYC    H19 4811   2.144   1.005  10.545
   40MYC    H20 4812   2.109   1.245  10.616
   40MYC    H21 4813   1.938   1.229  10.584
   40MYC    H22 4814   1.941   1.031  10.733
   40MYC    H23 4815   2.110   1.065  10.776
   40MYC    H24 4816   1.982   1.313  10.826
   40MYC    H25 4817   1.852   1.211  10.843
   40MYC    H26 4818   1.999   1.071  11.014
   40MYC    H27 4819   2.112   1.206  10.996
   40MYC    H28 4820   1.823   1.228  11.087
   40MYC    H29 4821   1.953   1.206  11.203
   40MYC    H30 4822   2.047   1.440  11.148
   40MYC    H31 4823   1.775   1.461  11.001
   40MYC    H32 4824   1.896   1.546  11.278
   40MYC    H33 4825   1.758   1.432  11.249
   40MYC    H34 4826   2.046   1.088   9.534
   40MYC    H35 4827   2.031   0.931   9.464
   40MYC    H36 4828   1.803   1.000   9.362
   40MYC    H37 4829   1.835   1.161   9.424
   40MYC    H38 4830   2.051   1.173   9.284
   40MYC    H39 4831   2.012   1.003   9.237
   40MYC    H40 4832   1.831   1.060   9.111
   40MYC    H41 4833   1.829   1.228   9.171
   40MYC    H42 4834   2.023   1.280   9.024
   40MYC    H43 4835   2.052   1.113   8.996
   40MYC    H44 4836   1.830   1.093   8.869
   40MYC    H45 4837   1.798   1.264   8.879
   40MYC    H46 4838   2.003   1.324   8.756
   40MYC    H47 4839   2.053   1.162   8.766
   40MYC    H48 4840   1.844   1.087   8.631
   40MYC    H49 4841   1.819   1.268   8.604
   40MYC    H50 4842   2.071   1.246   8.513
   40MYC    H51 4843   2.049   1.079   8.540
   40MYC    H52 4844   1.889   1.045   8.375
   40MYC    H53 4845   1.819   1.210   8.385
   40MYC    H54 4846   2.036   1.285   8.258
   40MYC    H55 4847   2.087   1.115   8.260
   40MYC    H56 4848   1.882   1.062   8.126
   40MYC    H57 4849   1.826   1.211   8.135
   40MYC    H58 4850   2.017   1.310   8.013
   40MYC    H59 4851   2.086   1.134   7.994
   40MYC    H60 4852   1.899   1.061   7.871
   40MYC    H61 4853   1.817   1.218   7.893
   40MYC    H62 4854   1.999   1.331   7.749
   40MYC    H63 4855   2.075   1.171   7.745
   40MYC    H64 4856   1.882   1.093   7.603
   40MYC    H65 4857   1.805   1.258   7.622
   40MYC    H66 4858   2.002   1.364   7.515
   40MYC    H67 4859   2.072   1.203   7.488
   40MYC    H68 4860   1.863   1.136   7.363
   40MYC    H69 4861   1.789   1.284   7.402
   40MYC    H70 4862   1.940   1.405   7.249
   40MYC    H71 4863   2.054   1.275   7.250
   40MYC    H72 4864   1.887   1.124   7.122
   40MYC    H73 4865   1.773   1.260   7.121
   40MYC    H74 4866   1.915   1.390   6.966
   40MYC    H75 4867   2.035   1.265   6.978
   40MYC    H76 4868   1.896   1.099   6.864
   40MYC    H77 4869   1.756   1.205   6.874
   40MYC    H78 4870   1.894   1.369   6.732
   40MYC    H79 4871   2.011   1.249   6.702
   40MYC    H80 4872   1.738   1.280   6.590
   40MYC    H81 4873   1.765   1.116   6.642
   40MYC    H82 4874   1.880   1.192   6.524
   40MYC    H83 4875   1.924   1.689  11.096
   40MYC    H84 4876   2.019   1.608  10.965
   40MYC    H85 4877   1.750   1.731  10.927
   40MYC    H86 4878   1.901   1.807  10.881
   40MYC    H87 4879   1.910   1.685  10.685
   40MYC    H88 4880   1.889   1.533  10.767
   40MYC    H89 4881   1.645   1.587  10.792
   40MYC    H90 4882   1.668   1.724  10.678
   40MYC    H91 4883   1.752   1.456  10.580
   40MYC    H92 4884   1.579   1.509  10.564
   40MYC    H93 4885   1.679   1.720  10.450
   40MYC    H94 4886   1.828   1.651  10.452
   40MYC    H95 4887   1.722   1.454  10.313
   40MYC    H96 4888   1.572   1.555  10.318
   40MYC    H97 4889   1.696   1.756  10.220
   40MYC    H98 4890   1.837   1.655  10.210
   40MYC    H99 4891   1.758   1.515  10.039
   41MYC     C1 4892   2.262   1.481   9.617
   41MYC     C2 4893   2.410   1.437   9.620
   41MYC     O3 4894   2.427   1.299   9.649
   41MYC     C4 4895   2.503   1.522   9.709
   41MYC     C5 4896   2.486   1.487   9.858
   41MYC     C6 4897   2.589   1.549   9.953
   41MYC     C7 4898   2.579   1.508  10.101
   41MYC     C8 4899   2.457   1.564  10.176
   41MYC     C9 4900   2.447   1.536  10.326
   41MYC    C10 4901   2.331   1.615  10.389
   41MYC    C11 4902   2.343   1.609  10.543
   41MYC    C12 4903   2.300   1.473  10.602
   41MYC    C13 4904   2.305   1.467  10.755
   41MYC    C14 4905   2.451   1.461  10.803
   41MYC    C15 4906   2.463   1.459  10.957
   41MYC    C16 4907   2.601   1.434  11.020
   41MYC    C17 4908   2.654   1.291  11.030
   41MYC    C18 4909   2.789   1.274  11.093
   41MYC    C19 4910   2.665   1.232  11.168
   41MYC    C20 4911   2.198   1.447   9.481
   41MYC    C21 4912   2.264   1.488   9.349
   41MYC    C22 4913   2.185   1.481   9.217
   41MYC    C23 4914   2.276   1.485   9.092
   41MYC    C24 4915   2.203   1.522   8.962
   41MYC    C25 4916   2.289   1.521   8.835
   41MYC    C26 4917   2.219   1.588   8.716
   41MYC    C27 4918   2.305   1.599   8.589
   41MYC    C28 4919   2.235   1.658   8.465
   41MYC    C29 4920   2.330   1.654   8.344
   41MYC    C30 4921   2.251   1.681   8.214
   41MYC    C31 4922   2.354   1.705   8.103
   41MYC    C32 4923   2.284   1.716   7.966
   41MYC    C33 4924   2.384   1.685   7.853
   41MYC    C34 4925   2.322   1.682   7.712
   41MYC    C35 4926   2.427   1.665   7.601
   41MYC    C36 4927   2.359   1.646   7.464
   41MYC    C37 4928   2.465   1.629   7.354
   41MYC    C38 4929   2.409   1.628   7.211
   41MYC    C39 4930   2.518   1.595   7.108
   41MYC    C40 4931   2.449   1.566   6.974
   41MYC    C41 4932   2.554   1.497   6.886
   41MYC    C42 4933   2.494   1.468   6.748
   41MYC    C43 4934   2.603   1.447   6.641
   41MYC    C44 4935   2.887   1.176  11.030
   41MYC    C45 4936   2.977   1.236  10.921
   41MYC    C46 4937   2.911   1.276  10.788
   41MYC    C47 4938   3.002   1.267  10.665
   41MYC    C48 4939   2.965   1.358  10.547
   41MYC    C49 4940   3.015   1.299  10.414
   41MYC    C50 4941   3.002   1.404  10.302
   41MYC    C51 4942   3.058   1.356  10.167
   41MYC    C52 4943   3.000   1.439  10.051
   41MYC    C53 4944   3.031   1.390   9.909
   41MYC    C54 4945   2.929   1.429   9.801
   41MYC    C55 4946   2.969   1.358   9.671
   41MYC    C56 4947   2.888   1.406   9.549
   41MYC    C57 4948   2.947   1.355   9.417
   41MYC    C58 4949   2.899   1.436   9.297
   41MYC    C59 4950   2.752   1.441   9.265
   41MYC    C60 4951   2.846   1.364   9.176
   41MYC    C61 4952   2.874   1.413   9.035
   41MYC    C62 4953   2.835   1.315   8.923
   41MYC    C63 4954   2.881   1.369   8.786
   41MYC    C64 4955   2.862   1.258   8.682
   41MYC    C65 4956   2.893   1.311   8.541
   41MYC    C66 4957   2.885   1.199   8.437
   41MYC    C67 4958   2.941   1.237   8.299
   41MYC    C68 4959   2.837   1.309   8.212
   41MYC    C69 4960   2.910   1.404   8.116
   41MYC    C70 4961   2.821   1.466   8.007
   41MYC    C71 4962   2.893   1.557   7.906
   41MYC    C72 4963   2.821   1.582   7.773
   41MYC    C73 4964   2.915   1.610   7.654
   41MYC    C74 4965   2.861   1.578   7.514
   41MYC    C75 4966   2.959   1.621   7.403
   41MYC    C76 4967   2.921   1.571   7.263
   41MYC    C77 4968   3.018   1.602   7.148
   41MYC    C78 4969   2.953   1.568   7.013
   41MYC    C79 4970   3.045   1.561   6.890
   41MYC    C80 4971   2.974   1.530   6.758
   41MYC    C81 4972   2.178   1.416   9.726
   41MYC    O82 4973   2.210   1.330   9.805
   41MYC    O83 4974   2.056   1.472   9.742
   41MYC     H1 4975   2.258   1.589   9.631
   41MYC     H2 4976   2.451   1.455   9.520
   41MYC     H3 4977   2.439   1.299   9.746
   41MYC     H4 4978   2.607   1.514   9.675
   41MYC     H5 4979   2.489   1.631   9.707
   41MYC     H6 4980   2.384   1.502   9.895
   41MYC     H7 4981   2.491   1.380   9.882
   41MYC     H8 4982   2.690   1.517   9.926
   41MYC     H9 4983   2.599   1.658   9.945
   41MYC   0H10 4984   3.040   1.540  10.062
   41MYC   1H10 4985   3.125   1.424   9.863
   41MYC   2H10 4986   3.043   1.281   9.917
   41MYC   3H10 4987   2.834   1.386   9.834
   41MYC   4H10 4988   2.915   1.537   9.788
   41MYC   5H10 4989   3.073   1.384   9.650
   41MYC   6H10 4990   2.953   1.250   9.667
   41MYC   7H10 4991   2.783   1.376   9.559
   41MYC   8H10 4992   2.891   1.516   9.557
   41MYC   9H10 4993   3.056   1.366   9.427
   41MYC    H10 4994   2.591   1.399  10.101
   41MYC   0H11 4995   2.933   1.246   9.414
   41MYC   1H11 4996   2.960   1.522   9.273
   41MYC   2H11 4997   2.686   1.368   9.310
   41MYC   3H11 4998   2.703   1.524   9.215
   41MYC   4H11 4999   2.852   1.256   9.189
   41MYC   5H11 5000   2.828   1.511   9.018
   41MYC   6H11 5001   2.979   1.443   9.023
   41MYC   7H11 5002   2.879   1.219   8.953
   41MYC   8H11 5003   2.726   1.307   8.921
   41MYC   9H11 5004   2.809   1.448   8.763
   41MYC    H11 5005   2.656   1.558  10.162
   41MYC   0H12 5006   2.979   1.417   8.790
   41MYC   1H12 5007   2.933   1.177   8.702
   41MYC   2H12 5008   2.763   1.210   8.691
   41MYC   3H12 5009   2.825   1.397   8.528
   41MYC   4H12 5010   2.993   1.355   8.538
   41MYC   5H12 5011   2.938   1.110   8.475
   41MYC   6H12 5012   2.780   1.168   8.432
   41MYC   7H12 5013   3.039   1.286   8.311
   41MYC   8H12 5014   2.964   1.142   8.250
   41MYC   9H12 5015   2.785   1.234   8.150
   41MYC    H12 5016   2.446   1.672  10.160
   41MYC   0H13 5017   2.764   1.364   8.272
   41MYC   1H13 5018   2.958   1.484   8.175
   41MYC   2H13 5019   2.993   1.350   8.069
   41MYC   3H13 5020   2.782   1.376   7.959
   41MYC   4H13 5021   2.737   1.524   8.046
   41MYC   5H13 5022   2.931   1.654   7.940
   41MYC   6H13 5023   2.982   1.498   7.878
   41MYC   7H13 5024   2.749   1.502   7.753
   41MYC   8H13 5025   2.765   1.676   7.785
   41MYC   9H13 5026   2.953   1.713   7.658
   41MYC    H13 5027   2.362   1.525  10.135
   41MYC   0H14 5028   3.004   1.549   7.670
   41MYC   1H14 5029   2.840   1.470   7.512
   41MYC   2H14 5030   2.765   1.628   7.501
   41MYC   3H14 5031   2.967   1.730   7.392
   41MYC   4H14 5032   3.058   1.586   7.435
   41MYC   5H14 5033   2.912   1.462   7.266
   41MYC   6H14 5034   2.826   1.615   7.232
   41MYC   7H14 5035   3.046   1.708   7.154
   41MYC   8H14 5036   3.113   1.548   7.156
   41MYC   9H14 5037   2.899   1.473   7.019
   41MYC    H14 5038   2.436   1.428  10.342
   41MYC   0H15 5039   2.882   1.646   6.986
   41MYC   1H15 5040   3.111   1.649   6.882
   41MYC   2H15 5041   3.128   1.491   6.905
   41MYC   3H15 5042   2.917   1.614   6.717
   41MYC   4H15 5043   2.902   1.450   6.781
   41MYC   5H15 5044   3.043   1.506   6.676
   41MYC   6H15 5045   2.016   1.422   9.815
   41MYC    H15 5046   2.545   1.565  10.367
   41MYC    H16 5047   2.340   1.721  10.361
   41MYC    H17 5048   2.231   1.583  10.359
   41MYC    H18 5049   2.449   1.624  10.566
   41MYC    H19 5050   2.285   1.694  10.580
   41MYC    H20 5051   2.201   1.447  10.563
   41MYC    H21 5052   2.361   1.394  10.556
   41MYC    H22 5053   2.266   1.556  10.805
   41MYC    H23 5054   2.246   1.378  10.780
   41MYC    H24 5055   2.497   1.372  10.757
   41MYC    H25 5056   2.511   1.540  10.757
   41MYC    H26 5057   2.433   1.557  10.996
   41MYC    H27 5058   2.384   1.396  10.998
   41MYC    H28 5059   2.676   1.494  10.968
   41MYC    H29 5060   2.605   1.475  11.122
   41MYC    H30 5061   2.612   1.219  10.960
   41MYC    H31 5062   2.837   1.364  11.132
   41MYC    H32 5063   2.647   1.125  11.171
   41MYC    H33 5064   2.637   1.298  11.250
   41MYC    H34 5065   2.194   1.338   9.471
   41MYC    H35 5066   2.092   1.476   9.480
   41MYC    H36 5067   2.292   1.593   9.368
   41MYC    H37 5068   2.358   1.433   9.338
   41MYC    H38 5069   2.130   1.387   9.215
   41MYC    H39 5070   2.124   1.572   9.204
   41MYC    H40 5071   2.361   1.549   9.116
   41MYC    H41 5072   2.322   1.386   9.084
   41MYC    H42 5073   2.121   1.450   8.952
   41MYC    H43 5074   2.150   1.615   8.987
   41MYC    H44 5075   2.385   1.574   8.843
   41MYC    H45 5076   2.319   1.417   8.815
   41MYC    H46 5077   2.131   1.529   8.689
   41MYC    H47 5078   2.188   1.684   8.760
   41MYC    H48 5079   2.384   1.670   8.612
   41MYC    H49 5080   2.360   1.508   8.562
   41MYC    H50 5081   2.146   1.596   8.449
   41MYC    H51 5082   2.200   1.762   8.475
   41MYC    H52 5083   2.400   1.738   8.344
   41MYC    H53 5084   2.373   1.553   8.349
   41MYC    H54 5085   2.186   1.596   8.191
   41MYC    H55 5086   2.197   1.776   8.213
   41MYC    H56 5087   2.416   1.795   8.119
   41MYC    H57 5088   2.420   1.619   8.115
   41MYC    H58 5089   2.198   1.647   7.966
   41MYC    H59 5090   2.251   1.820   7.954
   41MYC    H60 5091   2.473   1.747   7.860
   41MYC    H61 5092   2.429   1.588   7.877
   41MYC    H62 5093   2.258   1.594   7.702
   41MYC    H63 5094   2.264   1.773   7.693
   41MYC    H64 5095   2.486   1.757   7.610
   41MYC    H65 5096   2.488   1.574   7.614
   41MYC    H66 5097   2.295   1.558   7.477
   41MYC    H67 5098   2.290   1.730   7.457
   41MYC    H68 5099   2.539   1.710   7.355
   41MYC    H69 5100   2.522   1.538   7.378
   41MYC    H70 5101   2.340   1.543   7.201
   41MYC    H71 5102   2.343   1.712   7.184
   41MYC    H72 5103   2.593   1.674   7.110
   41MYC    H73 5104   2.570   1.502   7.134
   41MYC    H74 5105   2.364   1.497   6.987
   41MYC    H75 5106   2.418   1.657   6.922
   41MYC    H76 5107   2.641   1.563   6.877
   41MYC    H77 5108   2.607   1.413   6.934
   41MYC    H78 5109   2.431   1.380   6.764
   41MYC    H79 5110   2.433   1.555   6.719
   41MYC    H80 5111   2.564   1.466   6.540
   41MYC    H81 5112   2.648   1.349   6.655
   41MYC    H82 5113   2.684   1.521   6.648
   41MYC    H83 5114   2.956   1.138  11.107
   41MYC    H84 5115   2.827   1.095  10.986
   41MYC    H85 5116   3.028   1.327  10.957
   41MYC    H86 5117   3.045   1.154  10.895
   41MYC    H87 5118   2.827   1.209  10.765
   41MYC    H88 5119   2.872   1.378  10.801
   41MYC    H89 5120   3.106   1.284  10.693
   41MYC    H90 5121   2.986   1.164  10.631
   41MYC    H91 5122   2.857   1.380  10.539
   41MYC    H92 5123   3.010   1.454  10.576
   41MYC    H93 5124   3.120   1.270  10.427
   41MYC    H94 5125   2.966   1.204  10.389
   41MYC    H95 5126   2.898   1.436  10.292
   41MYC    H96 5127   3.065   1.489  10.331
   41MYC    H97 5128   3.167   1.366  10.159
   41MYC    H98 5129   3.040   1.250  10.144
   41MYC    H99 5130   2.891   1.446  10.055
   42MYC     C1 5131   4.024   1.150   9.533
   42MYC     C2 5132   4.059   1.271   9.620
   42MYC     O3 5133   4.184   1.254   9.687
   42MYC     C4 5134   3.947   1.313   9.716
   42MYC     C5 5135   3.988   1.428   9.809
   42MYC     C6 5136   4.054   1.391   9.942
   42MYC     C7 5137   4.015   1.493  10.050
   42MYC     C8 5138   4.099   1.485  10.179
   42MYC     C9 5139   4.057   1.586  10.288
   42MYC    C10 5140   4.131   1.574  10.422
   42MYC    C11 5141   4.076   1.472  10.524
   42MYC    C12 5142   3.939   1.516  10.579
   42MYC    C13 5143   3.900   1.414  10.687
   42MYC    C14 5144   3.753   1.383  10.717
   42MYC    C15 5145   3.725   1.359  10.866
   42MYC    C16 5146   3.583   1.312  10.901
   42MYC    C17 5147   3.500   1.430  10.951
   42MYC    C18 5148   3.352   1.426  10.926
   42MYC    C19 5149   3.405   1.407  11.066
   42MYC    C20 5150   4.098   1.139   9.398
   42MYC    C21 5151   4.015   1.181   9.275
   42MYC    C22 5152   4.090   1.157   9.143
   42MYC    C23 5153   4.000   1.190   9.023
   42MYC    C24 5154   4.071   1.163   8.889
   42MYC    C25 5155   3.991   1.206   8.765
   42MYC    C26 5156   4.082   1.199   8.641
   42MYC    C27 5157   4.000   1.200   8.511
   42MYC    C28 5158   4.070   1.246   8.381
   42MYC    C29 5159   3.994   1.212   8.252
   42MYC    C30 5160   4.042   1.312   8.144
   42MYC    C31 5161   3.938   1.320   8.031
   42MYC    C32 5162   3.995   1.359   7.894
   42MYC    C33 5163   3.894   1.361   7.778
   42MYC    C34 5164   3.972   1.369   7.646
   42MYC    C35 5165   3.887   1.398   7.520
   42MYC    C36 5166   3.954   1.352   7.390
   42MYC    C37 5167   3.882   1.422   7.274
   42MYC    C38 5168   3.955   1.398   7.141
   42MYC    C39 5169   3.895   1.476   7.022
   42MYC    C40 5170   3.977   1.446   6.895
   42MYC    C41 5171   3.923   1.500   6.762
   42MYC    C42 5172   4.011   1.451   6.645
   42MYC    C43 5173   3.967   1.531   6.522
   42MYC    C44 5174   3.274   1.554  10.900
   42MYC    C45 5175   3.248   1.586  10.752
   42MYC    C46 5176   3.373   1.556  10.668
   42MYC    C47 5177   3.368   1.613  10.525
   42MYC    C48 5178   3.473   1.545  10.436
   42MYC    C49 5179   3.476   1.631  10.309
   42MYC    C50 5180   3.560   1.562  10.200
   42MYC    C51 5181   3.570   1.648  10.073
   42MYC    C52 5182   3.602   1.565   9.947
   42MYC    C53 5183   3.625   1.645   9.818
   42MYC    C54 5184   3.568   1.592   9.686
   42MYC    C55 5185   3.573   1.690   9.567
   42MYC    C56 5186   3.518   1.627   9.438
   42MYC    C57 5187   3.507   1.734   9.328
   42MYC    C58 5188   3.421   1.687   9.211
   42MYC    C59 5189   3.455   1.563   9.132
   42MYC    C60 5190   3.463   1.699   9.067
   42MYC    C61 5191   3.359   1.741   8.965
   42MYC    C62 5192   3.397   1.678   8.830
   42MYC    C63 5193   3.320   1.725   8.705
   42MYC    C64 5194   3.321   1.631   8.583
   42MYC    C65 5195   3.276   1.699   8.453
   42MYC    C66 5196   3.315   1.617   8.329
   42MYC    C67 5197   3.288   1.692   8.198
   42MYC    C68 5198   3.396   1.668   8.091
   42MYC    C69 5199   3.360   1.737   7.959
   42MYC    C70 5200   3.456   1.694   7.847
   42MYC    C71 5201   3.421   1.754   7.710
   42MYC    C72 5202   3.523   1.708   7.604
   42MYC    C73 5203   3.463   1.738   7.466
   42MYC    C74 5204   3.546   1.674   7.354
   42MYC    C75 5205   3.471   1.680   7.220
   42MYC    C76 5206   3.537   1.620   7.095
   42MYC    C77 5207   3.449   1.611   6.970
   42MYC    C78 5208   3.526   1.547   6.853
   42MYC    C79 5209   3.456   1.581   6.721
   42MYC    C80 5210   3.499   1.505   6.594
   42MYC    C81 5211   4.030   1.017   9.608
   42MYC    O82 5212   4.108   0.991   9.698
   42MYC    O83 5213   3.928   0.932   9.586
   42MYC     H1 5214   3.919   1.165   9.505
   42MYC     H2 5215   4.075   1.355   9.550
   42MYC     H3 5216   4.195   1.160   9.711
   42MYC     H4 5217   3.863   1.352   9.657
   42MYC     H5 5218   3.911   1.233   9.782
   42MYC     H6 5219   4.053   1.499   9.757
   42MYC     H7 5220   3.896   1.485   9.826
   42MYC     H8 5221   4.036   1.288   9.978
   42MYC     H9 5222   4.162   1.391   9.924
   42MYC   0H10 5223   3.519   1.494   9.935
   42MYC   1H10 5224   3.593   1.749   9.824
   42MYC   2H10 5225   3.734   1.660   9.819
   42MYC   3H10 5226   3.619   1.501   9.651
   42MYC   4H10 5227   3.466   1.558   9.706
   42MYC   5H10 5228   3.519   1.780   9.596
   42MYC   6H10 5229   3.673   1.726   9.540
   42MYC   7H10 5230   3.579   1.541   9.408
   42MYC   8H10 5231   3.418   1.589   9.462
   42MYC   9H10 5232   3.462   1.828   9.361
   42MYC    H10 5233   4.019   1.595  10.011
   42MYC   0H11 5234   3.611   1.751   9.299
   42MYC   1H11 5235   3.316   1.710   9.230
   42MYC   2H11 5236   3.549   1.511   9.146
   42MYC   3H11 5237   3.370   1.495   9.134
   42MYC   4H11 5238   3.566   1.727   9.045
   42MYC   5H11 5239   3.259   1.704   8.992
   42MYC   6H11 5240   3.352   1.850   8.955
   42MYC   7H11 5241   3.504   1.694   8.816
   42MYC   8H11 5242   3.383   1.569   8.832
   42MYC   9H11 5243   3.213   1.737   8.725
   42MYC    H11 5244   3.910   1.482  10.078
   42MYC   0H12 5245   3.346   1.827   8.675
   42MYC   1H12 5246   3.422   1.596   8.561
   42MYC   2H12 5247   3.273   1.533   8.598
   42MYC   3H12 5248   3.166   1.704   8.460
   42MYC   4H12 5249   3.318   1.800   8.441
   42MYC   5H12 5250   3.423   1.600   8.331
   42MYC   6H12 5251   3.267   1.518   8.320
   42MYC   7H12 5252   3.192   1.652   8.161
   42MYC   8H12 5253   3.279   1.801   8.208
   42MYC   9H12 5254   3.500   1.688   8.119
   42MYC    H12 5255   4.094   1.383  10.220
   42MYC   0H13 5256   3.405   1.561   8.070
   42MYC   1H13 5257   3.263   1.696   7.926
   42MYC   2H13 5258   3.361   1.846   7.970
   42MYC   3H13 5259   3.558   1.716   7.880
   42MYC   4H13 5260   3.468   1.585   7.841
   42MYC   5H13 5261   3.320   1.721   7.683
   42MYC   6H13 5262   3.412   1.864   7.710
   42MYC   7H13 5263   3.618   1.763   7.613
   42MYC   8H13 5264   3.541   1.600   7.604
   42MYC   9H13 5265   3.366   1.687   7.457
   42MYC    H13 5266   4.203   1.505  10.152
   42MYC   0H14 5267   3.439   1.845   7.465
   42MYC   1H14 5268   3.640   1.729   7.341
   42MYC   2H14 5269   3.568   1.568   7.375
   42MYC   3H14 5270   3.375   1.631   7.237
   42MYC   4H14 5271   3.447   1.785   7.196
   42MYC   5H14 5272   3.632   1.674   7.085
   42MYC   6H14 5273   3.580   1.522   7.119
   42MYC   7H14 5274   3.362   1.547   6.994
   42MYC   8H14 5275   3.417   1.714   6.954
   42MYC   9H14 5276   3.630   1.580   6.841
   42MYC    H14 5277   4.086   1.685  10.252
   42MYC   0H15 5278   3.533   1.439   6.875
   42MYC   1H15 5279   3.346   1.582   6.726
   42MYC   2H15 5280   3.488   1.685   6.705
   42MYC   3H15 5281   3.453   1.407   6.610
   42MYC   4H15 5282   3.608   1.494   6.588
   42MYC   5H15 5283   3.455   1.549   6.504
   42MYC   6H15 5284   3.946   0.862   9.651
   42MYC    H15 5285   3.948   1.589  10.301
   42MYC    H16 5286   4.234   1.538  10.416
   42MYC    H17 5287   4.122   1.670  10.473
   42MYC    H18 5288   4.057   1.379  10.468
   42MYC    H19 5289   4.143   1.452  10.608
   42MYC    H20 5290   3.940   1.619  10.618
   42MYC    H21 5291   3.858   1.509  10.506
   42MYC    H22 5292   3.944   1.316  10.662
   42MYC    H23 5293   3.951   1.450  10.777
   42MYC    H24 5294   3.689   1.468  10.690
   42MYC    H25 5295   3.724   1.297  10.655
   42MYC    H26 5296   3.792   1.278  10.896
   42MYC    H27 5297   3.746   1.449  10.927
   42MYC    H28 5298   3.544   1.259  10.813
   42MYC    H29 5299   3.590   1.235  10.979
   42MYC    H30 5300   3.552   1.525  10.943
   42MYC    H31 5301   3.305   1.342  10.875
   42MYC    H32 5302   3.403   1.484  11.142
   42MYC    H33 5303   3.394   1.306  11.104
   42MYC    H34 5304   4.188   1.201   9.406
   42MYC    H35 5305   4.131   1.037   9.379
   42MYC    H36 5306   3.932   1.109   9.274
   42MYC    H37 5307   3.984   1.286   9.283
   42MYC    H38 5308   4.180   1.220   9.139
   42MYC    H39 5309   4.121   1.052   9.145
   42MYC    H40 5310   3.914   1.124   9.004
   42MYC    H41 5311   3.955   1.289   9.027
   42MYC    H42 5312   4.173   1.203   8.881
   42MYC    H43 5313   4.077   1.054   8.879
   42MYC    H44 5314   3.900   1.145   8.754
   42MYC    H45 5315   3.978   1.314   8.780
   42MYC    H46 5316   4.149   1.286   8.640
   42MYC    H47 5317   4.147   1.112   8.647
   42MYC    H48 5318   3.958   1.100   8.502
   42MYC    H49 5319   3.919   1.272   8.524
   42MYC    H50 5320   4.105   1.350   8.387
   42MYC    H51 5321   4.161   1.186   8.373
   42MYC    H52 5322   4.002   1.108   8.220
   42MYC    H53 5323   3.887   1.230   8.265
   42MYC    H54 5324   4.056   1.413   8.184
   42MYC    H55 5325   4.140   1.275   8.111
   42MYC    H56 5326   3.896   1.220   8.016
   42MYC    H57 5327   3.854   1.382   8.065
   42MYC    H58 5328   4.056   1.449   7.906
   42MYC    H59 5329   4.070   1.280   7.876
   42MYC    H60 5330   3.826   1.275   7.771
   42MYC    H61 5331   3.839   1.455   7.790
   42MYC    H62 5332   4.043   1.452   7.650
   42MYC    H63 5333   4.035   1.280   7.634
   42MYC    H64 5334   3.789   1.350   7.533
   42MYC    H65 5335   3.864   1.505   7.522
   42MYC    H66 5336   4.062   1.369   7.387
   42MYC    H67 5337   3.935   1.244   7.380
   42MYC    H68 5338   3.774   1.404   7.271
   42MYC    H69 5339   3.891   1.530   7.288
   42MYC    H70 5340   4.060   1.429   7.141
   42MYC    H71 5341   3.952   1.289   7.130
   42MYC    H72 5342   3.792   1.443   7.009
   42MYC    H73 5343   3.885   1.583   7.044
   42MYC    H74 5344   4.080   1.481   6.912
   42MYC    H75 5345   3.990   1.337   6.890
   42MYC    H76 5346   3.822   1.461   6.748
   42MYC    H77 5347   3.911   1.609   6.762
   42MYC    H78 5348   4.118   1.466   6.661
   42MYC    H79 5349   3.996   1.344   6.622
   42MYC    H80 5350   4.038   1.511   6.441
   42MYC    H81 5351   3.958   1.641   6.527
   42MYC    H82 5352   3.871   1.496   6.482
   42MYC    H83 5353   3.177   1.560  10.953
   42MYC    H84 5354   3.331   1.641  10.935
   42MYC    H85 5355   3.167   1.521  10.718
   42MYC    H86 5356   3.226   1.691  10.731
   42MYC    H87 5357   3.462   1.596  10.719
   42MYC    H88 5358   3.386   1.447  10.663
   42MYC    H89 5359   3.267   1.594  10.486
   42MYC    H90 5360   3.378   1.722  10.527
   42MYC    H91 5361   3.570   1.555  10.487
   42MYC    H92 5362   3.434   1.444  10.424
   42MYC    H93 5363   3.372   1.645  10.275
   42MYC    H94 5364   3.514   1.732  10.328
   42MYC    H95 5365   3.662   1.541  10.235
   42MYC    H96 5366   3.514   1.465  10.174
   42MYC    H97 5367   3.473   1.698  10.061
   42MYC    H98 5368   3.645   1.724  10.096
   42MYC    H99 5369   3.694   1.509   9.971
   43MYC     C1 5370   4.452   1.748   9.712
   43MYC     C2 5371   4.426   1.644   9.822
   43MYC     O3 5372   4.316   1.688   9.901
   43MYC     C4 5373   4.551   1.612   9.906
   43MYC     C5 5374   4.527   1.576  10.054
   43MYC     C6 5375   4.543   1.703  10.140
   43MYC     C7 5376   4.498   1.678  10.285
   43MYC     C8 5377   4.535   1.799  10.373
   43MYC     C9 5378   4.448   1.813  10.498
   43MYC    C10 5379   4.467   1.950  10.566
   43MYC    C11 5380   4.610   1.985  10.610
   43MYC    C12 5381   4.687   1.888  10.701
   43MYC    C13 5382   4.616   1.864  10.836
   43MYC    C14 5383   4.685   1.757  10.923
   43MYC    C15 5384   4.664   1.767  11.075
   43MYC    C16 5385   4.742   1.655  11.145
   43MYC    C17 5386   4.641   1.550  11.191
   43MYC    C18 5387   4.639   1.407  11.143
   43MYC    C19 5388   4.686   1.440  11.283
   43MYC    C20 5389   4.352   1.742   9.596
   43MYC    C21 5390   4.380   1.639   9.485
   43MYC    C22 5391   4.317   1.679   9.350
   43MYC    C23 5392   4.371   1.586   9.240
   43MYC    C24 5393   4.304   1.608   9.103
   43MYC    C25 5394   4.348   1.523   8.983
   43MYC    C26 5395   4.328   1.593   8.847
   43MYC    C27 5396   4.403   1.531   8.728
   43MYC    C28 5397   4.392   1.620   8.603
   43MYC    C29 5398   4.405   1.543   8.471
   43MYC    C30 5399   4.403   1.641   8.352
   43MYC    C31 5400   4.376   1.582   8.212
   43MYC    C32 5401   4.358   1.687   8.102
   43MYC    C33 5402   4.342   1.629   7.960
   43MYC    C34 5403   4.347   1.740   7.853
   43MYC    C35 5404   4.278   1.688   7.726
   43MYC    C36 5405   4.309   1.780   7.607
   43MYC    C37 5406   4.238   1.722   7.484
   43MYC    C38 5407   4.277   1.795   7.354
   43MYC    C39 5408   4.227   1.719   7.230
   43MYC    C40 5409   4.256   1.797   7.101
   43MYC    C41 5410   4.212   1.748   6.962
   43MYC    C42 5411   4.254   1.854   6.859
   43MYC    C43 5412   4.250   1.798   6.716
   43MYC    C44 5413   4.503   1.344  11.119
   43MYC    C45 5414   4.493   1.243  11.003
   43MYC    C46 5415   4.477   1.308  10.864
   43MYC    C47 5416   4.480   1.206  10.750
   43MYC    C48 5417   4.468   1.266  10.609
   43MYC    C49 5418   4.451   1.157  10.502
   43MYC    C50 5419   4.466   1.202  10.356
   43MYC    C51 5420   4.440   1.084  10.262
   43MYC    C52 5421   4.509   1.118  10.128
   43MYC    C53 5422   4.453   1.034  10.013
   43MYC    C54 5423   4.542   1.026   9.888
   43MYC    C55 5424   4.482   0.992   9.751
   43MYC    C56 5425   4.570   1.041   9.635
   43MYC    C57 5426   4.506   1.015   9.497
   43MYC    C58 5427   4.577   1.071   9.374
   43MYC    C59 5428   4.572   1.219   9.345
   43MYC    C60 5429   4.494   1.122   9.260
   43MYC    C61 5430   4.534   1.090   9.117
   43MYC    C62 5431   4.465   1.153   8.995
   43MYC    C63 5432   4.545   1.115   8.869
   43MYC    C64 5433   4.467   1.155   8.743
   43MYC    C65 5434   4.512   1.093   8.609
   43MYC    C66 5435   4.421   1.146   8.497
   43MYC    C67 5436   4.483   1.116   8.359
   43MYC    C68 5437   4.389   1.135   8.239
   43MYC    C69 5438   4.465   1.149   8.106
   43MYC    C70 5439   4.375   1.194   7.990
   43MYC    C71 5440   4.444   1.184   7.853
   43MYC    C72 5441   4.343   1.203   7.739
   43MYC    C73 5442   4.410   1.180   7.602
   43MYC    C74 5443   4.312   1.186   7.484
   43MYC    C75 5444   4.380   1.191   7.346
   43MYC    C76 5445   4.287   1.153   7.230
   43MYC    C77 5446   4.364   1.157   7.098
   43MYC    C78 5447   4.282   1.191   6.972
   43MYC    C79 5448   4.382   1.171   6.857
   43MYC    C80 5449   4.326   1.220   6.722
   43MYC    C81 5450   4.465   1.886   9.775
   43MYC    O82 5451   4.374   1.966   9.760
   43MYC    O83 5452   4.592   1.930   9.786
   43MYC     H1 5453   4.547   1.726   9.662
   43MYC     H2 5454   4.410   1.546   9.776
   43MYC     H3 5455   4.253   1.735   9.844
   43MYC     H4 5456   4.621   1.538   9.865
   43MYC     H5 5457   4.612   1.703   9.909
   43MYC     H6 5458   4.429   1.528  10.068
   43MYC     H7 5459   4.596   1.496  10.081
   43MYC     H8 5460   4.646   1.740  10.147
   43MYC     H9 5461   4.473   1.780  10.104
   43MYC   0H10 5462   4.616   1.104  10.147
   43MYC   1H10 5463   4.429   0.932  10.048
   43MYC   2H10 5464   4.357   1.079   9.985
   43MYC   3H10 5465   4.581   1.128   9.872
   43MYC   4H10 5466   4.637   0.973   9.903
   43MYC   5H10 5467   4.466   0.884   9.751
   43MYC   6H10 5468   4.384   1.040   9.741
   43MYC   7H10 5469   4.580   1.150   9.647
   43MYC   8H10 5470   4.668   0.992   9.642
   43MYC   9H10 5471   4.492   0.907   9.487
   43MYC    H10 5472   4.389   1.670  10.279
   43MYC   0H11 5473   4.406   1.059   9.505
   43MYC   1H11 5474   4.668   1.015   9.355
   43MYC   2H11 5475   4.523   1.279   9.422
   43MYC   3H11 5476   4.651   1.278   9.301
   43MYC   4H11 5477   4.386   1.122   9.275
   43MYC   5H11 5478   4.644   1.096   9.107
   43MYC   6H11 5479   4.514   0.983   9.103
   43MYC   7H11 5480   4.365   1.111   8.976
   43MYC   8H11 5481   4.458   1.262   9.005
   43MYC   9H11 5482   4.649   1.148   8.868
   43MYC    H11 5483   4.547   1.591  10.330
   43MYC   0H12 5484   4.535   1.006   8.866
   43MYC   1H12 5485   4.361   1.133   8.760
   43MYC   2H12 5486   4.469   1.264   8.726
   43MYC   3H12 5487   4.612   1.127   8.579
   43MYC   4H12 5488   4.517   0.984   8.612
   43MYC   5H12 5489   4.328   1.088   8.506
   43MYC   6H12 5490   4.387   1.249   8.507
   43MYC   7H12 5491   4.579   1.167   8.346
   43MYC   8H12 5492   4.511   1.010   8.349
   43MYC   9H12 5493   4.312   1.057   8.243
   43MYC    H12 5494   4.636   1.781  10.412
   43MYC   0H13 5495   4.337   1.231   8.250
   43MYC   1H13 5496   4.551   1.216   8.117
   43MYC   2H13 5497   4.516   1.058   8.072
   43MYC   3H13 5498   4.290   1.124   7.987
   43MYC   4H13 5499   4.332   1.295   8.001
   43MYC   5H13 5500   4.517   1.266   7.849
   43MYC   6H13 5501   4.485   1.082   7.842
   43MYC   7H13 5502   4.262   1.129   7.748
   43MYC   8H13 5503   4.296   1.302   7.738
   43MYC   9H13 5504   4.484   1.260   7.588
   43MYC    H13 5505   4.520   1.889  10.312
   43MYC   0H14 5506   4.471   1.088   7.608
   43MYC   1H14 5507   4.252   1.094   7.492
   43MYC   2H14 5508   4.247   1.274   7.494
   43MYC   3H14 5509   4.422   1.290   7.323
   43MYC   4H14 5510   4.473   1.133   7.344
   43MYC   5H14 5511   4.254   1.051   7.255
   43MYC   6H14 5512   4.194   1.211   7.228
   43MYC   7H14 5513   4.446   1.230   7.106
   43MYC   8H14 5514   4.414   1.063   7.073
   43MYC   9H14 5515   4.200   1.121   6.952
   43MYC    H14 5516   4.340   1.811  10.478
   43MYC   0H15 5517   4.234   1.290   6.964
   43MYC   1H15 5518   4.481   1.209   6.884
   43MYC   2H15 5519   4.400   1.064   6.844
   43MYC   3H15 5520   4.319   1.329   6.711
   43MYC   4H15 5521   4.234   1.164   6.699
   43MYC   5H15 5522   4.398   1.185   6.647
   43MYC   6H15 5523   4.583   2.026   9.798
   43MYC    H15 5524   4.464   1.727  10.565
   43MYC    H16 5525   4.427   2.032  10.506
   43MYC    H17 5526   4.402   1.940  10.654
   43MYC    H18 5527   4.670   2.003  10.521
   43MYC    H19 5528   4.614   2.084  10.658
   43MYC    H20 5529   4.693   1.785  10.662
   43MYC    H21 5530   4.787   1.930  10.714
   43MYC    H22 5531   4.605   1.958  10.891
   43MYC    H23 5532   4.518   1.826  10.806
   43MYC    H24 5533   4.648   1.658  10.894
   43MYC    H25 5534   4.792   1.760  10.901
   43MYC    H26 5535   4.711   1.862  11.103
   43MYC    H27 5536   4.556   1.772  11.096
   43MYC    H28 5537   4.806   1.603  11.074
   43MYC    H29 5538   4.800   1.697  11.228
   43MYC    H30 5539   4.541   1.592  11.202
   43MYC    H31 5540   4.703   1.396  11.055
   43MYC    H32 5541   4.615   1.410  11.360
   43MYC    H33 5542   4.791   1.424  11.305
   43MYC    H34 5543   4.249   1.728   9.631
   43MYC    H35 5544   4.348   1.840   9.547
   43MYC    H36 5545   4.489   1.636   9.473
   43MYC    H37 5546   4.347   1.537   9.508
   43MYC    H38 5547   4.209   1.671   9.366
   43MYC    H39 5548   4.324   1.787   9.330
   43MYC    H40 5549   4.479   1.606   9.236
   43MYC    H41 5550   4.361   1.480   9.268
   43MYC    H42 5551   4.196   1.612   9.118
   43MYC    H43 5552   4.339   1.707   9.070
   43MYC    H44 5553   4.452   1.496   9.005
   43MYC    H45 5554   4.287   1.431   8.988
   43MYC    H46 5555   4.225   1.579   8.812
   43MYC    H47 5556   4.355   1.700   8.849
   43MYC    H48 5557   4.509   1.512   8.748
   43MYC    H49 5558   4.351   1.437   8.708
   43MYC    H50 5559   4.296   1.674   8.605
   43MYC    H51 5560   4.460   1.705   8.612
   43MYC    H52 5561   4.497   1.483   8.473
   43MYC    H53 5562   4.321   1.477   8.446
   43MYC    H54 5563   4.331   1.722   8.369
   43MYC    H55 5564   4.506   1.678   8.348
   43MYC    H56 5565   4.469   1.529   8.187
   43MYC    H57 5566   4.290   1.514   8.218
   43MYC    H58 5567   4.261   1.737   8.115
   43MYC    H59 5568   4.430   1.770   8.107
   43MYC    H60 5569   4.430   1.568   7.937
   43MYC    H61 5570   4.254   1.565   7.963
   43MYC    H62 5571   4.298   1.832   7.886
   43MYC    H63 5572   4.452   1.768   7.835
   43MYC    H64 5573   4.323   1.591   7.701
   43MYC    H65 5574   4.171   1.675   7.746
   43MYC    H66 5575   4.255   1.874   7.624
   43MYC    H67 5576   4.417   1.795   7.591
   43MYC    H68 5577   4.261   1.615   7.471
   43MYC    H69 5578   4.129   1.730   7.489
   43MYC    H70 5579   4.246   1.900   7.359
   43MYC    H71 5580   4.386   1.798   7.342
   43MYC    H72 5581   4.285   1.628   7.213
   43MYC    H73 5582   4.123   1.687   7.244
   43MYC    H74 5583   4.229   1.902   7.120
   43MYC    H75 5584   4.365   1.800   7.084
   43MYC    H76 5585   4.258   1.650   6.945
   43MYC    H77 5586   4.104   1.728   6.958
   43MYC    H78 5587   4.185   1.939   6.871
   43MYC    H79 5588   4.356   1.889   6.877
   43MYC    H80 5589   4.275   1.881   6.649
   43MYC    H81 5590   4.149   1.764   6.689
   43MYC    H82 5591   4.324   1.718   6.706
   43MYC    H83 5592   4.472   1.287  11.207
   43MYC    H84 5593   4.421   1.414  11.105
   43MYC    H85 5594   4.587   1.186  10.998
   43MYC    H86 5595   4.405   1.181  11.019
   43MYC    H87 5596   4.389   1.373  10.873
   43MYC    H88 5597   4.561   1.378  10.854
   43MYC    H89 5598   4.567   1.139  10.747
   43MYC    H90 5599   4.395   1.138  10.762
   43MYC    H91 5600   4.388   1.340  10.598
   43MYC    H92 5601   4.555   1.327  10.579
   43MYC    H93 5602   4.527   1.082  10.526
   43MYC    H94 5603   4.351   1.110  10.510
   43MYC    H95 5604   4.405   1.290  10.334
   43MYC    H96 5605   4.569   1.229  10.330
   43MYC    H97 5606   4.475   0.985  10.295
   43MYC    H98 5607   4.332   1.071  10.245
   43MYC    H99 5608   4.493   1.222  10.097
   44MYC     C1 5609   5.008   1.851   9.527
   44MYC     C2 5610   5.130   1.829   9.619
   44MYC     O3 5611   5.140   1.693   9.659
   44MYC     C4 5612   5.145   1.920   9.742
   44MYC     C5 5613   5.140   1.847   9.877
   44MYC     C6 5614   5.162   1.939   9.999
   44MYC     C7 5615   5.146   1.859  10.129
   44MYC     C8 5616   5.124   1.944  10.256
   44MYC     C9 5617   5.146   1.864  10.386
   44MYC    C10 5618   5.067   1.933  10.499
   44MYC    C11 5619   5.111   1.901  10.643
   44MYC    C12 5620   5.093   1.752  10.679
   44MYC    C13 5621   5.119   1.732  10.829
   44MYC    C14 5622   5.128   1.585  10.872
   44MYC    C15 5623   5.137   1.564  11.024
   44MYC    C16 5624   5.196   1.428  11.064
   44MYC    C17 5625   5.095   1.320  11.025
   44MYC    C18 5626   5.098   1.184  11.090
   44MYC    C19 5627   4.986   1.280  11.121
   44MYC    C20 5628   5.007   1.751   9.411
   44MYC    C21 5629   5.130   1.750   9.318
   44MYC    C22 5630   5.102   1.657   9.199
   44MYC    C23 5631   5.190   1.704   9.082
   44MYC    C24 5632   5.182   1.606   8.964
   44MYC    C25 5633   5.278   1.639   8.849
   44MYC    C26 5634   5.221   1.612   8.709
   44MYC    C27 5635   5.312   1.672   8.600
   44MYC    C28 5636   5.244   1.657   8.463
   44MYC    C29 5637   5.289   1.752   8.352
   44MYC    C30 5638   5.206   1.723   8.226
   44MYC    C31 5639   5.284   1.750   8.096
   44MYC    C32 5640   5.195   1.758   7.971
   44MYC    C33 5641   5.260   1.767   7.832
   44MYC    C34 5642   5.171   1.763   7.706
   44MYC    C35 5643   5.236   1.811   7.575
   44MYC    C36 5644   5.143   1.784   7.456
   44MYC    C37 5645   5.207   1.806   7.317
   44MYC    C38 5646   5.108   1.806   7.199
   44MYC    C39 5647   5.176   1.780   7.064
   44MYC    C40 5648   5.084   1.804   6.943
   44MYC    C41 5649   5.139   1.769   6.804
   44MYC    C42 5650   5.033   1.775   6.692
   44MYC    C43 5651   5.088   1.757   6.549
   44MYC    C44 5652   5.079   1.053  11.014
   44MYC    C45 5653   5.193   1.021  10.916
   44MYC    C46 5654   5.182   1.103  10.787
   44MYC    C47 5655   5.180   1.018  10.659
   44MYC    C48 5656   5.163   1.109  10.536
   44MYC    C49 5657   5.141   1.017  10.415
   44MYC    C50 5658   5.148   1.096  10.283
   44MYC    C51 5659   5.076   1.028  10.166
   44MYC    C52 5660   5.078   1.115  10.039
   44MYC    C53 5661   5.030   1.047   9.909
   44MYC    C54 5662   5.045   1.123   9.776
   44MYC    C55 5663   5.031   1.026   9.658
   44MYC    C56 5664   5.047   1.100   9.525
   44MYC    C57 5665   5.084   1.015   9.402
   44MYC    C58 5666   5.142   1.102   9.292
   44MYC    C59 5667   5.051   1.191   9.211
   44MYC    C60 5668   5.128   1.081   9.143
   44MYC    C61 5669   5.241   1.124   9.051
   44MYC    C62 5670   5.201   1.123   8.903
   44MYC    C63 5671   5.293   1.198   8.804
   44MYC    C64 5672   5.234   1.208   8.663
   44MYC    C65 5673   5.346   1.225   8.558
   44MYC    C66 5674   5.305   1.210   8.411
   44MYC    C67 5675   5.416   1.230   8.306
   44MYC    C68 5676   5.368   1.218   8.161
   44MYC    C69 5677   5.487   1.240   8.066
   44MYC    C70 5678   5.447   1.226   7.918
   44MYC    C71 5679   5.558   1.179   7.822
   44MYC    C72 5680   5.508   1.194   7.677
   44MYC    C73 5681   5.605   1.162   7.563
   44MYC    C74 5682   5.539   1.198   7.429
   44MYC    C75 5683   5.629   1.167   7.308
   44MYC    C76 5684   5.549   1.214   7.185
   44MYC    C77 5685   5.598   1.156   7.052
   44MYC    C78 5686   5.557   1.233   6.925
   44MYC    C79 5687   5.646   1.198   6.804
   44MYC    C80 5688   5.631   1.299   6.688
   44MYC    C81 5689   4.874   1.843   9.598
   44MYC    O82 5690   4.853   1.782   9.702
   44MYC    O83 5691   4.772   1.887   9.521
   44MYC     H1 5692   5.013   1.952   9.484
   44MYC     H2 5693   5.216   1.861   9.559
   44MYC     H3 5694   5.191   1.647   9.590
   44MYC     H4 5695   5.240   1.972   9.727
   44MYC     H5 5696   5.059   1.988   9.744
   44MYC     H6 5697   5.044   1.794   9.887
   44MYC     H7 5698   5.211   1.765   9.889
   44MYC     H8 5699   5.257   1.994   9.992
   44MYC     H9 5700   5.090   2.022   9.996
   44MYC   0H10 5701   5.179   1.153  10.022
   44MYC   1H10 5702   5.093   0.958   9.903
   44MYC   2H10 5703   4.928   1.010   9.920
   44MYC   3H10 5704   4.979   1.210   9.764
   44MYC   4H10 5705   5.143   1.173   9.784
   44MYC   5H10 5706   5.115   0.956   9.661
   44MYC   6H10 5707   4.936   0.971   9.668
   44MYC   7H10 5708   4.949   1.146   9.506
   44MYC   8H10 5709   5.123   1.179   9.533
   44MYC   9H10 5710   5.152   0.935   9.435
   44MYC    H10 5711   5.065   1.788  10.111
   44MYC   0H11 5712   4.999   0.958   9.361
   44MYC   1H11 5713   5.230   1.155   9.326
   44MYC   2H11 5714   4.948   1.174   9.241
   44MYC   3H11 5715   5.078   1.295   9.193
   44MYC   4H11 5716   5.080   0.986   9.120
   44MYC   5H11 5717   5.266   1.229   9.069
   44MYC   6H11 5718   5.323   1.054   9.075
   44MYC   7H11 5719   5.169   1.022   8.875
   44MYC   8H11 5720   5.102   1.167   8.885
   44MYC   9H11 5721   5.316   1.300   8.834
   44MYC    H11 5722   5.233   1.793  10.135
   44MYC   0H12 5723   5.387   1.142   8.815
   44MYC   1H12 5724   5.183   1.117   8.630
   44MYC   2H12 5725   5.153   1.280   8.646
   44MYC   3H12 5726   5.384   1.327   8.569
   44MYC   4H12 5727   5.433   1.161   8.573
   44MYC   5H12 5728   5.254   1.114   8.394
   44MYC   6H12 5729   5.228   1.285   8.389
   44MYC   7H12 5730   5.472   1.323   8.323
   44MYC   8H12 5731   5.495   1.155   8.322
   44MYC   9H12 5732   5.322   1.120   8.146
   44MYC    H12 5733   5.178   2.039  10.251
   44MYC   0H13 5734   5.291   1.296   8.155
   44MYC   1H13 5735   5.540   1.334   8.086
   44MYC   2H13 5736   5.553   1.156   8.090
   44MYC   3H13 5737   5.359   1.161   7.910
   44MYC   4H13 5738   5.400   1.320   7.886
   44MYC   5H13 5739   5.647   1.243   7.825
   44MYC   6H13 5740   5.580   1.075   7.847
   44MYC   7H13 5741   5.428   1.120   7.662
   44MYC   8H13 5742   5.472   1.296   7.658
   44MYC   9H13 5743   5.694   1.223   7.584
   44MYC    H13 5744   5.019   1.973  10.267
   44MYC   0H14 5745   5.628   1.054   7.568
   44MYC   1H14 5746   5.447   1.139   7.418
   44MYC   2H14 5747   5.499   1.300   7.426
   44MYC   3H14 5748   5.731   1.207   7.304
   44MYC   4H14 5749   5.642   1.058   7.300
   44MYC   5H14 5750   5.441   1.194   7.191
   44MYC   6H14 5751   5.546   1.323   7.189
   44MYC   7H14 5752   5.706   1.170   7.063
   44MYC   8H14 5753   5.579   1.048   7.048
   44MYC   9H14 5754   5.455   1.205   6.897
   44MYC    H14 5755   5.108   1.762  10.377
   44MYC   0H15 5756   5.563   1.340   6.947
   44MYC   1H15 5757   5.753   1.191   6.827
   44MYC   2H15 5758   5.618   1.098   6.769
   44MYC   3H15 5759   5.565   1.260   6.610
   44MYC   4H15 5760   5.723   1.337   6.644
   44MYC   5H15 5761   5.589   1.393   6.726
   44MYC   6H15 5762   4.696   1.870   9.580
   44MYC    H15 5763   5.254   1.872  10.404
   44MYC    H16 5764   5.061   2.042  10.488
   44MYC    H17 5765   4.966   1.891  10.494
   44MYC    H18 5766   5.218   1.928  10.648
   44MYC    H19 5767   5.055   1.954  10.720
   44MYC    H20 5768   4.992   1.723  10.648
   44MYC    H21 5769   5.157   1.694  10.612
   44MYC    H22 5770   5.216   1.780  10.848
   44MYC    H23 5771   5.044   1.784  10.891
   44MYC    H24 5772   5.042   1.532  10.829
   44MYC    H25 5773   5.224   1.552  10.832
   44MYC    H26 5774   5.206   1.638  11.066
   44MYC    H27 5775   5.035   1.575  11.064
   44MYC    H28 5776   5.293   1.413  11.016
   44MYC    H29 5777   5.208   1.426  11.173
   44MYC    H30 5778   5.071   1.319  10.919
   44MYC    H31 5779   5.180   1.165  11.158
   44MYC    H32 5780   4.888   1.256  11.079
   44MYC    H33 5781   4.980   1.307  11.226
   44MYC    H34 5782   4.998   1.651   9.456
   44MYC    H35 5783   4.915   1.773   9.355
   44MYC    H36 5784   5.143   1.852   9.280
   44MYC    H37 5785   5.226   1.740   9.370
   44MYC    H38 5786   5.123   1.553   9.224
   44MYC    H39 5787   4.996   1.660   9.169
   44MYC    H40 5788   5.175   1.807   9.047
   44MYC    H41 5789   5.293   1.690   9.119
   44MYC    H42 5790   5.190   1.501   8.994
   44MYC    H43 5791   5.078   1.616   8.930
   44MYC    H44 5792   5.312   1.743   8.863
   44MYC    H45 5793   5.363   1.573   8.868
   44MYC    H46 5794   5.208   1.505   8.688
   44MYC    H47 5795   5.130   1.674   8.701
   44MYC    H48 5796   5.331   1.778   8.619
   44MYC    H49 5797   5.410   1.622   8.593
   44MYC    H50 5798   5.258   1.556   8.422
   44MYC    H51 5799   5.137   1.670   8.485
   44MYC    H52 5800   5.275   1.857   8.380
   44MYC    H53 5801   5.397   1.748   8.335
   44MYC    H54 5802   5.185   1.615   8.224
   44MYC    H55 5803   5.119   1.790   8.236
   44MYC    H56 5804   5.335   1.846   8.109
   44MYC    H57 5805   5.360   1.674   8.074
   44MYC    H58 5806   5.116   1.682   7.971
   44MYC    H59 5807   5.145   1.852   7.996
   44MYC    H60 5808   5.297   1.870   7.829
   44MYC    H61 5809   5.334   1.685   7.833
   44MYC    H62 5810   5.145   1.657   7.703
   44MYC    H63 5811   5.076   1.813   7.727
   44MYC    H64 5812   5.258   1.918   7.583
   44MYC    H65 5813   5.333   1.761   7.561
   44MYC    H66 5814   5.109   1.681   7.471
   44MYC    H67 5815   5.053   1.845   7.466
   44MYC    H68 5816   5.274   1.893   7.313
   44MYC    H69 5817   5.282   1.728   7.301
   44MYC    H70 5818   5.043   1.720   7.218
   44MYC    H71 5819   5.035   1.888   7.200
   44MYC    H72 5820   5.263   1.846   7.055
   44MYC    H73 5821   5.219   1.680   7.062
   44MYC    H74 5822   4.986   1.757   6.957
   44MYC    H75 5823   5.052   1.909   6.940
   44MYC    H76 5824   5.222   1.836   6.777
   44MYC    H77 5825   5.182   1.668   6.805
   44MYC    H78 5826   4.951   1.704   6.705
   44MYC    H79 5827   4.984   1.873   6.697
   44MYC    H80 5828   5.003   1.759   6.479
   44MYC    H81 5829   5.141   1.662   6.531
   44MYC    H82 5830   5.143   1.845   6.515
   44MYC    H83 5831   5.083   0.972  11.088
   44MYC    H84 5832   4.980   1.038  10.970
   44MYC    H85 5833   5.291   1.032  10.963
   44MYC    H86 5834   5.180   0.916  10.885
   44MYC    H87 5835   5.091   1.164  10.791
   44MYC    H88 5836   5.267   1.172  10.774
   44MYC    H89 5837   5.277   0.965  10.660
   44MYC    H90 5838   5.096   0.949  10.655
   44MYC    H91 5839   5.078   1.179  10.543
   44MYC    H92 5840   5.255   1.162  10.507
   44MYC    H93 5841   5.225   0.946  10.420
   44MYC    H94 5842   5.043   0.969  10.414
   44MYC    H95 5843   5.102   1.195  10.294
   44MYC    H96 5844   5.254   1.110  10.257
   44MYC    H97 5845   5.118   0.929  10.145
   44MYC    H98 5846   4.971   1.000  10.180
   44MYC    H99 5847   5.014   1.202  10.062
   45MYC     C1 5848   5.591   1.558   9.542
   45MYC     C2 5849   5.514   1.472   9.644
   45MYC     O3 5850   5.385   1.441   9.593
   45MYC     C4 5851   5.511   1.531   9.785
   45MYC     C5 5852   5.480   1.431   9.897
   45MYC     C6 5853   5.475   1.503  10.033
   45MYC     C7 5854   5.469   1.406  10.152
   45MYC     C8 5855   5.446   1.494  10.276
   45MYC     C9 5856   5.443   1.422  10.412
   45MYC    C10 5857   5.371   1.513  10.512
   45MYC    C11 5858   5.453   1.638  10.550
   45MYC    C12 5859   5.587   1.604  10.618
   45MYC    C13 5860   5.649   1.734  10.671
   45MYC    C14 5861   5.766   1.715  10.769
   45MYC    C15 5862   5.724   1.678  10.913
   45MYC    C16 5863   5.848   1.704  10.999
   45MYC    C17 5864   5.924   1.575  11.029
   45MYC    C18 5865   6.023   1.523  10.928
   45MYC    C19 5866   6.072   1.586  11.056
   45MYC    C20 5867   5.585   1.499   9.400
   45MYC    C21 5868   5.683   1.565   9.301
   45MYC    C22 5869   5.643   1.509   9.164
   45MYC    C23 5870   5.730   1.565   9.051
   45MYC    C24 5871   5.682   1.507   8.917
   45MYC    C25 5872   5.761   1.567   8.800
   45MYC    C26 5873   5.705   1.527   8.662
   45MYC    C27 5874   5.777   1.597   8.545
   45MYC    C28 5875   5.712   1.561   8.411
   45MYC    C29 5876   5.778   1.615   8.283
   45MYC    C30 5877   5.687   1.600   8.160
   45MYC    C31 5878   5.758   1.640   8.030
   45MYC    C32 5879   5.662   1.615   7.912
   45MYC    C33 5880   5.734   1.652   7.782
   45MYC    C34 5881   5.667   1.602   7.653
   45MYC    C35 5882   5.752   1.633   7.528
   45MYC    C36 5883   5.665   1.602   7.405
   45MYC    C37 5884   5.751   1.634   7.281
   45MYC    C38 5885   5.684   1.626   7.142
   45MYC    C39 5886   5.784   1.676   7.036
   45MYC    C40 5887   5.717   1.686   6.898
   45MYC    C41 5888   5.825   1.721   6.796
   45MYC    C42 5889   5.788   1.693   6.649
   45MYC    C43 5890   5.894   1.741   6.549
   45MYC    C44 5891   6.029   1.371  10.914
   45MYC    C45 5892   6.148   1.331  10.826
   45MYC    C46 5893   6.127   1.384  10.683
   45MYC    C47 5894   6.215   1.313  10.578
   45MYC    C48 5895   6.216   1.389  10.445
   45MYC    C49 5896   6.281   1.302  10.336
   45MYC    C50 5897   6.286   1.367  10.196
   45MYC    C51 5898   6.292   1.259  10.087
   45MYC    C52 5899   6.290   1.332   9.952
   45MYC    C53 5900   6.265   1.228   9.841
   45MYC    C54 5901   6.266   1.283   9.698
   45MYC    C55 5902   6.395   1.348   9.647
   45MYC    C56 5903   6.408   1.385   9.498
   45MYC    C57 5904   6.437   1.268   9.403
   45MYC    C58 5905   6.453   1.307   9.256
   45MYC    C59 5906   6.445   1.447   9.201
   45MYC    C60 5907   6.329   1.353   9.184
   45MYC    C61 5908   6.304   1.293   9.046
   45MYC    C62 5909   6.227   1.386   8.952
   45MYC    C63 5910   6.248   1.335   8.808
   45MYC    C64 5911   6.172   1.406   8.695
   45MYC    C65 5912   6.193   1.325   8.566
   45MYC    C66 5913   6.118   1.370   8.440
   45MYC    C67 5914   6.157   1.291   8.314
   45MYC    C68 5915   6.069   1.333   8.195
   45MYC    C69 5916   6.117   1.256   8.070
   45MYC    C70 5917   6.035   1.294   7.946
   45MYC    C71 5918   6.103   1.245   7.817
   45MYC    C72 5919   6.008   1.273   7.699
   45MYC    C73 5920   6.077   1.223   7.570
   45MYC    C74 5921   6.010   1.268   7.439
   45MYC    C75 5922   6.095   1.235   7.315
   45MYC    C76 5923   6.013   1.273   7.190
   45MYC    C77 5924   6.097   1.279   7.062
   45MYC    C78 5925   6.006   1.296   6.939
   45MYC    C79 5926   6.088   1.301   6.809
   45MYC    C80 5927   6.008   1.299   6.678
   45MYC    C81 5928   5.540   1.701   9.555
   45MYC    O82 5929   5.446   1.751   9.495
   45MYC    O83 5930   5.609   1.770   9.648
   45MYC     H1 5931   5.697   1.562   9.571
   45MYC     H2 5932   5.584   1.388   9.657
   45MYC     H3 5933   5.343   1.378   9.654
   45MYC     H4 5934   5.606   1.584   9.798
   45MYC     H5 5935   5.434   1.609   9.785
   45MYC     H6 5936   5.385   1.377   9.883
   45MYC     H7 5937   5.553   1.350   9.903
   45MYC     H8 5938   5.566   1.564  10.046
   45MYC     H9 5939   5.391   1.574  10.029
   45MYC   0H10 5940   6.384   1.383   9.931
   45MYC   1H10 5941   6.332   1.144   9.861
   45MYC   2H10 5942   6.159   1.199   9.851
   45MYC   3H10 5943   6.257   1.203   9.623
   45MYC   4H10 5944   6.193   1.365   9.687
   45MYC   5H10 5945   6.391   1.446   9.698
   45MYC   6H10 5946   6.486   1.303   9.687
   45MYC   7H10 5947   6.319   1.441   9.465
   45MYC   8H10 5948   6.486   1.460   9.478
   45MYC   9H10 5949   6.535   1.225   9.429
   45MYC    H10 5950   5.389   1.332  10.139
   45MYC   0H11 5951   6.365   1.187   9.418
   45MYC   1H11 5952   6.507   1.228   9.205
   45MYC   2H11 5953   6.434   1.529   9.272
   45MYC   3H11 5954   6.497   1.467   9.107
   45MYC   4H11 5955   6.241   1.365   9.247
   45MYC   5H11 5956   6.399   1.260   9.002
   45MYC   6H11 5957   6.246   1.200   9.057
   45MYC   7H11 5958   6.124   1.382   8.990
   45MYC   8H11 5959   6.267   1.485   8.973
   45MYC   9H11 5960   6.355   1.352   8.786
   45MYC    H11 5961   5.558   1.344  10.163
   45MYC   0H12 5962   6.252   1.226   8.802
   45MYC   1H12 5963   6.067   1.418   8.721
   45MYC   2H12 5964   6.211   1.508   8.686
   45MYC   3H12 5965   6.301   1.322   8.542
   45MYC   4H12 5966   6.161   1.222   8.587
   45MYC   5H12 5967   6.011   1.365   8.464
   45MYC   6H12 5968   6.143   1.476   8.429
   45MYC   7H12 5969   6.262   1.304   8.283
   45MYC   8H12 5970   6.140   1.184   8.331
   45MYC   9H12 5971   5.966   1.311   8.223
   45MYC    H12 5972   5.527   1.569  10.278
   45MYC   0H13 5973   6.083   1.441   8.178
   45MYC   1H13 5974   6.223   1.272   8.048
   45MYC   2H13 5975   6.103   1.151   8.099
   45MYC   3H13 5976   5.935   1.250   7.955
   45MYC   4H13 5977   6.023   1.403   7.957
   45MYC   5H13 5978   6.199   1.293   7.794
   45MYC   6H13 5979   6.113   1.137   7.833
   45MYC   7H13 5980   5.910   1.228   7.717
   45MYC   8H13 5981   5.990   1.380   7.688
   45MYC   9H13 5982   6.180   1.260   7.579
   45MYC    H13 5983   5.352   1.549  10.261
   45MYC   0H14 5984   6.079   1.114   7.568
   45MYC   1H14 5985   5.919   1.208   7.429
   45MYC   2H14 5986   5.974   1.372   7.446
   45MYC   3H14 5987   6.189   1.291   7.323
   45MYC   4H14 5988   6.123   1.129   7.316
   45MYC   5H14 5989   5.935   1.197   7.179
   45MYC   6H14 5990   5.969   1.371   7.214
   45MYC   7H14 5991   6.166   1.362   7.076
   45MYC   8H14 5992   6.157   1.187   7.064
   45MYC   9H14 5993   5.936   1.212   6.932
   45MYC    H14 5994   5.388   1.327  10.408
   45MYC   0H15 5995   5.939   1.382   6.952
   45MYC   1H15 5996   6.159   1.385   6.809
   45MYC   2H15 5997   6.146   1.209   6.818
   45MYC   3H15 5998   5.935   1.381   6.674
   45MYC   4H15 5999   5.955   1.205   6.660
   45MYC   5H15 6000   6.069   1.306   6.586
   45MYC   6H15 6001   5.561   1.855   9.642
   45MYC    H15 6002   5.542   1.398  10.452
   45MYC    H16 6003   5.277   1.542  10.463
   45MYC    H17 6004   5.339   1.458  10.602
   45MYC    H18 6005   5.467   1.699  10.460
   45MYC    H19 6006   5.395   1.701  10.618
   45MYC    H20 6007   5.572   1.529  10.697
   45MYC    H21 6008   5.660   1.551  10.555
   45MYC    H22 6009   5.687   1.785  10.582
   45MYC    H23 6010   5.573   1.800  10.716
   45MYC    H24 6011   5.835   1.641  10.728
   45MYC    H25 6012   5.827   1.806  10.763
   45MYC    H26 6013   5.642   1.739  10.953
   45MYC    H27 6014   5.691   1.573  10.907
   45MYC    H28 6015   5.921   1.773  10.954
   45MYC    H29 6016   5.820   1.748  11.095
   45MYC    H30 6017   5.873   1.506  11.095
   45MYC    H31 6018   6.042   1.585  10.841
   45MYC    H32 6019   6.134   1.526  11.123
   45MYC    H33 6020   6.120   1.683  11.049
   45MYC    H34 6021   5.617   1.395   9.407
   45MYC    H35 6022   5.481   1.502   9.368
   45MYC    H36 6023   5.678   1.675   9.307
   45MYC    H37 6024   5.786   1.544   9.332
   45MYC    H38 6025   5.647   1.399   9.173
   45MYC    H39 6026   5.540   1.542   9.143
   45MYC    H40 6027   5.721   1.674   9.055
   45MYC    H41 6028   5.833   1.536   9.073
   45MYC    H42 6029   5.696   1.398   8.912
   45MYC    H43 6030   5.577   1.533   8.897
   45MYC    H44 6031   5.780   1.674   8.815
   45MYC    H45 6032   5.863   1.531   8.810
   45MYC    H46 6033   5.722   1.420   8.650
   45MYC    H47 6034   5.596   1.538   8.657
   45MYC    H48 6035   5.772   1.703   8.571
   45MYC    H49 6036   5.885   1.579   8.547
   45MYC    H50 6037   5.694   1.453   8.403
   45MYC    H51 6038   5.610   1.603   8.411
   45MYC    H52 6039   5.807   1.720   8.296
   45MYC    H53 6040   5.876   1.567   8.272
   45MYC    H54 6041   5.668   1.492   8.159
   45MYC    H55 6042   5.597   1.660   8.178
   45MYC    H56 6043   5.792   1.744   8.030
   45MYC    H57 6044   5.850   1.580   8.017
   45MYC    H58 6045   5.637   1.509   7.914
   45MYC    H59 6046   5.573   1.678   7.897
   45MYC    H60 6047   5.745   1.761   7.775
   45MYC    H61 6048   5.837   1.615   7.788
   45MYC    H62 6049   5.636   1.497   7.658
   45MYC    H63 6050   5.580   1.668   7.641
   45MYC    H64 6051   5.792   1.735   7.526
   45MYC    H65 6052   5.840   1.567   7.534
   45MYC    H66 6053   5.639   1.496   7.401
   45MYC    H67 6054   5.570   1.656   7.412
   45MYC    H68 6055   5.791   1.735   7.292
   45MYC    H69 6056   5.845   1.578   7.284
   45MYC    H70 6057   5.648   1.527   7.114
   45MYC    H71 6058   5.605   1.702   7.141
   45MYC    H72 6059   5.830   1.774   7.055
   45MYC    H73 6060   5.866   1.603   7.028
   45MYC    H74 6061   5.667   1.590   6.878
   45MYC    H75 6062   5.650   1.773   6.911
   45MYC    H76 6063   5.860   1.823   6.819
   45MYC    H77 6064   5.911   1.655   6.811
   45MYC    H78 6065   5.774   1.584   6.643
   45MYC    H79 6066   5.690   1.737   6.625
   45MYC    H80 6067   5.859   1.703   6.452
   45MYC    H81 6068   5.996   1.711   6.576
   45MYC    H82 6069   5.894   1.851   6.553
   45MYC    H83 6070   6.051   1.327  11.012
   45MYC    H84 6071   5.933   1.335  10.875
   45MYC    H85 6072   6.236   1.366  10.882
   45MYC    H86 6073   6.152   1.222  10.817
   45MYC    H87 6074   6.020   1.381  10.658
   45MYC    H88 6075   6.163   1.487  10.688
   45MYC    H89 6076   6.315   1.302  10.620
   45MYC    H90 6077   6.184   1.210  10.561
   45MYC    H91 6078   6.119   1.428  10.413
   45MYC    H92 6079   6.274   1.481  10.463
   45MYC    H93 6080   6.385   1.278  10.363
   45MYC    H94 6081   6.217   1.213  10.333
   45MYC    H95 6082   6.200   1.434  10.185
   45MYC    H96 6083   6.376   1.429  10.195
   45MYC    H97 6084   6.381   1.196  10.103
   45MYC    H98 6085   6.200   1.201  10.098
   45MYC    H99 6086   6.206   1.403   9.954
   46MYC     C1 6087   0.117   2.272   9.568
   46MYC     C2 6088   0.239   2.314   9.652
   46MYC     O3 6089   0.296   2.203   9.721
   46MYC     C4 6090   0.210   2.440   9.735
   46MYC     C5 6091   0.248   2.433   9.884
   46MYC     C6 6092   0.155   2.352   9.976
   46MYC     C7 6093   0.187   2.375  10.124
   46MYC     C8 6094   0.111   2.271  10.209
   46MYC     C9 6095   0.142   2.285  10.359
   46MYC    C10 6096   0.026   2.221  10.436
   46MYC    C11 6097   0.049   2.222  10.588
   46MYC    C12 6098   0.156   2.120  10.632
   46MYC    C13 6099   0.180   2.104  10.783
   46MYC    C14 6100   0.254   2.225  10.842
   46MYC    C15 6101   0.267   2.229  10.995
   46MYC    C16 6102   0.362   2.336  11.052
   46MYC    C17 6103   0.510   2.304  11.053
   46MYC    C18 6104   0.623   2.397  11.088
   46MYC    C19 6105   0.574   2.297  11.189
   46MYC    C20 6106   0.148   2.175   9.453
   46MYC    C21 6107   0.225   2.243   9.337
   46MYC    C22 6108   0.252   2.147   9.220
   46MYC    C23 6109   0.290   2.222   9.092
   46MYC    C24 6110   0.291   2.132   8.967
   46MYC    C25 6111   0.297   2.212   8.836
   46MYC    C26 6112   0.271   2.123   8.712
   46MYC    C27 6113   0.255   2.221   8.595
   46MYC    C28 6114   0.225   2.139   8.468
   46MYC    C29 6115   0.231   2.220   8.338
   46MYC    C30 6116   0.192   2.122   8.226
   46MYC    C31 6117   0.218   2.184   8.088
   46MYC    C32 6118   0.180   2.093   7.969
   46MYC    C33 6119   0.188   2.171   7.836
   46MYC    C34 6120   0.100   2.127   7.718
   46MYC    C35 6121   0.139   2.187   7.582
   46MYC    C36 6122   0.055   2.165   7.455
   46MYC    C37 6123   0.101   2.242   7.331
   46MYC    C38 6124  -0.004   2.237   7.219
   46MYC    C39 6125   0.056   2.310   7.098
   46MYC    C40 6126  -0.017   2.280   6.966
   46MYC    C41 6127   0.055   2.339   6.844
   46MYC    C42 6128  -0.013   2.308   6.710
   46MYC    C43 6129   0.053   2.387   6.595
   46MYC    C44 6130   0.763   2.367  11.035
   46MYC    C45 6131   0.833   2.468  10.943
   46MYC    C46 6132   0.731   2.521  10.841
   46MYC    C47 6133   0.793   2.612  10.734
   46MYC    C48 6134   0.696   2.609  10.615
   46MYC    C49 6135   0.741   2.703  10.503
   46MYC    C50 6136   0.640   2.715  10.387
   46MYC    C51 6137   0.708   2.768  10.260
   46MYC    C52 6138   0.623   2.734  10.136
   46MYC    C53 6139   0.654   2.818  10.011
   46MYC    C54 6140   0.590   2.751   9.888
   46MYC    C55 6141   0.662   2.799   9.761
   46MYC    C56 6142   0.572   2.794   9.636
   46MYC    C57 6143   0.658   2.799   9.509
   46MYC    C58 6144   0.573   2.799   9.382
   46MYC    C59 6145   0.497   2.671   9.357
   46MYC    C60 6146   0.608   2.712   9.263
   46MYC    C61 6147   0.569   2.760   9.124
   46MYC    C62 6148   0.572   2.640   9.027
   46MYC    C63 6149   0.517   2.681   8.890
   46MYC    C64 6150   0.566   2.588   8.778
   46MYC    C65 6151   0.496   2.628   8.646
   46MYC    C66 6152   0.549   2.541   8.531
   46MYC    C67 6153   0.490   2.580   8.394
   46MYC    C68 6154   0.536   2.494   8.275
   46MYC    C69 6155   0.496   2.558   8.141
   46MYC    C70 6156   0.504   2.462   8.021
   46MYC    C71 6157   0.484   2.532   7.885
   46MYC    C72 6158   0.457   2.434   7.770
   46MYC    C73 6159   0.516   2.493   7.641
   46MYC    C74 6160   0.492   2.402   7.519
   46MYC    C75 6161   0.566   2.469   7.402
   46MYC    C76 6162   0.512   2.415   7.268
   46MYC    C77 6163   0.596   2.478   7.155
   46MYC    C78 6164   0.574   2.418   7.015
   46MYC    C79 6165   0.613   2.516   6.903
   46MYC    C80 6166   0.575   2.461   6.764
   46MYC    C81 6167   0.021   2.214   9.670
   46MYC    O82 6168   0.023   2.100   9.714
   46MYC    O83 6169  -0.091   2.287   9.690
   46MYC     H1 6170   0.079   2.368   9.531
   46MYC     H2 6171   0.311   2.356   9.582
   46MYC     H3 6172   0.220   2.163   9.767
   46MYC     H4 6173   0.285   2.513   9.702
   46MYC     H5 6174   0.109   2.480   9.717
   46MYC     H6 6175   0.345   2.384   9.894
   46MYC     H7 6176   0.245   2.536   9.920
   46MYC     H8 6177   0.051   2.378   9.950
   46MYC     H9 6178   0.164   2.245   9.955
   46MYC   0H10 6179   0.514   2.726  10.152
   46MYC   1H10 6180   0.618   2.922  10.015
   46MYC   2H10 6181   0.763   2.823  10.011
   46MYC   3H10 6182   0.589   2.642   9.895
   46MYC   4H10 6183   0.488   2.792   9.891
   46MYC   5H10 6184   0.709   2.898   9.762
   46MYC   6H10 6185   0.750   2.734   9.753
   46MYC   7H10 6186   0.508   2.704   9.637
   46MYC   8H10 6187   0.497   2.873   9.651
   46MYC   9H10 6188   0.711   2.894   9.515
   46MYC    H10 6189   0.296   2.374  10.136
   46MYC   0H11 6190   0.725   2.712   9.505
   46MYC   1H11 6191   0.508   2.886   9.373
   46MYC   2H11 6192   0.518   2.582   9.416
   46MYC   3H11 6193   0.392   2.687   9.336
   46MYC   4H11 6194   0.698   2.652   9.262
   46MYC   5H11 6195   0.475   2.815   9.129
   46MYC   6H11 6196   0.646   2.829   9.087
   46MYC   7H11 6197   0.674   2.602   9.013
   46MYC   8H11 6198   0.508   2.567   9.078
   46MYC   9H11 6199   0.408   2.681   8.898
   46MYC    H11 6200   0.146   2.470  10.161
   46MYC   0H12 6201   0.548   2.782   8.861
   46MYC   1H12 6202   0.675   2.588   8.768
   46MYC   2H12 6203   0.539   2.486   8.809
   46MYC   3H12 6204   0.387   2.628   8.658
   46MYC   4H12 6205   0.517   2.734   8.628
   46MYC   5H12 6206   0.658   2.537   8.535
   46MYC   6H12 6207   0.524   2.437   8.553
   46MYC   7H12 6208   0.381   2.580   8.403
   46MYC   8H12 6209   0.509   2.686   8.371
   46MYC   9H12 6210   0.644   2.476   8.275
   46MYC    H12 6211   0.003   2.283  10.198
   46MYC   0H13 6212   0.495   2.393   8.289
   46MYC   1H13 6213   0.400   2.609   8.155
   46MYC   2H13 6214   0.576   2.632   8.129
   46MYC   3H13 6215   0.603   2.416   8.026
   46MYC   4H13 6216   0.430   2.383   8.036
   46MYC   5H13 6217   0.402   2.605   7.889
   46MYC   6H13 6218   0.572   2.596   7.870
   46MYC   7H13 6219   0.501   2.335   7.784
   46MYC   8H13 6220   0.347   2.436   7.771
   46MYC   9H13 6221   0.468   2.590   7.621
   46MYC    H13 6222   0.128   2.165  10.188
   46MYC   0H14 6223   0.623   2.508   7.657
   46MYC   1H14 6224   0.523   2.298   7.526
   46MYC   2H14 6225   0.384   2.385   7.504
   46MYC   3H14 6226   0.558   2.578   7.407
   46MYC   4H14 6227   0.672   2.446   7.418
   46MYC   5H14 6228   0.511   2.306   7.270
   46MYC   6H14 6229   0.407   2.448   7.262
   46MYC   7H14 6230   0.586   2.587   7.151
   46MYC   8H14 6231   0.701   2.461   7.180
   46MYC   9H14 6232   0.640   2.331   7.006
   46MYC    H14 6233   0.238   2.240  10.389
   46MYC   0H15 6234   0.467   2.394   7.006
   46MYC   1H15 6235   0.564   2.613   6.917
   46MYC   2H15 6236   0.722   2.533   6.905
   46MYC   3H15 6237   0.471   2.429   6.773
   46MYC   4H15 6238   0.637   2.373   6.740
   46MYC   5H15 6239   0.583   2.540   6.689
   46MYC   6H15 6240  -0.133   2.239   9.764
   46MYC    H15 6241   0.152   2.392  10.383
   46MYC    H16 6242  -0.066   2.277  10.416
   46MYC    H17 6243   0.018   2.115  10.410
   46MYC    H18 6244   0.087   2.321  10.615
   46MYC    H19 6245  -0.048   2.207  10.637
   46MYC    H20 6246   0.121   2.022  10.598
   46MYC    H21 6247   0.247   2.152  10.581
   46MYC    H22 6248   0.093   2.065  10.838
   46MYC    H23 6249   0.238   2.011  10.788
   46MYC    H24 6250   0.353   2.223  10.794
   46MYC    H25 6251   0.207   2.314  10.798
   46MYC    H26 6252   0.166   2.245  11.035
   46MYC    H27 6253   0.297   2.133  11.037
   46MYC    H28 6254   0.347   2.421  10.983
   46MYC    H29 6255   0.327   2.357  11.154
   46MYC    H30 6256   0.528   2.221  10.984
   46MYC    H31 6257   0.596   2.501  11.107
   46MYC    H32 6258   0.641   2.219  11.225
   46MYC    H33 6259   0.507   2.329  11.269
   46MYC    H34 6260   0.206   2.087   9.483
   46MYC    H35 6261   0.056   2.133   9.412
   46MYC    H36 6262   0.164   2.324   9.295
   46MYC    H37 6263   0.324   2.279   9.366
   46MYC    H38 6264   0.333   2.075   9.240
   46MYC    H39 6265   0.171   2.078   9.195
   46MYC    H40 6266   0.213   2.298   9.074
   46MYC    H41 6267   0.382   2.282   9.093
   46MYC    H42 6268   0.373   2.061   8.982
   46MYC    H43 6269   0.196   2.079   8.963
   46MYC    H44 6270   0.219   2.288   8.840
   46MYC    H45 6271   0.391   2.269   8.834
   46MYC    H46 6272   0.356   2.057   8.694
   46MYC    H47 6273   0.183   2.060   8.726
   46MYC    H48 6274   0.173   2.292   8.612
   46MYC    H49 6275   0.341   2.286   8.575
   46MYC    H50 6276   0.291   2.051   8.468
   46MYC    H51 6277   0.126   2.097   8.487
   46MYC    H52 6278   0.167   2.309   8.330
   46MYC    H53 6279   0.330   2.264   8.323
   46MYC    H54 6280   0.249   2.029   8.236
   46MYC    H55 6281   0.085   2.099   8.240
   46MYC    H56 6282   0.166   2.280   8.076
   46MYC    H57 6283   0.326   2.203   8.088
   46MYC    H58 6284   0.264   2.022   7.965
   46MYC    H59 6285   0.089   2.034   7.981
   46MYC    H60 6286   0.168   2.276   7.859
   46MYC    H61 6287   0.292   2.172   7.800
   46MYC    H62 6288   0.115   2.019   7.709
   46MYC    H63 6289  -0.005   2.150   7.738
   46MYC    H64 6290   0.151   2.296   7.591
   46MYC    H65 6291   0.240   2.155   7.553
   46MYC    H66 6292   0.053   2.058   7.431
   46MYC    H67 6293  -0.045   2.206   7.475
   46MYC    H68 6294   0.112   2.348   7.359
   46MYC    H69 6295   0.199   2.201   7.303
   46MYC    H70 6296  -0.039   2.135   7.196
   46MYC    H71 6297  -0.092   2.294   7.253
   46MYC    H72 6298   0.054   2.419   7.112
   46MYC    H73 6299   0.161   2.276   7.092
   46MYC    H74 6300  -0.048   2.176   6.953
   46MYC    H75 6301  -0.117   2.327   6.973
   46MYC    H76 6302   0.053   2.447   6.861
   46MYC    H77 6303   0.157   2.298   6.844
   46MYC    H78 6304  -0.015   2.202   6.685
   46MYC    H79 6305  -0.117   2.341   6.719
   46MYC    H80 6306   0.021   2.339   6.502
   46MYC    H81 6307   0.163   2.381   6.599
   46MYC    H82 6308   0.034   2.495   6.601
   46MYC    H83 6309   0.821   2.357  11.127
   46MYC    H84 6310   0.765   2.272  10.980
   46MYC    H85 6311   0.883   2.545  11.003
   46MYC    H86 6312   0.910   2.417  10.884
   46MYC    H87 6313   0.681   2.438  10.790
   46MYC    H88 6314   0.645   2.573  10.885
   46MYC    H89 6315   0.801   2.712  10.779
   46MYC    H90 6316   0.892   2.582  10.696
   46MYC    H91 6317   0.695   2.508  10.573
   46MYC    H92 6318   0.593   2.633  10.645
   46MYC    H93 6319   0.749   2.802  10.550
   46MYC    H94 6320   0.837   2.673  10.458
   46MYC    H95 6321   0.595   2.616  10.376
   46MYC    H96 6322   0.565   2.787  10.422
   46MYC    H97 6323   0.727   2.876  10.269
   46MYC    H98 6324   0.808   2.726  10.245
   46MYC    H99 6325   0.646   2.630  10.111
   47MYC     C1 6326   0.803   2.375   9.666
   47MYC     C2 6327   0.893   2.350   9.788
   47MYC     O3 6328   0.926   2.212   9.779
   47MYC     C4 6329   0.837   2.384   9.927
   47MYC     C5 6330   0.921   2.345  10.050
   47MYC     C6 6331   0.888   2.206  10.107
   47MYC     C7 6332   0.958   2.180  10.241
   47MYC     C8 6333   0.916   2.046  10.303
   47MYC     C9 6334   0.946   2.051  10.453
   47MYC    C10 6335   0.924   1.919  10.528
   47MYC    C11 6336   0.907   1.924  10.681
   47MYC    C12 6337   0.999   2.020  10.759
   47MYC    C13 6338   0.987   2.003  10.911
   47MYC    C14 6339   1.055   2.116  10.989
   47MYC    C15 6340   1.049   2.088  11.140
   47MYC    C16 6341   1.131   2.183  11.230
   47MYC    C17 6342   1.281   2.172  11.206
   47MYC    C18 6343   1.364   2.282  11.147
   47MYC    C19 6344   1.368   2.256  11.295
   47MYC    C20 6345   0.865   2.328   9.533
   47MYC    C21 6346   0.823   2.407   9.407
   47MYC    C22 6347   0.832   2.337   9.270
   47MYC    C23 6348   0.696   2.287   9.220
   47MYC    C24 6349   0.701   2.198   9.094
   47MYC    C25 6350   0.749   2.284   8.976
   47MYC    C26 6351   0.727   2.212   8.842
   47MYC    C27 6352   0.811   2.270   8.727
   47MYC    C28 6353   0.769   2.194   8.600
   47MYC    C29 6354   0.843   2.235   8.471
   47MYC    C30 6355   0.793   2.151   8.353
   47MYC    C31 6356   0.851   2.190   8.215
   47MYC    C32 6357   0.776   2.119   8.102
   47MYC    C33 6358   0.834   2.157   7.964
   47MYC    C34 6359   0.753   2.094   7.849
   47MYC    C35 6360   0.825   2.111   7.714
   47MYC    C36 6361   0.742   2.051   7.599
   47MYC    C37 6362   0.801   2.081   7.460
   47MYC    C38 6363   0.728   2.017   7.341
   47MYC    C39 6364   0.803   2.029   7.208
   47MYC    C40 6365   0.730   1.964   7.089
   47MYC    C41 6366   0.817   1.964   6.963
   47MYC    C42 6367   0.760   1.880   6.847
   47MYC    C43 6368   0.831   1.900   6.712
   47MYC    C44 6369   1.499   2.263  11.079
   47MYC    C45 6370   1.499   2.308  10.932
   47MYC    C46 6371   1.486   2.185  10.841
   47MYC    C47 6372   1.520   2.199  10.692
   47MYC    C48 6373   1.431   2.298  10.617
   47MYC    C49 6374   1.496   2.339  10.483
   47MYC    C50 6375   1.392   2.386  10.381
   47MYC    C51 6376   1.457   2.416  10.244
   47MYC    C52 6377   1.354   2.422  10.130
   47MYC    C53 6378   1.414   2.433   9.989
   47MYC    C54 6379   1.305   2.431   9.880
   47MYC    C55 6380   1.364   2.437   9.738
   47MYC    C56 6381   1.260   2.468   9.629
   47MYC    C57 6382   1.325   2.454   9.491
   47MYC    C58 6383   1.238   2.503   9.376
   47MYC    C59 6384   1.185   2.405   9.274
   47MYC    C60 6385   1.287   2.509   9.234
   47MYC    C61 6386   1.245   2.630   9.152
   47MYC    C62 6387   1.163   2.597   9.026
   47MYC    C63 6388   1.243   2.536   8.909
   47MYC    C64 6389   1.157   2.520   8.783
   47MYC    C65 6390   1.249   2.485   8.665
   47MYC    C66 6391   1.173   2.491   8.531
   47MYC    C67 6392   1.260   2.447   8.413
   47MYC    C68 6393   1.197   2.493   8.281
   47MYC    C69 6394   1.264   2.414   8.167
   47MYC    C70 6395   1.209   2.451   8.028
   47MYC    C71 6396   1.305   2.412   7.915
   47MYC    C72 6397   1.245   2.440   7.776
   47MYC    C73 6398   1.326   2.377   7.661
   47MYC    C74 6399   1.289   2.431   7.522
   47MYC    C75 6400   1.373   2.363   7.413
   47MYC    C76 6401   1.340   2.423   7.276
   47MYC    C77 6402   1.451   2.391   7.174
   47MYC    C78 6403   1.411   2.438   7.033
   47MYC    C79 6404   1.518   2.413   6.925
   47MYC    C80 6405   1.463   2.444   6.784
   47MYC    C81 6406   0.664   2.315   9.680
   47MYC    O82 6407   0.575   2.380   9.732
   47MYC    O83 6408   0.636   2.184   9.662
   47MYC     H1 6409   0.784   2.482   9.658
   47MYC     H2 6410   0.983   2.410   9.769
   47MYC     H3 6411   1.018   2.197   9.808
   47MYC     H4 6412   0.812   2.491   9.929
   47MYC     H5 6413   0.739   2.335   9.934
   47MYC     H6 6414   1.029   2.362  10.035
   47MYC     H7 6415   0.897   2.415  10.130
   47MYC     H8 6416   0.779   2.192  10.113
   47MYC     H9 6417   0.928   2.131  10.038
   47MYC   0H10 6418   1.296   2.512  10.151
   47MYC   1H10 6419   1.468   2.528   9.980
   47MYC   2H10 6420   1.483   2.348   9.978
   47MYC   3H10 6421   1.237   2.345   9.885
   47MYC   4H10 6422   1.240   2.519   9.888
   47MYC   5H10 6423   1.446   2.508   9.726
   47MYC   6H10 6424   1.426   2.349   9.719
   47MYC   7H10 6425   1.173   2.402   9.639
   47MYC   8H10 6426   1.219   2.569   9.642
   47MYC   9H10 6427   1.416   2.515   9.496
   47MYC    H10 6428   1.068   2.187  10.244
   47MYC   0H11 6429   1.357   2.352   9.466
   47MYC   1H11 6430   1.172   2.581   9.413
   47MYC   2H11 6431   1.214   2.301   9.283
   47MYC   3H11 6432   1.082   2.427   9.247
   47MYC   4H11 6433   1.387   2.472   9.217
   47MYC   5H11 6434   1.189   2.705   9.209
   47MYC   6H11 6435   1.333   2.682   9.112
   47MYC   7H11 6436   1.080   2.528   9.044
   47MYC   8H11 6437   1.107   2.687   8.996
   47MYC   9H11 6438   1.334   2.594   8.887
   47MYC    H11 6439   0.923   2.259  10.309
   47MYC   0H12 6440   1.275   2.437   8.942
   47MYC   1H12 6441   1.071   2.453   8.799
   47MYC   2H12 6442   1.118   2.621   8.764
   47MYC   3H12 6443   1.327   2.561   8.655
   47MYC   4H12 6444   1.298   2.386   8.666
   47MYC   5H12 6445   1.082   2.432   8.548
   47MYC   6H12 6446   1.139   2.594   8.514
   47MYC   7H12 6447   1.358   2.497   8.421
   47MYC   8H12 6448   1.271   2.338   8.415
   47MYC   9H12 6449   1.091   2.465   8.286
   47MYC    H12 6450   0.809   2.028  10.287
   47MYC   0H13 6451   1.216   2.601   8.270
   47MYC   1H13 6452   1.373   2.422   8.174
   47MYC   2H13 6453   1.241   2.309   8.187
   47MYC   3H13 6454   1.111   2.402   8.018
   47MYC   4H13 6455   1.197   2.560   8.028
   47MYC   5H13 6456   1.387   2.485   7.924
   47MYC   6H13 6457   1.343   2.309   7.919
   47MYC   7H13 6458   1.144   2.399   7.766
   47MYC   8H13 6459   1.242   2.547   7.752
   47MYC   9H13 6460   1.432   2.390   7.685
   47MYC    H13 6461   0.976   1.964  10.260
   47MYC   0H14 6462   1.310   2.270   7.646
   47MYC   1H14 6463   1.181   2.437   7.500
   47MYC   2H14 6464   1.312   2.539   7.517
   47MYC   3H14 6465   1.479   2.381   7.436
   47MYC   4H14 6466   1.356   2.254   7.409
   47MYC   5H14 6467   1.247   2.371   7.249
   47MYC   6H14 6468   1.315   2.529   7.289
   47MYC   7H14 6469   1.540   2.449   7.202
   47MYC   8H14 6470   1.480   2.285   7.171
   47MYC   9H14 6471   1.318   2.388   7.005
   47MYC    H14 6472   1.051   2.082  10.468
   47MYC   0H15 6473   1.383   2.543   7.034
   47MYC   1H15 6474   1.596   2.486   6.951
   47MYC   2H15 6475   1.556   2.310   6.932
   47MYC   3H15 6476   1.476   2.550   6.762
   47MYC   4H15 6477   1.360   2.409   6.771
   47MYC   5H15 6478   1.534   2.405   6.709
   47MYC   6H15 6479   0.556   2.177   9.716
   47MYC    H15 6480   0.879   2.120  10.505
   47MYC    H16 6481   0.839   1.860  10.491
   47MYC    H17 6482   1.012   1.855  10.510
   47MYC    H18 6483   0.806   1.953  10.711
   47MYC    H19 6484   0.930   1.826  10.725
   47MYC    H20 6485   1.101   2.011  10.720
   47MYC    H21 6486   0.974   2.124  10.736
   47MYC    H22 6487   0.885   1.993  10.951
   47MYC    H23 6488   1.048   1.914  10.936
   47MYC    H24 6489   1.156   2.134  10.952
   47MYC    H25 6490   1.011   2.215  10.969
   47MYC    H26 6491   0.943   2.091  11.166
   47MYC    H27 6492   1.079   1.984  11.159
   47MYC    H28 6493   1.098   2.287  11.218
   47MYC    H29 6494   1.107   2.161  11.335
   47MYC    H30 6495   1.318   2.072  11.186
   47MYC    H31 6496   1.305   2.364  11.108
   47MYC    H32 6497   1.460   2.218  11.339
   47MYC    H33 6498   1.318   2.333  11.355
   47MYC    H34 6499   0.975   2.335   9.540
   47MYC    H35 6500   0.852   2.221   9.516
   47MYC    H36 6501   0.720   2.441   9.420
   47MYC    H37 6502   0.885   2.498   9.404
   47MYC    H38 6503   0.870   2.417   9.206
   47MYC    H39 6504   0.907   2.257   9.271
   47MYC    H40 6505   0.663   2.222   9.302
   47MYC    H41 6506   0.616   2.362   9.212
   47MYC    H42 6507   0.772   2.116   9.112
   47MYC    H43 6508   0.606   2.148   9.075
   47MYC    H44 6509   0.690   2.377   8.972
   47MYC    H45 6510   0.852   2.318   8.992
   47MYC    H46 6511   0.762   2.108   8.852
   47MYC    H47 6512   0.618   2.208   8.826
   47MYC    H48 6513   0.803   2.379   8.722
   47MYC    H49 6514   0.914   2.242   8.749
   47MYC    H50 6515   0.771   2.085   8.613
   47MYC    H51 6516   0.665   2.219   8.574
   47MYC    H52 6517   0.826   2.342   8.455
   47MYC    H53 6518   0.951   2.234   8.492
   47MYC    H54 6519   0.811   2.044   8.370
   47MYC    H55 6520   0.685   2.168   8.353
   47MYC    H56 6521   0.842   2.298   8.201
   47MYC    H57 6522   0.960   2.173   8.214
   47MYC    H58 6523   0.783   2.009   8.107
   47MYC    H59 6524   0.669   2.143   8.102
   47MYC    H60 6525   0.832   2.265   7.950
   47MYC    H61 6526   0.936   2.117   7.958
   47MYC    H62 6527   0.727   1.991   7.876
   47MYC    H63 6528   0.657   2.147   7.842
   47MYC    H64 6529   0.844   2.218   7.697
   47MYC    H65 6530   0.924   2.064   7.718
   47MYC    H66 6531   0.731   1.942   7.603
   47MYC    H67 6532   0.644   2.099   7.591
   47MYC    H68 6533   0.789   2.188   7.437
   47MYC    H69 6534   0.907   2.053   7.460
   47MYC    H70 6535   0.695   1.914   7.358
   47MYC    H71 6536   0.639   2.077   7.316
   47MYC    H72 6537   0.821   2.134   7.181
   47MYC    H73 6538   0.906   1.991   7.217
   47MYC    H74 6539   0.695   1.861   7.108
   47MYC    H75 6540   0.639   2.024   7.074
   47MYC    H76 6541   0.819   2.068   6.929
   47MYC    H77 6542   0.922   1.936   6.982
   47MYC    H78 6543   0.767   1.774   6.872
   47MYC    H79 6544   0.658   1.918   6.835
   47MYC    H80 6545   0.771   1.859   6.631
   47MYC    H81 6546   0.932   1.856   6.710
   47MYC    H82 6547   0.847   2.007   6.694
   47MYC    H83 6548   1.573   2.320  11.138
   47MYC    H84 6549   1.538   2.162  11.099
   47MYC    H85 6550   1.425   2.387  10.914
   47MYC    H86 6551   1.593   2.355  10.901
   47MYC    H87 6552   1.550   2.107  10.885
   47MYC    H88 6553   1.385   2.143  10.849
   47MYC    H89 6554   1.623   2.236  10.688
   47MYC    H90 6555   1.522   2.104  10.638
   47MYC    H91 6556   1.332   2.255  10.596
   47MYC    H92 6557   1.404   2.389  10.672
   47MYC    H93 6558   1.573   2.413  10.508
   47MYC    H94 6559   1.540   2.246  10.444
   47MYC    H95 6560   1.318   2.305  10.379
   47MYC    H96 6561   1.337   2.476  10.411
   47MYC    H97 6562   1.514   2.510  10.243
   47MYC    H98 6563   1.526   2.334  10.221
   47MYC    H99 6564   1.283   2.338  10.134
   48MYC     C1 6565   2.199   2.056   9.617
   48MYC     C2 6566   2.291   2.096   9.733
   48MYC     O3 6567   2.417   2.031   9.717
   48MYC     C4 6568   2.236   2.087   9.877
   48MYC     C5 6569   2.328   2.157   9.978
   48MYC     C6 6570   2.390   2.066  10.085
   48MYC     C7 6571   2.517   2.126  10.147
   48MYC     C8 6572   2.586   2.041  10.256
   48MYC     C9 6573   2.494   2.020  10.377
   48MYC    C10 6574   2.568   1.973  10.503
   48MYC    C11 6575   2.478   1.943  10.624
   48MYC    C12 6576   2.383   2.054  10.672
   48MYC    C13 6577   2.306   2.028  10.802
   48MYC    C14 6578   2.215   2.143  10.849
   48MYC    C15 6579   2.132   2.102  10.972
   48MYC    C16 6580   2.029   2.210  11.011
   48MYC    C17 6581   2.091   2.347  11.037
   48MYC    C18 6582   2.002   2.448  11.105
   48MYC    C19 6583   2.127   2.398  11.174
   48MYC    C20 6584   2.250   2.110   9.482
   48MYC    C21 6585   2.141   2.116   9.374
   48MYC    C22 6586   2.194   2.145   9.233
   48MYC    C23 6587   2.085   2.160   9.126
   48MYC    C24 6588   2.140   2.169   8.982
   48MYC    C25 6589   2.045   2.175   8.862
   48MYC    C26 6590   2.113   2.113   8.739
   48MYC    C27 6591   2.085   2.186   8.606
   48MYC    C28 6592   2.154   2.114   8.489
   48MYC    C29 6593   2.166   2.196   8.359
   48MYC    C30 6594   2.233   2.119   8.244
   48MYC    C31 6595   2.209   2.179   8.104
   48MYC    C32 6596   2.297   2.122   7.991
   48MYC    C33 6597   2.236   2.148   7.852
   48MYC    C34 6598   2.312   2.090   7.732
   48MYC    C35 6599   2.279   2.165   7.601
   48MYC    C36 6600   2.364   2.131   7.478
   48MYC    C37 6601   2.286   2.173   7.352
   48MYC    C38 6602   2.367   2.136   7.227
   48MYC    C39 6603   2.308   2.203   7.101
   48MYC    C40 6604   2.392   2.179   6.974
   48MYC    C41 6605   2.317   2.231   6.850
   48MYC    C42 6606   2.405   2.220   6.725
   48MYC    C43 6607   2.366   2.315   6.611
   48MYC    C44 6608   1.991   2.573  11.020
   48MYC    C45 6609   1.891   2.566  10.903
   48MYC    C46 6610   1.958   2.515  10.774
   48MYC    C47 6611   1.887   2.557  10.645
   48MYC    C48 6612   1.972   2.497  10.531
   48MYC    C49 6613   1.919   2.508  10.387
   48MYC    C50 6614   1.981   2.397  10.300
   48MYC    C51 6615   2.004   2.426  10.151
   48MYC    C52 6616   1.896   2.347  10.075
   48MYC    C53 6617   1.918   2.353   9.923
   48MYC    C54 6618   1.797   2.306   9.842
   48MYC    C55 6619   1.843   2.291   9.696
   48MYC    C56 6620   1.724   2.300   9.599
   48MYC    C57 6621   1.770   2.311   9.452
   48MYC    C58 6622   1.655   2.341   9.357
   48MYC    C59 6623   1.573   2.236   9.286
   48MYC    C60 6624   1.688   2.302   9.215
   48MYC    C61 6625   1.660   2.398   9.101
   48MYC    C62 6626   1.768   2.403   8.991
   48MYC    C63 6627   1.717   2.471   8.863
   48MYC    C64 6628   1.800   2.433   8.740
   48MYC    C65 6629   1.742   2.494   8.612
   48MYC    C66 6630   1.806   2.429   8.488
   48MYC    C67 6631   1.738   2.484   8.361
   48MYC    C68 6632   1.812   2.450   8.230
   48MYC    C69 6633   1.753   2.497   8.097
   48MYC    C70 6634   1.857   2.481   7.985
   48MYC    C71 6635   1.812   2.518   7.843
   48MYC    C72 6636   1.898   2.469   7.724
   48MYC    C73 6637   1.845   2.517   7.588
   48MYC    C74 6638   1.922   2.465   7.465
   48MYC    C75 6639   1.882   2.521   7.328
   48MYC    C76 6640   1.953   2.444   7.215
   48MYC    C77 6641   1.914   2.509   7.081
   48MYC    C78 6642   1.924   2.424   6.954
   48MYC    C79 6643   1.908   2.519   6.834
   48MYC    C80 6644   1.923   2.449   6.698
   48MYC    C81 6645   2.163   1.907   9.615
   48MYC    O82 6646   2.198   1.826   9.531
   48MYC    O83 6647   2.087   1.866   9.718
   48MYC     H1 6648   2.106   2.111   9.634
   48MYC     H2 6649   2.307   2.203   9.719
   48MYC     H3 6650   2.400   1.937   9.734
   48MYC     H4 6651   2.134   2.122   9.894
   48MYC     H5 6652   2.232   1.980   9.902
   48MYC     H6 6653   2.404   2.220   9.930
   48MYC     H7 6654   2.268   2.232  10.032
   48MYC     H8 6655   2.312   2.047  10.159
   48MYC     H9 6656   2.422   1.973  10.037
   48MYC   0H10 6657   1.803   2.404  10.084
   48MYC   1H10 6658   1.944   2.456   9.896
   48MYC   2H10 6659   1.997   2.281   9.898
   48MYC   3H10 6660   1.750   2.211   9.872
   48MYC   4H10 6661   1.713   2.374   9.860
   48MYC   5H10 6662   1.923   2.364   9.675
   48MYC   6H10 6663   1.890   2.192   9.690
   48MYC   7H10 6664   1.664   2.210   9.617
   48MYC   8H10 6665   1.657   2.383   9.625
   48MYC   9H10 6666   1.853   2.379   9.433
   48MYC    H10 6667   2.588   2.131  10.064
   48MYC   0H11 6668   1.807   2.211   9.424
   48MYC   1H11 6669   1.601   2.434   9.372
   48MYC   2H11 6670   1.584   2.136   9.327
   48MYC   3H11 6671   1.472   2.248   9.248
   48MYC   4H11 6672   1.771   2.233   9.200
   48MYC   5H11 6673   1.571   2.361   9.048
   48MYC   6H11 6674   1.621   2.496   9.133
   48MYC   7H11 6675   1.856   2.457   9.027
   48MYC   8H11 6676   1.802   2.299   8.979
   48MYC   9H11 6677   1.616   2.433   8.844
   48MYC    H11 6678   2.505   2.229  10.183
   48MYC   0H12 6679   1.706   2.580   8.866
   48MYC   1H12 6680   1.907   2.456   8.743
   48MYC   2H12 6681   1.782   2.324   8.737
   48MYC   3H12 6682   1.635   2.474   8.603
   48MYC   4H12 6683   1.753   2.603   8.613
   48MYC   5H12 6684   1.914   2.444   8.482
   48MYC   6H12 6685   1.795   2.320   8.490
   48MYC   7H12 6686   1.635   2.449   8.352
   48MYC   8H12 6687   1.737   2.593   8.361
   48MYC   9H12 6688   1.906   2.504   8.249
   48MYC    H12 6689   2.614   1.946  10.208
   48MYC   0H13 6690   1.831   2.342   8.220
   48MYC   1H13 6691   1.655   2.451   8.075
   48MYC   2H13 6692   1.738   2.605   8.111
   48MYC   3H13 6693   1.950   2.526   8.020
   48MYC   4H13 6694   1.873   2.373   7.978
   48MYC   5H13 6695   1.713   2.471   7.831
   48MYC   6H13 6696   1.795   2.626   7.842
   48MYC   7H13 6697   2.000   2.500   7.749
   48MYC   8H13 6698   1.903   2.360   7.732
   48MYC   9H13 6699   1.738   2.495   7.577
   48MYC    H13 6700   2.680   2.089  10.283
   48MYC   0H14 6701   1.837   2.626   7.578
   48MYC   1H14 6702   2.029   2.482   7.482
   48MYC   2H14 6703   1.907   2.356   7.465
   48MYC   3H14 6704   1.775   2.505   7.311
   48MYC   4H14 6705   1.903   2.628   7.327
   48MYC   5H14 6706   2.063   2.442   7.223
   48MYC   6H14 6707   1.919   2.340   7.210
   48MYC   7H14 6708   1.813   2.552   7.082
   48MYC   8H14 6709   1.979   2.597   7.075
   48MYC   9H14 6710   2.021   2.375   6.964
   48MYC    H14 6711   2.447   2.117  10.399
   48MYC   0H15 6712   1.845   2.348   6.947
   48MYC   1H15 6713   1.808   2.561   6.852
   48MYC   2H15 6714   1.980   2.602   6.837
   48MYC   3H15 6715   1.874   2.351   6.703
   48MYC   4H15 6716   2.027   2.432   6.668
   48MYC   5H15 6717   1.881   2.512   6.618
   48MYC   6H15 6718   2.057   1.774   9.707
   48MYC    H15 6719   2.408   1.955  10.354
   48MYC    H16 6720   2.641   1.892  10.486
   48MYC    H17 6721   2.629   2.059  10.532
   48MYC    H18 6722   2.431   1.853  10.583
   48MYC    H19 6723   2.536   1.905  10.709
   48MYC    H20 6724   2.436   2.149  10.685
   48MYC    H21 6725   2.312   2.068  10.589
   48MYC    H22 6726   2.254   1.932  10.797
   48MYC    H23 6727   2.379   2.012  10.883
   48MYC    H24 6728   2.288   2.219  10.880
   48MYC    H25 6729   2.150   2.177  10.767
   48MYC    H26 6730   2.078   2.010  10.946
   48MYC    H27 6731   2.201   2.072  11.052
   48MYC    H28 6732   1.950   2.217  10.935
   48MYC    H29 6733   1.976   2.169  11.097
   48MYC    H30 6734   2.150   2.391  10.957
   48MYC    H31 6735   1.907   2.416  11.146
   48MYC    H32 6736   2.212   2.466  11.184
   48MYC    H33 6737   2.111   2.332  11.258
   48MYC    H34 6738   2.301   2.206   9.497
   48MYC    H35 6739   2.321   2.036   9.445
   48MYC    H36 6740   2.094   2.017   9.375
   48MYC    H37 6741   2.064   2.191   9.399
   48MYC    H38 6742   2.260   2.233   9.232
   48MYC    H39 6743   2.254   2.062   9.192
   48MYC    H40 6744   2.029   2.066   9.132
   48MYC    H41 6745   2.004   2.232   9.143
   48MYC    H42 6746   2.187   2.269   8.980
   48MYC    H43 6747   2.215   2.089   8.974
   48MYC    H44 6748   1.949   2.129   8.889
   48MYC    H45 6749   2.028   2.282   8.846
   48MYC    H46 6750   2.221   2.113   8.756
   48MYC    H47 6751   2.085   2.007   8.729
   48MYC    H48 6752   1.979   2.183   8.581
   48MYC    H49 6753   2.116   2.291   8.606
   48MYC    H50 6754   2.253   2.077   8.518
   48MYC    H51 6755   2.097   2.022   8.472
   48MYC    H52 6756   2.065   2.215   8.323
   48MYC    H53 6757   2.219   2.291   8.378
   48MYC    H54 6758   2.341   2.110   8.261
   48MYC    H55 6759   2.188   2.019   8.234
   48MYC    H56 6760   2.107   2.155   8.071
   48MYC    H57 6761   2.222   2.288   8.105
   48MYC    H58 6762   2.393   2.175   7.997
   48MYC    H59 6763   2.303   2.014   8.011
   48MYC    H60 6764   2.129   2.122   7.853
   48MYC    H61 6765   2.238   2.257   7.841
   48MYC    H62 6766   2.420   2.102   7.747
   48MYC    H63 6767   2.295   1.982   7.726
   48MYC    H64 6768   2.176   2.144   7.573
   48MYC    H65 6769   2.286   2.270   7.629
   48MYC    H66 6770   2.459   2.184   7.491
   48MYC    H67 6771   2.392   2.025   7.473
   48MYC    H68 6772   2.191   2.119   7.345
   48MYC    H69 6773   2.252   2.277   7.356
   48MYC    H70 6774   2.469   2.173   7.245
   48MYC    H71 6775   2.372   2.027   7.218
   48MYC    H72 6776   2.208   2.162   7.084
   48MYC    H73 6777   2.298   2.310   7.123
   48MYC    H74 6778   2.493   2.222   6.975
   48MYC    H75 6779   2.417   2.072   6.973
   48MYC    H76 6780   2.218   2.186   6.831
   48MYC    H77 6781   2.290   2.334   6.876
   48MYC    H78 6782   2.512   2.229   6.750
   48MYC    H79 6783   2.405   2.118   6.684
   48MYC    H80 6784   2.414   2.279   6.519
   48MYC    H81 6785   2.391   2.419   6.635
   48MYC    H82 6786   2.258   2.308   6.590
   48MYC    H83 6787   1.963   2.657  11.083
   48MYC    H84 6788   2.089   2.611  10.988
   48MYC    H85 6789   1.800   2.508  10.922
   48MYC    H86 6790   1.853   2.668  10.892
   48MYC    H87 6791   2.057   2.563  10.773
   48MYC    H88 6792   1.964   2.405  10.780
   48MYC    H89 6793   1.785   2.518  10.639
   48MYC    H90 6794   1.868   2.663  10.621
   48MYC    H91 6795   2.060   2.563  10.534
   48MYC    H92 6796   2.009   2.396  10.550
   48MYC    H93 6797   1.809   2.498  10.384
   48MYC    H94 6798   1.944   2.608  10.349
   48MYC    H95 6799   2.077   2.371  10.347
   48MYC    H96 6800   1.918   2.307  10.309
   48MYC    H97 6801   1.992   2.534  10.135
   48MYC    H98 6802   2.101   2.388  10.117
   48MYC    H99 6803   1.885   2.245  10.112
   49MYC     C1 6804   3.046   1.833   9.583
   49MYC     C2 6805   3.003   1.925   9.698
   49MYC     O3 6806   3.106   2.018   9.729
   49MYC     C4 6807   2.966   1.860   9.832
   49MYC     C5 6808   2.910   1.958   9.936
   49MYC     C6 6809   3.002   1.959  10.059
   49MYC     C7 6810   2.966   1.851  10.163
   49MYC     C8 6811   3.045   1.865  10.294
   49MYC     C9 6812   2.973   1.797  10.412
   49MYC    C10 6813   3.024   1.826  10.554
   49MYC    C11 6814   2.928   1.795  10.670
   49MYC    C12 6815   2.890   1.925  10.742
   49MYC    C13 6816   2.817   1.901  10.875
   49MYC    C14 6817   2.761   2.028  10.940
   49MYC    C15 6818   2.697   2.001  11.078
   49MYC    C16 6819   2.593   2.108  11.115
   49MYC    C17 6820   2.648   2.249  11.124
   49MYC    C18 6821   2.553   2.363  11.151
   49MYC    C19 6822   2.648   2.317  11.259
   49MYC    C20 6823   3.082   1.912   9.456
   49MYC    C21 6824   3.021   1.862   9.323
   49MYC    C22 6825   3.079   1.946   9.208
   49MYC    C23 6826   3.000   1.919   9.078
   49MYC    C24 6827   3.052   1.996   8.956
   49MYC    C25 6828   2.967   1.973   8.830
   49MYC    C26 6829   3.022   2.037   8.701
   49MYC    C27 6830   2.954   1.974   8.578
   49MYC    C28 6831   2.996   2.040   8.445
   49MYC    C29 6832   2.943   1.969   8.320
   49MYC    C30 6833   2.965   2.037   8.184
   49MYC    C31 6834   2.894   1.965   8.068
   49MYC    C32 6835   2.929   2.020   7.929
   49MYC    C33 6836   2.813   1.986   7.833
   49MYC    C34 6837   2.846   2.028   7.689
   49MYC    C35 6838   2.737   2.001   7.583
   49MYC    C36 6839   2.793   1.996   7.441
   49MYC    C37 6840   2.692   1.999   7.325
   49MYC    C38 6841   2.743   1.924   7.201
   49MYC    C39 6842   2.656   1.944   7.076
   49MYC    C40 6843   2.719   1.884   6.949
   49MYC    C41 6844   2.641   1.919   6.821
   49MYC    C42 6845   2.678   1.833   6.699
   49MYC    C43 6846   2.583   1.850   6.579
   49MYC    C44 6847   2.569   2.498  11.084
   49MYC    C45 6848   2.471   2.535  10.971
   49MYC    C46 6849   2.508   2.475  10.835
   49MYC    C47 6850   2.433   2.549  10.723
   49MYC    C48 6851   2.486   2.516  10.582
   49MYC    C49 6852   2.392   2.563  10.469
   49MYC    C50 6853   2.448   2.563  10.326
   49MYC    C51 6854   2.345   2.583  10.214
   49MYC    C52 6855   2.411   2.547  10.080
   49MYC    C53 6856   2.322   2.565   9.956
   49MYC    C54 6857   2.418   2.597   9.840
   49MYC    C55 6858   2.337   2.609   9.710
   49MYC    C56 6859   2.431   2.609   9.589
   49MYC    C57 6860   2.352   2.598   9.458
   49MYC    C58 6861   2.430   2.536   9.342
   49MYC    C59 6862   2.557   2.603   9.299
   49MYC    C60 6863   2.435   2.608   9.210
   49MYC    C61 6864   2.430   2.531   9.079
   49MYC    C62 6865   2.477   2.617   8.960
   49MYC    C63 6866   2.496   2.528   8.837
   49MYC    C64 6867   2.506   2.600   8.702
   49MYC    C65 6868   2.549   2.510   8.585
   49MYC    C66 6869   2.551   2.589   8.453
   49MYC    C67 6870   2.521   2.497   8.334
   49MYC    C68 6871   2.517   2.570   8.199
   49MYC    C69 6872   2.533   2.474   8.080
   49MYC    C70 6873   2.565   2.544   7.947
   49MYC    C71 6874   2.585   2.454   7.825
   49MYC    C72 6875   2.633   2.532   7.701
   49MYC    C73 6876   2.611   2.456   7.570
   49MYC    C74 6877   2.667   2.536   7.451
   49MYC    C75 6878   2.635   2.474   7.314
   49MYC    C76 6879   2.729   2.526   7.204
   49MYC    C77 6880   2.703   2.448   7.074
   49MYC    C78 6881   2.757   2.514   6.946
   49MYC    C79 6882   2.706   2.432   6.826
   49MYC    C80 6883   2.739   2.495   6.689
   49MYC    C81 6884   3.155   1.740   9.633
   49MYC    O82 6885   3.234   1.751   9.725
   49MYC    O83 6886   3.169   1.638   9.546
   49MYC     H1 6887   2.961   1.768   9.557
   49MYC     H2 6888   2.915   1.981   9.662
   49MYC     H3 6889   3.185   1.998   9.676
   49MYC     H4 6890   2.892   1.781   9.812
   49MYC     H5 6891   3.054   1.809   9.874
   49MYC     H6 6892   2.903   2.058   9.892
   49MYC     H7 6893   2.810   1.928   9.970
   49MYC     H8 6894   3.106   1.960  10.025
   49MYC     H9 6895   2.984   2.058  10.104
   49MYC   0H10 6896   2.447   2.444  10.087
   49MYC   1H10 6897   2.258   2.478   9.940
   49MYC   2H10 6898   2.256   2.651   9.974
   49MYC   3H10 6899   2.471   2.692   9.858
   49MYC   4H10 6900   2.483   2.509   9.832
   49MYC   5H10 6901   2.257   2.535   9.695
   49MYC   6H10 6902   2.277   2.701   9.704
   49MYC   7H10 6903   2.486   2.704   9.584
   49MYC   8H10 6904   2.510   2.533   9.598
   49MYC   9H10 6905   2.262   2.537   9.473
   49MYC    H10 6906   2.858   1.849  10.180
   49MYC   0H11 6907   2.318   2.700   9.440
   49MYC   1H11 6908   2.432   2.427   9.336
   49MYC   2H11 6909   2.588   2.693   9.352
   49MYC   3H11 6910   2.640   2.542   9.265
   49MYC   4H11 6911   2.392   2.706   9.189
   49MYC   5H11 6912   2.499   2.446   9.089
   49MYC   6H11 6913   2.330   2.489   9.062
   49MYC   7H11 6914   2.418   2.707   8.940
   49MYC   8H11 6915   2.572   2.660   8.995
   49MYC   9H11 6916   2.584   2.465   8.855
   49MYC    H11 6917   2.997   1.754  10.123
   49MYC   0H12 6918   2.414   2.454   8.834
   49MYC   1H12 6919   2.406   2.641   8.681
   49MYC   2H12 6920   2.570   2.689   8.706
   49MYC   3H12 6921   2.646   2.459   8.592
   49MYC   4H12 6922   2.467   2.436   8.578
   49MYC   5H12 6923   2.480   2.673   8.450
   49MYC   6H12 6924   2.651   2.631   8.437
   49MYC   7H12 6925   2.601   2.422   8.333
   49MYC   8H12 6926   2.422   2.454   8.351
   49MYC   9H12 6927   2.424   2.628   8.184
   49MYC    H12 6928   3.147   1.828  10.283
   49MYC   0H13 6929   2.594   2.648   8.202
   49MYC   1H13 6930   2.617   2.406   8.099
   49MYC   2H13 6931   2.443   2.412   8.073
   49MYC   3H13 6932   2.479   2.611   7.933
   49MYC   4H13 6933   2.653   2.607   7.969
   49MYC   5H13 6934   2.646   2.364   7.842
   49MYC   6H13 6935   2.487   2.409   7.804
   49MYC   7H13 6936   2.587   2.632   7.702
   49MYC   8H13 6937   2.739   2.557   7.708
   49MYC   9H13 6938   2.650   2.353   7.573
   49MYC    H13 6939   3.065   1.968  10.326
   49MYC   0H14 6940   2.504   2.434   7.557
   49MYC   1H14 6941   2.623   2.636   7.459
   49MYC   2H14 6942   2.775   2.549   7.469
   49MYC   3H14 6943   2.655   2.367   7.323
   49MYC   4H14 6944   2.530   2.483   7.281
   49MYC   5H14 6945   2.707   2.631   7.183
   49MYC   6H14 6946   2.835   2.515   7.230
   49MYC   7H14 6947   2.740   2.346   7.084
   49MYC   8H14 6948   2.594   2.441   7.066
   49MYC   9H14 6949   2.729   2.619   6.935
   49MYC    H14 6950   2.866   1.819  10.399
   49MYC   0H15 6951   2.866   2.505   6.945
   49MYC   1H15 6952   2.735   2.327   6.844
   49MYC   2H15 6953   2.597   2.432   6.832
   49MYC   3H15 6954   2.837   2.475   6.645
   49MYC   4H15 6955   2.721   2.602   6.703
   49MYC   5H15 6956   2.659   2.472   6.617
   49MYC   6H15 6957   3.249   1.595   9.580
   49MYC    H15 6958   2.975   1.688  10.399
   49MYC    H16 6959   3.117   1.768  10.557
   49MYC    H17 6960   3.062   1.929  10.551
   49MYC    H18 6961   2.836   1.753  10.626
   49MYC    H19 6962   2.967   1.717  10.736
   49MYC    H20 6963   2.978   1.987  10.766
   49MYC    H21 6964   2.831   1.989  10.675
   49MYC    H22 6965   2.732   1.834  10.856
   49MYC    H23 6966   2.877   1.853  10.953
   49MYC    H24 6967   2.837   2.106  10.954
   49MYC    H25 6968   2.682   2.063  10.872
   49MYC    H26 6969   2.660   1.898  11.073
   49MYC    H27 6970   2.781   2.006  11.149
   49MYC    H28 6971   2.519   2.108  11.033
   49MYC    H29 6972   2.541   2.061  11.199
   49MYC    H30 6973   2.722   2.275  11.049
   49MYC    H31 6974   2.453   2.322  11.161
   49MYC    H32 6975   2.734   2.378  11.287
   49MYC    H33 6976   2.613   2.254  11.340
   49MYC    H34 6977   3.056   2.018   9.469
   49MYC    H35 6978   3.191   1.913   9.446
   49MYC    H36 6979   3.035   1.754   9.310
   49MYC    H37 6980   2.912   1.873   9.322
   49MYC    H38 6981   3.073   2.053   9.233
   49MYC    H39 6982   3.187   1.932   9.202
   49MYC    H40 6983   3.015   1.813   9.058
   49MYC    H41 6984   2.896   1.944   9.103
   49MYC    H42 6985   3.056   2.104   8.977
   49MYC    H43 6986   3.158   1.973   8.940
   49MYC    H44 6987   2.951   1.865   8.821
   49MYC    H45 6988   2.869   2.016   8.855
   49MYC    H46 6989   3.004   2.144   8.686
   49MYC    H47 6990   3.131   2.031   8.693
   49MYC    H48 6991   2.970   1.865   8.578
   49MYC    H49 6992   2.846   1.988   8.583
   49MYC    H50 6993   2.956   2.142   8.446
   49MYC    H51 6994   3.106   2.043   8.437
   49MYC    H52 6995   2.978   1.866   8.310
   49MYC    H53 6996   2.834   1.954   8.329
   49MYC    H54 6997   2.934   2.142   8.195
   49MYC    H55 6998   3.072   2.032   8.160
   49MYC    H56 6999   2.915   1.857   8.074
   49MYC    H57 7000   2.786   1.972   8.086
   49MYC    H58 7001   2.927   2.129   7.943
   49MYC    H59 7002   3.029   1.988   7.897
   49MYC    H60 7003   2.798   1.878   7.844
   49MYC    H61 7004   2.718   2.034   7.859
   49MYC    H62 7005   2.871   2.134   7.694
   49MYC    H63 7006   2.940   1.980   7.659
   49MYC    H64 7007   2.689   1.904   7.601
   49MYC    H65 7008   2.661   2.080   7.595
   49MYC    H66 7009   2.873   2.070   7.425
   49MYC    H67 7010   2.841   1.897   7.433
   49MYC    H68 7011   2.599   1.952   7.360
   49MYC    H69 7012   2.674   2.103   7.297
   49MYC    H70 7013   2.841   1.963   7.172
   49MYC    H71 7014   2.752   1.817   7.225
   49MYC    H72 7015   2.552   1.910   7.090
   49MYC    H73 7016   2.650   2.052   7.060
   49MYC    H74 7017   2.822   1.918   6.931
   49MYC    H75 7018   2.720   1.775   6.945
   49MYC    H76 7019   2.537   1.891   6.841
   49MYC    H77 7020   2.647   2.026   6.798
   49MYC    H78 7021   2.779   1.859   6.664
   49MYC    H79 7022   2.675   1.728   6.729
   49MYC    H80 7023   2.612   1.778   6.501
   49MYC    H81 7024   2.582   1.951   6.536
   49MYC    H82 7025   2.482   1.823   6.611
   49MYC    H83 7026   2.554   2.576  11.160
   49MYC    H84 7027   2.671   2.508  11.044
   49MYC    H85 7028   2.369   2.505  11.000
   49MYC    H86 7029   2.458   2.644  10.966
   49MYC    H87 7030   2.614   2.476  10.806
   49MYC    H88 7031   2.473   2.372  10.841
   49MYC    H89 7032   2.328   2.518  10.725
   49MYC    H90 7033   2.431   2.658  10.735
   49MYC    H91 7034   2.580   2.569  10.565
   49MYC    H92 7035   2.507   2.409  10.567
   49MYC    H93 7036   2.302   2.501  10.468
   49MYC    H94 7037   2.346   2.658  10.498
   49MYC    H95 7038   2.531   2.635  10.318
   49MYC    H96 7039   2.505   2.470  10.313
   49MYC    H97 7040   2.258   2.518  10.229
   49MYC    H98 7041   2.313   2.688  10.205
   49MYC    H99 7042   2.504   2.606  10.078
   50MYC     C1 7043   3.786   2.632   9.740
   50MYC     C2 7044   3.804   2.489   9.793
   50MYC     O3 7045   3.685   2.430   9.844
   50MYC     C4 7046   3.920   2.474   9.893
   50MYC     C5 7047   3.906   2.555  10.023
   50MYC     C6 7048   4.013   2.518  10.127
   50MYC     C7 7049   4.007   2.602  10.256
   50MYC     C8 7050   3.887   2.574  10.348
   50MYC     C9 7051   3.877   2.678  10.461
   50MYC    C10 7052   4.002   2.708  10.545
   50MYC    C11 7053   4.042   2.602  10.649
   50MYC    C12 7054   3.947   2.587  10.769
   50MYC    C13 7055   3.919   2.725  10.833
   50MYC    C14 7056   3.842   2.720  10.966
   50MYC    C15 7057   3.824   2.846  11.052
   50MYC    C16 7058   3.787   2.831  11.201
   50MYC    C17 7059   3.650   2.768  11.222
   50MYC    C18 7060   3.617   2.629  11.176
   50MYC    C19 7061   3.624   2.660  11.323
   50MYC    C20 7062   3.703   2.643   9.610
   50MYC    C21 7063   3.790   2.605   9.489
   50MYC    C22 7064   3.724   2.644   9.355
   50MYC    C23 7065   3.793   2.584   9.231
   50MYC    C24 7066   3.741   2.641   9.098
   50MYC    C25 7067   3.811   2.577   8.977
   50MYC    C26 7068   3.782   2.647   8.844
   50MYC    C27 7069   3.862   2.581   8.731
   50MYC    C28 7070   3.862   2.666   8.602
   50MYC    C29 7071   3.906   2.596   8.472
   50MYC    C30 7072   3.877   2.676   8.344
   50MYC    C31 7073   3.899   2.592   8.217
   50MYC    C32 7074   3.873   2.665   8.085
   50MYC    C33 7075   3.914   2.584   7.960
   50MYC    C34 7076   3.877   2.652   7.827
   50MYC    C35 7077   3.928   2.583   7.700
   50MYC    C36 7078   3.912   2.659   7.567
   50MYC    C37 7079   3.961   2.579   7.446
   50MYC    C38 7080   3.923   2.659   7.320
   50MYC    C39 7081   3.961   2.603   7.183
   50MYC    C40 7082   3.902   2.688   7.068
   50MYC    C41 7083   3.944   2.631   6.932
   50MYC    C42 7084   3.879   2.704   6.813
   50MYC    C43 7085   3.912   2.650   6.673
   50MYC    C44 7086   3.493   2.584  11.100
   50MYC    C45 7087   3.501   2.445  11.036
   50MYC    C46 7088   3.585   2.429  10.909
   50MYC    C47 7089   3.548   2.302  10.831
   50MYC    C48 7090   3.613   2.285  10.693
   50MYC    C49 7091   3.528   2.211  10.588
   50MYC    C50 7092   3.604   2.200  10.455
   50MYC    C51 7093   3.519   2.167  10.331
   50MYC    C52 7094   3.600   2.144  10.201
   50MYC    C53 7095   3.510   2.128  10.077
   50MYC    C54 7096   3.581   2.103   9.943
   50MYC    C55 7097   3.483   2.077   9.828
   50MYC    C56 7098   3.552   2.108   9.694
   50MYC    C57 7099   3.460   2.096   9.571
   50MYC    C58 7100   3.543   2.128   9.447
   50MYC    C59 7101   3.552   2.264   9.383
   50MYC    C60 7102   3.456   2.161   9.328
   50MYC    C61 7103   3.471   2.117   9.184
   50MYC    C62 7104   3.472   2.225   9.074
   50MYC    C63 7105   3.504   2.161   8.938
   50MYC    C64 7106   3.513   2.262   8.823
   50MYC    C65 7107   3.535   2.198   8.685
   50MYC    C66 7108   3.543   2.301   8.571
   50MYC    C67 7109   3.544   2.229   8.435
   50MYC    C68 7110   3.509   2.317   8.314
   50MYC    C69 7111   3.544   2.238   8.186
   50MYC    C70 7112   3.562   2.334   8.066
   50MYC    C71 7113   3.599   2.253   7.941
   50MYC    C72 7114   3.578   2.331   7.810
   50MYC    C73 7115   3.606   2.240   7.689
   50MYC    C74 7116   3.628   2.311   7.555
   50MYC    C75 7117   3.693   2.218   7.450
   50MYC    C76 7118   3.675   2.274   7.308
   50MYC    C77 7119   3.758   2.199   7.203
   50MYC    C78 7120   3.692   2.197   7.064
   50MYC    C79 7121   3.793   2.146   6.961
   50MYC    C80 7122   3.735   2.170   6.820
   50MYC    C81 7123   3.719   2.721   9.844
   50MYC    O82 7124   3.768   2.822   9.892
   50MYC    O83 7125   3.588   2.697   9.866
   50MYC     H1 7126   3.888   2.672   9.732
   50MYC     H2 7127   3.826   2.433   9.701
   50MYC     H3 7128   3.620   2.502   9.848
   50MYC     H4 7129   3.942   2.369   9.915
   50MYC     H5 7130   4.006   2.514   9.837
   50MYC     H6 7131   3.925   2.661  10.000
   50MYC     H7 7132   3.804   2.535  10.057
   50MYC     H8 7133   3.998   2.412  10.151
   50MYC     H9 7134   4.111   2.521  10.077
   50MYC   0H10 7135   3.659   2.052  10.213
   50MYC   1H10 7136   3.455   2.034  10.091
   50MYC   2H10 7137   3.438   2.211  10.074
   50MYC   3H10 7138   3.641   2.193   9.921
   50MYC   4H10 7139   3.649   2.018   9.959
   50MYC   5H10 7140   3.443   1.975   9.824
   50MYC   6H10 7141   3.392   2.136   9.840
   50MYC   7H10 7142   3.594   2.209   9.702
   50MYC   8H10 7143   3.644   2.050   9.680
   50MYC   9H10 7144   3.415   1.996   9.564
   50MYC    H10 7145   4.092   2.561  10.312
   50MYC   0H11 7146   3.370   2.157   9.585
   50MYC   1H11 7147   3.630   2.065   9.432
   50MYC   2H11 7148   3.508   2.349   9.434
   50MYC   3H11 7149   3.640   2.298   9.329
   50MYC   4H11 7150   3.353   2.178   9.356
   50MYC   5H11 7151   3.569   2.068   9.171
   50MYC   6H11 7152   3.390   2.044   9.173
   50MYC   7H11 7153   3.375   2.276   9.063
   50MYC   8H11 7154   3.545   2.302   9.100
   50MYC   9H11 7155   3.596   2.101   8.934
   50MYC    H11 7156   4.030   2.708  10.241
   50MYC   0H12 7157   3.417   2.097   8.916
   50MYC   1H12 7158   3.428   2.332   8.832
   50MYC   2H12 7159   3.596   2.329   8.847
   50MYC   3H12 7160   3.629   2.141   8.685
   50MYC   4H12 7161   3.453   2.129   8.664
   50MYC   5H12 7162   3.459   2.372   8.567
   50MYC   6H12 7163   3.631   2.365   8.583
   50MYC   7H12 7164   3.640   2.177   8.426
   50MYC   8H12 7165   3.461   2.158   8.444
   50MYC   9H12 7166   3.403   2.342   8.316
   50MYC    H12 7167   3.799   2.570  10.283
   50MYC   0H13 7168   3.563   2.412   8.316
   50MYC   1H13 7169   3.633   2.177   8.200
   50MYC   2H13 7170   3.469   2.162   8.161
   50MYC   3H13 7171   3.460   2.370   8.053
   50MYC   4H13 7172   3.635   2.413   8.089
   50MYC   5H13 7173   3.705   2.223   7.946
   50MYC   6H13 7174   3.547   2.156   7.938
   50MYC   7H13 7175   3.475   2.368   7.804
   50MYC   8H13 7176   3.645   2.418   7.814
   50MYC   9H13 7177   3.700   2.186   7.706
   50MYC    H13 7178   3.895   2.469  10.380
   50MYC   0H14 7179   3.531   2.160   7.683
   50MYC   1H14 7180   3.534   2.352   7.516
   50MYC   2H14 7181   3.688   2.402   7.565
   50MYC   3H14 7182   3.800   2.205   7.468
   50MYC   4H14 7183   3.647   2.119   7.456
   50MYC   5H14 7184   3.569   2.280   7.282
   50MYC   6H14 7185   3.701   2.381   7.304
   50MYC   7H14 7186   3.857   2.244   7.199
   50MYC   8H14 7187   3.774   2.095   7.234
   50MYC   9H14 7188   3.601   2.135   7.063
   50MYC    H14 7189   3.847   2.776  10.422
   50MYC   0H15 7190   3.661   2.297   7.030
   50MYC   1H15 7191   3.887   2.201   6.970
   50MYC   2H15 7192   3.817   2.040   6.977
   50MYC   3H15 7193   3.761   2.275   6.800
   50MYC   4H15 7194   3.627   2.159   6.808
   50MYC   5H15 7195   3.783   2.103   6.748
   50MYC   6H15 7196   3.549   2.763   9.925
   50MYC    H15 7197   3.796   2.641  10.524
   50MYC    H16 7198   4.088   2.724  10.479
   50MYC    H17 7199   3.993   2.808  10.589
   50MYC    H18 7200   4.071   2.508  10.600
   50MYC    H19 7201   4.134   2.648  10.686
   50MYC    H20 7202   3.851   2.539  10.747
   50MYC    H21 7203   4.001   2.520  10.837
   50MYC    H22 7204   4.016   2.775  10.842
   50MYC    H23 7205   3.853   2.783  10.767
   50MYC    H24 7206   3.742   2.690  10.934
   50MYC    H25 7207   3.884   2.644  11.033
   50MYC    H26 7208   3.923   2.895  11.052
   50MYC    H27 7209   3.756   2.917  11.004
   50MYC    H28 7210   3.863   2.771  11.251
   50MYC    H29 7211   3.789   2.925  11.259
   50MYC    H30 7212   3.574   2.847  11.217
   50MYC    H31 7213   3.711   2.576  11.156
   50MYC    H32 7214   3.536   2.678  11.384
   50MYC    H33 7215   3.703   2.608  11.376
   50MYC    H34 7216   3.616   2.577   9.604
   50MYC    H35 7217   3.653   2.739   9.595
   50MYC    H36 7218   3.892   2.645   9.486
   50MYC    H37 7219   3.803   2.496   9.492
   50MYC    H38 7220   3.621   2.607   9.362
   50MYC    H39 7221   3.718   2.752   9.342
   50MYC    H40 7222   3.901   2.601   9.236
   50MYC    H41 7223   3.765   2.478   9.233
   50MYC    H42 7224   3.632   2.641   9.087
   50MYC    H43 7225   3.767   2.747   9.108
   50MYC    H44 7226   3.918   2.560   8.995
   50MYC    H45 7227   3.764   2.480   8.959
   50MYC    H46 7228   3.673   2.651   8.826
   50MYC    H47 7229   3.814   2.752   8.851
   50MYC    H48 7230   3.961   2.540   8.754
   50MYC    H49 7231   3.799   2.498   8.698
   50MYC    H50 7232   3.756   2.687   8.585
   50MYC    H51 7233   3.907   2.766   8.610
   50MYC    H52 7234   4.013   2.571   8.482
   50MYC    H53 7235   3.844   2.506   8.477
   50MYC    H54 7236   3.769   2.694   8.351
   50MYC    H55 7237   3.941   2.765   8.341
   50MYC    H56 7238   3.991   2.532   8.223
   50MYC    H57 7239   3.820   2.516   8.215
   50MYC    H58 7240   3.768   2.694   8.074
   50MYC    H59 7241   3.920   2.763   8.080
   50MYC    H60 7242   4.018   2.554   7.976
   50MYC    H61 7243   3.866   2.485   7.969
   50MYC    H62 7244   3.768   2.668   7.829
   50MYC    H63 7245   3.922   2.751   7.837
   50MYC    H64 7246   4.036   2.586   7.718
   50MYC    H65 7247   3.895   2.478   7.690
   50MYC    H66 7248   3.807   2.684   7.549
   50MYC    H67 7249   3.969   2.753   7.577
   50MYC    H68 7250   4.068   2.558   7.447
   50MYC    H69 7251   3.901   2.486   7.442
   50MYC    H70 7252   3.814   2.672   7.318
   50MYC    H71 7253   3.974   2.756   7.324
   50MYC    H72 7254   4.069   2.591   7.170
   50MYC    H73 7255   3.918   2.502   7.174
   50MYC    H74 7256   3.793   2.684   7.071
   50MYC    H75 7257   3.919   2.796   7.079
   50MYC    H76 7258   4.054   2.625   6.936
   50MYC    H77 7259   3.919   2.524   6.926
   50MYC    H78 7260   3.770   2.705   6.825
   50MYC    H79 7261   3.916   2.807   6.810
   50MYC    H80 7262   3.852   2.701   6.596
   50MYC    H81 7263   3.893   2.543   6.661
   50MYC    H82 7264   4.017   2.664   6.645
   50MYC    H83 7265   3.403   2.594  11.163
   50MYC    H84 7266   3.480   2.662  11.024
   50MYC    H85 7267   3.538   2.367  11.104
   50MYC    H86 7268   3.397   2.419  11.011
   50MYC    H87 7269   3.571   2.518  10.845
   50MYC    H88 7270   3.691   2.425  10.937
   50MYC    H89 7271   3.573   2.214  10.891
   50MYC    H90 7272   3.439   2.298  10.820
   50MYC    H91 7273   3.649   2.380  10.651
   50MYC    H92 7274   3.704   2.224  10.704
   50MYC    H93 7275   3.506   2.108  10.620
   50MYC    H94 7276   3.434   2.267  10.576
   50MYC    H95 7277   3.640   2.300  10.432
   50MYC    H96 7278   3.688   2.130  10.459
   50MYC    H97 7279   3.456   2.080  10.351
   50MYC    H98 7280   3.459   2.254  10.302
   50MYC    H99 7281   3.667   2.228  10.180
   51MYC     C1 7282   4.560   2.526   9.729
   51MYC     C2 7283   4.486   2.409   9.795
   51MYC     O3 7284   4.349   2.443   9.816
   51MYC     C4 7285   4.540   2.374   9.935
   51MYC     C5 7286   4.478   2.253  10.007
   51MYC     C6 7287   4.404   2.294  10.136
   51MYC     C7 7288   4.491   2.290  10.262
   51MYC     C8 7289   4.420   2.361  10.379
   51MYC     C9 7290   4.505   2.358  10.507
   51MYC    C10 7291   4.502   2.493  10.581
   51MYC    C11 7292   4.546   2.495  10.728
   51MYC    C12 7293   4.441   2.419  10.812
   51MYC    C13 7294   4.465   2.424  10.963
   51MYC    C14 7295   4.372   2.324  11.035
   51MYC    C15 7296   4.396   2.305  11.185
   51MYC    C16 7297   4.321   2.186  11.246
   51MYC    C17 7298   4.173   2.178  11.210
   51MYC    C18 7299   4.137   2.102  11.084
   51MYC    C19 7300   4.105   2.043  11.220
   51MYC    C20 7301   4.499   2.550   9.589
   51MYC    C21 7302   4.511   2.433   9.490
   51MYC    C22 7303   4.527   2.498   9.351
   51MYC    C23 7304   4.510   2.390   9.243
   51MYC    C24 7305   4.510   2.452   9.102
   51MYC    C25 7306   4.490   2.358   8.982
   51MYC    C26 7307   4.503   2.439   8.852
   51MYC    C27 7308   4.475   2.354   8.727
   51MYC    C28 7309   4.487   2.427   8.593
   51MYC    C29 7310   4.462   2.327   8.479
   51MYC    C30 7311   4.499   2.386   8.342
   51MYC    C31 7312   4.508   2.282   8.230
   51MYC    C32 7313   4.543   2.355   8.099
   51MYC    C33 7314   4.546   2.258   7.980
   51MYC    C34 7315   4.600   2.322   7.851
   51MYC    C35 7316   4.601   2.225   7.731
   51MYC    C36 7317   4.633   2.299   7.600
   51MYC    C37 7318   4.585   2.242   7.466
   51MYC    C38 7319   4.653   2.307   7.344
   51MYC    C39 7320   4.599   2.264   7.207
   51MYC    C40 7321   4.696   2.280   7.089
   51MYC    C41 7322   4.645   2.242   6.949
   51MYC    C42 7323   4.755   2.259   6.843
   51MYC    C43 7324   4.722   2.217   6.699
   51MYC    C44 7325   4.025   2.158  10.998
   51MYC    C45 7326   3.987   2.083  10.869
   51MYC    C46 7327   4.091   2.111  10.759
   51MYC    C47 7328   4.083   2.008  10.646
   51MYC    C48 7329   4.102   2.076  10.509
   51MYC    C49 7330   4.044   1.994  10.392
   51MYC    C50 7331   4.090   2.068  10.266
   51MYC    C51 7332   4.059   1.979  10.144
   51MYC    C52 7333   4.054   2.057  10.011
   51MYC    C53 7334   4.012   1.977   9.888
   51MYC    C54 7335   4.015   2.054   9.755
   51MYC    C55 7336   4.004   1.969   9.627
   51MYC    C56 7337   4.018   2.056   9.501
   51MYC    C57 7338   4.003   1.985   9.365
   51MYC    C58 7339   4.016   2.076   9.244
   51MYC    C59 7340   4.054   2.222   9.240
   51MYC    C60 7341   3.911   2.180   9.214
   51MYC    C61 7342   3.850   2.186   9.075
   51MYC    C62 7343   3.954   2.174   8.962
   51MYC    C63 7344   3.884   2.182   8.826
   51MYC    C64 7345   3.984   2.219   8.715
   51MYC    C65 7346   3.917   2.194   8.578
   51MYC    C66 7347   4.020   2.205   8.464
   51MYC    C67 7348   3.958   2.195   8.323
   51MYC    C68 7349   4.067   2.173   8.216
   51MYC    C69 7350   4.014   2.189   8.072
   51MYC    C70 7351   4.131   2.167   7.974
   51MYC    C71 7352   4.069   2.162   7.834
   51MYC    C72 7353   4.176   2.169   7.724
   51MYC    C73 7354   4.107   2.199   7.590
   51MYC    C74 7355   4.207   2.229   7.476
   51MYC    C75 7356   4.124   2.225   7.347
   51MYC    C76 7357   4.206   2.252   7.219
   51MYC    C77 7358   4.138   2.243   7.081
   51MYC    C78 7359   4.241   2.295   6.979
   51MYC    C79 7360   4.187   2.304   6.836
   51MYC    C80 7361   4.289   2.343   6.727
   51MYC    C81 7362   4.560   2.652   9.815
   51MYC    O82 7363   4.645   2.684   9.896
   51MYC    O83 7364   4.450   2.728   9.796
   51MYC     H1 7365   4.662   2.487   9.715
   51MYC     H2 7366   4.499   2.322   9.730
   51MYC     H3 7367   4.342   2.526   9.766
   51MYC     H4 7368   4.647   2.358   9.919
   51MYC     H5 7369   4.535   2.463   9.999
   51MYC     H6 7370   4.398   2.210   9.946
   51MYC     H7 7371   4.546   2.171  10.031
   51MYC     H8 7372   4.359   2.391  10.112
   51MYC     H9 7373   4.323   2.220  10.140
   51MYC   0H10 7374   4.155   2.096   9.990
   51MYC   1H10 7375   4.070   1.884   9.877
   51MYC   2H10 7376   3.909   1.947   9.910
   51MYC   3H10 7377   3.944   2.138   9.752
   51MYC   4H10 7378   4.106   2.113   9.737
   51MYC   5H10 7379   4.086   1.896   9.629
   51MYC   6H10 7380   3.907   1.918   9.621
   51MYC   7H10 7381   3.953   2.144   9.502
   51MYC   8H10 7382   4.119   2.097   9.491
   51MYC   9H10 7383   4.082   1.909   9.357
   51MYC    H10 7384   4.518   2.186  10.285
   51MYC   0H11 7385   3.906   1.934   9.362
   51MYC   1H11 7386   4.036   2.011   9.158
   51MYC   2H11 7387   4.060   2.283   9.330
   51MYC   3H11 7388   4.115   2.252   9.155
   51MYC   4H11 7389   3.842   2.206   9.294
   51MYC   5H11 7390   3.784   2.100   9.059
   51MYC   6H11 7391   3.805   2.285   9.062
   51MYC   7H11 7392   4.009   2.268   8.974
   51MYC   8H11 7393   4.032   2.096   8.957
   51MYC   9H11 7394   3.824   2.093   8.808
   51MYC    H11 7395   4.587   2.339  10.242
   51MYC   0H12 7396   3.814   2.267   8.824
   51MYC   1H12 7397   4.014   2.324   8.722
   51MYC   2H12 7398   4.073   2.156   8.712
   51MYC   3H12 7399   3.862   2.100   8.581
   51MYC   4H12 7400   3.839   2.271   8.568
   51MYC   5H12 7401   4.064   2.305   8.477
   51MYC   6H12 7402   4.096   2.129   8.481
   51MYC   7H12 7403   3.878   2.122   8.306
   51MYC   8H12 7404   3.908   2.289   8.299
   51MYC   9H12 7405   4.156   2.236   8.227
   51MYC    H12 7406   4.402   2.465  10.349
   51MYC   0H13 7407   4.113   2.075   8.230
   51MYC   1H13 7408   3.939   2.111   8.052
   51MYC   2H13 7409   3.963   2.286   8.073
   51MYC   3H13 7410   4.204   2.248   7.971
   51MYC   4H13 7411   4.177   2.070   8.000
   51MYC   5H13 7412   4.009   2.071   7.817
   51MYC   6H13 7413   4.005   2.250   7.821
   51MYC   7H13 7414   4.243   2.251   7.749
   51MYC   8H13 7415   4.243   2.082   7.720
   51MYC   9H13 7416   4.043   2.113   7.566
   51MYC    H13 7417   4.322   2.314  10.392
   51MYC   0H14 7418   4.047   2.290   7.601
   51MYC   1H14 7419   4.258   2.325   7.483
   51MYC   2H14 7420   4.286   2.153   7.479
   51MYC   3H14 7421   4.080   2.125   7.338
   51MYC   4H14 7422   4.044   2.299   7.356
   51MYC   5H14 7423   4.254   2.350   7.230
   51MYC   6H14 7424   4.292   2.184   7.216
   51MYC   7H14 7425   4.111   2.140   7.055
   51MYC   8H14 7426   4.048   2.305   7.077
   51MYC   9H14 7427   4.277   2.396   7.002
   51MYC    H14 7428   4.458   2.279  10.567
   51MYC   0H15 7429   4.327   2.227   6.987
   51MYC   1H15 7430   4.132   2.219   6.794
   51MYC   2H15 7431   4.107   2.379   6.829
   51MYC   3H15 7432   4.366   2.266   6.712
   51MYC   4H15 7433   4.341   2.436   6.754
   51MYC   5H15 7434   4.240   2.371   6.633
   51MYC   6H15 7435   4.456   2.795   9.866
   51MYC    H15 7436   4.611   2.334  10.488
   51MYC    H16 7437   4.566   2.560  10.522
   51MYC    H17 7438   4.404   2.541  10.584
   51MYC    H18 7439   4.646   2.452  10.736
   51MYC    H19 7440   4.554   2.600  10.759
   51MYC    H20 7441   4.342   2.459  10.785
   51MYC    H21 7442   4.448   2.313  10.785
   51MYC    H22 7443   4.566   2.390  10.990
   51MYC    H23 7444   4.459   2.527  11.000
   51MYC    H24 7445   4.269   2.362  11.031
   51MYC    H25 7446   4.369   2.229  10.981
   51MYC    H26 7447   4.503   2.290  11.204
   51MYC    H27 7448   4.362   2.398  11.232
   51MYC    H28 7449   4.367   2.087  11.231
   51MYC    H29 7450   4.329   2.197  11.354
   51MYC    H30 7451   4.104   2.250  11.252
   51MYC    H31 7452   4.216   2.059  11.023
   51MYC    H32 7453   3.999   2.037  11.241
   51MYC    H33 7454   4.163   1.954  11.238
   51MYC    H34 7455   4.393   2.573   9.600
   51MYC    H35 7456   4.549   2.638   9.547
   51MYC    H36 7457   4.594   2.368   9.520
   51MYC    H37 7458   4.417   2.377   9.497
   51MYC    H38 7459   4.450   2.572   9.327
   51MYC    H39 7460   4.624   2.545   9.332
   51MYC    H40 7461   4.585   2.311   9.261
   51MYC    H41 7462   4.413   2.341   9.253
   51MYC    H42 7463   4.425   2.522   9.104
   51MYC    H43 7464   4.594   2.521   9.089
   51MYC    H44 7465   4.558   2.271   8.982
   51MYC    H45 7466   4.389   2.314   8.988
   51MYC    H46 7467   4.442   2.529   8.865
   51MYC    H47 7468   4.605   2.479   8.852
   51MYC    H48 7469   4.556   2.280   8.734
   51MYC    H49 7470   4.381   2.299   8.737
   51MYC    H50 7471   4.413   2.508   8.584
   51MYC    H51 7472   4.584   2.475   8.575
   51MYC    H52 7473   4.527   2.242   8.502
   51MYC    H53 7474   4.359   2.287   8.480
   51MYC    H54 7475   4.421   2.461   8.324
   51MYC    H55 7476   4.593   2.442   8.352
   51MYC    H56 7477   4.578   2.200   8.251
   51MYC    H57 7478   4.404   2.247   8.223
   51MYC    H58 7479   4.485   2.447   8.081
   51MYC    H59 7480   4.645   2.393   8.107
   51MYC    H60 7481   4.599   2.163   7.998
   51MYC    H61 7482   4.446   2.215   7.966
   51MYC    H62 7483   4.541   2.413   7.832
   51MYC    H63 7484   4.702   2.357   7.868
   51MYC    H64 7485   4.665   2.138   7.749
   51MYC    H65 7486   4.501   2.182   7.719
   51MYC    H66 7487   4.590   2.399   7.596
   51MYC    H67 7488   4.743   2.305   7.598
   51MYC    H68 7489   4.599   2.133   7.464
   51MYC    H69 7490   4.477   2.265   7.467
   51MYC    H70 7491   4.636   2.415   7.350
   51MYC    H71 7492   4.762   2.294   7.347
   51MYC    H72 7493   4.564   2.160   7.199
   51MYC    H73 7494   4.514   2.330   7.183
   51MYC    H74 7495   4.728   2.385   7.088
   51MYC    H75 7496   4.785   2.218   7.105
   51MYC    H76 7497   4.612   2.138   6.960
   51MYC    H77 7498   4.555   2.298   6.922
   51MYC    H78 7499   4.790   2.363   6.839
   51MYC    H79 7500   4.844   2.205   6.880
   51MYC    H80 7501   4.805   2.233   6.629
   51MYC    H81 7502   4.632   2.272   6.672
   51MYC    H82 7503   4.703   2.109   6.700
   51MYC    H83 7504   3.935   2.174  11.060
   51MYC    H84 7505   4.045   2.262  10.971
   51MYC    H85 7506   3.991   1.977  10.895
   51MYC    H86 7507   3.887   2.104  10.831
   51MYC    H87 7508   4.067   2.213  10.725
   51MYC    H88 7509   4.195   2.120  10.793
   51MYC    H89 7510   4.165   1.935  10.645
   51MYC    H90 7511   3.988   1.953  10.651
   51MYC    H91 7512   4.050   2.172  10.508
   51MYC    H92 7513   4.211   2.089  10.504
   51MYC    H93 7514   4.067   1.888  10.376
   51MYC    H94 7515   3.934   1.999  10.393
   51MYC    H95 7516   4.038   2.164  10.264
   51MYC    H96 7517   4.195   2.096  10.273
   51MYC    H97 7518   4.136   1.902  10.136
   51MYC    H98 7519   3.959   1.934  10.149
   51MYC    H99 7520   3.997   2.151  10.017
   52MYC     C1 7521   5.620   2.114   9.651
   52MYC     C2 7522   5.565   2.257   9.654
   52MYC     O3 7523   5.665   2.356   9.633
   52MYC     C4 7524   5.482   2.276   9.782
   52MYC     C5 7525   5.526   2.377   9.890
   52MYC     C6 7526   5.445   2.355  10.018
   52MYC     C7 7527   5.520   2.392  10.148
   52MYC     C8 7528   5.621   2.284  10.187
   52MYC     C9 7529   5.733   2.335  10.280
   52MYC    C10 7530   5.820   2.228  10.348
   52MYC    C11 7531   5.737   2.136  10.439
   52MYC    C12 7532   5.674   2.215  10.555
   52MYC    C13 7533   5.625   2.118  10.663
   52MYC    C14 7534   5.538   2.192  10.767
   52MYC    C15 7535   5.550   2.119  10.902
   52MYC    C16 7536   5.463   2.176  11.014
   52MYC    C17 7537   5.495   2.320  11.055
   52MYC    C18 7538   5.401   2.403  11.139
   52MYC    C19 7539   5.527   2.347  11.199
   52MYC    C20 7540   5.684   2.088   9.514
   52MYC    C21 7541   5.571   2.070   9.411
   52MYC    C22 7542   5.635   2.028   9.277
   52MYC    C23 7543   5.532   2.012   9.164
   52MYC    C24 7544   5.598   1.972   9.030
   52MYC    C25 7545   5.513   2.017   8.910
   52MYC    C26 7546   5.574   1.978   8.774
   52MYC    C27 7547   5.504   2.024   8.645
   52MYC    C28 7548   5.575   1.978   8.517
   52MYC    C29 7549   5.541   2.053   8.386
   52MYC    C30 7550   5.595   1.987   8.258
   52MYC    C31 7551   5.543   2.060   8.132
   52MYC    C32 7552   5.606   2.012   8.000
   52MYC    C33 7553   5.571   2.110   7.886
   52MYC    C34 7554   5.613   2.052   7.750
   52MYC    C35 7555   5.539   2.117   7.631
   52MYC    C36 7556   5.552   2.037   7.500
   52MYC    C37 7557   5.504   2.106   7.372
   52MYC    C38 7558   5.545   2.031   7.244
   52MYC    C39 7559   5.485   2.095   7.118
   52MYC    C40 7560   5.561   2.057   6.990
   52MYC    C41 7561   5.512   2.141   6.871
   52MYC    C42 7562   5.586   2.108   6.741
   52MYC    C43 7563   5.548   2.206   6.629
   52MYC    C44 7564   5.385   2.552  11.112
   52MYC    C45 7565   5.270   2.576  11.013
   52MYC    C46 7566   5.294   2.519  10.872
   52MYC    C47 7567   5.197   2.568  10.763
   52MYC    C48 7568   5.197   2.482  10.635
   52MYC    C49 7569   5.096   2.534  10.530
   52MYC    C50 7570   5.057   2.429  10.425
   52MYC    C51 7571   5.006   2.490  10.294
   52MYC    C52 7572   4.984   2.395  10.175
   52MYC    C53 7573   5.006   2.454  10.034
   52MYC    C54 7574   5.020   2.350   9.922
   52MYC    C55 7575   5.007   2.408   9.780
   52MYC    C56 7576   5.041   2.300   9.676
   52MYC    C57 7577   5.038   2.346   9.529
   52MYC    C58 7578   5.054   2.236   9.424
   52MYC    C59 7579   5.189   2.174   9.403
   52MYC    C60 7580   5.122   2.250   9.291
   52MYC    C61 7581   5.071   2.167   9.174
   52MYC    C62 7582   5.139   2.191   9.038
   52MYC    C63 7583   5.075   2.120   8.918
   52MYC    C64 7584   5.130   2.168   8.783
   52MYC    C65 7585   5.077   2.087   8.664
   52MYC    C66 7586   5.143   2.129   8.531
   52MYC    C67 7587   5.052   2.107   8.409
   52MYC    C68 7588   5.130   2.130   8.279
   52MYC    C69 7589   5.058   2.186   8.154
   52MYC    C70 7590   5.152   2.173   8.033
   52MYC    C71 7591   5.082   2.231   7.909
   52MYC    C72 7592   5.151   2.204   7.774
   52MYC    C73 7593   5.079   2.279   7.661
   52MYC    C74 7594   5.154   2.248   7.530
   52MYC    C75 7595   5.080   2.281   7.399
   52MYC    C76 7596   5.162   2.279   7.269
   52MYC    C77 7597   5.088   2.350   7.155
   52MYC    C78 7598   5.157   2.332   7.018
   52MYC    C79 7599   5.102   2.428   6.912
   52MYC    C80 7600   5.109   2.371   6.769
   52MYC    C81 7601   5.717   2.096   9.767
   52MYC    O82 7602   5.824   2.152   9.778
   52MYC    O83 7603   5.668   2.017   9.865
   52MYC     H1 7604   5.535   2.044   9.657
   52MYC     H2 7605   5.488   2.257   9.575
   52MYC     H3 7606   5.731   2.349   9.704
   52MYC     H4 7607   5.386   2.313   9.746
   52MYC     H5 7608   5.477   2.175   9.825
   52MYC     H6 7609   5.633   2.371   9.916
   52MYC     H7 7610   5.512   2.481   9.857
   52MYC     H8 7611   5.356   2.418  10.024
   52MYC     H9 7612   5.410   2.252  10.029
   52MYC   0H10 7613   4.882   2.354  10.173
   52MYC   1H10 7614   4.917   2.514  10.012
   52MYC   2H10 7615   5.090   2.524  10.038
   52MYC   3H10 7616   5.119   2.305   9.932
   52MYC   4H10 7617   4.950   2.266   9.933
   52MYC   5H10 7618   4.907   2.448   9.759
   52MYC   6H10 7619   5.079   2.491   9.782
   52MYC   7H10 7620   5.139   2.257   9.700
   52MYC   8H10 7621   4.964   2.222   9.683
   52MYC   9H10 7622   4.948   2.404   9.506
   52MYC    H10 7623   5.560   2.493  10.132
   52MYC   0H11 7624   5.119   2.419   9.514
   52MYC   1H11 7625   4.963   2.177   9.424
   52MYC   2H11 7626   5.281   2.219   9.440
   52MYC   3H11 7627   5.199   2.068   9.383
   52MYC   4H11 7628   5.140   2.354   9.265
   52MYC   5H11 7629   5.064   2.060   9.197
   52MYC   6H11 7630   4.966   2.196   9.163
   52MYC   7H11 7631   5.139   2.299   9.015
   52MYC   8H11 7632   5.245   2.162   9.046
   52MYC   9H11 7633   5.068   2.010   8.921
   52MYC    H11 7634   5.451   2.388  10.233
   52MYC   0H12 7635   4.970   2.150   8.916
   52MYC   1H12 7636   5.104   2.274   8.771
   52MYC   2H12 7637   5.240   2.170   8.779
   52MYC   3H12 7638   5.115   1.984   8.664
   52MYC   4H12 7639   4.968   2.087   8.654
   52MYC   5H12 7640   5.167   2.236   8.536
   52MYC   6H12 7641   5.240   2.081   8.514
   52MYC   7H12 7642   5.014   2.004   8.402
   52MYC   8H12 7643   4.961   2.167   8.416
   52MYC   9H12 7644   5.208   2.204   8.301
   52MYC    H12 7645   5.568   2.197  10.228
   52MYC   0H13 7646   5.189   2.040   8.259
   52MYC   1H13 7647   4.971   2.122   8.138
   52MYC   2H13 7648   5.022   2.287   8.177
   52MYC   3H13 7649   5.247   2.227   8.044
   52MYC   4H13 7650   5.181   2.068   8.025
   52MYC   5H13 7651   4.974   2.208   7.908
   52MYC   6H13 7652   5.082   2.341   7.912
   52MYC   7H13 7653   5.252   2.246   7.783
   52MYC   8H13 7654   5.170   2.097   7.760
   52MYC   9H13 7655   4.978   2.245   7.637
   52MYC    H13 7656   5.674   2.242  10.101
   52MYC   0H14 7657   5.080   2.387   7.682
   52MYC   1H14 7658   5.242   2.313   7.527
   52MYC   2H14 7659   5.199   2.148   7.522
   52MYC   3H14 7660   4.995   2.212   7.392
   52MYC   4H14 7661   5.031   2.378   7.414
   52MYC   5H14 7662   5.262   2.321   7.286
   52MYC   6H14 7663   5.189   2.179   7.232
   52MYC   7H14 7664   4.988   2.307   7.152
   52MYC   8H14 7665   5.078   2.457   7.175
   52MYC   9H14 7666   5.267   2.328   7.025
   52MYC    H14 7667   5.803   2.395  10.220
   52MYC   0H15 7668   5.131   2.230   6.988
   52MYC   1H15 7669   4.996   2.438   6.938
   52MYC   2H15 7670   5.169   2.514   6.926
   52MYC   3H15 7671   5.086   2.264   6.766
   52MYC   4H15 7672   5.211   2.381   6.729
   52MYC   5H15 7673   5.036   2.425   6.707
   52MYC   6H15 7674   5.740   2.017   9.931
   52MYC    H15 7675   5.684   2.397  10.355
   52MYC    H16 7676   5.888   2.182  10.275
   52MYC    H17 7677   5.891   2.288  10.407
   52MYC    H18 7678   5.665   2.076  10.383
   52MYC    H19 7679   5.813   2.073  10.488
   52MYC    H20 7680   5.749   2.283  10.599
   52MYC    H21 7681   5.595   2.284  10.523
   52MYC    H22 7682   5.564   2.040  10.616
   52MYC    H23 7683   5.713   2.071  10.708
   52MYC    H24 7684   5.572   2.294  10.787
   52MYC    H25 7685   5.434   2.192  10.733
   52MYC    H26 7686   5.548   2.009  10.892
   52MYC    H27 7687   5.651   2.143  10.938
   52MYC    H28 7688   5.356   2.161  10.991
   52MYC    H29 7689   5.491   2.119  11.103
   52MYC    H30 7690   5.549   2.380  10.983
   52MYC    H31 7691   5.308   2.360  11.173
   52MYC    H32 7692   5.614   2.412  11.211
   52MYC    H33 7693   5.523   2.279  11.285
   52MYC    H34 7694   5.757   2.166   9.488
   52MYC    H35 7695   5.740   1.995   9.527
   52MYC    H36 7696   5.488   2.004   9.437
   52MYC    H37 7697   5.517   2.164   9.395
   52MYC    H38 7698   5.699   2.107   9.237
   52MYC    H39 7699   5.697   1.938   9.288
   52MYC    H40 7700   5.451   1.948   9.199
   52MYC    H41 7701   5.489   2.112   9.149
   52MYC    H42 7702   5.695   2.022   9.024
   52MYC    H43 7703   5.614   1.864   9.022
   52MYC    H44 7704   5.411   1.978   8.918
   52MYC    H45 7705   5.511   2.125   8.924
   52MYC    H46 7706   5.676   2.020   8.777
   52MYC    H47 7707   5.587   1.870   8.763
   52MYC    H48 7708   5.398   1.998   8.644
   52MYC    H49 7709   5.513   2.133   8.650
   52MYC    H50 7710   5.685   1.975   8.523
   52MYC    H51 7711   5.559   1.871   8.497
   52MYC    H52 7712   5.432   2.056   8.375
   52MYC    H53 7713   5.574   2.157   8.394
   52MYC    H54 7714   5.704   1.996   8.265
   52MYC    H55 7715   5.564   1.883   8.249
   52MYC    H56 7716   5.435   2.043   8.120
   52MYC    H57 7717   5.569   2.166   8.143
   52MYC    H58 7718   5.715   2.007   8.009
   52MYC    H59 7719   5.568   1.910   7.987
   52MYC    H60 7720   5.464   2.133   7.889
   52MYC    H61 7721   5.617   2.207   7.908
   52MYC    H62 7722   5.721   2.063   7.736
   52MYC    H63 7723   5.587   1.946   7.742
   52MYC    H64 7724   5.431   2.131   7.645
   52MYC    H65 7725   5.583   2.213   7.603
   52MYC    H66 7726   5.657   2.010   7.485
   52MYC    H67 7727   5.506   1.938   7.510
   52MYC    H68 7728   5.395   2.109   7.383
   52MYC    H69 7729   5.537   2.210   7.360
   52MYC    H70 7730   5.654   2.023   7.237
   52MYC    H71 7731   5.508   1.928   7.245
   52MYC    H72 7732   5.376   2.083   7.109
   52MYC    H73 7733   5.493   2.204   7.127
   52MYC    H74 7734   5.666   2.087   6.999
   52MYC    H75 7735   5.554   1.949   6.972
   52MYC    H76 7736   5.402   2.133   6.868
   52MYC    H77 7737   5.529   2.248   6.889
   52MYC    H78 7738   5.695   2.114   6.752
   52MYC    H79 7739   5.570   2.004   6.708
   52MYC    H80 7740   5.613   2.189   6.542
   52MYC    H81 7741   5.564   2.311   6.656
   52MYC    H82 7742   5.443   2.187   6.604
   52MYC    H83 7743   5.374   2.599  11.211
   52MYC    H84 7744   5.479   2.591  11.071
   52MYC    H85 7745   5.182   2.529  11.058
   52MYC    H86 7746   5.243   2.682  11.004
   52MYC    H87 7747   5.397   2.536  10.839
   52MYC    H88 7748   5.291   2.409  10.875
   52MYC    H89 7749   5.096   2.578  10.805
   52MYC    H90 7750   5.230   2.668  10.731
   52MYC    H91 7751   5.294   2.482  10.585
   52MYC    H92 7752   5.174   2.376  10.651
   52MYC    H93 7753   5.004   2.565  10.580
   52MYC    H94 7754   5.129   2.623  10.476
   52MYC    H95 7755   5.147   2.371  10.400
   52MYC    H96 7756   4.976   2.364  10.459
   52MYC    H97 7757   4.909   2.538  10.312
   52MYC    H98 7758   5.077   2.566  10.258
   52MYC    H99 7759   5.044   2.303  10.171
   53MYC     C1 7760   6.011   1.752   9.663
   53MYC     C2 7761   6.152   1.754   9.724
   53MYC     O3 7762   6.207   1.623   9.707
   53MYC     C4 7763   6.146   1.787   9.874
   53MYC     C5 7764   6.288   1.802   9.931
   53MYC     C6 7765   6.293   1.783  10.084
   53MYC     C7 7766   6.195   1.865  10.169
   53MYC     C8 7767   6.211   1.835  10.319
   53MYC     C9 7768   6.116   1.918  10.407
   53MYC    C10 7769   6.172   1.931  10.550
   53MYC    C11 7770   6.072   1.990  10.651
   53MYC    C12 7771   6.085   2.141  10.677
   53MYC    C13 7772   5.997   2.184  10.795
   53MYC    C14 7773   6.035   2.316  10.865
   53MYC    C15 7774   5.941   2.379  10.969
   53MYC    C16 7775   5.971   2.526  11.003
   53MYC    C17 7776   6.092   2.529  11.095
   53MYC    C18 7777   6.181   2.650  11.092
   53MYC    C19 7778   6.102   2.618  11.216
   53MYC    C20 7779   6.007   1.689   9.522
   53MYC    C21 7780   6.065   1.774   9.408
   53MYC    C22 7781   6.036   1.718   9.268
   53MYC    C23 7782   6.083   1.821   9.163
   53MYC    C24 7783   6.046   1.772   9.022
   53MYC    C25 7784   6.132   1.831   8.909
   53MYC    C26 7785   6.059   1.818   8.775
   53MYC    C27 7786   6.131   1.891   8.660
   53MYC    C28 7787   6.041   1.901   8.536
   53MYC    C29 7788   6.114   1.947   8.409
   53MYC    C30 7789   6.033   1.933   8.279
   53MYC    C31 7790   6.103   1.991   8.154
   53MYC    C32 7791   6.038   1.951   8.020
   53MYC    C33 7792   6.117   2.000   7.898
   53MYC    C34 7793   6.034   1.971   7.772
   53MYC    C35 7794   6.098   2.028   7.645
   53MYC    C36 7795   6.005   2.025   7.523
   53MYC    C37 7796   6.076   2.062   7.391
   53MYC    C38 7797   5.987   2.041   7.267
   53MYC    C39 7798   6.050   2.106   7.143
   53MYC    C40 7799   5.992   2.056   7.009
   53MYC    C41 7800   6.058   2.137   6.896
   53MYC    C42 7801   6.037   2.055   6.767
   53MYC    C43 7802   6.114   2.110   6.646
   53MYC    C44 7803   6.333   2.633  11.089
   53MYC    C45 7804   6.400   2.648  10.952
   53MYC    C46 7805   6.328   2.574  10.838
   53MYC    C47 7806   6.400   2.600  10.705
   53MYC    C48 7807   6.315   2.539  10.592
   53MYC    C49 7808   6.355   2.613  10.463
   53MYC    C50 7809   6.259   2.569  10.351
   53MYC    C51 7810   6.262   2.669  10.234
   53MYC    C52 7811   6.184   2.621  10.111
   53MYC    C53 7812   6.205   2.715   9.991
   53MYC    C54 7813   6.136   2.681   9.858
   53MYC    C55 7814   6.193   2.755   9.736
   53MYC    C56 7815   6.144   2.692   9.605
   53MYC    C57 7816   6.252   2.719   9.498
   53MYC    C58 7817   6.195   2.686   9.361
   53MYC    C59 7818   6.226   2.558   9.288
   53MYC    C60 7819   6.276   2.689   9.233
   53MYC    C61 7820   6.217   2.722   9.097
   53MYC    C62 7821   6.229   2.620   8.983
   53MYC    C63 7822   6.176   2.680   8.851
   53MYC    C64 7823   6.164   2.579   8.735
   53MYC    C65 7824   6.121   2.640   8.601
   53MYC    C66 7825   6.112   2.543   8.482
   53MYC    C67 7826   6.070   2.605   8.347
   53MYC    C68 7827   6.082   2.502   8.234
   53MYC    C69 7828   6.009   2.547   8.106
   53MYC    C70 7829   6.051   2.469   7.980
   53MYC    C71 7830   6.022   2.548   7.851
   53MYC    C72 7831   6.079   2.494   7.719
   53MYC    C73 7832   6.078   2.596   7.605
   53MYC    C74 7833   6.160   2.556   7.481
   53MYC    C75 7834   6.143   2.655   7.365
   53MYC    C76 7835   6.198   2.613   7.228
   53MYC    C77 7836   6.195   2.717   7.114
   53MYC    C78 7837   6.201   2.655   6.974
   53MYC    C79 7838   6.229   2.747   6.854
   53MYC    C80 7839   6.232   2.691   6.710
   53MYC    C81 7840   5.919   1.676   9.758
   53MYC    O82 7841   5.893   1.557   9.747
   53MYC    O83 7842   5.849   1.764   9.833
   53MYC     H1 7843   5.974   1.854   9.648
   53MYC     H2 7844   6.211   1.831   9.673
   53MYC     H3 7845   6.139   1.562   9.674
   53MYC     H4 7846   6.103   1.887   9.887
   53MYC     H5 7847   6.090   1.714   9.933
   53MYC     H6 7848   6.352   1.724   9.889
   53MYC     H7 7849   6.336   1.893   9.893
   53MYC     H8 7850   6.256   1.680  10.092
   53MYC     H9 7851   6.397   1.794  10.118
   53MYC   0H10 7852   6.076   2.611  10.126
   53MYC   1H10 7853   6.178   2.818  10.017
   53MYC   2H10 7854   6.313   2.725   9.974
   53MYC   3H10 7855   6.149   2.574   9.839
   53MYC   4H10 7856   6.027   2.691   9.864
   53MYC   5H10 7857   6.177   2.863   9.739
   53MYC   6H10 7858   6.302   2.751   9.752
   53MYC   7H10 7859   6.118   2.586   9.613
   53MYC   8H10 7860   6.054   2.753   9.588
   53MYC   9H10 7861   6.285   2.823   9.498
   53MYC    H10 7862   6.213   1.972  10.152
   53MYC   0H11 7863   6.340   2.660   9.528
   53MYC   1H11 7864   6.089   2.712   9.354
   53MYC   2H11 7865   6.297   2.484   9.325
   53MYC   3H11 7866   6.138   2.517   9.238
   53MYC   4H11 7867   6.382   2.711   9.238
   53MYC   5H11 7868   6.113   2.756   9.106
   53MYC   6H11 7869   6.268   2.816   9.072
   53MYC   7H11 7870   6.336   2.605   8.969
   53MYC   8H11 7871   6.181   2.524   9.005
   53MYC   9H11 7872   6.081   2.733   8.864
   53MYC    H11 7873   6.091   1.854  10.137
   53MYC   0H12 7874   6.248   2.753   8.812
   53MYC   1H12 7875   6.261   2.531   8.718
   53MYC   2H12 7876   6.090   2.503   8.762
   53MYC   3H12 7877   6.021   2.681   8.615
   53MYC   4H12 7878   6.193   2.720   8.577
   53MYC   5H12 7879   6.213   2.500   8.470
   53MYC   6H12 7880   6.053   2.455   8.512
   53MYC   7H12 7881   5.966   2.637   8.358
   53MYC   8H12 7882   6.128   2.694   8.320
   53MYC   9H12 7883   6.189   2.493   8.213
   53MYC    H12 7884   6.202   1.728  10.341
   53MYC   0H13 7885   6.041   2.407   8.270
   53MYC   1H13 7886   5.900   2.542   8.122
   53MYC   2H13 7887   6.038   2.651   8.089
   53MYC   3H13 7888   6.159   2.452   7.981
   53MYC   4H13 7889   5.992   2.376   7.981
   53MYC   5H13 7890   5.914   2.559   7.831
   53MYC   6H13 7891   6.071   2.645   7.860
   53MYC   7H13 7892   6.185   2.471   7.738
   53MYC   8H13 7893   6.036   2.398   7.686
   53MYC   9H13 7894   5.975   2.622   7.578
   53MYC    H13 7895   6.312   1.858  10.352
   53MYC   0H14 7896   6.126   2.689   7.639
   53MYC   1H14 7897   6.268   2.550   7.503
   53MYC   2H14 7898   6.143   2.452   7.453
   53MYC   3H14 7899   6.038   2.686   7.352
   53MYC   4H14 7900   6.203   2.740   7.400
   53MYC   5H14 7901   6.305   2.597   7.244
   53MYC   6H14 7902   6.147   2.518   7.210
   53MYC   7H14 7903   6.103   2.776   7.115
   53MYC   8H14 7904   6.282   2.784   7.127
   53MYC   9H14 7905   6.281   2.580   6.977
   53MYC    H14 7906   6.093   2.020  10.373
   53MYC   0H15 7907   6.112   2.594   6.956
   53MYC   1H15 7908   6.163   2.834   6.857
   53MYC   2H15 7909   6.328   2.794   6.864
   53MYC   3H15 7910   6.131   2.663   6.678
   53MYC   4H15 7911   6.290   2.598   6.713
   53MYC   5H15 7912   6.280   2.769   6.649
   53MYC   6H15 7913   5.801   1.705   9.894
   53MYC    H15 7914   6.025   1.858  10.421
   53MYC    H16 7915   6.200   1.831  10.585
   53MYC    H17 7916   6.268   1.983  10.546
   53MYC    H18 7917   5.968   1.971  10.621
   53MYC    H19 7918   6.090   1.937  10.745
   53MYC    H20 7919   6.190   2.165  10.696
   53MYC    H21 7920   6.045   2.198  10.592
   53MYC    H22 7921   5.894   2.197  10.757
   53MYC    H23 7922   6.002   2.106  10.872
   53MYC    H24 7923   6.126   2.294  10.923
   53MYC    H25 7924   6.063   2.391  10.790
   53MYC    H26 7925   5.838   2.369  10.930
   53MYC    H27 7926   5.944   2.326  11.064
   53MYC    H28 7927   5.979   2.591  10.916
   53MYC    H29 7928   5.870   2.557  11.036
   53MYC    H30 7929   6.137   2.432  11.117
   53MYC    H31 7930   6.148   2.733  11.031
   53MYC    H32 7931   6.156   2.586  11.305
   53MYC    H33 7932   6.026   2.694  11.231
   53MYC    H34 7933   6.047   1.588   9.530
   53MYC    H35 7934   5.902   1.674   9.492
   53MYC    H36 7935   6.030   1.877   9.425
   53MYC    H37 7936   6.175   1.779   9.410
   53MYC    H38 7937   6.074   1.616   9.255
   53MYC    H39 7938   5.928   1.704   9.261
   53MYC    H40 7939   6.048   1.922   9.188
   53MYC    H41 7940   6.192   1.831   9.168
   53MYC    H42 7941   6.054   1.663   9.018
   53MYC    H43 7942   5.941   1.790   8.999
   53MYC    H44 7943   6.150   1.937   8.928
   53MYC    H45 7944   6.229   1.782   8.891
   53MYC    H46 7945   6.043   1.712   8.750
   53MYC    H47 7946   5.955   1.851   8.790
   53MYC    H48 7947   6.164   1.992   8.688
   53MYC    H49 7948   6.224   1.844   8.627
   53MYC    H50 7949   6.002   1.799   8.521
   53MYC    H51 7950   5.957   1.969   8.559
   53MYC    H52 7951   6.153   2.047   8.435
   53MYC    H53 7952   6.202   1.885   8.391
   53MYC    H54 7953   6.015   1.826   8.261
   53MYC    H55 7954   5.933   1.977   8.289
   53MYC    H56 7955   6.103   2.100   8.158
   53MYC    H57 7956   6.208   1.959   8.154
   53MYC    H58 7957   6.038   1.841   8.021
   53MYC    H59 7958   5.933   1.981   8.028
   53MYC    H60 7959   6.134   2.108   7.907
   53MYC    H61 7960   6.209   1.940   7.889
   53MYC    H62 7961   6.026   1.863   7.752
   53MYC    H63 7962   5.929   2.000   7.787
   53MYC    H64 7963   6.123   2.133   7.665
   53MYC    H65 7964   6.183   1.963   7.617
   53MYC    H66 7965   5.965   1.923   7.518
   53MYC    H67 7966   5.922   2.094   7.541
   53MYC    H68 7967   6.117   2.163   7.395
   53MYC    H69 7968   6.161   1.997   7.367
   53MYC    H70 7969   5.979   1.933   7.250
   53MYC    H71 7970   5.886   2.079   7.288
   53MYC    H72 7971   6.029   2.212   7.162
   53MYC    H73 7972   6.159   2.101   7.149
   53MYC    H74 7973   6.008   1.948   7.007
   53MYC    H75 7974   5.883   2.070   7.005
   53MYC    H76 7975   6.010   2.235   6.885
   53MYC    H77 7976   6.164   2.153   6.919
   53MYC    H78 7977   6.077   1.955   6.787
   53MYC    H79 7978   5.931   2.044   6.741
   53MYC    H80 7979   6.077   2.073   6.549
   53MYC    H81 7980   6.224   2.104   6.645
   53MYC    H82 7981   6.094   2.218   6.644
   53MYC    H83 7982   6.379   2.705  11.157
   53MYC    H84 7983   6.361   2.534  11.128
   53MYC    H85 7984   6.402   2.756  10.936
   53MYC    H86 7985   6.500   2.603  10.959
   53MYC    H87 7986   6.323   2.466  10.859
   53MYC    H88 7987   6.227   2.617  10.837
   53MYC    H89 7988   6.417   2.708  10.700
   53MYC    H90 7989   6.503   2.560  10.705
   53MYC    H91 7990   6.334   2.432  10.577
   53MYC    H92 7991   6.209   2.540  10.618
   53MYC    H93 7992   6.344   2.722  10.471
   53MYC    H94 7993   6.461   2.598  10.439
   53MYC    H95 7994   6.278   2.466  10.318
   53MYC    H96 7995   6.158   2.560  10.395
   53MYC    H97 7996   6.227   2.766  10.272
   53MYC    H98 7997   6.365   2.690  10.202
   53MYC    H99 7998   6.213   2.519  10.082
   54MYC     C1 7999   0.350   3.335   9.643
   54MYC     C2 8000   0.347   3.392   9.786
   54MYC     O3 8001   0.442   3.497   9.799
   54MYC     C4 8002   0.378   3.290   9.897
   54MYC     C5 8003   0.334   3.327  10.039
   54MYC     C6 8004   0.440   3.381  10.137
   54MYC     C7 8005   0.390   3.364  10.281
   54MYC     C8 8006   0.481   3.440  10.379
   54MYC     C9 8007   0.452   3.409  10.527
   54MYC    C10 8008   0.552   3.479  10.621
   54MYC    C11 8009   0.538   3.413  10.760
   54MYC    C12 8010   0.396   3.432  10.816
   54MYC    C13 8011   0.383   3.410  10.968
   54MYC    C14 8012   0.417   3.265  11.009
   54MYC    C15 8013   0.415   3.244  11.161
   54MYC    C16 8014   0.503   3.124  11.200
   54MYC    C17 8015   0.448   2.987  11.167
   54MYC    C18 8016   0.458   2.933  11.026
   54MYC    C19 8017   0.540   2.871  11.137
   54MYC    C20 8018   0.320   3.446   9.541
   54MYC    C21 8019   0.290   3.394   9.399
   54MYC    C22 8020   0.239   3.507   9.308
   54MYC    C23 8021   0.234   3.459   9.162
   54MYC    C24 8022   0.185   3.559   9.055
   54MYC    C25 8023   0.205   3.498   8.915
   54MYC    C26 8024   0.225   3.588   8.793
   54MYC    C27 8025   0.303   3.523   8.677
   54MYC    C28 8026   0.236   3.562   8.544
   54MYC    C29 8027   0.285   3.474   8.428
   54MYC    C30 8028   0.211   3.511   8.298
   54MYC    C31 8029   0.267   3.428   8.181
   54MYC    C32 8030   0.230   3.478   8.040
   54MYC    C33 8031   0.298   3.414   7.917
   54MYC    C34 8032   0.248   3.473   7.785
   54MYC    C35 8033   0.275   3.387   7.660
   54MYC    C36 8034   0.251   3.457   7.525
   54MYC    C37 8035   0.300   3.383   7.400
   54MYC    C38 8036   0.245   3.446   7.271
   54MYC    C39 8037   0.308   3.381   7.146
   54MYC    C40 8038   0.273   3.441   7.009
   54MYC    C41 8039   0.330   3.358   6.893
   54MYC    C42 8040   0.327   3.431   6.758
   54MYC    C43 8041   0.382   3.345   6.644
   54MYC    C44 8042   0.350   2.855  10.954
   54MYC    C45 8043   0.405   2.779  10.832
   54MYC    C46 8044   0.418   2.875  10.712
   54MYC    C47 8045   0.291   2.881  10.625
   54MYC    C48 8046   0.304   2.965  10.498
   54MYC    C49 8047   0.257   2.877  10.380
   54MYC    C50 8048   0.263   2.954  10.247
   54MYC    C51 8049   0.192   2.881  10.132
   54MYC    C52 8050   0.190   2.943   9.992
   54MYC    C53 8051   0.142   2.859   9.873
   54MYC    C54 8052   0.198   2.926   9.746
   54MYC    C55 8053   0.141   2.866   9.616
   54MYC    C56 8054   0.200   2.942   9.495
   54MYC    C57 8055   0.130   2.886   9.370
   54MYC    C58 8056   0.196   2.913   9.236
   54MYC    C59 8057   0.188   3.047   9.167
   54MYC    C60 8058   0.119   2.927   9.107
   54MYC    C61 8059   0.176   2.858   8.984
   54MYC    C62 8060   0.116   2.916   8.855
   54MYC    C63 8061   0.170   2.839   8.734
   54MYC    C64 8062   0.103   2.881   8.602
   54MYC    C65 8063   0.169   2.813   8.481
   54MYC    C66 8064   0.073   2.799   8.361
   54MYC    C67 8065   0.138   2.743   8.233
   54MYC    C68 8066   0.049   2.768   8.110
   54MYC    C69 8067   0.093   2.698   7.980
   54MYC    C70 8068  -0.000   2.748   7.869
   54MYC    C71 8069   0.029   2.683   7.732
   54MYC    C72 8070   0.092   2.785   7.636
   54MYC    C73 8071   0.138   2.721   7.504
   54MYC    C74 8072   0.134   2.804   7.375
   54MYC    C75 8073   0.177   2.722   7.252
   54MYC    C76 8074   0.170   2.798   7.118
   54MYC    C77 8075   0.206   2.717   6.992
   54MYC    C78 8076   0.200   2.807   6.867
   54MYC    C79 8077   0.198   2.728   6.734
   54MYC    C80 8078   0.248   2.824   6.625
   54MYC    C81 8079   0.482   3.271   9.602
   54MYC    O82 8080   0.594   3.319   9.612
   54MYC    O83 8081   0.465   3.145   9.556
   54MYC     H1 8082   0.274   3.258   9.630
   54MYC     H2 8083   0.246   3.433   9.798
   54MYC     H3 8084   0.488   3.488   9.884
   54MYC     H4 8085   0.347   3.190   9.864
   54MYC     H5 8086   0.487   3.281   9.908
   54MYC     H6 8087   0.252   3.399  10.023
   54MYC     H7 8088   0.282   3.244  10.090
   54MYC     H8 8089   0.531   3.321  10.125
   54MYC     H9 8090   0.463   3.486  10.116
   54MYC   0H10 8091   0.292   2.978   9.971
   54MYC   1H10 8092   0.176   2.754   9.870
   54MYC   2H10 8093   0.033   2.852   9.865
   54MYC   3H10 8094   0.172   3.032   9.743
   54MYC   4H10 8095   0.307   2.927   9.749
   54MYC   5H10 8096   0.181   2.764   9.608
   54MYC   6H10 8097   0.032   2.865   9.604
   54MYC   7H10 8098   0.189   3.050   9.507
   54MYC   8H10 8099   0.308   2.920   9.498
   54MYC   9H10 8100   0.102   2.781   9.380
   54MYC    H10 8101   0.289   3.406  10.292
   54MYC   0H11 8102   0.036   2.943   9.367
   54MYC   1H11 8103   0.293   2.864   9.230
   54MYC   2H11 8104   0.128   3.124   9.215
   54MYC   3H11 8105   0.281   3.082   9.123
   54MYC   4H11 8106   0.012   2.924   9.124
   54MYC   5H11 8107   0.282   2.884   8.976
   54MYC   6H11 8108   0.158   2.749   8.984
   54MYC   7H11 8109   0.006   2.926   8.848
   54MYC   8H11 8110   0.150   3.020   8.850
   54MYC   9H11 8111   0.279   2.848   8.725
   54MYC    H11 8112   0.382   3.256  10.300
   54MYC   0H12 8113   0.142   2.735   8.755
   54MYC   1H12 8114  -0.002   2.857   8.624
   54MYC   2H12 8115   0.098   2.988   8.578
   54MYC   3H12 8116   0.253   2.879   8.456
   54MYC   4H12 8117   0.209   2.713   8.503
   54MYC   5H12 8118  -0.002   2.725   8.392
   54MYC   6H12 8119   0.021   2.893   8.341
   54MYC   7H12 8120   0.238   2.786   8.216
   54MYC   8H12 8121   0.156   2.636   8.247
   54MYC   9H12 8122  -0.051   2.731   8.136
   54MYC    H12 8123   0.578   3.405  10.343
   54MYC   0H13 8124   0.038   2.876   8.095
   54MYC   1H13 8125   0.194   2.733   7.957
   54MYC   2H13 8126   0.102   2.589   7.979
   54MYC   3H13 8127  -0.108   2.746   7.886
   54MYC   4H13 8128   0.019   2.856   7.859
   54MYC   5H13 8129   0.103   2.603   7.735
   54MYC   6H13 8130  -0.066   2.648   7.690
   54MYC   7H13 8131   0.020   2.867   7.623
   54MYC   8H13 8132   0.179   2.830   7.686
   54MYC   9H13 8133   0.243   2.692   7.521
   54MYC    H13 8134   0.454   3.545  10.366
   54MYC   0H14 8135   0.084   2.627   7.490
   54MYC   1H14 8136   0.033   2.840   7.352
   54MYC   2H14 8137   0.189   2.896   7.397
   54MYC   3H14 8138   0.278   2.682   7.269
   54MYC   4H14 8139   0.117   2.630   7.246
   54MYC   5H14 8140   0.073   2.847   7.102
   54MYC   6H14 8141   0.245   2.877   7.122
   54MYC   7H14 8142   0.303   2.669   7.005
   54MYC   8H14 8143   0.134   2.636   6.977
   54MYC   9H14 8144   0.110   2.870   6.871
   54MYC    H14 8145   0.348   3.439  10.542
   54MYC   0H15 8146   0.278   2.883   6.870
   54MYC   1H15 8147   0.259   2.637   6.725
   54MYC   2H15 8148   0.093   2.704   6.712
   54MYC   3H15 8149   0.357   2.824   6.621
   54MYC   4H15 8150   0.212   2.927   6.638
   54MYC   5H15 8151   0.207   2.788   6.530
   54MYC   6H15 8152   0.542   3.140   9.496
   54MYC    H15 8153   0.461   3.301  10.539
   54MYC    H16 8154   0.654   3.467  10.581
   54MYC    H17 8155   0.530   3.586  10.623
   54MYC    H18 8156   0.562   3.307  10.751
   54MYC    H19 8157   0.615   3.448  10.831
   54MYC    H20 8158   0.366   3.535  10.795
   54MYC    H21 8159   0.322   3.370  10.764
   54MYC    H22 8160   0.441   3.480  11.029
   54MYC    H23 8161   0.279   3.427  10.998
   54MYC    H24 8162   0.345   3.197  10.964
   54MYC    H25 8163   0.519   3.242  10.974
   54MYC    H26 8164   0.435   3.338  11.214
   54MYC    H27 8165   0.313   3.219  11.194
   54MYC    H28 8166   0.601   3.141  11.152
   54MYC    H29 8167   0.527   3.125  11.307
   54MYC    H30 8168   0.358   2.959  11.221
   54MYC    H31 8169   0.514   2.993  10.955
   54MYC    H32 8170   0.509   2.777  11.181
   54MYC    H33 8171   0.648   2.885  11.130
   54MYC    H34 8172   0.233   3.510   9.561
   54MYC    H35 8173   0.411   3.506   9.544
   54MYC    H36 8174   0.381   3.349   9.357
   54MYC    H37 8175   0.202   3.329   9.405
   54MYC    H38 8176   0.138   3.539   9.337
   54MYC    H39 8177   0.310   3.589   9.320
   54MYC    H40 8178   0.336   3.428   9.137
   54MYC    H41 8179   0.173   3.368   9.154
   54MYC    H42 8180   0.082   3.587   9.080
   54MYC    H43 8181   0.250   3.646   9.063
   54MYC    H44 8182   0.299   3.441   8.918
   54MYC    H45 8183   0.121   3.432   8.888
   54MYC    H46 8184   0.130   3.632   8.760
   54MYC    H47 8185   0.282   3.678   8.820
   54MYC    H48 8186   0.411   3.542   8.674
   54MYC    H49 8187   0.292   3.414   8.683
   54MYC    H50 8188   0.128   3.551   8.556
   54MYC    H51 8189   0.254   3.668   8.520
   54MYC    H52 8190   0.390   3.496   8.406
   54MYC    H53 8191   0.279   3.366   8.446
   54MYC    H54 8192   0.103   3.495   8.311
   54MYC    H55 8193   0.218   3.619   8.284
   54MYC    H56 8194   0.375   3.428   8.200
   54MYC    H57 8195   0.231   3.326   8.195
   54MYC    H58 8196   0.122   3.478   8.025
   54MYC    H59 8197   0.263   3.582   8.031
   54MYC    H60 8198   0.407   3.430   7.916
   54MYC    H61 8199   0.274   3.307   7.921
   54MYC    H62 8200   0.139   3.491   7.784
   54MYC    H63 8201   0.305   3.565   7.768
   54MYC    H64 8202   0.381   3.362   7.661
   54MYC    H65 8203   0.218   3.294   7.672
   54MYC    H66 8204   0.142   3.469   7.530
   54MYC    H67 8205   0.288   3.560   7.521
   54MYC    H68 8206   0.408   3.404   7.401
   54MYC    H69 8207   0.272   3.277   7.408
   54MYC    H70 8208   0.135   3.447   7.270
   54MYC    H71 8209   0.280   3.550   7.271
   54MYC    H72 8210   0.416   3.386   7.160
   54MYC    H73 8211   0.270   3.278   7.148
   54MYC    H74 8212   0.164   3.456   7.006
   54MYC    H75 8213   0.311   3.544   7.004
   54MYC    H76 8214   0.435   3.340   6.919
   54MYC    H77 8215   0.283   3.259   6.900
   54MYC    H78 8216   0.229   3.474   6.732
   54MYC    H79 8217   0.389   3.522   6.760
   54MYC    H80 8218   0.400   3.409   6.556
   54MYC    H81 8219   0.300   3.284   6.604
   54MYC    H82 8220   0.470   3.286   6.674
   54MYC    H83 8221   0.294   2.788  11.020
   54MYC    H84 8222   0.268   2.926  10.936
   54MYC    H85 8223   0.505   2.741  10.858
   54MYC    H86 8224   0.344   2.698  10.791
   54MYC    H87 8225   0.447   2.976  10.744
   54MYC    H88 8226   0.502   2.841  10.651
   54MYC    H89 8227   0.264   2.779  10.595
   54MYC    H90 8228   0.208   2.924  10.683
   54MYC    H91 8229   0.250   3.061  10.505
   54MYC    H92 8230   0.409   2.993  10.485
   54MYC    H93 8231   0.322   2.789  10.375
   54MYC    H94 8232   0.152   2.852  10.396
   54MYC    H95 8233   0.232   3.057  10.266
   54MYC    H96 8234   0.367   2.972  10.216
   54MYC    H97 8235   0.246   2.785  10.128
   54MYC    H98 8236   0.087   2.860  10.158
   54MYC    H99 8237   0.119   3.027   9.991
   55MYC     C1 8238   1.616   2.824   9.595
   55MYC     C2 8239   1.512   2.912   9.666
   55MYC     O3 8240   1.560   3.037   9.716
   55MYC     C4 8241   1.427   2.842   9.773
   55MYC     C5 8242   1.453   2.878   9.920
   55MYC     C6 8243   1.585   2.825   9.978
   55MYC     C7 8244   1.570   2.809  10.131
   55MYC     C8 8245   1.533   2.936  10.210
   55MYC     C9 8246   1.537   2.903  10.360
   55MYC    C10 8247   1.478   3.008  10.456
   55MYC    C11 8248   1.474   2.958  10.602
   55MYC    C12 8249   1.343   2.889  10.644
   55MYC    C13 8250   1.336   2.853  10.793
   55MYC    C14 8251   1.220   2.914  10.874
   55MYC    C15 8252   1.209   2.857  11.016
   55MYC    C16 8253   1.073   2.884  11.083
   55MYC    C17 8254   1.059   3.031  11.120
   55MYC    C18 8255   0.952   3.115  11.055
   55MYC    C19 8256   0.943   3.082  11.202
   55MYC    C20 8257   1.666   2.891   9.466
   55MYC    C21 8258   1.559   2.901   9.357
   55MYC    C22 8259   1.617   2.878   9.216
   55MYC    C23 8260   1.533   2.926   9.097
   55MYC    C24 8261   1.606   2.915   8.962
   55MYC    C25 8262   1.501   2.896   8.851
   55MYC    C26 8263   1.575   2.868   8.719
   55MYC    C27 8264   1.495   2.906   8.593
   55MYC    C28 8265   1.558   2.851   8.464
   55MYC    C29 8266   1.468   2.874   8.343
   55MYC    C30 8267   1.531   2.815   8.216
   55MYC    C31 8268   1.453   2.840   8.085
   55MYC    C32 8269   1.525   2.778   7.964
   55MYC    C33 8270   1.462   2.823   7.831
   55MYC    C34 8271   1.539   2.760   7.713
   55MYC    C35 8272   1.513   2.822   7.575
   55MYC    C36 8273   1.572   2.752   7.452
   55MYC    C37 8274   1.513   2.801   7.318
   55MYC    C38 8275   1.605   2.785   7.195
   55MYC    C39 8276   1.544   2.843   7.067
   55MYC    C40 8277   1.631   2.830   6.941
   55MYC    C41 8278   1.542   2.831   6.815
   55MYC    C42 8279   1.630   2.829   6.688
   55MYC    C43 8280   1.538   2.830   6.565
   55MYC    C44 8281   0.983   3.259  11.016
   55MYC    C45 8282   0.941   3.301  10.874
   55MYC    C46 8283   0.995   3.213  10.759
   55MYC    C47 8284   0.935   3.257  10.625
   55MYC    C48 8285   0.987   3.179  10.503
   55MYC    C49 8286   0.901   3.205  10.378
   55MYC    C50 8287   0.995   3.177  10.260
   55MYC    C51 8288   0.932   3.208  10.123
   55MYC    C52 8289   1.029   3.181  10.006
   55MYC    C53 8290   0.975   3.199   9.863
   55MYC    C54 8291   1.072   3.150   9.754
   55MYC    C55 8292   1.016   3.169   9.612
   55MYC    C56 8293   1.055   3.065   9.505
   55MYC    C57 8294   1.020   3.120   9.366
   55MYC    C58 8295   1.022   3.008   9.262
   55MYC    C59 8296   1.149   3.001   9.181
   55MYC    C60 8297   1.021   3.046   9.116
   55MYC    C61 8298   0.940   2.968   9.013
   55MYC    C62 8299   0.999   2.983   8.872
   55MYC    C63 8300   0.913   2.896   8.779
   55MYC    C64 8301   0.964   2.912   8.635
   55MYC    C65 8302   0.884   2.828   8.534
   55MYC    C66 8303   0.950   2.820   8.395
   55MYC    C67 8304   0.948   2.947   8.307
   55MYC    C68 8305   0.970   2.930   8.156
   55MYC    C69 8306   0.931   3.052   8.070
   55MYC    C70 8307   1.016   3.063   7.942
   55MYC    C71 8308   0.961   3.155   7.832
   55MYC    C72 8309   1.061   3.249   7.761
   55MYC    C73 8310   0.988   3.315   7.643
   55MYC    C74 8311   1.014   3.241   7.510
   55MYC    C75 8312   0.958   3.311   7.385
   55MYC    C76 8313   0.985   3.232   7.256
   55MYC    C77 8314   0.899   3.269   7.134
   55MYC    C78 8315   0.927   3.179   7.013
   55MYC    C79 8316   0.875   3.235   6.879
   55MYC    C80 8317   0.943   3.163   6.761
   55MYC    C81 8318   1.735   2.781   9.680
   55MYC    O82 8319   1.766   2.664   9.695
   55MYC    O83 8320   1.829   2.875   9.703
   55MYC     H1 8321   1.568   2.732   9.560
   55MYC     H2 8322   1.438   2.933   9.588
   55MYC     H3 8323   1.647   3.051   9.674
   55MYC     H4 8324   1.318   2.853   9.759
   55MYC     H5 8325   1.438   2.734   9.758
   55MYC     H6 8326   1.455   2.987   9.932
   55MYC     H7 8327   1.371   2.845   9.985
   55MYC     H8 8328   1.621   2.733   9.932
   55MYC     H9 8329   1.666   2.897   9.962
   55MYC   0H10 8330   1.061   3.076  10.008
   55MYC   1H10 8331   0.874   3.157   9.853
   55MYC   2H10 8332   0.971   3.305   9.837
   55MYC   3H10 8333   1.166   3.204   9.769
   55MYC   4H10 8334   1.079   3.042   9.771
   55MYC   5H10 8335   0.907   3.176   9.619
   55MYC   6H10 8336   1.051   3.270   9.589
   55MYC   7H10 8337   1.162   3.043   9.518
   55MYC   8H10 8338   1.005   2.969   9.523
   55MYC   9H10 8339   0.918   3.159   9.363
   55MYC    H10 8340   1.494   2.730  10.138
   55MYC   0H11 8341   1.079   3.209   9.342
   55MYC   1H11 8342   0.965   2.920   9.289
   55MYC   2H11 8343   1.225   3.080   9.183
   55MYC   3H11 8344   1.196   2.908   9.150
   55MYC   4H11 8345   1.007   3.153   9.103
   55MYC   5H11 8346   0.941   2.863   9.045
   55MYC   6H11 8347   0.838   3.008   9.019
   55MYC   7H11 8348   0.999   3.087   8.838
   55MYC   8H11 8349   1.105   2.957   8.869
   55MYC   9H11 8350   0.916   2.790   8.805
   55MYC    H11 8351   1.666   2.769  10.163
   55MYC   0H12 8352   0.807   2.924   8.782
   55MYC   1H12 8353   0.959   3.020   8.614
   55MYC   2H12 8354   1.072   2.901   8.622
   55MYC   3H12 8355   0.871   2.725   8.568
   55MYC   4H12 8356   0.782   2.870   8.528
   55MYC   5H12 8357   1.054   2.792   8.411
   55MYC   6H12 8358   0.909   2.739   8.334
   55MYC   7H12 8359   0.853   2.998   8.329
   55MYC   8H12 8360   1.027   3.013   8.345
   55MYC   9H12 8361   1.078   2.915   8.144
   55MYC    H12 8362   1.591   3.025  10.183
   55MYC   0H13 8363   0.910   2.846   8.119
   55MYC   1H13 8364   0.824   3.040   8.050
   55MYC   2H13 8365   0.945   3.144   8.127
   55MYC   3H13 8366   1.117   3.099   7.968
   55MYC   4H13 8367   1.035   2.967   7.894
   55MYC   5H13 8368   0.922   3.086   7.756
   55MYC   6H13 8369   0.876   3.211   7.871
   55MYC   7H13 8370   1.093   3.317   7.840
   55MYC   8H13 8371   1.148   3.194   7.722
   55MYC   9H13 8372   0.882   3.335   7.658
   55MYC    H13 8373   1.431   2.969  10.190
   55MYC   0H14 8374   1.015   3.420   7.627
   55MYC   1H14 8375   1.123   3.230   7.502
   55MYC   2H14 8376   0.976   3.139   7.520
   55MYC   3H14 8377   0.851   3.324   7.405
   55MYC   4H14 8378   1.003   3.411   7.376
   55MYC   5H14 8379   1.092   3.246   7.237
   55MYC   6H14 8380   0.979   3.126   7.283
   55MYC   7H14 8381   0.792   3.270   7.156
   55MYC   8H14 8382   0.906   3.377   7.114
   55MYC   9H14 8383   1.035   3.167   7.001
   55MYC    H14 8384   1.488   2.807  10.378
   55MYC   0H15 8385   0.883   3.080   7.027
   55MYC   1H15 8386   0.765   3.240   6.878
   55MYC   2H15 8387   0.903   3.341   6.883
   55MYC   3H15 8388   0.928   3.054   6.770
   55MYC   4H15 8389   1.051   3.177   6.752
   55MYC   5H15 8390   0.891   3.182   6.666
   55MYC   6H15 8391   1.904   2.826   9.742
   55MYC    H15 8392   1.641   2.880  10.386
   55MYC    H16 8393   1.542   3.096  10.444
   55MYC    H17 8394   1.380   3.034  10.416
   55MYC    H18 8395   1.566   2.910  10.636
   55MYC    H19 8396   1.480   3.054  10.654
   55MYC    H20 8397   1.254   2.952  10.630
   55MYC    H21 8398   1.315   2.801  10.584
   55MYC    H22 8399   1.333   2.744  10.803
   55MYC    H23 8400   1.427   2.877  10.849
   55MYC    H24 8401   1.233   3.022  10.877
   55MYC    H25 8402   1.135   2.891  10.808
   55MYC    H26 8403   1.229   2.749  11.008
   55MYC    H27 8404   1.288   2.904  11.076
   55MYC    H28 8405   0.994   2.854  11.013
   55MYC    H29 8406   1.062   2.816  11.168
   55MYC    H30 8407   1.153   3.073  11.154
   55MYC    H31 8408   0.874   3.072  10.993
   55MYC    H32 8409   0.972   3.148  11.283
   55MYC    H33 8410   0.863   3.015  11.229
   55MYC    H34 8411   1.706   2.991   9.488
   55MYC    H35 8412   1.754   2.831   9.440
   55MYC    H36 8413   1.479   2.828   9.374
   55MYC    H37 8414   1.525   3.006   9.361
   55MYC    H38 8415   1.714   2.930   9.225
   55MYC    H39 8416   1.634   2.770   9.207
   55MYC    H40 8417   1.437   2.873   9.098
   55MYC    H41 8418   1.499   3.029   9.110
   55MYC    H42 8419   1.672   3.000   8.941
   55MYC    H43 8420   1.661   2.821   8.968
   55MYC    H44 8421   1.446   2.806   8.882
   55MYC    H45 8422   1.445   2.991   8.849
   55MYC    H46 8423   1.675   2.914   8.717
   55MYC    H47 8424   1.602   2.762   8.720
   55MYC    H48 8425   1.395   2.870   8.618
   55MYC    H49 8426   1.488   3.016   8.591
   55MYC    H50 8427   1.656   2.897   8.448
   55MYC    H51 8428   1.577   2.743   8.464
   55MYC    H52 8429   1.373   2.826   8.369
   55MYC    H53 8430   1.450   2.981   8.327
   55MYC    H54 8431   1.631   2.859   8.203
   55MYC    H55 8432   1.551   2.709   8.234
   55MYC    H56 8433   1.349   2.805   8.081
   55MYC    H57 8434   1.432   2.945   8.061
   55MYC    H58 8435   1.630   2.810   7.972
   55MYC    H59 8436   1.511   2.670   7.969
   55MYC    H60 8437   1.356   2.795   7.825
   55MYC    H61 8438   1.465   2.931   7.811
   55MYC    H62 8439   1.647   2.760   7.732
   55MYC    H63 8440   1.507   2.655   7.710
   55MYC    H64 8441   1.405   2.832   7.564
   55MYC    H65 8442   1.557   2.922   7.583
   55MYC    H66 8443   1.680   2.773   7.451
   55MYC    H67 8444   1.561   2.643   7.464
   55MYC    H68 8445   1.416   2.751   7.307
   55MYC    H69 8446   1.492   2.908   7.325
   55MYC    H70 8447   1.698   2.835   7.224
   55MYC    H71 8448   1.630   2.681   7.169
   55MYC    H72 8449   1.444   2.802   7.046
   55MYC    H73 8450   1.529   2.950   7.084
   55MYC    H74 8451   1.712   2.903   6.930
   55MYC    H75 8452   1.681   2.732   6.940
   55MYC    H76 8453   1.474   2.745   6.808
   55MYC    H77 8454   1.480   2.920   6.808
   55MYC    H78 8455   1.705   2.909   6.690
   55MYC    H79 8456   1.684   2.735   6.699
   55MYC    H80 8457   1.597   2.808   6.475
   55MYC    H81 8458   1.509   2.936   6.556
   55MYC    H82 8459   1.449   2.767   6.572
   55MYC    H83 8460   0.947   3.330  11.092
   55MYC    H84 8461   1.092   3.266  11.019
   55MYC    H85 8462   0.832   3.298  10.868
   55MYC    H86 8463   0.976   3.404  10.863
   55MYC    H87 8464   1.104   3.216  10.748
   55MYC    H88 8465   0.967   3.108  10.772
   55MYC    H89 8466   0.826   3.270  10.634
   55MYC    H90 8467   0.959   3.362  10.603
   55MYC    H91 8468   1.092   3.204  10.486
   55MYC    H92 8469   0.982   3.072  10.524
   55MYC    H93 8470   0.811   3.143  10.371
   55MYC    H94 8471   0.868   3.308  10.360
   55MYC    H95 8472   1.093   3.225  10.268
   55MYC    H96 8473   1.012   3.069  10.261
   55MYC    H97 8474   0.843   3.145  10.108
   55MYC    H98 8475   0.900   3.313  10.123
   55MYC    H99 8476   1.118   3.244  10.010
   56MYC     C1 8477   2.187   2.956   9.427
   56MYC     C2 8478   2.070   3.045   9.471
   56MYC     O3 8479   2.048   3.151   9.378
   56MYC     C4 8480   2.083   3.087   9.618
   56MYC     C5 8481   2.157   3.218   9.651
   56MYC     C6 8482   2.226   3.230   9.788
   56MYC     C7 8483   2.139   3.219   9.914
   56MYC     C8 8484   2.093   3.076   9.947
   56MYC     C9 8485   2.034   3.053  10.087
   56MYC    C10 8486   2.131   3.083  10.202
   56MYC    C11 8487   2.085   3.026  10.337
   56MYC    C12 8488   2.134   3.109  10.457
   56MYC    C13 8489   2.118   3.023  10.584
   56MYC    C14 8490   2.110   3.107  10.712
   56MYC    C15 8491   2.084   3.031  10.843
   56MYC    C16 8492   2.059   3.116  10.969
   56MYC    C17 8493   2.184   3.186  11.021
   56MYC    C18 8494   2.161   3.319  11.088
   56MYC    C19 8495   2.198   3.198  11.171
   56MYC    C20 8496   2.144   2.899   9.291
   56MYC    C21 8497   2.049   2.779   9.289
   56MYC    C22 8498   2.060   2.688   9.165
   56MYC    C23 8499   2.062   2.769   9.034
   56MYC    C24 8500   2.069   2.682   8.907
   56MYC    C25 8501   2.091   2.778   8.789
   56MYC    C26 8502   2.063   2.704   8.657
   56MYC    C27 8503   2.089   2.803   8.542
   56MYC    C28 8504   2.032   2.759   8.406
   56MYC    C29 8505   2.062   2.859   8.293
   56MYC    C30 8506   2.013   2.808   8.156
   56MYC    C31 8507   2.066   2.896   8.042
   56MYC    C32 8508   2.023   2.843   7.904
   56MYC    C33 8509   2.086   2.925   7.790
   56MYC    C34 8510   2.032   2.882   7.653
   56MYC    C35 8511   2.040   2.976   7.531
   56MYC    C36 8512   2.007   2.896   7.404
   56MYC    C37 8513   2.013   2.980   7.276
   56MYC    C38 8514   2.002   2.894   7.148
   56MYC    C39 8515   2.040   2.972   7.021
   56MYC    C40 8516   2.037   2.876   6.901
   56MYC    C41 8517   2.044   2.948   6.765
   56MYC    C42 8518   2.035   2.850   6.647
   56MYC    C43 8519   1.998   2.921   6.516
   56MYC    C44 8520   2.264   3.430  11.071
   56MYC    C45 8521   2.227   3.539  10.969
   56MYC    C46 8522   2.162   3.492  10.837
   56MYC    C47 8523   2.167   3.595  10.723
   56MYC    C48 8524   2.115   3.542  10.589
   56MYC    C49 8525   2.142   3.632  10.467
   56MYC    C50 8526   2.067   3.597  10.337
   56MYC    C51 8527   2.116   3.677  10.216
   56MYC    C52 8528   2.069   3.618  10.081
   56MYC    C53 8529   2.127   3.687   9.957
   56MYC    C54 8530   2.093   3.614   9.825
   56MYC    C55 8531   2.120   3.705   9.704
   56MYC    C56 8532   2.094   3.623   9.576
   56MYC    C57 8533   2.116   3.704   9.447
   56MYC    C58 8534   2.047   3.633   9.331
   56MYC    C59 8535   2.112   3.534   9.237
   56MYC    C60 8536   2.082   3.675   9.191
   56MYC    C61 8537   1.979   3.692   9.080
   56MYC    C62 8538   2.031   3.623   8.953
   56MYC    C63 8539   1.956   3.662   8.824
   56MYC    C64 8540   1.997   3.578   8.702
   56MYC    C65 8541   1.921   3.621   8.576
   56MYC    C66 8542   1.967   3.537   8.456
   56MYC    C67 8543   1.902   3.582   8.324
   56MYC    C68 8544   1.985   3.521   8.210
   56MYC    C69 8545   1.909   3.542   8.078
   56MYC    C70 8546   1.957   3.454   7.961
   56MYC    C71 8547   1.927   3.521   7.826
   56MYC    C72 8548   1.955   3.428   7.706
   56MYC    C73 8549   1.944   3.494   7.567
   56MYC    C74 8550   1.981   3.404   7.447
   56MYC    C75 8551   2.003   3.491   7.323
   56MYC    C76 8552   2.018   3.404   7.197
   56MYC    C77 8553   2.059   3.470   7.064
   56MYC    C78 8554   2.030   3.388   6.937
   56MYC    C79 8555   2.079   3.456   6.808
   56MYC    C80 8556   2.036   3.378   6.683
   56MYC    C81 8557   2.328   3.015   9.433
   56MYC    O82 8558   2.401   3.038   9.338
   56MYC    O83 8559   2.381   3.017   9.557
   56MYC     H1 8560   2.192   2.870   9.495
   56MYC     H2 8561   1.978   2.986   9.475
   56MYC     H3 8562   2.036   3.241   9.414
   56MYC     H4 8563   1.982   3.087   9.661
   56MYC     H5 8564   2.139   3.009   9.672
   56MYC     H6 8565   2.223   3.246   9.567
   56MYC     H7 8566   2.094   3.306   9.632
   56MYC     H8 8567   2.311   3.160   9.787
   56MYC     H9 8568   2.278   3.326   9.793
   56MYC   0H10 8569   1.960   3.624  10.073
   56MYC   1H10 8570   2.093   3.791   9.954
   56MYC   2H10 8571   2.237   3.678   9.960
   56MYC   3H10 8572   2.166   3.532   9.827
   56MYC   4H10 8573   1.994   3.567   9.829
   56MYC   5H10 8574   2.053   3.792   9.706
   56MYC   6H10 8575   2.223   3.742   9.699
   56MYC   7H10 8576   2.154   3.532   9.580
   56MYC   8H10 8577   1.990   3.589   9.581
   56MYC   9H10 8578   2.079   3.807   9.447
   56MYC    H10 8579   2.201   3.261   9.994
   56MYC   0H11 8580   2.223   3.706   9.423
   56MYC   1H11 8581   1.942   3.616   9.349
   56MYC   2H11 8582   2.211   3.496   9.260
   56MYC   3H11 8583   2.047   3.454   9.203
   56MYC   4H11 8584   2.174   3.729   9.168
   56MYC   5H11 8585   1.883   3.648   9.111
   56MYC   6H11 8586   1.959   3.799   9.068
   56MYC   7H11 8587   2.139   3.643   8.947
   56MYC   8H11 8588   2.012   3.515   8.961
   56MYC   9H11 8589   1.853   3.630   8.843
   56MYC    H11 8590   2.049   3.283   9.915
   56MYC   0H12 8591   1.953   3.769   8.803
   56MYC   1H12 8592   2.105   3.591   8.685
   56MYC   2H12 8593   1.978   3.471   8.720
   56MYC   3H12 8594   1.816   3.598   8.599
   56MYC   4H12 8595   1.934   3.728   8.553
   56MYC   5H12 8596   2.072   3.561   8.440
   56MYC   6H12 8597   1.949   3.430   8.476
   56MYC   7H12 8598   1.796   3.553   8.323
   56MYC   8H12 8599   1.902   3.691   8.318
   56MYC   9H12 8600   2.089   3.556   8.205
   56MYC    H12 8601   2.020   3.038   9.874
   56MYC   0H13 8602   2.014   3.416   8.224
   56MYC   1H13 8603   1.805   3.518   8.101
   56MYC   2H13 8604   1.911   3.646   8.044
   56MYC   3H13 8605   2.064   3.432   7.973
   56MYC   4H13 8606   1.905   3.358   7.974
   56MYC   5H13 8607   1.825   3.558   7.836
   56MYC   6H13 8608   1.989   3.611   7.824
   56MYC   7H13 8609   2.049   3.373   7.719
   56MYC   8H13 8610   1.873   3.356   7.708
   56MYC   9H13 8611   1.848   3.545   7.555
   56MYC    H13 8612   2.181   3.012   9.943
   56MYC   0H14 8613   2.020   3.573   7.564
   56MYC   1H14 8614   2.070   3.345   7.469
   56MYC   2H14 8615   1.898   3.333   7.434
   56MYC   3H14 8616   1.917   3.557   7.307
   56MYC   4H14 8617   2.088   3.561   7.332
   56MYC   5H14 8618   2.082   3.317   7.216
   56MYC   6H14 8619   1.924   3.349   7.185
   56MYC   7H14 8620   2.013   3.568   7.048
   56MYC   8H14 8621   2.167   3.492   7.061
   56MYC   9H14 8622   2.062   3.283   6.943
   56MYC    H14 8623   1.947   3.119  10.099
   56MYC   0H15 8624   1.921   3.391   6.931
   56MYC   1H15 8625   2.058   3.563   6.795
   56MYC   2H15 8626   2.188   3.453   6.812
   56MYC   3H15 8627   1.927   3.388   6.671
   56MYC   4H15 8628   2.071   3.274   6.692
   56MYC   5H15 8629   2.078   3.418   6.590
   56MYC   6H15 8630   2.465   3.066   9.548
   56MYC    H15 8631   2.010   2.948  10.107
   56MYC    H16 8632   2.235   3.055  10.178
   56MYC    H17 8633   2.134   3.192  10.212
   56MYC    H18 8634   1.976   3.017  10.342
   56MYC    H19 8635   2.125   2.925  10.353
   56MYC    H20 8636   2.237   3.136  10.433
   56MYC    H21 8637   2.073   3.200  10.462
   56MYC    H22 8638   2.024   2.967  10.577
   56MYC    H23 8639   2.193   2.944  10.599
   56MYC    H24 8640   2.214   3.141  10.723
   56MYC    H25 8641   2.038   3.190  10.704
   56MYC    H26 8642   2.002   2.959  10.834
   56MYC    H27 8643   2.169   2.962  10.857
   56MYC    H28 8644   1.987   3.194  10.941
   56MYC    H29 8645   2.019   3.050  11.047
   56MYC    H30 8646   2.266   3.188  10.951
   56MYC    H31 8647   2.061   3.357  11.109
   56MYC    H32 8648   2.296   3.186  11.216
   56MYC    H33 8649   2.113   3.150  11.218
   56MYC    H34 8650   2.100   2.971   9.220
   56MYC    H35 8651   2.238   2.877   9.237
   56MYC    H36 8652   2.055   2.718   9.380
   56MYC    H37 8653   1.947   2.819   9.289
   56MYC    H38 8654   2.148   2.623   9.179
   56MYC    H39 8655   1.984   2.610   9.164
   56MYC    H40 8656   1.967   2.823   9.028
   56MYC    H41 8657   2.146   2.839   9.028
   56MYC    H42 8658   2.150   2.609   8.910
   56MYC    H43 8659   1.974   2.631   8.892
   56MYC    H44 8660   2.021   2.862   8.790
   56MYC    H45 8661   2.193   2.819   8.793
   56MYC    H46 8662   2.129   2.617   8.646
   56MYC    H47 8663   1.957   2.683   8.640
   56MYC    H48 8664   2.050   2.902   8.565
   56MYC    H49 8665   2.198   2.812   8.532
   56MYC    H50 8666   2.083   2.664   8.388
   56MYC    H51 8667   1.924   2.743   8.418
   56MYC    H52 8668   2.014   2.954   8.316
   56MYC    H53 8669   2.169   2.885   8.292
   56MYC    H54 8670   2.050   2.706   8.142
   56MYC    H55 8671   1.903   2.806   8.157
   56MYC    H56 8672   2.017   2.993   8.060
   56MYC    H57 8673   2.174   2.911   8.045
   56MYC    H58 8674   2.039   2.736   7.888
   56MYC    H59 8675   1.914   2.847   7.897
   56MYC    H60 8676   2.062   3.030   7.808
   56MYC    H61 8677   2.196   2.915   7.793
   56MYC    H62 8678   2.085   2.793   7.617
   56MYC    H63 8679   1.927   2.853   7.663
   56MYC    H64 8680   1.982   3.066   7.552
   56MYC    H65 8681   2.138   3.026   7.528
   56MYC    H66 8682   2.070   2.807   7.395
   56MYC    H67 8683   1.905   2.855   7.417
   56MYC    H68 8684   1.935   3.057   7.268
   56MYC    H69 8685   2.105   3.038   7.291
   56MYC    H70 8686   2.065   2.806   7.161
   56MYC    H71 8687   1.905   2.845   7.132
   56MYC    H72 8688   1.977   3.061   7.006
   56MYC    H73 8689   2.141   3.014   7.034
   56MYC    H74 8690   2.117   2.801   6.907
   56MYC    H75 8691   1.942   2.822   6.906
   56MYC    H76 8692   1.962   3.020   6.768
   56MYC    H77 8693   2.135   3.009   6.761
   56MYC    H78 8694   2.134   2.804   6.633
   56MYC    H79 8695   1.951   2.783   6.668
   56MYC    H80 8696   1.974   2.849   6.437
   56MYC    H81 8697   2.084   2.974   6.474
   56MYC    H82 8698   1.924   3.001   6.528
   56MYC    H83 8699   2.273   3.478  11.169
   56MYC    H84 8700   2.359   3.379  11.051
   56MYC    H85 8701   2.148   3.610  10.998
   56MYC    H86 8702   2.319   3.598  10.956
   56MYC    H87 8703   2.214   3.399  10.810
   56MYC    H88 8704   2.057   3.474  10.866
   56MYC    H89 8705   2.120   3.690  10.752
   56MYC    H90 8706   2.272   3.619  10.704
   56MYC    H91 8707   2.152   3.442  10.564
   56MYC    H92 8708   2.006   3.529  10.596
   56MYC    H93 8709   2.121   3.739  10.481
   56MYC    H94 8710   2.249   3.622  10.446
   56MYC    H95 8711   2.054   3.492  10.310
   56MYC    H96 8712   1.960   3.618  10.349
   56MYC    H97 8713   2.075   3.778  10.230
   56MYC    H98 8714   2.225   3.678  10.209
   56MYC    H99 8715   2.091   3.510  10.080
   57MYC     C1 8716   2.734   3.098   9.581
   57MYC     C2 8717   2.814   3.225   9.615
   57MYC     O3 8718   2.952   3.202   9.642
   57MYC     C4 8719   2.742   3.293   9.733
   57MYC     C5 8720   2.786   3.252   9.875
   57MYC     C6 8721   2.667   3.193   9.953
   57MYC     C7 8722   2.690   3.201  10.105
   57MYC     C8 8723   2.597   3.107  10.184
   57MYC     C9 8724   2.603   3.111  10.338
   57MYC    C10 8725   2.515   3.002  10.402
   57MYC    C11 8726   2.520   3.010  10.555
   57MYC    C12 8727   2.653   2.959  10.614
   57MYC    C13 8728   2.644   2.947  10.768
   57MYC    C14 8729   2.775   2.890  10.825
   57MYC    C15 8730   2.777   2.870  10.977
   57MYC    C16 8731   2.760   2.998  11.060
   57MYC    C17 8732   2.869   3.104  11.052
   57MYC    C18 8733   2.875   3.196  10.933
   57MYC    C19 8734   2.827   3.248  11.066
   57MYC    C20 8735   2.764   3.032   9.446
   57MYC    C21 8736   2.750   3.124   9.323
   57MYC    C22 8737   2.786   3.036   9.202
   57MYC    C23 8738   2.770   3.123   9.076
   57MYC    C24 8739   2.789   3.038   8.949
   57MYC    C25 8740   2.791   3.122   8.820
   57MYC    C26 8741   2.761   3.035   8.697
   57MYC    C27 8742   2.784   3.115   8.567
   57MYC    C28 8743   2.724   3.045   8.444
   57MYC    C29 8744   2.730   3.118   8.308
   57MYC    C30 8745   2.647   3.047   8.200
   57MYC    C31 8746   2.642   3.131   8.071
   57MYC    C32 8747   2.619   3.054   7.939
   57MYC    C33 8748   2.600   3.141   7.814
   57MYC    C34 8749   2.578   3.052   7.690
   57MYC    C35 8750   2.564   3.116   7.551
   57MYC    C36 8751   2.553   3.006   7.445
   57MYC    C37 8752   2.555   3.051   7.298
   57MYC    C38 8753   2.513   2.941   7.199
   57MYC    C39 8754   2.529   2.968   7.049
   57MYC    C40 8755   2.467   2.855   6.965
   57MYC    C41 8756   2.497   2.870   6.815
   57MYC    C42 8757   2.389   2.820   6.717
   57MYC    C43 8758   2.447   2.778   6.581
   57MYC    C44 8759   3.013   3.214  10.871
   57MYC    C45 8760   3.025   3.341  10.785
   57MYC    C46 8761   2.991   3.305  10.639
   57MYC    C47 8762   3.029   3.414  10.538
   57MYC    C48 8763   3.001   3.378  10.391
   57MYC    C49 8764   3.062   3.480  10.293
   57MYC    C50 8765   3.032   3.454  10.144
   57MYC    C51 8766   3.128   3.539  10.058
   57MYC    C52 8767   3.088   3.503   9.914
   57MYC    C53 8768   3.158   3.580   9.801
   57MYC    C54 8769   3.096   3.543   9.665
   57MYC    C55 8770   3.162   3.619   9.549
   57MYC    C56 8771   3.080   3.584   9.424
   57MYC    C57 8772   3.129   3.662   9.301
   57MYC    C58 8773   3.058   3.626   9.172
   57MYC    C59 8774   3.067   3.485   9.119
   57MYC    C60 8775   3.136   3.598   9.046
   57MYC    C61 8776   3.079   3.677   8.929
   57MYC    C62 8777   3.149   3.650   8.795
   57MYC    C63 8778   3.049   3.643   8.679
   57MYC    C64 8779   3.120   3.635   8.543
   57MYC    C65 8780   3.022   3.586   8.434
   57MYC    C66 8781   3.106   3.528   8.319
   57MYC    C67 8782   3.023   3.526   8.189
   57MYC    C68 8783   3.104   3.451   8.081
   57MYC    C69 8784   3.034   3.466   7.945
   57MYC    C70 8785   3.086   3.371   7.836
   57MYC    C71 8786   3.003   3.401   7.710
   57MYC    C72 8787   3.060   3.327   7.588
   57MYC    C73 8788   2.984   3.365   7.459
   57MYC    C74 8789   3.022   3.292   7.330
   57MYC    C75 8790   2.955   3.345   7.201
   57MYC    C76 8791   3.025   3.285   7.077
   57MYC    C77 8792   2.988   3.372   6.955
   57MYC    C78 8793   3.045   3.312   6.825
   57MYC    C79 8794   3.021   3.404   6.704
   57MYC    C80 8795   3.110   3.529   6.706
   57MYC    C81 8796   2.746   2.990   9.688
   57MYC    O82 8797   2.847   2.926   9.710
   57MYC    O83 8798   2.626   2.946   9.732
   57MYC     H1 8799   2.629   3.129   9.569
   57MYC     H2 8800   2.801   3.301   9.537
   57MYC     H3 8801   2.986   3.280   9.689
   57MYC     H4 8802   2.763   3.400   9.727
   57MYC     H5 8803   2.634   3.280   9.725
   57MYC     H6 8804   2.863   3.175   9.868
   57MYC     H7 8805   2.823   3.340   9.928
   57MYC     H8 8806   2.572   3.247   9.939
   57MYC     H9 8807   2.645   3.088   9.934
   57MYC   0H10 8808   2.982   3.519   9.891
   57MYC   1H10 8809   3.142   3.687   9.814
   57MYC   2H10 8810   3.266   3.565   9.785
   57MYC   3H10 8811   3.096   3.434   9.654
   57MYC   4H10 8812   2.991   3.573   9.678
   57MYC   5H10 8813   3.177   3.727   9.564
   57MYC   6H10 8814   3.269   3.594   9.540
   57MYC   7H10 8815   3.103   3.479   9.402
   57MYC   8H10 8816   2.972   3.598   9.435
   57MYC   9H10 8817   3.121   3.770   9.320
   57MYC    H10 8818   2.796   3.183  10.128
   57MYC   0H11 8819   3.234   3.653   9.272
   57MYC   1H11 8820   2.952   3.652   9.176
   57MYC   2H11 8821   3.125   3.408   9.171
   57MYC   3H11 8822   2.971   3.444   9.089
   57MYC   4H11 8823   3.244   3.608   9.054
   57MYC   5H11 8824   2.970   3.672   8.919
   57MYC   6H11 8825   3.109   3.780   8.952
   57MYC   7H11 8826   3.223   3.729   8.776
   57MYC   8H11 8827   3.209   3.559   8.798
   57MYC   9H11 8828   2.980   3.559   8.692
   57MYC    H11 8829   2.668   3.304  10.139
   57MYC   0H12 8830   2.978   3.726   8.668
   57MYC   1H12 8831   3.169   3.726   8.507
   57MYC   2H12 8832   3.198   3.557   8.544
   57MYC   3H12 8833   2.950   3.514   8.474
   57MYC   4H12 8834   2.966   3.677   8.408
   57MYC   5H12 8835   3.192   3.592   8.293
   57MYC   6H12 8836   3.140   3.428   8.344
   57MYC   7H12 8837   2.923   3.490   8.216
   57MYC   8H12 8838   3.013   3.628   8.150
   57MYC   9H12 8839   3.208   3.484   8.073
   57MYC    H12 8840   2.495   3.128  10.151
   57MYC   0H13 8841   3.096   3.344   8.103
   57MYC   1H13 8842   2.927   3.451   7.964
   57MYC   2H13 8843   3.039   3.572   7.916
   57MYC   3H13 8844   3.195   3.374   7.824
   57MYC   4H13 8845   3.059   3.270   7.869
   57MYC   5H13 8846   2.899   3.373   7.733
   57MYC   6H13 8847   3.005   3.510   7.694
   57MYC   7H13 8848   3.169   3.337   7.580
   57MYC   8H13 8849   3.040   3.220   7.604
   57MYC   9H13 8850   2.876   3.353   7.475
   57MYC    H13 8851   2.632   3.008  10.152
   57MYC   0H14 8852   3.006   3.471   7.446
   57MYC   1H14 8853   3.129   3.302   7.308
   57MYC   2H14 8854   2.993   3.186   7.332
   57MYC   3H14 8855   2.847   3.333   7.194
   57MYC   4H14 8856   2.981   3.451   7.210
   57MYC   5H14 8857   3.132   3.277   7.096
   57MYC   6H14 8858   2.995   3.182   7.055
   57MYC   7H14 8859   2.882   3.397   6.944
   57MYC   8H14 8860   3.028   3.473   6.968
   57MYC   9H14 8861   3.152   3.289   6.825
   57MYC    H14 8862   2.705   3.086  10.369
   57MYC   0H15 8863   3.003   3.211   6.817
   57MYC   1H15 8864   3.047   3.351   6.611
   57MYC   2H15 8865   2.913   3.425   6.705
   57MYC   3H15 8866   3.209   3.482   6.711
   57MYC   4H15 8867   3.088   3.590   6.795
   57MYC   5H15 8868   3.086   3.584   6.614
   57MYC   6H15 8869   2.640   2.865   9.783
   57MYC    H15 8870   2.572   3.206  10.382
   57MYC    H16 8871   2.412   3.006  10.365
   57MYC    H17 8872   2.537   2.902  10.364
   57MYC    H18 8873   2.492   3.110  10.591
   57MYC    H19 8874   2.440   2.942  10.586
   57MYC    H20 8875   2.682   2.865  10.567
   57MYC    H21 8876   2.740   3.021  10.591
   57MYC    H22 8877   2.625   3.045  10.814
   57MYC    H23 8878   2.551   2.892  10.788
   57MYC    H24 8879   2.782   2.789  10.782
   57MYC    H25 8880   2.859   2.955  10.796
   57MYC    H26 8881   2.690   2.810  11.007
   57MYC    H27 8882   2.864   2.816  11.017
   57MYC    H28 8883   2.661   3.044  11.054
   57MYC    H29 8884   2.748   2.975  11.167
   57MYC    H30 8885   2.959   3.087  11.111
   57MYC    H31 8886   2.804   3.173  10.854
   57MYC    H32 8887   2.890   3.323  11.114
   57MYC    H33 8888   2.724   3.282  11.071
   57MYC    H34 8889   2.865   2.989   9.450
   57MYC    H35 8890   2.692   2.950   9.439
   57MYC    H36 8891   2.644   3.153   9.321
   57MYC    H37 8892   2.814   3.213   9.332
   57MYC    H38 8893   2.885   2.990   9.206
   57MYC    H39 8894   2.709   2.958   9.197
   57MYC    H40 8895   2.673   3.174   9.078
   57MYC    H41 8896   2.844   3.203   9.079
   57MYC    H42 8897   2.885   2.984   8.954
   57MYC    H43 8898   2.708   2.964   8.946
   57MYC    H44 8899   2.722   3.206   8.830
   57MYC    H45 8900   2.887   3.172   8.802
   57MYC    H46 8901   2.809   2.937   8.703
   57MYC    H47 8902   2.657   3.001   8.704
   57MYC    H48 8903   2.736   3.213   8.577
   57MYC    H49 8904   2.890   3.132   8.546
   57MYC    H50 8905   2.760   2.943   8.432
   57MYC    H51 8906   2.617   3.051   8.465
   57MYC    H52 8907   2.695   3.222   8.318
   57MYC    H53 8908   2.837   3.109   8.288
   57MYC    H54 8909   2.700   2.952   8.191
   57MYC    H55 8910   2.549   3.028   8.246
   57MYC    H56 8911   2.563   3.207   8.080
   57MYC    H57 8912   2.735   3.187   8.060
   57MYC    H58 8913   2.703   2.990   7.909
   57MYC    H59 8914   2.530   2.992   7.957
   57MYC    H60 8915   2.522   3.215   7.833
   57MYC    H61 8916   2.695   3.194   7.801
   57MYC    H62 8917   2.662   2.982   7.680
   57MYC    H63 8918   2.486   2.998   7.718
   57MYC    H64 8919   2.485   3.191   7.543
   57MYC    H65 8920   2.654   3.178   7.534
   57MYC    H66 8921   2.632   2.931   7.460
   57MYC    H67 8922   2.463   2.945   7.458
   57MYC    H68 8923   2.493   3.140   7.279
   57MYC    H69 8924   2.654   3.088   7.269
   57MYC    H70 8925   2.578   2.855   7.221
   57MYC    H71 8926   2.410   2.908   7.218
   57MYC    H72 8927   2.465   3.052   7.019
   57MYC    H73 8928   2.633   2.988   7.019
   57MYC    H74 8929   2.515   2.761   6.995
   57MYC    H75 8930   2.360   2.849   6.989
   57MYC    H76 8931   2.509   2.977   6.793
   57MYC    H77 8932   2.595   2.828   6.791
   57MYC    H78 8933   2.333   2.740   6.766
   57MYC    H79 8934   2.324   2.906   6.696
   57MYC    H80 8935   2.375   2.773   6.498
   57MYC    H81 8936   2.483   2.676   6.602
   57MYC    H82 8937   2.524   2.846   6.541
   57MYC    H83 8938   3.073   3.230  10.962
   57MYC    H84 8939   3.043   3.121  10.823
   57MYC    H85 8940   2.955   3.420  10.815
   57MYC    H86 8941   3.129   3.373  10.797
   57MYC    H87 8942   3.047   3.214  10.615
   57MYC    H88 8943   2.884   3.284  10.646
   57MYC    H89 8944   2.964   3.496  10.569
   57MYC    H90 8945   3.133   3.439  10.560
   57MYC    H91 8946   3.036   3.276  10.375
   57MYC    H92 8947   2.892   3.384  10.378
   57MYC    H93 8948   3.033   3.582  10.324
   57MYC    H94 8949   3.170   3.468  10.308
   57MYC    H95 8950   3.050   3.352  10.109
   57MYC    H96 8951   2.933   3.490  10.115
   57MYC    H97 8952   3.100   3.645  10.063
   57MYC    H98 8953   3.236   3.533  10.077
   57MYC    H99 8954   3.112   3.396   9.907
   58MYC     C1 8955   3.367   3.045   9.543
   58MYC     C2 8956   3.373   2.932   9.647
   58MYC     O3 8957   3.366   2.806   9.582
   58MYC     C4 8958   3.274   2.951   9.763
   58MYC     C5 8959   3.264   3.087   9.834
   58MYC     C6 8960   3.383   3.129   9.921
   58MYC     C7 8961   3.413   3.024  10.029
   58MYC     C8 8962   3.486   3.080  10.152
   58MYC     C9 8963   3.496   2.981  10.270
   58MYC    C10 8964   3.556   3.049  10.394
   58MYC    C11 8965   3.499   2.988  10.523
   58MYC    C12 8966   3.472   3.096  10.629
   58MYC    C13 8967   3.404   3.046  10.757
   58MYC    C14 8968   3.420   3.149  10.870
   58MYC    C15 8969   3.349   3.091  10.994
   58MYC    C16 8970   3.364   3.169  11.126
   58MYC    C17 8971   3.500   3.229  11.161
   58MYC    C18 8972   3.535   3.375  11.166
   58MYC    C19 8973   3.500   3.302  11.293
   58MYC    C20 8974   3.453   3.011   9.420
   58MYC    C21 8975   3.484   3.125   9.321
   58MYC    C22 8976   3.600   3.082   9.229
   58MYC    C23 8977   3.577   3.124   9.083
   58MYC    C24 8978   3.674   3.085   8.970
   58MYC    C25 8979   3.660   3.171   8.843
   58MYC    C26 8980   3.737   3.117   8.721
   58MYC    C27 8981   3.638   3.079   8.610
   58MYC    C28 8982   3.710   3.076   8.474
   58MYC    C29 8983   3.620   3.050   8.352
   58MYC    C30 8984   3.702   3.055   8.221
   58MYC    C31 8985   3.633   3.013   8.090
   58MYC    C32 8986   3.720   3.022   7.964
   58MYC    C33 8987   3.645   2.995   7.832
   58MYC    C34 8988   3.737   3.034   7.715
   58MYC    C35 8989   3.667   3.044   7.578
   58MYC    C36 8990   3.759   3.082   7.461
   58MYC    C37 8991   3.689   3.075   7.325
   58MYC    C38 8992   3.780   3.113   7.207
   58MYC    C39 8993   3.718   3.124   7.067
   58MYC    C40 8994   3.820   3.160   6.958
   58MYC    C41 8995   3.774   3.133   6.814
   58MYC    C42 8996   3.864   3.199   6.708
   58MYC    C43 8997   3.836   3.180   6.558
   58MYC    C44 8998   3.681   3.417  11.156
   58MYC    C45 8999   3.732   3.488  11.029
   58MYC    C46 9000   3.691   3.414  10.901
   58MYC    C47 9001   3.756   3.469  10.773
   58MYC    C48 9002   3.697   3.423  10.639
   58MYC    C49 9003   3.781   3.470  10.519
   58MYC    C50 9004   3.699   3.466  10.388
   58MYC    C51 9005   3.780   3.456  10.257
   58MYC    C52 9006   3.694   3.505  10.139
   58MYC    C53 9007   3.749   3.458  10.004
   58MYC    C54 9008   3.695   3.542   9.886
   58MYC    C55 9009   3.767   3.508   9.755
   58MYC    C56 9010   3.678   3.565   9.643
   58MYC    C57 9011   3.741   3.550   9.503
   58MYC    C58 9012   3.661   3.620   9.395
   58MYC    C59 9013   3.539   3.546   9.347
   58MYC    C60 9014   3.659   3.558   9.257
   58MYC    C61 9015   3.650   3.648   9.135
   58MYC    C62 9016   3.627   3.560   9.011
   58MYC    C63 9017   3.622   3.639   8.879
   58MYC    C64 9018   3.626   3.538   8.763
   58MYC    C65 9019   3.651   3.601   8.625
   58MYC    C66 9020   3.647   3.498   8.511
   58MYC    C67 9021   3.667   3.576   8.379
   58MYC    C68 9022   3.677   3.478   8.261
   58MYC    C69 9023   3.681   3.556   8.128
   58MYC    C70 9024   3.675   3.470   8.001
   58MYC    C71 9025   3.674   3.550   7.870
   58MYC    C72 9026   3.627   3.469   7.747
   58MYC    C73 9027   3.678   3.548   7.625
   58MYC    C74 9028   3.644   3.481   7.492
   58MYC    C75 9029   3.673   3.570   7.370
   58MYC    C76 9030   3.629   3.510   7.236
   58MYC    C77 9031   3.668   3.593   7.112
   58MYC    C78 9032   3.628   3.514   6.987
   58MYC    C79 9033   3.657   3.583   6.853
   58MYC    C80 9034   3.586   3.518   6.733
   58MYC    C81 9035   3.229   3.091   9.498
   58MYC    O82 9036   3.197   3.206   9.474
   58MYC    O83 9037   3.144   2.987   9.478
   58MYC     H1 9038   3.407   3.128   9.601
   58MYC     H2 9039   3.468   2.935   9.702
   58MYC     H3 9040   3.359   2.823   9.487
   58MYC     H4 9041   3.176   2.921   9.726
   58MYC     H5 9042   3.289   2.870   9.836
   58MYC     H6 9043   3.236   3.161   9.758
   58MYC     H7 9044   3.180   3.076   9.905
   58MYC     H8 9045   3.472   3.156   9.862
   58MYC     H9 9046   3.357   3.221   9.977
   58MYC   0H10 9047   3.685   3.614  10.140
   58MYC   1H10 9048   3.858   3.452   9.992
   58MYC   2H10 9049   3.711   3.356   9.994
   58MYC   3H10 9050   3.585   3.533   9.885
   58MYC   4H10 9051   3.723   3.647   9.894
   58MYC   5H10 9052   3.867   3.551   9.747
   58MYC   6H10 9053   3.781   3.401   9.736
   58MYC   7H10 9054   3.579   3.520   9.639
   58MYC   8H10 9055   3.670   3.675   9.648
   58MYC   9H10 9056   3.839   3.598   9.504
   58MYC    H10 9057   3.317   2.979  10.059
   58MYC   0H11 9058   3.760   3.443   9.491
   58MYC   1H11 9059   3.657   3.729   9.404
   58MYC   2H11 9060   3.520   3.450   9.394
   58MYC   3H11 9061   3.453   3.605   9.315
   58MYC   4H11 9062   3.728   3.475   9.243
   58MYC   5H11 9063   3.577   3.730   9.137
   58MYC   6H11 9064   3.751   3.689   9.122
   58MYC   7H11 9065   3.703   3.482   8.996
   58MYC   8H11 9066   3.533   3.505   9.023
   58MYC   9H11 9067   3.529   3.696   8.863
   58MYC    H11 9068   3.461   2.937   9.982
   58MYC   0H12 9069   3.706   3.708   8.869
   58MYC   1H12 9070   3.717   3.478   8.772
   58MYC   2H12 9071   3.531   3.485   8.747
   58MYC   3H12 9072   3.580   3.683   8.606
   58MYC   4H12 9073   3.751   3.646   8.631
   58MYC   5H12 9074   3.724   3.422   8.525
   58MYC   6H12 9075   3.553   3.441   8.512
   58MYC   7H12 9076   3.582   3.642   8.360
   58MYC   8H12 9077   3.757   3.636   8.400
   58MYC   9H12 9078   3.767   3.417   8.275
   58MYC    H12 9079   3.585   3.108  10.116
   58MYC   0H13 9080   3.583   3.421   8.261
   58MYC   1H13 9081   3.592   3.621   8.128
   58MYC   2H13 9082   3.761   3.630   8.119
   58MYC   3H13 9083   3.762   3.403   8.003
   58MYC   4H13 9084   3.591   3.400   8.003
   58MYC   5H13 9085   3.608   3.636   7.884
   58MYC   6H13 9086   3.774   3.594   7.859
   58MYC   7H13 9087   3.672   3.370   7.743
   58MYC   8H13 9088   3.518   3.463   7.741
   58MYC   9H13 9089   3.635   3.649   7.630
   58MYC    H13 9090   3.448   3.177  10.186
   58MYC   0H14 9091   3.785   3.570   7.627
   58MYC   1H14 9092   3.692   3.382   7.487
   58MYC   2H14 9093   3.536   3.461   7.500
   58MYC   3H14 9094   3.626   3.667   7.390
   58MYC   4H14 9095   3.780   3.597   7.365
   58MYC   5H14 9096   3.682   3.416   7.219
   58MYC   6H14 9097   3.520   3.504   7.238
   58MYC   7H14 9098   3.633   3.697   7.122
   58MYC   8H14 9099   3.778   3.592   7.106
   58MYC   9H14 9100   3.681   3.419   6.997
   58MYC    H14 9101   3.393   2.952  10.296
   58MYC   0H15 9102   3.522   3.486   6.989
   58MYC   1H15 9103   3.635   3.691   6.853
   58MYC   2H15 9104   3.766   3.571   6.841
   58MYC   3H15 9105   3.477   3.514   6.741
   58MYC   4H15 9106   3.618   3.414   6.721
   58MYC   5H15 9107   3.612   3.587   6.651
   58MYC   6H15 9108   3.058   3.032   9.474
   58MYC    H15 9109   3.561   2.895  10.248
   58MYC    H16 9110   3.665   3.050  10.394
   58MYC    H17 9111   3.529   3.156  10.397
   58MYC    H18 9112   3.398   2.951  10.498
   58MYC    H19 9113   3.566   2.911  10.562
   58MYC    H20 9114   3.561   3.151  10.661
   58MYC    H21 9115   3.402   3.167  10.584
   58MYC    H22 9116   3.297   3.029  10.741
   58MYC    H23 9117   3.452   2.952  10.786
   58MYC    H24 9118   3.527   3.166  10.891
   58MYC    H25 9119   3.380   3.247  10.841
   58MYC    H26 9120   3.243   3.079  10.971
   58MYC    H27 9121   3.389   2.990  11.006
   58MYC    H28 9122   3.283   3.242  11.138
   58MYC    H29 9123   3.346   3.097  11.206
   58MYC    H30 9124   3.580   3.163  11.128
   58MYC    H31 9125   3.459   3.451  11.148
   58MYC    H32 9126   3.577   3.263  11.359
   58MYC    H33 9127   3.404   3.319  11.341
   58MYC    H34 9128   3.540   2.963   9.465
   58MYC    H35 9129   3.389   2.944   9.362
   58MYC    H36 9130   3.401   3.150   9.254
   58MYC    H37 9131   3.517   3.215   9.375
   58MYC    H38 9132   3.695   3.126   9.260
   58MYC    H39 9133   3.621   2.975   9.237
   58MYC    H40 9134   3.474   3.098   9.057
   58MYC    H41 9135   3.575   3.234   9.091
   58MYC    H42 9136   3.775   3.087   9.011
   58MYC    H43 9137   3.657   2.979   8.945
   58MYC    H44 9138   3.553   3.185   8.822
   58MYC    H45 9139   3.702   3.268   8.873
   58MYC    H46 9140   3.802   3.193   8.676
   58MYC    H47 9141   3.800   3.030   8.742
   58MYC    H48 9142   3.582   2.985   8.620
   58MYC    H49 9143   3.567   3.162   8.609
   58MYC    H50 9144   3.770   3.166   8.452
   58MYC    H51 9145   3.790   3.002   8.488
   58MYC    H52 9146   3.575   2.950   8.357
   58MYC    H53 9147   3.532   3.114   8.347
   58MYC    H54 9148   3.744   3.154   8.203
   58MYC    H55 9149   3.792   2.993   8.232
   58MYC    H56 9150   3.607   2.907   8.103
   58MYC    H57 9151   3.544   3.076   8.077
   58MYC    H58 9152   3.758   3.125   7.962
   58MYC    H59 9153   3.797   2.946   7.980
   58MYC    H60 9154   3.605   2.894   7.836
   58MYC    H61 9155   3.559   3.063   7.822
   58MYC    H62 9156   3.794   3.126   7.728
   58MYC    H63 9157   3.809   2.953   7.701
   58MYC    H64 9158   3.608   2.954   7.556
   58MYC    H65 9159   3.596   3.128   7.588
   58MYC    H66 9160   3.797   3.184   7.472
   58MYC    H67 9161   3.848   3.018   7.473
   58MYC    H68 9162   3.649   2.973   7.316
   58MYC    H69 9163   3.606   3.147   7.320
   58MYC    H70 9164   3.832   3.206   7.233
   58MYC    H71 9165   3.857   3.035   7.198
   58MYC    H72 9166   3.680   3.027   7.032
   58MYC    H73 9167   3.628   3.186   7.070
   58MYC    H74 9168   3.858   3.262   6.971
   58MYC    H75 9169   3.912   3.105   6.983
   58MYC    H76 9170   3.766   3.026   6.789
   58MYC    H77 9171   3.672   3.173   6.808
   58MYC    H78 9172   3.850   3.306   6.730
   58MYC    H79 9173   3.966   3.163   6.725
   58MYC    H80 9174   3.919   3.234   6.511
   58MYC    H81 9175   3.740   3.221   6.523
   58MYC    H82 9176   3.849   3.075   6.533
   58MYC    H83 9177   3.694   3.489  11.237
   58MYC    H84 9178   3.745   3.333  11.187
   58MYC    H85 9179   3.679   3.583  11.017
   58MYC    H86 9180   3.841   3.497  11.033
   58MYC    H87 9181   3.716   3.308  10.917
   58MYC    H88 9182   3.582   3.419  10.893
   58MYC    H89 9183   3.747   3.579  10.778
   58MYC    H90 9184   3.862   3.444  10.775
   58MYC    H91 9185   3.690   3.314  10.632
   58MYC    H92 9186   3.593   3.459  10.637
   58MYC    H93 9187   3.821   3.572  10.529
   58MYC    H94 9188   3.865   3.402  10.500
   58MYC    H95 9189   3.629   3.382  10.391
   58MYC    H96 9190   3.639   3.558  10.388
   58MYC    H97 9191   3.876   3.508  10.263
   58MYC    H98 9192   3.807   3.350  10.250
   58MYC    H99 9193   3.594   3.464  10.158
   59MYC     C1 9194   4.070   2.901   9.550
   59MYC     C2 9195   4.094   2.985   9.677
   59MYC     O3 9196   4.220   3.052   9.671
   59MYC     C4 9197   4.094   2.906   9.808
   59MYC     C5 9198   4.074   3.001   9.928
   59MYC     C6 9199   4.193   3.005  10.026
   59MYC     C7 9200   4.194   2.880  10.115
   59MYC     C8 9201   4.328   2.857  10.187
   59MYC     C9 9202   4.312   2.925  10.324
   59MYC    C10 9203   4.435   2.911  10.415
   59MYC    C11 9204   4.423   2.867  10.562
   59MYC    C12 9205   4.338   2.970  10.638
   59MYC    C13 9206   4.338   2.931  10.787
   59MYC    C14 9207   4.256   3.032  10.870
   59MYC    C15 9208   4.236   2.984  11.014
   59MYC    C16 9209   4.136   3.075  11.088
   59MYC    C17 9210   4.193   3.203  11.147
   59MYC    C18 9211   4.123   3.336  11.135
   59MYC    C19 9212   4.124   3.263  11.267
   59MYC    C20 9213   4.064   2.982   9.420
   59MYC    C21 9214   4.030   2.905   9.292
   59MYC    C22 9215   4.044   2.980   9.158
   59MYC    C23 9216   4.058   2.902   9.026
   59MYC    C24 9217   4.184   2.929   8.941
   59MYC    C25 9218   4.180   2.868   8.800
   59MYC    C26 9219   4.317   2.878   8.731
   59MYC    C27 9220   4.315   2.815   8.591
   59MYC    C28 9221   4.449   2.801   8.516
   59MYC    C29 9222   4.442   2.737   8.376
   59MYC    C30 9223   4.428   2.839   8.262
   59MYC    C31 9224   4.420   2.773   8.123
   59MYC    C32 9225   4.429   2.878   8.011
   59MYC    C33 9226   4.422   2.821   7.869
   59MYC    C34 9227   4.434   2.932   7.762
   59MYC    C35 9228   4.405   2.870   7.625
   59MYC    C36 9229   4.473   2.946   7.510
   59MYC    C37 9230   4.452   2.865   7.381
   59MYC    C38 9231   4.501   2.946   7.260
   59MYC    C39 9232   4.452   2.890   7.126
   59MYC    C40 9233   4.480   2.988   7.011
   59MYC    C41 9234   4.446   2.931   6.872
   59MYC    C42 9235   4.452   3.025   6.751
   59MYC    C43 9236   4.391   2.970   6.621
   59MYC    C44 9237   4.215   3.456  11.113
   59MYC    C45 9238   4.213   3.512  10.970
   59MYC    C46 9239   4.232   3.413  10.854
   59MYC    C47 9240   4.248   3.490  10.722
   59MYC    C48 9241   4.248   3.421  10.585
   59MYC    C49 9242   4.266   3.517  10.466
   59MYC    C50 9243   4.259   3.434  10.337
   59MYC    C51 9244   4.277   3.518  10.210
   59MYC    C52 9245   4.234   3.433  10.089
   59MYC    C53 9246   4.237   3.512   9.957
   59MYC    C54 9247   4.198   3.440   9.827
   59MYC    C55 9248   4.222   3.517   9.696
   59MYC    C56 9249   4.149   3.464   9.572
   59MYC    C57 9250   4.132   3.560   9.453
   59MYC    C58 9251   4.070   3.481   9.339
   59MYC    C59 9252   4.164   3.404   9.249
   59MYC    C60 9253   4.102   3.533   9.201
   59MYC    C61 9254   4.018   3.511   9.076
   59MYC    C62 9255   4.109   3.498   8.953
   59MYC    C63 9256   4.036   3.460   8.823
   59MYC    C64 9257   4.139   3.441   8.710
   59MYC    C65 9258   4.066   3.373   8.593
   59MYC    C66 9259   4.147   3.369   8.462
   59MYC    C67 9260   4.083   3.267   8.367
   59MYC    C68 9261   4.166   3.231   8.243
   59MYC    C69 9262   4.109   3.273   8.106
   59MYC    C70 9263   4.209   3.276   7.989
   59MYC    C71 9264   4.134   3.243   7.859
   59MYC    C72 9265   4.212   3.286   7.733
   59MYC    C73 9266   4.130   3.297   7.604
   59MYC    C74 9267   4.219   3.312   7.479
   59MYC    C75 9268   4.139   3.343   7.352
   59MYC    C76 9269   4.230   3.338   7.228
   59MYC    C77 9270   4.160   3.410   7.112
   59MYC    C78 9271   4.220   3.366   6.978
   59MYC    C79 9272   4.171   3.455   6.863
   59MYC    C80 9273   4.234   3.392   6.737
   59MYC    C81 9274   4.186   2.802   9.536
   59MYC    O82 9275   4.165   2.682   9.542
   59MYC    O83 9276   4.302   2.855   9.494
   59MYC     H1 9277   3.971   2.857   9.563
   59MYC     H2 9278   4.016   3.063   9.671
   59MYC     H3 9279   4.286   2.986   9.700
   59MYC     H4 9280   4.021   2.825   9.817
   59MYC     H5 9281   4.191   2.854   9.814
   59MYC     H6 9282   4.044   3.100   9.892
   59MYC     H7 9283   3.990   2.960   9.985
   59MYC     H8 9284   4.292   3.015   9.980
   59MYC     H9 9285   4.170   3.091  10.090
   59MYC   0H10 9286   4.130   3.401  10.099
   59MYC   1H10 9287   4.161   3.591   9.962
   59MYC   2H10 9288   4.338   3.553   9.944
   59MYC   3H10 9289   4.250   3.345   9.812
   59MYC   4H10 9290   4.092   3.412   9.824
   59MYC   5H10 9291   4.177   3.615   9.711
   59MYC   6H10 9292   4.326   3.536   9.666
   59MYC   7H10 9293   4.197   3.369   9.544
   59MYC   8H10 9294   4.046   3.439   9.601
   59MYC   9H10 9295   4.067   3.646   9.474
   59MYC    H10 9296   4.110   2.887  10.185
   59MYC   0H11 9297   4.228   3.610   9.433
   59MYC   1H11 9298   3.971   3.439   9.354
   59MYC   2H11 9299   4.271   3.408   9.267
   59MYC   3H11 9300   4.122   3.308   9.222
   59MYC   4H11 9301   4.166   3.619   9.188
   59MYC   5H11 9302   3.948   3.428   9.090
   59MYC   6H11 9303   3.955   3.600   9.066
   59MYC   7H11 9304   4.158   3.596   8.941
   59MYC   8H11 9305   4.189   3.428   8.979
   59MYC   9H11 9306   3.980   3.367   8.838
   59MYC    H11 9307   4.175   2.789  10.057
   59MYC   0H12 9308   3.964   3.542   8.812
   59MYC   1H12 9309   4.177   3.539   8.679
   59MYC   2H12 9310   4.220   3.372   8.738
   59MYC   3H12 9311   4.039   3.269   8.614
   59MYC   4H12 9312   3.970   3.424   8.583
   59MYC   5H12 9313   4.145   3.468   8.414
   59MYC   6H12 9314   4.249   3.334   8.481
   59MYC   7H12 9315   4.076   3.173   8.423
   59MYC   8H12 9316   3.980   3.296   8.343
   59MYC   9H12 9317   4.266   3.276   8.244
   59MYC    H12 9318   4.352   2.754  10.215
   59MYC   0H13 9319   4.183   3.122   8.242
   59MYC   1H13 9320   4.032   3.196   8.090
   59MYC   2H13 9321   4.062   3.371   8.115
   59MYC   3H13 9322   4.265   3.370   7.985
   59MYC   4H13 9323   4.277   3.191   8.005
   59MYC   5H13 9324   4.121   3.134   7.854
   59MYC   6H13 9325   4.033   3.284   7.854
   59MYC   7H13 9326   4.254   3.385   7.752
   59MYC   8H13 9327   4.293   3.216   7.710
   59MYC   9H13 9328   4.069   3.206   7.600
   59MYC    H13 9329   4.409   2.899  10.126
   59MYC   0H14 9330   4.061   3.382   7.601
   59MYC   1H14 9331   4.285   3.398   7.498
   59MYC   2H14 9332   4.279   3.220   7.471
   59MYC   3H14 9333   4.071   3.257   7.359
   59MYC   4H14 9334   4.086   3.438   7.365
   59MYC   5H14 9335   4.324   3.392   7.243
   59MYC   6H14 9336   4.251   3.232   7.211
   59MYC   7H14 9337   4.053   3.385   7.122
   59MYC   8H14 9338   4.169   3.518   7.126
   59MYC   9H14 9339   4.330   3.371   6.985
   59MYC    H14 9340   4.278   3.029  10.324
   59MYC   0H15 9341   4.201   3.260   6.958
   59MYC   1H15 9342   4.063   3.448   6.847
   59MYC   2H15 9343   4.197   3.561   6.877
   59MYC   3H15 9344   4.183   3.300   6.706
   59MYC   4H15 9345   4.340   3.370   6.751
   59MYC   5H15 9346   4.228   3.462   6.653
   59MYC   6H15 9347   4.361   2.781   9.473
   59MYC    H15 9348   4.232   2.873  10.379
   59MYC    H16 9349   4.487   2.827  10.368
   59MYC    H17 9350   4.507   2.994  10.404
   59MYC    H18 9351   4.375   2.769  10.571
   59MYC    H19 9352   4.524   2.852  10.602
   59MYC    H20 9353   4.386   3.067  10.618
   59MYC    H21 9354   4.241   2.981  10.588
   59MYC    H22 9355   4.291   2.833  10.800
   59MYC    H23 9356   4.436   2.935  10.837
   59MYC    H24 9357   4.294   3.135  10.874
   59MYC    H25 9358   4.156   3.045  10.827
   59MYC    H26 9359   4.190   2.885  11.021
   59MYC    H27 9360   4.332   2.990  11.068
   59MYC    H28 9361   4.049   3.093  11.024
   59MYC    H29 9362   4.095   3.012  11.167
   59MYC    H30 9363   4.301   3.210  11.149
   59MYC    H31 9364   4.023   3.332  11.094
   59MYC    H32 9365   4.182   3.317  11.342
   59MYC    H33 9366   4.039   3.214  11.313
   59MYC    H34 9367   3.982   3.056   9.419
   59MYC    H35 9368   4.156   3.041   9.406
   59MYC    H36 9369   4.095   2.818   9.283
   59MYC    H37 9370   3.935   2.850   9.295
   59MYC    H38 9371   3.976   3.065   9.151
   59MYC    H39 9372   4.144   3.025   9.164
   59MYC    H40 9373   4.056   2.793   9.042
   59MYC    H41 9374   3.973   2.918   8.960
   59MYC    H42 9375   4.192   3.037   8.922
   59MYC    H43 9376   4.279   2.909   8.991
   59MYC    H44 9377   4.155   2.762   8.806
   59MYC    H45 9378   4.106   2.913   8.732
   59MYC    H46 9379   4.347   2.983   8.733
   59MYC    H47 9380   4.392   2.824   8.791
   59MYC    H48 9381   4.282   2.711   8.601
   59MYC    H49 9382   4.241   2.867   8.529
   59MYC    H50 9383   4.493   2.901   8.514
   59MYC    H51 9384   4.516   2.739   8.576
   59MYC    H52 9385   4.534   2.678   8.362
   59MYC    H53 9386   4.361   2.663   8.381
   59MYC    H54 9387   4.334   2.890   8.288
   59MYC    H55 9388   4.508   2.913   8.256
   59MYC    H56 9389   4.493   2.692   8.112
   59MYC    H57 9390   4.322   2.724   8.131
   59MYC    H58 9391   4.357   2.959   8.024
   59MYC    H59 9392   4.527   2.926   8.026
   59MYC    H60 9393   4.507   2.754   7.853
   59MYC    H61 9394   4.333   2.758   7.861
   59MYC    H62 9395   4.352   3.001   7.784
   59MYC    H63 9396   4.537   2.970   7.761
   59MYC    H64 9397   4.436   2.765   7.618
   59MYC    H65 9398   4.298   2.868   7.600
   59MYC    H66 9399   4.427   3.045   7.504
   59MYC    H67 9400   4.577   2.962   7.542
   59MYC    H68 9401   4.495   2.765   7.389
   59MYC    H69 9402   4.346   2.842   7.366
   59MYC    H70 9403   4.452   3.044   7.268
   59MYC    H71 9404   4.610   2.957   7.259
   59MYC    H72 9405   4.499   2.793   7.106
   59MYC    H73 9406   4.344   2.872   7.137
   59MYC    H74 9407   4.411   3.072   7.026
   59MYC    H75 9408   4.578   3.034   7.023
   59MYC    H76 9409   4.507   2.843   6.849
   59MYC    H77 9410   4.347   2.883   6.872
   59MYC    H78 9411   4.397   3.119   6.763
   59MYC    H79 9412   4.557   3.055   6.736
   59MYC    H80 9413   4.397   3.045   6.541
   59MYC    H81 9414   4.290   2.928   6.629
   59MYC    H82 9415   4.447   2.882   6.585
   59MYC    H83 9416   4.184   3.530  11.187
   59MYC    H84 9417   4.317   3.423  11.136
   59MYC    H85 9418   4.112   3.555  10.960
   59MYC    H86 9419   4.286   3.592  10.954
   59MYC    H87 9420   4.322   3.352  10.874
   59MYC    H88 9421   4.141   3.352  10.850
   59MYC    H89 9422   4.172   3.568  10.708
   59MYC    H90 9423   4.339   3.552  10.732
   59MYC    H91 9424   4.327   3.345  10.577
   59MYC    H92 9425   4.162   3.355  10.571
   59MYC    H93 9426   4.179   3.585  10.470
   59MYC    H94 9427   4.358   3.576  10.477
   59MYC    H95 9428   4.332   3.352  10.332
   59MYC    H96 9429   4.155   3.398  10.331
   59MYC    H97 9430   4.219   3.610  10.220
   59MYC    H98 9431   4.382   3.550  10.206
   59MYC    H99 9432   4.293   3.341  10.079
   60MYC     C1 9433   4.747   2.992   9.593
   60MYC     C2 9434   4.871   2.952   9.675
   60MYC     O3 9435   4.865   2.819   9.725
   60MYC     C4 9436   4.893   3.050   9.792
   60MYC     C5 9437   5.024   3.028   9.869
   60MYC     C6 9438   5.011   2.977  10.014
   60MYC     C7 9439   5.131   3.016  10.102
   60MYC     C8 9440   5.124   2.959  10.245
   60MYC     C9 9441   5.237   3.016  10.333
   60MYC    C10 9442   5.253   2.958  10.475
   60MYC    C11 9443   5.135   2.976  10.572
   60MYC    C12 9444   5.065   3.112  10.576
   60MYC    C13 9445   4.980   3.131  10.703
   60MYC    C14 9446   5.049   3.205  10.818
   60MYC    C15 9447   4.956   3.235  10.938
   60MYC    C16 9448   5.030   3.324  11.039
   60MYC    C17 9449   5.159   3.257  11.086
   60MYC    C18 9450   5.292   3.304  11.034
   60MYC    C19 9451   5.253   3.333  11.177
   60MYC    C20 9452   4.732   2.909   9.464
   60MYC    C21 9453   4.803   2.966   9.340
   60MYC    C22 9454   4.775   2.876   9.218
   60MYC    C23 9455   4.817   2.941   9.085
   60MYC    C24 9456   4.802   2.849   8.963
   60MYC    C25 9457   4.847   2.923   8.836
   60MYC    C26 9458   4.792   2.857   8.708
   60MYC    C27 9459   4.859   2.886   8.573
   60MYC    C28 9460   4.784   2.807   8.465
   60MYC    C29 9461   4.875   2.778   8.344
   60MYC    C30 9462   4.803   2.738   8.214
   60MYC    C31 9463   4.898   2.731   8.093
   60MYC    C32 9464   4.827   2.688   7.963
   60MYC    C33 9465   4.915   2.718   7.841
   60MYC    C34 9466   4.839   2.700   7.708
   60MYC    C35 9467   4.930   2.714   7.585
   60MYC    C36 9468   4.858   2.695   7.450
   60MYC    C37 9469   4.953   2.698   7.329
   60MYC    C38 9470   4.898   2.748   7.194
   60MYC    C39 9471   4.992   2.766   7.074
   60MYC    C40 9472   4.945   2.860   6.962
   60MYC    C41 9473   5.034   2.862   6.837
   60MYC    C42 9474   4.962   2.948   6.731
   60MYC    C43 9475   5.063   3.011   6.634
   60MYC    C44 9476   5.394   3.199  10.992
   60MYC    C45 9477   5.480   3.234  10.870
   60MYC    C46 9478   5.400   3.269  10.743
   60MYC    C47 9479   5.489   3.322  10.629
   60MYC    C48 9480   5.407   3.332  10.500
   60MYC    C49 9481   5.491   3.380  10.380
   60MYC    C50 9482   5.398   3.377  10.257
   60MYC    C51 9483   5.465   3.389  10.120
   60MYC    C52 9484   5.364   3.378  10.004
   60MYC    C53 9485   5.443   3.377   9.872
   60MYC    C54 9486   5.366   3.318   9.752
   60MYC    C55 9487   5.428   3.335   9.612
   60MYC    C56 9488   5.357   3.257   9.500
   60MYC    C57 9489   5.417   3.267   9.359
   60MYC    C58 9490   5.316   3.236   9.249
   60MYC    C59 9491   5.269   3.102   9.197
   60MYC    C60 9492   5.370   3.183   9.119
   60MYC    C61 9493   5.343   3.253   8.987
   60MYC    C62 9494   5.336   3.147   8.876
   60MYC    C63 9495   5.350   3.211   8.737
   60MYC    C64 9496   5.366   3.111   8.622
   60MYC    C65 9497   5.416   3.174   8.491
   60MYC    C66 9498   5.401   3.087   8.365
   60MYC    C67 9499   5.490   3.142   8.252
   60MYC    C68 9500   5.451   3.079   8.117
   60MYC    C69 9501   5.525   3.153   8.003
   60MYC    C70 9502   5.497   3.084   7.868
   60MYC    C71 9503   5.536   3.177   7.752
   60MYC    C72 9504   5.500   3.105   7.621
   60MYC    C73 9505   5.522   3.190   7.495
   60MYC    C74 9506   5.496   3.112   7.365
   60MYC    C75 9507   5.540   3.193   7.242
   60MYC    C76 9508   5.532   3.122   7.105
   60MYC    C77 9509   5.582   3.209   6.989
   60MYC    C78 9510   5.513   3.174   6.856
   60MYC    C79 9511   5.568   3.248   6.733
   60MYC    C80 9512   5.486   3.215   6.607
   60MYC    C81 9513   4.608   3.010   9.653
   60MYC    O82 9514   4.579   2.992   9.770
   60MYC    O83 9515   4.525   3.087   9.580
   60MYC     H1 9516   4.770   3.097   9.569
   60MYC     H2 9517   4.959   2.959   9.610
   60MYC     H3 9518   4.782   2.808   9.774
   60MYC     H4 9519   4.886   3.154   9.757
   60MYC     H5 9520   4.810   3.047   9.864
   60MYC     H6 9521   5.085   2.957   9.813
   60MYC     H7 9522   5.075   3.125   9.867
   60MYC     H8 9523   4.920   3.024  10.051
   60MYC     H9 9524   4.990   2.869  10.008
   60MYC   0H10 9525   5.294   3.462  10.002
   60MYC   1H10 9526   5.476   3.480   9.858
   60MYC   2H10 9527   5.532   3.314   9.881
   60MYC   3H10 9528   5.363   3.211   9.776
   60MYC   4H10 9529   5.263   3.357   9.754
   60MYC   5H10 9530   5.421   3.442   9.586
   60MYC   6H10 9531   5.537   3.325   9.610
   60MYC   7H10 9532   5.364   3.152   9.531
   60MYC   8H10 9533   5.251   3.285   9.500
   60MYC   9H10 9534   5.451   3.370   9.347
   60MYC    H10 9535   5.220   2.970  10.057
   60MYC   0H11 9536   5.502   3.199   9.343
   60MYC   1H11 9537   5.245   3.318   9.244
   60MYC   2H11 9538   5.304   3.018   9.256
   60MYC   3H11 9539   5.169   3.086   9.159
   60MYC   4H11 9540   5.472   3.145   9.118
   60MYC   5H11 9541   5.250   3.312   8.995
   60MYC   6H11 9542   5.428   3.322   8.978
   60MYC   7H11 9543   5.414   3.070   8.883
   60MYC   8H11 9544   5.237   3.099   8.885
   60MYC   9H11 9545   5.258   3.268   8.717
   60MYC    H11 9546   5.142   3.126  10.101
   60MYC   0H12 9547   5.434   3.281   8.732
   60MYC   1H12 9548   5.438   3.033   8.646
   60MYC   2H12 9549   5.276   3.049   8.610
   60MYC   3H12 9550   5.361   3.267   8.477
   60MYC   4H12 9551   5.522   3.200   8.499
   60MYC   5H12 9552   5.423   2.983   8.390
   60MYC   6H12 9553   5.297   3.092   8.330
   60MYC   7H12 9554   5.497   3.251   8.262
   60MYC   8H12 9555   5.594   3.114   8.269
   60MYC   9H12 9556   5.494   2.978   8.114
   60MYC    H12 9557   5.026   2.986  10.284
   60MYC   0H13 9558   5.344   3.067   8.101
   60MYC   1H13 9559   5.489   3.256   8.007
   60MYC   2H13 9560   5.634   3.159   8.014
   60MYC   3H13 9561   5.562   2.996   7.863
   60MYC   4H13 9562   5.391   3.056   7.862
   60MYC   5H13 9563   5.477   3.269   7.762
   60MYC   6H13 9564   5.643   3.200   7.761
   60MYC   7H13 9565   5.551   3.008   7.611
   60MYC   8H13 9566   5.393   3.084   7.633
   60MYC   9H13 9567   5.459   3.280   7.493
   60MYC    H13 9568   5.127   2.850  10.251
   60MYC   0H14 9569   5.626   3.227   7.492
   60MYC   1H14 9570   5.566   3.028   7.373
   60MYC   2H14 9571   5.390   3.085   7.355
   60MYC   3H14 9572   5.487   3.289   7.240
   60MYC   4H14 9573   5.642   3.229   7.263
   60MYC   5H14 9574   5.592   3.031   7.099
   60MYC   6H14 9575   5.428   3.097   7.079
   60MYC   7H14 9576   5.558   3.315   7.005
   60MYC   8H14 9577   5.690   3.195   6.985
   60MYC   9H14 9578   5.536   3.067   6.840
   60MYC    H14 9579   5.329   2.998  10.278
   60MYC   0H15 9580   5.406   3.192   6.868
   60MYC   1H15 9581   5.568   3.355   6.758
   60MYC   2H15 9582   5.675   3.230   6.719
   60MYC   3H15 9583   5.385   3.255   6.623
   60MYC   4H15 9584   5.474   3.107   6.592
   60MYC   5H15 9585   5.533   3.274   6.528
   60MYC   6H15 9586   4.442   3.090   9.630
   60MYC    H15 9587   5.219   3.123  10.343
   60MYC    H16 9588   5.268   2.849  10.476
   60MYC    H17 9589   5.347   2.999  10.514
   60MYC    H18 9590   5.060   2.900  10.548
   60MYC    H19 9591   5.169   2.946  10.672
   60MYC    H20 9592   5.140   3.192  10.574
   60MYC    H21 9593   5.010   3.132  10.483
   60MYC    H22 9594   4.893   3.193  10.676
   60MYC    H23 9595   4.939   3.037  10.743
   60MYC    H24 9596   5.132   3.141  10.848
   60MYC    H25 9597   5.093   3.298  10.781
   60MYC    H26 9598   4.870   3.291  10.900
   60MYC    H27 9599   4.921   3.144  10.988
   60MYC    H28 9600   5.053   3.422  10.996
   60MYC    H29 9601   4.966   3.359  11.121
   60MYC    H30 9602   5.159   3.150  11.102
   60MYC    H31 9603   5.295   3.394  10.973
   60MYC    H32 9604   5.312   3.287  11.256
   60MYC    H33 9605   5.221   3.433  11.206
   60MYC    H34 9606   4.759   2.804   9.480
   60MYC    H35 9607   4.627   2.901   9.431
   60MYC    H36 9608   4.776   3.069   9.315
   60MYC    H37 9609   4.910   2.965   9.361
   60MYC    H38 9610   4.837   2.785   9.227
   60MYC    H39 9611   4.676   2.830   9.217
   60MYC    H40 9612   4.769   3.036   9.060
   60MYC    H41 9613   4.923   2.966   9.101
   60MYC    H42 9614   4.872   2.765   8.973
   60MYC    H43 9615   4.700   2.812   8.947
   60MYC    H44 9616   4.809   3.026   8.839
   60MYC    H45 9617   4.955   2.935   8.828
   60MYC    H46 9618   4.789   2.747   8.718
   60MYC    H47 9619   4.686   2.885   8.698
   60MYC    H48 9620   4.856   2.995   8.565
   60MYC    H49 9621   4.964   2.854   8.569
   60MYC    H50 9622   4.757   2.706   8.499
   60MYC    H51 9623   4.703   2.871   8.428
   60MYC    H52 9624   4.922   2.876   8.324
   60MYC    H53 9625   4.955   2.710   8.373
   60MYC    H54 9626   4.756   2.640   8.229
   60MYC    H55 9627   4.714   2.800   8.194
   60MYC    H56 9628   4.935   2.834   8.082
   60MYC    H57 9629   4.982   2.664   8.112
   60MYC    H58 9630   4.808   2.580   7.961
   60MYC    H59 9631   4.734   2.746   7.962
   60MYC    H60 9632   4.957   2.819   7.850
   60MYC    H61 9633   4.995   2.643   7.844
   60MYC    H62 9634   4.803   2.598   7.696
   60MYC    H63 9635   4.753   2.767   7.699
   60MYC    H64 9636   4.983   2.810   7.587
   60MYC    H65 9637   5.008   2.637   7.593
   60MYC    H66 9638   4.801   2.602   7.449
   60MYC    H67 9639   4.781   2.773   7.437
   60MYC    H68 9640   5.028   2.771   7.361
   60MYC    H69 9641   5.008   2.603   7.329
   60MYC    H70 9642   4.818   2.674   7.177
   60MYC    H71 9643   4.846   2.842   7.217
   60MYC    H72 9644   5.086   2.805   7.116
   60MYC    H73 9645   5.006   2.669   7.025
   60MYC    H74 9646   4.844   2.824   6.936
   60MYC    H75 9647   4.934   2.961   7.003
   60MYC    H76 9648   5.133   2.906   6.853
   60MYC    H77 9649   5.062   2.765   6.794
   60MYC    H78 9650   4.881   2.893   6.682
   60MYC    H79 9651   4.915   3.031   6.786
   60MYC    H80 9652   5.004   3.071   6.564
   60MYC    H81 9653   5.111   2.933   6.573
   60MYC    H82 9654   5.133   3.082   6.679
   60MYC    H83 9655   5.458   3.185  11.080
   60MYC    H84 9656   5.344   3.104  10.972
   60MYC    H85 9657   5.555   3.307  10.902
   60MYC    H86 9658   5.537   3.142  10.854
   60MYC    H87 9659   5.337   3.186  10.709
   60MYC    H88 9660   5.331   3.351  10.767
   60MYC    H89 9661   5.534   3.416  10.662
   60MYC    H90 9662   5.573   3.253  10.615
   60MYC    H91 9663   5.368   3.230  10.485
   60MYC    H92 9664   5.323   3.400  10.512
   60MYC    H93 9665   5.529   3.480  10.403
   60MYC    H94 9666   5.575   3.310  10.368
   60MYC    H95 9667   5.343   3.283  10.250
   60MYC    H96 9668   5.327   3.459  10.277
   60MYC    H97 9669   5.518   3.485  10.113
   60MYC    H98 9670   5.541   3.310  10.110
   60MYC    H99 9671   5.313   3.281  10.001
   61MYC     C1 9672  -0.903   2.887   9.585
   61MYC     C2 9673  -0.791   2.898   9.689
   61MYC     O3 9674  -0.742   2.771   9.730
   61MYC     C4 9675  -0.837   2.975   9.815
   61MYC     C5 9676  -0.724   3.017   9.911
   61MYC     C6 9677  -0.711   2.944  10.046
   61MYC     C7 9678  -0.567   2.946  10.102
   61MYC     C8 9679  -0.550   2.851  10.221
   61MYC     C9 9680  -0.611   2.905  10.351
   61MYC    C10 9681  -0.636   2.790  10.450
   61MYC    C11 9682  -0.673   2.825  10.596
   61MYC    C12 9683  -0.569   2.898  10.681
   61MYC    C13 9684  -0.614   2.934  10.824
   61MYC    C14 9685  -0.501   2.986  10.914
   61MYC    C15 9686  -0.566   3.042  11.042
   61MYC    C16 9687  -0.468   3.129  11.123
   61MYC    C17 9688  -0.351   3.058  11.189
   61MYC    C18 9689  -0.221   3.131  11.208
   61MYC    C19 9690  -0.302   3.089  11.328
   61MYC    C20 9691  -0.849   2.825   9.455
   61MYC    C21 9692  -0.784   2.931   9.365
   61MYC    C22 9693  -0.730   2.875   9.233
   61MYC    C23 9694  -0.693   2.986   9.133
   61MYC    C24 9695  -0.638   2.922   9.004
   61MYC    C25 9696  -0.607   3.016   8.887
   61MYC    C26 9697  -0.651   2.956   8.752
   61MYC    C27 9698  -0.579   3.007   8.626
   61MYC    C28 9699  -0.627   2.938   8.498
   61MYC    C29 9700  -0.534   2.976   8.382
   61MYC    C30 9701  -0.590   2.935   8.245
   61MYC    C31 9702  -0.488   2.953   8.131
   61MYC    C32 9703  -0.564   2.947   7.997
   61MYC    C33 9704  -0.474   2.980   7.876
   61MYC    C34 9705  -0.555   2.978   7.746
   61MYC    C35 9706  -0.467   3.017   7.626
   61MYC    C36 9707  -0.543   3.017   7.492
   61MYC    C37 9708  -0.456   3.051   7.370
   61MYC    C38 9709  -0.533   3.008   7.244
   61MYC    C39 9710  -0.490   3.060   7.105
   61MYC    C40 9711  -0.557   2.995   6.984
   61MYC    C41 9712  -0.533   3.068   6.850
   61MYC    C42 9713  -0.586   2.997   6.725
   61MYC    C43 9714  -0.538   3.068   6.598
   61MYC    C44 9715  -0.082   3.082  11.168
   61MYC    C45 9716  -0.029   3.133  11.033
   61MYC    C46 9717  -0.128   3.110  10.918
   61MYC    C47 9718  -0.068   3.091  10.778
   61MYC    C48 9719  -0.174   3.061  10.669
   61MYC    C49 9720  -0.117   3.087  10.529
   61MYC    C50 9721  -0.213   3.077  10.409
   61MYC    C51 9722  -0.146   3.083  10.270
   61MYC    C52 9723  -0.244   3.104  10.154
   61MYC    C53 9724  -0.163   3.118  10.024
   61MYC    C54 9725  -0.248   3.112   9.896
   61MYC    C55 9726  -0.165   3.150   9.773
   61MYC    C56 9727  -0.254   3.145   9.648
   61MYC    C57 9728  -0.175   3.175   9.519
   61MYC    C58 9729  -0.260   3.182   9.393
   61MYC    C59 9730  -0.303   3.061   9.314
   61MYC    C60 9731  -0.190   3.148   9.264
   61MYC    C61 9732  -0.201   3.245   9.147
   61MYC    C62 9733  -0.175   3.178   9.011
   61MYC    C63 9734  -0.199   3.270   8.890
   61MYC    C64 9735  -0.170   3.194   8.759
   61MYC    C65 9736  -0.171   3.278   8.630
   61MYC    C66 9737  -0.164   3.190   8.504
   61MYC    C67 9738  -0.167   3.273   8.374
   61MYC    C68 9739  -0.147   3.184   8.250
   61MYC    C69 9740  -0.116   3.251   8.115
   61MYC    C70 9741  -0.129   3.160   7.992
   61MYC    C71 9742  -0.105   3.225   7.855
   61MYC    C72 9743  -0.106   3.138   7.728
   61MYC    C73 9744  -0.079   3.221   7.602
   61MYC    C74 9745  -0.098   3.141   7.472
   61MYC    C75 9746  -0.037   3.210   7.349
   61MYC    C76 9747  -0.111   3.151   7.227
   61MYC    C77 9748  -0.031   3.156   7.096
   61MYC    C78 9749  -0.115   3.125   6.971
   61MYC    C79 9750  -0.025   3.135   6.846
   61MYC    C80 9751  -0.086   3.089   6.713
   61MYC    C81 9752  -1.025   2.807   9.630
   61MYC    O82 9753  -1.033   2.713   9.706
   61MYC    O83 9754  -1.141   2.851   9.574
   61MYC     H1 9755  -0.933   2.989   9.558
   61MYC     H2 9756  -0.709   2.957   9.646
   61MYC     H3 9757  -0.806   2.731   9.792
   61MYC     H4 9758  -0.892   3.063   9.779
   61MYC     H5 9759  -0.904   2.914   9.875
   61MYC     H6 9760  -0.628   3.017   9.860
   61MYC     H7 9761  -0.733   3.124   9.934
   61MYC     H8 9762  -0.785   2.981  10.118
   61MYC     H9 9763  -0.730   2.838  10.027
   61MYC   0H10 9764  -0.300   3.197  10.167
   61MYC   1H10 9765  -0.106   3.212  10.028
   61MYC   2H10 9766  -0.095   3.032  10.020
   61MYC   3H10 9767  -0.280   3.008   9.887
   61MYC   4H10 9768  -0.335   3.178   9.912
   61MYC   5H10 9769  -0.122   3.251   9.781
   61MYC   6H10 9770  -0.084   3.077   9.763
   61MYC   7H10 9771  -0.301   3.048   9.627
   61MYC   8H10 9772  -0.349   3.199   9.655
   61MYC   9H10 9773  -0.133   3.276   9.524
   61MYC    H10 9774  -0.503   2.913  10.020
   61MYC   0H11 9775  -0.096   3.100   9.505
   61MYC   1H11 9776  -0.331   3.264   9.397
   61MYC   2H11 9777  -0.283   2.971   9.372
   61MYC   3H11 9778  -0.400   3.063   9.265
   61MYC   4H11 9779  -0.089   3.111   9.272
   61MYC   5H11 9780  -0.299   3.293   9.136
   61MYC   6H11 9781  -0.131   3.328   9.165
   61MYC   7H11 9782  -0.080   3.123   8.999
   61MYC   8H11 9783  -0.243   3.093   8.998
   61MYC   9H11 9784  -0.300   3.312   8.896
   61MYC    H11 9785  -0.544   3.050  10.126
   61MYC   0H12 9786  -0.138   3.359   8.911
   61MYC   1H12 9787  -0.072   3.147   8.756
   61MYC   2H12 9788  -0.240   3.111   8.749
   61MYC   3H12 9789  -0.269   3.327   8.626
   61MYC   4H12 9790  -0.086   3.348   8.632
   61MYC   5H12 9791  -0.085   3.116   8.522
   61MYC   6H12 9792  -0.254   3.127   8.507
   61MYC   7H12 9793  -0.265   3.321   8.363
   61MYC   8H12 9794  -0.088   3.349   8.378
   61MYC   9H12 9795  -0.074   3.108   8.281
   61MYC    H12 9796  -0.601   2.757  10.196
   61MYC   0H13 9797  -0.246   3.138   8.238
   61MYC   1H13 9798  -0.191   3.331   8.114
   61MYC   2H13 9799  -0.013   3.289   8.121
   61MYC   3H13 9800  -0.057   3.077   7.998
   61MYC   4H13 9801  -0.228   3.113   7.997
   61MYC   5H13 9802  -0.181   3.302   7.837
   61MYC   6H13 9803  -0.008   3.275   7.842
   61MYC   7H13 9804  -0.036   3.054   7.737
   61MYC   8H13 9805  -0.202   3.085   7.722
   61MYC   9H13 9806  -0.129   3.317   7.588
   61MYC    H13 9807  -0.445   2.822  10.234
   61MYC   0H14 9808   0.025   3.254   7.610
   61MYC   1H14 9809  -0.067   3.036   7.480
   61MYC   2H14 9810  -0.206   3.132   7.461
   61MYC   3H14 9811  -0.060   3.317   7.349
   61MYC   4H14 9812   0.071   3.193   7.340
   61MYC   5H14 9813  -0.145   3.047   7.233
   61MYC   6H14 9814  -0.205   3.207   7.215
   61MYC   7H14 9815   0.017   3.253   7.075
   61MYC   8H14 9816   0.050   3.084   7.111
   61MYC   9H14 9817  -0.148   3.022   6.989
   61MYC    H14 9818  -0.541   2.971  10.404
   61MYC   0H15 9819  -0.205   3.187   6.967
   61MYC   1H15 9820   0.012   3.237   6.830
   61MYC   2H15 9821   0.064   3.073   6.860
   61MYC   3H15 9822  -0.187   3.131   6.702
   61MYC   4H15 9823  -0.082   2.981   6.693
   61MYC   5H15 9824  -0.039   3.147   6.632
   61MYC   6H15 9825  -1.215   2.808   9.620
   61MYC    H15 9826  -0.703   2.964  10.339
   61MYC    H16 9827  -0.721   2.738  10.405
   61MYC    H17 9828  -0.550   2.722  10.452
   61MYC    H18 9829  -0.761   2.890  10.593
   61MYC    H19 9830  -0.695   2.738  10.659
   61MYC    H20 9831  -0.486   2.827  10.697
   61MYC    H21 9832  -0.526   2.984  10.629
   61MYC    H22 9833  -0.697   3.005  10.814
   61MYC    H23 9834  -0.665   2.850  10.872
   61MYC    H24 9835  -0.435   2.901  10.937
   61MYC    H25 9836  -0.446   3.064  10.860
   61MYC    H26 9837  -0.648   3.107  11.010
   61MYC    H27 9838  -0.612   2.968  11.109
   61MYC    H28 9839  -0.434   3.212  11.060
   61MYC    H29 9840  -0.518   3.183  11.205
   61MYC    H30 9841  -0.350   2.954  11.159
   61MYC    H31 9842  -0.221   3.239  11.193
   61MYC    H32 9843  -0.268   3.005  11.388
   61MYC    H33 9844  -0.341   3.170  11.390
   61MYC    H34 9845  -0.770   2.755   9.485
   61MYC    H35 9846  -0.924   2.769   9.398
   61MYC    H36 9847  -0.861   3.006   9.345
   61MYC    H37 9848  -0.698   2.982   9.411
   61MYC    H38 9849  -0.644   2.807   9.237
   61MYC    H39 9850  -0.806   2.810   9.188
   61MYC    H40 9851  -0.781   3.050   9.118
   61MYC    H41 9852  -0.623   3.055   9.182
   61MYC    H42 9853  -0.550   2.858   9.021
   61MYC    H43 9854  -0.711   2.847   8.972
   61MYC    H44 9855  -0.658   3.110   8.909
   61MYC    H45 9856  -0.503   3.053   8.890
   61MYC    H46 9857  -0.632   2.848   8.756
   61MYC    H47 9858  -0.758   2.978   8.742
   61MYC    H48 9859  -0.595   3.115   8.617
   61MYC    H49 9860  -0.473   2.983   8.642
   61MYC    H50 9861  -0.641   2.831   8.516
   61MYC    H51 9862  -0.728   2.966   8.464
   61MYC    H52 9863  -0.520   3.085   8.379
   61MYC    H53 9864  -0.437   2.927   8.392
   61MYC    H54 9865  -0.602   2.826   8.252
   61MYC    H55 9866  -0.689   2.975   8.221
   61MYC    H56 9867  -0.440   3.051   8.138
   61MYC    H57 9868  -0.401   2.888   8.141
   61MYC    H58 9869  -0.615   2.851   7.986
   61MYC    H59 9870  -0.645   3.020   8.008
   61MYC    H60 9871  -0.435   3.080   7.899
   61MYC    H61 9872  -0.388   2.913   7.868
   61MYC    H62 9873  -0.599   2.878   7.733
   61MYC    H63 9874  -0.642   3.041   7.768
   61MYC    H64 9875  -0.432   3.118   7.651
   61MYC    H65 9876  -0.381   2.949   7.618
   61MYC    H66 9877  -0.600   2.924   7.499
   61MYC    H67 9878  -0.611   3.103   7.502
   61MYC    H68 9879  -0.415   3.152   7.361
   61MYC    H69 9880  -0.369   2.984   7.359
   61MYC    H70 9881  -0.540   2.899   7.241
   61MYC    H71 9882  -0.636   3.045   7.253
   61MYC    H72 9883  -0.498   3.170   7.101
   61MYC    H73 9884  -0.384   3.034   7.093
   61MYC    H74 9885  -0.528   2.889   6.983
   61MYC    H75 9886  -0.666   2.994   7.001
   61MYC    H76 9887  -0.590   3.161   6.852
   61MYC    H77 9888  -0.426   3.091   6.838
   61MYC    H78 9889  -0.546   2.895   6.723
   61MYC    H79 9890  -0.696   2.992   6.729
   61MYC    H80 9891  -0.595   3.028   6.513
   61MYC    H81 9892  -0.431   3.050   6.582
   61MYC    H82 9893  -0.555   3.176   6.600
   61MYC    H83 9894  -0.015   3.116  11.248
   61MYC    H84 9895  -0.084   2.973  11.178
   61MYC    H85 9896  -0.016   3.241  11.043
   61MYC    H86 9897   0.074   3.100  11.015
   61MYC    H87 9898  -0.181   3.015  10.931
   61MYC    H88 9899  -0.195   3.196  10.907
   61MYC    H89 9900  -0.019   3.185  10.750
   61MYC    H90 9901   0.014   3.019  10.771
   61MYC    H91 9902  -0.226   2.965  10.676
   61MYC    H92 9903  -0.253   3.136  10.675
   61MYC    H93 9904  -0.066   3.184  10.528
   61MYC    H94 9905  -0.036   3.018  10.505
   61MYC    H95 9906  -0.269   2.983  10.408
   61MYC    H96 9907  -0.281   3.163  10.421
   61MYC    H97 9908  -0.060   3.151  10.263
   61MYC    H98 9909  -0.103   2.983  10.258
   61MYC    H99 9910  -0.307   3.015  10.150
   62MYC     C1 9911   0.110   4.117   9.615
   62MYC     C2 9912   0.154   3.973   9.648
   62MYC     O3 9913   0.048   3.879   9.640
   62MYC     C4 9914   0.202   3.971   9.794
   62MYC     C5 9915   0.273   3.838   9.822
   62MYC     C6 9916   0.203   3.747   9.925
   62MYC     C7 9917   0.202   3.806  10.067
   62MYC     C8 9918   0.162   3.706  10.177
   62MYC     C9 9919   0.142   3.778  10.311
   62MYC    C10 9920   0.082   3.685  10.418
   62MYC    C11 9921   0.051   3.762  10.548
   62MYC    C12 9922   0.177   3.821  10.614
   62MYC    C13 9923   0.155   3.879  10.755
   62MYC    C14 9924   0.276   3.941  10.825
   62MYC    C15 9925   0.244   3.958  10.974
   62MYC    C16 9926   0.352   4.026  11.060
   62MYC    C17 9927   0.473   3.936  11.087
   62MYC    C18 9928   0.591   3.923  10.995
   62MYC    C19 9929   0.605   3.998  11.125
   62MYC    C20 9930   0.050   4.121   9.473
   62MYC    C21 9931   0.154   4.115   9.360
   62MYC    C22 9932   0.086   4.096   9.223
   62MYC    C23 9933   0.187   4.096   9.107
   62MYC    C24 9934   0.120   4.092   8.969
   62MYC    C25 9935   0.201   4.007   8.869
   62MYC    C26 9936   0.168   4.046   8.724
   62MYC    C27 9937   0.259   3.971   8.625
   62MYC    C28 9938   0.207   3.993   8.482
   62MYC    C29 9939   0.268   3.917   8.362
   62MYC    C30 9940   0.216   3.969   8.227
   62MYC    C31 9941   0.249   3.878   8.107
   62MYC    C32 9942   0.225   3.947   7.971
   62MYC    C33 9943   0.256   3.854   7.853
   62MYC    C34 9944   0.235   3.925   7.718
   62MYC    C35 9945   0.260   3.830   7.599
   62MYC    C36 9946   0.235   3.908   7.468
   62MYC    C37 9947   0.259   3.819   7.345
   62MYC    C38 9948   0.242   3.897   7.214
   62MYC    C39 9949   0.275   3.816   7.087
   62MYC    C40 9950   0.286   3.905   6.962
   62MYC    C41 9951   0.323   3.820   6.839
   62MYC    C42 9952   0.313   3.901   6.708
   62MYC    C43 9953   0.335   3.812   6.585
   62MYC    C44 9954   0.655   3.785  10.983
   62MYC    C45 9955   0.769   3.773  10.880
   62MYC    C46 9956   0.750   3.826  10.737
   62MYC    C47 9957   0.885   3.839  10.666
   62MYC    C48 9958   0.866   3.885  10.520
   62MYC    C49 9959   0.831   3.769  10.425
   62MYC    C50 9960   0.869   3.809  10.281
   62MYC    C51 9961   0.822   3.697  10.187
   62MYC    C52 9962   0.806   3.750  10.043
   62MYC    C53 9963   0.799   3.636   9.940
   62MYC    C54 9964   0.778   3.701   9.802
   62MYC    C55 9965   0.774   3.598   9.688
   62MYC    C56 9966   0.810   3.654   9.549
   62MYC    C57 9967   0.737   3.592   9.429
   62MYC    C58 9968   0.798   3.640   9.299
   62MYC    C59 9969   0.742   3.770   9.245
   62MYC    C60 9970   0.726   3.642   9.166
   62MYC    C61 9971   0.797   3.636   9.032
   62MYC    C62 9972   0.726   3.713   8.919
   62MYC    C63 9973   0.799   3.720   8.783
   62MYC    C64 9974   0.705   3.756   8.667
   62MYC    C65 9975   0.765   3.731   8.528
   62MYC    C66 9976   0.671   3.756   8.408
   62MYC    C67 9977   0.751   3.744   8.277
   62MYC    C68 9978   0.664   3.747   8.150
   62MYC    C69 9979   0.755   3.707   8.032
   62MYC    C70 9980   0.669   3.652   7.918
   62MYC    C71 9981   0.755   3.631   7.792
   62MYC    C72 9982   0.683   3.602   7.659
   62MYC    C73 9983   0.758   3.637   7.530
   62MYC    C74 9984   0.690   3.598   7.397
   62MYC    C75 9985   0.760   3.646   7.268
   62MYC    C76 9986   0.689   3.601   7.139
   62MYC    C77 9987   0.765   3.636   7.011
   62MYC    C78 9988   0.687   3.590   6.886
   62MYC    C79 9989   0.771   3.592   6.758
   62MYC    C80 9990   0.691   3.542   6.637
   62MYC    C81 9991   0.015   4.172   9.721
   62MYC    O82 9992  -0.071   4.109   9.780
   62MYC    O83 9993   0.051   4.292   9.770
   62MYC     H1 9994   0.192   4.190   9.614
   62MYC     H2 9995   0.233   3.940   9.579
   62MYC     H3 9996  -0.015   3.889   9.712
   62MYC     H4 9997   0.273   4.054   9.805
   62MYC     H5 9998   0.122   3.988   9.866
   62MYC     H6 9999   0.292   3.787   9.727
   62MYC     H710000   0.374   3.865   9.858
   62MYC     H810001   0.106   3.710   9.890
   62MYC     H910002   0.270   3.660   9.927
   62MYC   0H1010003   0.892   3.816  10.021
   62MYC   1H1010004   0.891   3.578   9.955
   62MYC   2H1010005   0.712   3.570   9.947
   62MYC   3H1010006   0.679   3.750   9.804
   62MYC   4H1010007   0.856   3.777   9.790
   62MYC   5H1010008   0.841   3.517   9.716
   62MYC   6H1010009   0.674   3.555   9.677
   62MYC   7H1010010   0.798   3.763   9.545
   62MYC   8H1010011   0.919   3.642   9.538
   62MYC   9H1010012   0.743   3.483   9.437
   62MYC    H1010013   0.305   3.838  10.087
   62MYC   0H1110014   0.628   3.604   9.428
   62MYC   1H1110015   0.906   3.633   9.296
   62MYC   2H1110016   0.657   3.821   9.289
   62MYC   3H1110017   0.816   3.837   9.202
   62MYC   4H1110018   0.626   3.600   9.158
   62MYC   5H1110019   0.898   3.678   9.038
   62MYC   6H1110020   0.801   3.530   9.006
   62MYC   7H1110021   0.630   3.663   8.909
   62MYC   8H1110022   0.698   3.813   8.955
   62MYC   9H1110023   0.873   3.800   8.789
   62MYC    H1110024   0.137   3.895  10.078
   62MYC   0H1210025   0.847   3.624   8.758
   62MYC   1H1210026   0.617   3.692   8.683
   62MYC   2H1210027   0.681   3.862   8.663
   62MYC   3H1210028   0.853   3.794   8.516
   62MYC   4H1210029   0.794   3.625   8.520
   62MYC   5H1210030   0.600   3.673   8.416
   62MYC   6H1210031   0.623   3.853   8.426
   62MYC   7H1210032   0.821   3.827   8.268
   62MYC   8H1210033   0.806   3.649   8.283
   62MYC   9H1210034   0.572   3.688   8.161
   62MYC    H1210035   0.073   3.659  10.134
   62MYC   0H1310036   0.624   3.847   8.127
   62MYC   1H1310037   0.818   3.786   7.990
   62MYC   2H1310038   0.816   3.619   8.053
   62MYC   3H1310039   0.618   3.557   7.940
   62MYC   4H1310040   0.594   3.729   7.897
   62MYC   5H1310041   0.810   3.723   7.766
   62MYC   6H1310042   0.822   3.547   7.811
   62MYC   7H1310043   0.664   3.494   7.651
   62MYC   8H1310044   0.592   3.661   7.644
   62MYC   9H1310045   0.768   3.746   7.539
   62MYC    H1310046   0.240   3.629  10.184
   62MYC   0H1410047   0.862   3.602   7.539
   62MYC   1H1410048   0.683   3.490   7.381
   62MYC   2H1410049   0.586   3.633   7.400
   62MYC   3H1410050   0.754   3.756   7.271
   62MYC   4H1410051   0.866   3.619   7.265
   62MYC   5H1410052   0.670   3.495   7.157
   62MYC   6H1410053   0.590   3.647   7.134
   62MYC   7H1410054   0.800   3.740   7.004
   62MYC   8H1410055   0.856   3.574   7.019
   62MYC   9H1410056   0.653   3.488   6.906
   62MYC    H1410057   0.241   3.811  10.345
   62MYC   0H1510058   0.602   3.656   6.871
   62MYC   1H1510059   0.803   3.695   6.735
   62MYC   2H1510060   0.855   3.521   6.761
   62MYC   3H1510061   0.591   3.588   6.636
   62MYC   4H1510062   0.692   3.432   6.642
   62MYC   5H1510063   0.745   3.568   6.545
   62MYC   6H1510064  -0.008   4.311   9.845
   62MYC    H1510065   0.071   3.861  10.302
   62MYC    H1610066  -0.008   3.639  10.376
   62MYC    H1710067   0.149   3.600  10.436
   62MYC    H1810068  -0.020   3.845  10.538
   62MYC    H1910069   0.006   3.693  10.620
   62MYC    H2010070   0.264   3.755  10.608
   62MYC    H2110071   0.195   3.906  10.547
   62MYC    H2210072   0.086   3.964  10.751
   62MYC    H2310073   0.120   3.800  10.822
   62MYC    H2410074   0.367   3.879  10.821
   62MYC    H2510075   0.291   4.039  10.778
   62MYC    H2610076   0.153   4.020  10.980
   62MYC    H2710077   0.219   3.857  11.010
   62MYC    H2810078   0.386   4.124  11.024
   62MYC    H2910079   0.307   4.056  11.155
   62MYC    H3010080   0.443   3.846  11.139
   62MYC    H3110081   0.585   3.979  10.902
   62MYC    H3210082   0.663   3.951  11.203
   62MYC    H3310083   0.612   4.107  11.126
   62MYC    H3410084  -0.021   4.040   9.454
   62MYC    H3510085  -0.014   4.209   9.456
   62MYC    H3610086   0.205   4.211   9.370
   62MYC    H3710087   0.216   4.027   9.381
   62MYC    H3810088   0.038   3.997   9.221
   62MYC    H3910089   0.009   4.168   9.193
   62MYC    H4010090   0.263   4.174   9.109
   62MYC    H4110091   0.249   4.006   9.116
   62MYC    H4210092   0.016   4.057   8.964
   62MYC    H4310093   0.122   4.199   8.944
   62MYC    H4410094   0.307   4.024   8.891
   62MYC    H4510095   0.169   3.904   8.890
   62MYC    H4610096   0.060   4.034   8.708
   62MYC    H4710097   0.187   4.153   8.712
   62MYC    H4810098   0.363   4.004   8.636
   62MYC    H4910099   0.256   3.865   8.651
   62MYC    H5010100   0.100   3.973   8.467
   62MYC    H5110101   0.221   4.097   8.450
   62MYC    H5210102   0.377   3.909   8.369
   62MYC    H5310103   0.226   3.817   8.378
   62MYC    H5410104   0.109   3.994   8.234
   62MYC    H5510105   0.265   4.066   8.214
   62MYC    H5610106   0.348   3.834   8.120
   62MYC    H5710107   0.183   3.791   8.113
   62MYC    H5810108   0.126   3.994   7.977
   62MYC    H5910109   0.297   4.028   7.954
   62MYC    H6010110   0.353   3.805   7.867
   62MYC    H6110111   0.186   3.770   7.852
   62MYC    H6210112   0.136   3.973   7.715
   62MYC    H6310113   0.297   4.015   7.717
   62MYC    H6410114   0.359   3.784   7.598
   62MYC    H6510115   0.194   3.744   7.615
   62MYC    H6610116   0.129   3.937   7.474
   62MYC    H6710117   0.297   3.997   7.478
   62MYC    H6810118   0.359   3.773   7.338
   62MYC    H6910119   0.182   3.741   7.347
   62MYC    H7010120   0.143   3.944   7.206
   62MYC    H7110121   0.311   3.982   7.219
   62MYC    H7210122   0.372   3.765   7.094
   62MYC    H7310123   0.202   3.735   7.072
   62MYC    H7410124   0.195   3.965   6.958
   62MYC    H7510125   0.375   3.968   6.973
   62MYC    H7610126   0.425   3.781   6.849
   62MYC    H7710127   0.260   3.731   6.831
   62MYC    H7810128   0.209   3.935   6.708
   62MYC    H7910129   0.382   3.986   6.713
   62MYC    H8010130   0.301   3.856   6.490
   62MYC    H8110131   0.284   3.715   6.587
   62MYC    H8210132   0.443   3.793   6.579
   62MYC    H8310133   0.691   3.743  11.078
   62MYC    H8410134   0.578   3.715  10.947
   62MYC    H8510135   0.862   3.814  10.920
   62MYC    H8610136   0.792   3.666  10.870
   62MYC    H8710137   0.679   3.767  10.678
   62MYC    H8810138   0.722   3.931  10.752
   62MYC    H8910139   0.959   3.901  10.719
   62MYC    H9010140   0.930   3.739  10.673
   62MYC    H9110141   0.792   3.965  10.508
   62MYC    H9210142   0.964   3.923  10.487
   62MYC    H9310143   0.893   3.681  10.445
   62MYC    H9410144   0.726   3.740  10.430
   62MYC    H9510145   0.819   3.903  10.255
   62MYC    H9610146   0.978   3.819  10.272
   62MYC    H9710147   0.899   3.619  10.191
   62MYC    H9810148   0.728   3.651  10.219
   62MYC    H9910149   0.718   3.815  10.037
   63MYC     C110150   1.335   3.497   9.551
   63MYC     C210151   1.332   3.596   9.669
   63MYC     O310152   1.460   3.608   9.731
   63MYC     C410153   1.231   3.546   9.774
   63MYC     C510154   1.216   3.633   9.899
   63MYC     C610155   1.315   3.592  10.010
   63MYC     C710156   1.269   3.660  10.140
   63MYC     C810157   1.359   3.645  10.263
   63MYC     C910158   1.357   3.508  10.333
   63MYC    C1010159   1.461   3.494  10.445
   63MYC    C1110160   1.396   3.446  10.576
   63MYC    C1210161   1.329   3.565  10.648
   63MYC    C1310162   1.293   3.530  10.793
   63MYC    C1410163   1.215   3.644  10.862
   63MYC    C1510164   1.241   3.647  11.014
   63MYC    C1610165   1.205   3.773  11.094
   63MYC    C1710166   1.325   3.867  11.102
   63MYC    C1810167   1.308   4.016  11.088
   63MYC    C1910168   1.346   3.956  11.221
   63MYC    C2010169   1.413   3.547   9.429
   63MYC    C2110170   1.330   3.625   9.325
   63MYC    C2210171   1.322   3.564   9.184
   63MYC    C2310172   1.266   3.662   9.080
   63MYC    C2410173   1.242   3.586   8.949
   63MYC    C2510174   1.241   3.686   8.832
   63MYC    C2610175   1.214   3.629   8.692
   63MYC    C2710176   1.211   3.736   8.582
   63MYC    C2810177   1.192   3.665   8.446
   63MYC    C2910178   1.199   3.748   8.317
   63MYC    C3010179   1.181   3.661   8.191
   63MYC    C3110180   1.183   3.749   8.065
   63MYC    C3210181   1.214   3.667   7.939
   63MYC    C3310182   1.213   3.747   7.807
   63MYC    C3410183   1.245   3.659   7.685
   63MYC    C3510184   1.207   3.735   7.556
   63MYC    C3610185   1.202   3.650   7.428
   63MYC    C3710186   1.161   3.744   7.314
   63MYC    C3810187   1.156   3.674   7.177
   63MYC    C3910188   1.120   3.768   7.061
   63MYC    C4010189   1.121   3.712   6.917
   63MYC    C4110190   1.123   3.818   6.806
   63MYC    C4210191   1.113   3.750   6.668
   63MYC    C4310192   1.111   3.845   6.546
   63MYC    C4410193   1.418   4.081  11.005
   63MYC    C4510194   1.377   4.182  10.897
   63MYC    C4610195   1.283   4.137  10.784
   63MYC    C4710196   1.234   4.247  10.688
   63MYC    C4810197   1.162   4.196  10.562
   63MYC    C4910198   1.154   4.305  10.454
   63MYC    C5010199   1.109   4.247  10.318
   63MYC    C5110200   1.103   4.345  10.200
   63MYC    C5210201   1.153   4.290  10.064
   63MYC    C5310202   1.126   4.377   9.941
   63MYC    C5410203   1.150   4.297   9.812
   63MYC    C5510204   1.101   4.373   9.687
   63MYC    C5610205   1.109   4.287   9.559
   63MYC    C5710206   1.159   4.363   9.435
   63MYC    C5810207   1.149   4.277   9.309
   63MYC    C5910208   1.274   4.224   9.244
   63MYC    C6010209   1.200   4.340   9.182
   63MYC    C6110210   1.116   4.323   9.056
   63MYC    C6210211   1.194   4.260   8.938
   63MYC    C6310212   1.119   4.265   8.804
   63MYC    C6410213   1.193   4.174   8.705
   63MYC    C6510214   1.123   4.166   8.568
   63MYC    C6610215   1.206   4.112   8.451
   63MYC    C6710216   1.129   4.166   8.329
   63MYC    C6810217   1.180   4.115   8.193
   63MYC    C6910218   1.104   4.178   8.074
   63MYC    C7010219   1.164   4.136   7.939
   63MYC    C7110220   1.067   4.190   7.832
   63MYC    C7210221   1.115   4.130   7.699
   63MYC    C7310222   1.076   4.214   7.576
   63MYC    C7410223   1.126   4.151   7.446
   63MYC    C7510224   1.093   4.231   7.319
   63MYC    C7610225   1.126   4.157   7.188
   63MYC    C7710226   1.136   4.238   7.057
   63MYC    C7810227   1.193   4.155   6.941
   63MYC    C7910228   1.231   4.245   6.823
   63MYC    C8010229   1.244   4.179   6.684
   63MYC    C8110230   1.380   3.356   9.588
   63MYC    O8210231   1.446   3.333   9.688
   63MYC    O8310232   1.363   3.257   9.497
   63MYC     H110233   1.236   3.470   9.513
   63MYC     H210234   1.295   3.695   9.640
   63MYC     H310235   1.465   3.544   9.804
   63MYC     H410236   1.130   3.568   9.739
   63MYC     H510237   1.228   3.439   9.797
   63MYC     H610238   1.228   3.740   9.876
   63MYC     H710239   1.119   3.611   9.946
   63MYC     H810240   1.332   3.485  10.022
   63MYC     H910241   1.412   3.639   9.988
   63MYC   0H1010242   1.085   4.205  10.049
   63MYC   1H1010243   1.018   4.400   9.943
   63MYC   2H1010244   1.176   4.475   9.947
   63MYC   3H1010245   1.255   4.272   9.793
   63MYC   4H1010246   1.103   4.198   9.817
   63MYC   5H1010247   1.009   4.430   9.703
   63MYC   6H1010248   1.168   4.459   9.683
   63MYC   7H1010249   1.177   4.201   9.566
   63MYC   8H1010250   1.007   4.251   9.544
   63MYC   9H1010251   1.095   4.448   9.410
   63MYC    H1010252   1.258   3.768  10.125
   63MYC   0H1110253   1.253   4.417   9.454
   63MYC   1H1110254   1.057   4.220   9.312
   63MYC   2H1110255   1.376   4.232   9.280
   63MYC   3H1110256   1.269   4.128   9.194
   63MYC   4H1110257   1.240   4.440   9.194
   63MYC   5H1110258   1.024   4.265   9.071
   63MYC   6H1110259   1.075   4.417   9.017
   63MYC   7H1110260   1.293   4.306   8.930
   63MYC   8H1110261   1.223   4.156   8.957
   63MYC   9H1110262   1.019   4.223   8.821
   63MYC    H1110263   1.167   3.626  10.162
   63MYC   0H1210264   1.105   4.365   8.762
   63MYC   1H1210265   1.295   4.209   8.686
   63MYC   2H1210266   1.186   4.071   8.744
   63MYC   3H1210267   1.030   4.110   8.581
   63MYC   4H1210268   1.081   4.264   8.541
   63MYC   5H1210269   1.309   4.150   8.453
   63MYC   6H1210270   1.207   4.002   8.442
   63MYC   7H1210271   1.024   4.134   8.325
   63MYC   8H1210272   1.123   4.275   8.326
   63MYC   9H1210273   1.289   4.128   8.183
   63MYC    H1210274   1.462   3.676  10.240
   63MYC   0H1310275   1.156   4.010   8.173
   63MYC   1H1310276   1.000   4.144   8.077
   63MYC   2H1310277   1.113   4.286   8.087
   63MYC   3H1310278   1.262   4.185   7.934
   63MYC   4H1310279   1.176   4.027   7.935
   63MYC   5H1310280   0.962   4.164   7.848
   63MYC   6H1310281   1.066   4.300   7.837
   63MYC   7H1310282   1.224   4.120   7.700
   63MYC   8H1310283   1.083   4.026   7.683
   63MYC   9H1310284   0.967   4.222   7.580
   63MYC    H1310285   1.335   3.708  10.350
   63MYC   0H1410286   1.110   4.317   7.593
   63MYC   1H1410287   1.235   4.143   7.455
   63MYC   2H1410288   1.088   4.049   7.429
   63MYC   3H1410289   0.986   4.253   7.322
   63MYC   4H1410290   1.145   4.328   7.324
   63MYC   5H1410291   1.223   4.106   7.193
   63MYC   6H1410292   1.049   4.082   7.169
   63MYC   7H1410293   1.035   4.276   7.037
   63MYC   8H1410294   1.203   4.323   7.076
   63MYC   9H1410295   1.277   4.092   6.973
   63MYC    H1410296   1.251   3.501  10.361
   63MYC   0H1510297   1.117   4.084   6.905
   63MYC   1H1510298   1.156   4.324   6.813
   63MYC   2H1510299   1.323   4.298   6.850
   63MYC   3H1510300   1.143   4.139   6.666
   63MYC   4H1510301   1.308   4.090   6.681
   63MYC   5H1510302   1.279   4.246   6.605
   63MYC   6H1510303   1.410   3.190   9.550
   63MYC    H1510304   1.372   3.431  10.256
   63MYC    H1610305   1.537   3.422  10.412
   63MYC    H1710306   1.525   3.581  10.462
   63MYC    H1810307   1.321   3.368  10.560
   63MYC    H1910308   1.468   3.395  10.640
   63MYC    H2010309   1.391   3.656  10.654
   63MYC    H2110310   1.238   3.600  10.597
   63MYC    H2210311   1.226   3.443  10.799
   63MYC    H2310312   1.388   3.509  10.843
   63MYC    H2410313   1.243   3.741  10.819
   63MYC    H2510314   1.107   3.631  10.854
   63MYC    H2610315   1.191   3.564  11.065
   63MYC    H2710316   1.346   3.619  11.028
   63MYC    H2810317   1.114   3.819  11.052
   63MYC    H2910318   1.172   3.743  11.194
   63MYC    H3010319   1.419   3.823  11.069
   63MYC    H3110320   1.208   4.058  11.081
   63MYC    H3210321   1.449   3.962  11.255
   63MYC    H3310322   1.267   3.953  11.296
   63MYC    H3410323   1.500   3.607   9.459
   63MYC    H3510324   1.462   3.463   9.379
   63MYC    H3610325   1.230   3.649   9.363
   63MYC    H3710326   1.366   3.728   9.316
   63MYC    H3810327   1.425   3.539   9.153
   63MYC    H3910328   1.257   3.478   9.205
   63MYC    H4010329   1.172   3.699   9.124
   63MYC    H4110330   1.330   3.750   9.070
   63MYC    H4210331   1.323   3.517   8.923
   63MYC    H4310332   1.141   3.542   8.950
   63MYC    H4410333   1.158   3.755   8.855
   63MYC    H4510334   1.331   3.749   8.829
   63MYC    H4610335   1.288   3.553   8.665
   63MYC    H4710336   1.123   3.568   8.694
   63MYC    H4810337   1.127   3.804   8.600
   63MYC    H4910338   1.302   3.797   8.584
   63MYC    H5010339   1.270   3.588   8.443
   63MYC    H5110340   1.097   3.610   8.443
   63MYC    H5210341   1.121   3.825   8.320
   63MYC    H5310342   1.296   3.799   8.308
   63MYC    H5410343   1.271   3.599   8.193
   63MYC    H5510344   1.087   3.606   8.206
   63MYC    H5610345   1.093   3.811   8.062
   63MYC    H5710346   1.260   3.825   8.079
   63MYC    H5810347   1.307   3.610   7.935
   63MYC    H5910348   1.125   3.605   7.921
   63MYC    H6010349   1.121   3.802   7.785
   63MYC    H6110350   1.297   3.818   7.814
   63MYC    H6210351   1.351   3.629   7.684
   63MYC    H6310352   1.185   3.568   7.695
   63MYC    H6410353   1.113   3.788   7.577
   63MYC    H6510354   1.280   3.815   7.542
   63MYC    H6610355   1.300   3.606   7.407
   63MYC    H6710356   1.130   3.566   7.434
   63MYC    H6810357   1.064   3.787   7.344
   63MYC    H6910358   1.230   3.829   7.308
   63MYC    H7010359   1.247   3.619   7.150
   63MYC    H7110360   1.079   3.597   7.180
   63MYC    H7210361   1.022   3.817   7.069
   63MYC    H7310362   1.196   3.847   7.060
   63MYC    H7410363   1.203   3.641   6.901
   63MYC    H7510364   1.030   3.653   6.904
   63MYC    H7610365   1.037   3.884   6.822
   63MYC    H7710366   1.210   3.884   6.813
   63MYC    H7810367   1.210   3.701   6.660
   63MYC    H7910368   1.034   3.675   6.661
   63MYC    H8010369   1.163   3.811   6.456
   63MYC    H8110370   1.157   3.942   6.566
   63MYC    H8210371   1.008   3.871   6.517
   63MYC    H8310372   1.493   4.134  11.065
   63MYC    H8410373   1.481   4.001  10.965
   63MYC    H8510374   1.316   4.254  10.952
   63MYC    H8610375   1.460   4.235  10.848
   63MYC    H8710376   1.335   4.060  10.727
   63MYC    H8810377   1.195   4.087  10.826
   63MYC    H8910378   1.169   4.316  10.744
   63MYC    H9010379   1.324   4.296  10.647
   63MYC    H9110380   1.216   4.109  10.523
   63MYC    H9210381   1.066   4.151  10.588
   63MYC    H9310382   1.077   4.379  10.483
   63MYC    H9410383   1.249   4.360  10.448
   63MYC    H9510384   1.171   4.164  10.281
   63MYC    H9610385   1.010   4.204  10.335
   63MYC    H9710386   0.999   4.370  10.179
   63MYC    H9810387   1.159   4.439  10.208
   63MYC    H9910388   1.256   4.252  10.064
   64MYC     C110389   2.325   4.080   9.637
   64MYC     C210390   2.203   4.158   9.689
   64MYC     O310391   2.257   4.282   9.732
   64MYC     C410392   2.125   4.077   9.794
   64MYC     C510393   2.058   4.153   9.910
   64MYC     C610394   2.121   4.129  10.048
   64MYC     C710395   2.051   4.217  10.154
   64MYC     C810396   2.129   4.250  10.282
   64MYC     C910397   2.213   4.135  10.339
   64MYC    C1010398   2.331   4.190  10.420
   64MYC    C1110399   2.388   4.086  10.519
   64MYC    C1210400   2.283   4.072  10.630
   64MYC    C1310401   2.358   4.052  10.763
   64MYC    C1410402   2.265   4.010  10.878
   64MYC    C1510403   2.344   3.984  11.007
   64MYC    C1610404   2.248   3.934  11.116
   64MYC    C1710405   2.155   4.043  11.168
   64MYC    C1810406   2.011   4.020  11.206
   64MYC    C1910407   2.115   4.043  11.314
   64MYC    C2010408   2.365   4.123   9.495
   64MYC    C2110409   2.255   4.106   9.388
   64MYC    C2210410   2.323   4.097   9.251
   64MYC    C2310411   2.228   4.112   9.131
   64MYC    C2410412   2.246   4.011   9.017
   64MYC    C2510413   2.188   4.059   8.883
   64MYC    C2610414   2.210   3.966   8.762
   64MYC    C2710415   2.130   4.012   8.639
   64MYC    C2810416   2.165   3.926   8.516
   64MYC    C2910417   2.091   3.962   8.386
   64MYC    C3010418   2.154   3.891   8.265
   64MYC    C3110419   2.078   3.907   8.131
   64MYC    C3210420   2.166   3.858   8.014
   64MYC    C3310421   2.104   3.883   7.876
   64MYC    C3410422   2.182   3.817   7.761
   64MYC    C3510423   2.157   3.880   7.623
   64MYC    C3610424   2.221   3.796   7.511
   64MYC    C3710425   2.166   3.840   7.374
   64MYC    C3810426   2.258   3.803   7.257
   64MYC    C3910427   2.191   3.855   7.128
   64MYC    C4010428   2.272   3.811   7.005
   64MYC    C4110429   2.216   3.868   6.874
   64MYC    C4210430   2.324   3.849   6.766
   64MYC    C4310431   2.284   3.904   6.629
   64MYC    C4410432   1.916   4.130  11.162
   64MYC    C4510433   1.827   4.087  11.045
   64MYC    C4610434   1.897   4.039  10.917
   64MYC    C4710435   1.798   4.011  10.803
   64MYC    C4810436   1.871   3.998  10.668
   64MYC    C4910437   1.763   3.963  10.565
   64MYC    C5010438   1.816   3.915  10.429
   64MYC    C5110439   1.744   3.964  10.303
   64MYC    C5210440   1.768   3.864  10.188
   64MYC    C5310441   1.710   3.913  10.054
   64MYC    C5410442   1.781   3.852   9.933
   64MYC    C5510443   1.724   3.904   9.800
   64MYC    C5610444   1.782   3.867   9.663
   64MYC    C5710445   1.700   3.940   9.555
   64MYC    C5810446   1.754   3.920   9.414
   64MYC    C5910447   1.830   4.029   9.343
   64MYC    C6010448   1.689   3.996   9.301
   64MYC    C6110449   1.662   3.924   9.169
   64MYC    C6210450   1.691   4.011   9.046
   64MYC    C6310451   1.630   3.944   8.921
   64MYC    C6410452   1.671   4.006   8.786
   64MYC    C6510453   1.603   3.952   8.658
   64MYC    C6610454   1.615   4.033   8.528
   64MYC    C6710455   1.607   3.942   8.404
   64MYC    C6810456   1.614   4.025   8.275
   64MYC    C6910457   1.641   3.921   8.165
   64MYC    C7010458   1.656   3.983   8.025
   64MYC    C7110459   1.662   3.876   7.915
   64MYC    C7210460   1.665   3.938   7.774
   64MYC    C7310461   1.624   3.843   7.660
   64MYC    C7410462   1.640   3.911   7.523
   64MYC    C7510463   1.581   3.841   7.399
   64MYC    C7610464   1.623   3.922   7.276
   64MYC    C7710465   1.575   3.863   7.142
   64MYC    C7810466   1.636   3.933   7.020
   64MYC    C7910467   1.606   3.868   6.884
   64MYC    C8010468   1.640   3.953   6.760
   64MYC    C8110469   2.440   4.069   9.737
   64MYC    O8210470   2.548   4.122   9.719
   64MYC    O8310471   2.427   3.979   9.837
   64MYC     H110472   2.299   3.974   9.627
   64MYC     H210473   2.126   4.168   9.611
   64MYC     H310474   2.352   4.270   9.750
   64MYC     H410475   2.040   4.027   9.745
   64MYC     H510476   2.189   4.000   9.837
   64MYC     H610477   2.072   4.259   9.885
   64MYC     H710478   1.950   4.137   9.904
   64MYC     H810479   2.107   4.024  10.079
   64MYC     H910480   2.229   4.148  10.047
   64MYC   0H1010481   1.714   3.772  10.211
   64MYC   1H1010482   1.601   3.903  10.052
   64MYC   2H1010483   1.723   4.022  10.061
   64MYC   3H1010484   1.887   3.874   9.948
   64MYC   4H1010485   1.771   3.742   9.933
   64MYC   5H1010486   1.620   3.868   9.804
   64MYC   6H1010487   1.729   4.014   9.806
   64MYC   7H1010488   1.885   3.904   9.647
   64MYC   8H1010489   1.785   3.759   9.641
   64MYC   9H1010490   1.596   3.907   9.564
   64MYC    H1010491   2.011   4.310  10.110
   64MYC   0H1110492   1.696   4.046   9.584
   64MYC   1H1110493   1.783   3.817   9.394
   64MYC   2H1110494   1.851   4.119   9.400
   64MYC   3H1110495   1.908   4.006   9.270
   64MYC   4H1110496   1.610   4.065   9.328
   64MYC   5H1110497   1.725   3.835   9.165
   64MYC   6H1110498   1.561   3.880   9.166
   64MYC   7H1110499   1.642   4.108   9.054
   64MYC   8H1110500   1.800   4.028   9.042
   64MYC   9H1110501   1.643   3.835   8.918
   64MYC    H1110502   1.956   4.166  10.175
   64MYC   0H1210503   1.522   3.956   8.931
   64MYC   1H1210504   1.659   4.115   8.781
   64MYC   2H1210505   1.779   4.000   8.768
   64MYC   3H1210506   1.648   3.853   8.640
   64MYC   4H1210507   1.497   3.932   8.675
   64MYC   5H1210508   1.538   4.111   8.528
   64MYC   6H1210509   1.711   4.085   8.527
   64MYC   7H1210510   1.684   3.864   8.408
   64MYC   8H1210511   1.512   3.887   8.400
   64MYC   9H1210512   1.527   4.087   8.251
   64MYC    H1210513   2.206   4.323  10.253
   64MYC   0H1310514   1.699   4.092   8.289
   64MYC   1H1310515   1.726   3.854   8.184
   64MYC   2H1310516   1.553   3.856   8.159
   64MYC   3H1310517   1.581   4.057   7.996
   64MYC   4H1310518   1.756   4.030   8.027
   64MYC   5H1310519   1.750   3.813   7.932
   64MYC   6H1310520   1.569   3.819   7.930
   64MYC   7H1310521   1.589   4.016   7.762
   64MYC   8H1310522   1.766   3.974   7.752
   64MYC   9H1310523   1.693   3.758   7.654
   64MYC    H1310524   2.064   4.295  10.358
   64MYC   0H1410525   1.519   3.812   7.664
   64MYC   1H1410526   1.591   4.010   7.525
   64MYC   2H1410527   1.743   3.943   7.504
   64MYC   3H1410528   1.613   3.737   7.397
   64MYC   4H1410529   1.472   3.852   7.410
   64MYC   5H1410530   1.586   4.025   7.279
   64MYC   6H1410531   1.732   3.932   7.269
   64MYC   7H1410532   1.604   3.757   7.146
   64MYC   8H1410533   1.465   3.863   7.140
   64MYC   9H1410534   1.624   4.043   7.022
   64MYC    H1410535   2.153   4.062  10.395
   64MYC   0H1510536   1.744   3.925   7.038
   64MYC   1H1510537   1.653   3.769   6.878
   64MYC   2H1510538   1.498   3.846   6.880
   64MYC   3H1510539   1.745   3.974   6.737
   64MYC   4H1510540   1.601   4.055   6.768
   64MYC   5H1510541   1.608   3.897   6.672
   64MYC   6H1510542   2.487   4.005   9.909
   64MYC    H1510543   2.263   4.080  10.258
   64MYC    H1610544   2.410   4.224  10.352
   64MYC    H1710545   2.301   4.283  10.471
   64MYC    H1810546   2.416   3.996  10.463
   64MYC    H1910547   2.478   4.138  10.554
   64MYC    H2010548   2.214   4.157  10.634
   64MYC    H2110549   2.218   3.986  10.608
   64MYC    H2210550   2.437   3.976  10.757
   64MYC    H2310551   2.406   4.146  10.793
   64MYC    H2410552   2.187   4.086  10.891
   64MYC    H2510553   2.220   3.912  10.859
   64MYC    H2610554   2.410   3.899  10.987
   64MYC    H2710555   2.403   4.075  11.024
   64MYC    H2810556   2.188   3.848  11.084
   64MYC    H2910557   2.313   3.901  11.198
   64MYC    H3010558   2.193   4.138  11.131
   64MYC    H3110559   1.972   3.920  11.188
   64MYC    H3210560   2.101   4.135  11.371
   64MYC    H3310561   2.161   3.962  11.370
   64MYC    H3410562   2.396   4.228   9.493
   64MYC    H3510563   2.449   4.062   9.460
   64MYC    H3610564   2.200   4.011   9.397
   64MYC    H3710565   2.187   4.192   9.388
   64MYC    H3810566   2.413   4.160   9.250
   64MYC    H3910567   2.368   3.997   9.241
   64MYC    H4010568   2.122   4.107   9.161
   64MYC    H4110569   2.239   4.211   9.085
   64MYC    H4210570   2.354   4.003   9.000
   64MYC    H4310571   2.207   3.911   9.042
   64MYC    H4410572   2.082   4.086   8.890
   64MYC    H4510573   2.240   4.151   8.852
   64MYC    H4610574   2.317   3.964   8.737
   64MYC    H4710575   2.171   3.867   8.789
   64MYC    H4810576   2.021   4.016   8.649
   64MYC    H4910577   2.154   4.118   8.626
   64MYC    H5010578   2.270   3.950   8.498
   64MYC    H5110579   2.152   3.818   8.529
   64MYC    H5210580   1.983   3.946   8.395
   64MYC    H5310581   2.089   4.070   8.369
   64MYC    H5410582   2.249   3.940   8.241
   64MYC    H5510583   2.170   3.784   8.280
   64MYC    H5610584   1.977   3.865   8.134
   64MYC    H5710585   2.059   4.014   8.114
   64MYC    H5810586   2.258   3.918   8.016
   64MYC    H5910587   2.195   3.753   8.016
   64MYC    H6010588   2.003   3.839   7.874
   64MYC    H6110589   2.092   3.990   7.855
   64MYC    H6210590   2.289   3.830   7.780
   64MYC    H6310591   2.167   3.708   7.759
   64MYC    H6410592   2.049   3.892   7.605
   64MYC    H6510593   2.187   3.985   7.616
   64MYC    H6610594   2.327   3.821   7.496
   64MYC    H6710595   2.218   3.687   7.525
   64MYC    H6810596   2.072   3.788   7.352
   64MYC    H6910597   2.158   3.949   7.369
   64MYC    H7010598   2.352   3.859   7.260
   64MYC    H7110599   2.276   3.696   7.245
   64MYC    H7210600   2.083   3.835   7.119
   64MYC    H7310601   2.194   3.964   7.134
   64MYC    H7410602   2.375   3.848   7.014
   64MYC    H7510603   2.275   3.701   7.000
   64MYC    H7610604   2.127   3.809   6.851
   64MYC    H7710605   2.191   3.974   6.887
   64MYC    H7810606   2.420   3.896   6.789
   64MYC    H7910607   2.337   3.741   6.749
   64MYC    H8010608   2.367   3.948   6.572
   64MYC    H8110609   2.207   3.982   6.641
   64MYC    H8210610   2.238   3.824   6.570
   64MYC    H8310611   1.852   4.157  11.247
   64MYC    H8410612   1.968   4.223  11.137
   64MYC    H8510613   1.763   4.010  11.089
   64MYC    H8610614   1.765   4.174  11.018
   64MYC    H8710615   1.961   4.121  10.882
   64MYC    H8810616   1.955   3.948  10.935
   64MYC    H8910617   1.737   3.921  10.822
   64MYC    H9010618   1.734   4.100  10.804
   64MYC    H9110619   1.918   4.095  10.645
   64MYC    H9210620   1.955   3.928  10.676
   64MYC    H9310621   1.705   3.877  10.600
   64MYC    H9410622   1.688   4.043  10.552
   64MYC    H9510623   1.923   3.937  10.420
   64MYC    H9610624   1.810   3.805  10.433
   64MYC    H9710625   1.636   3.970  10.323
   64MYC    H9810626   1.780   4.064  10.273
   64MYC    H9910627   1.876   3.848  10.180
   65MYC     C110628   3.151   4.193   9.643
   65MYC     C210629   3.046   4.136   9.738
   65MYC     O310630   2.939   4.225   9.769
   65MYC     C410631   3.107   4.085   9.870
   65MYC     C510632   3.011   4.001   9.956
   65MYC     C610633   2.924   4.069  10.063
   65MYC     C710634   2.932   3.988  10.193
   65MYC     C810635   2.905   4.071  10.320
   65MYC     C910636   2.888   3.984  10.446
   65MYC    C1010637   2.882   4.058  10.580
   65MYC    C1110638   2.789   3.984  10.679
   65MYC    C1210639   2.747   4.069  10.800
   65MYC    C1310640   2.858   4.122  10.892
   65MYC    C1410641   2.950   4.009  10.939
   65MYC    C1510642   3.047   4.039  11.054
   65MYC    C1610643   3.105   3.911  11.117
   65MYC    C1710644   3.005   3.825  11.193
   65MYC    C1810645   2.939   3.705  11.130
   65MYC    C1910646   3.039   3.686  11.241
   65MYC    C2010647   3.097   4.245   9.509
   65MYC    C2110648   3.056   4.137   9.407
   65MYC    C2210649   2.995   4.191   9.277
   65MYC    C2310650   2.969   4.084   9.171
   65MYC    C2410651   2.949   4.142   9.030
   65MYC    C2510652   2.966   4.047   8.910
   65MYC    C2610653   2.963   4.132   8.782
   65MYC    C2710654   2.978   4.047   8.655
   65MYC    C2810655   2.962   4.133   8.528
   65MYC    C2910656   2.958   4.043   8.403
   65MYC    C3010657   2.894   4.106   8.278
   65MYC    C3110658   2.936   4.023   8.156
   65MYC    C3210659   2.904   4.102   8.027
   65MYC    C3310660   2.931   4.026   7.896
   65MYC    C3410661   2.869   4.093   7.773
   65MYC    C3510662   2.939   4.053   7.642
   65MYC    C3610663   2.847   4.109   7.532
   65MYC    C3710664   2.898   4.074   7.391
   65MYC    C3810665   2.803   4.123   7.280
   65MYC    C3910666   2.858   4.106   7.137
   65MYC    C4010667   2.760   4.156   7.030
   65MYC    C4110668   2.808   4.147   6.883
   65MYC    C4210669   2.703   4.195   6.781
   65MYC    C4310670   2.750   4.181   6.635
   65MYC    C4410671   2.790   3.686  11.154
   65MYC    C4510672   2.705   3.607  11.053
   65MYC    C4610673   2.705   3.669  10.913
   65MYC    C4710674   2.621   3.595  10.807
   65MYC    C4810675   2.662   3.651  10.670
   65MYC    C4910676   2.588   3.579  10.556
   65MYC    C5010677   2.609   3.656  10.424
   65MYC    C5110678   2.578   3.585  10.291
   65MYC    C5210679   2.614   3.671  10.169
   65MYC    C5310680   2.554   3.618  10.038
   65MYC    C5410681   2.632   3.643   9.907
   65MYC    C5510682   2.547   3.636   9.779
   65MYC    C5610683   2.629   3.677   9.656
   65MYC    C5710684   2.544   3.711   9.532
   65MYC    C5810685   2.627   3.686   9.407
   65MYC    C5910686   2.694   3.791   9.322
   65MYC    C6010687   2.563   3.731   9.278
   65MYC    C6110688   2.564   3.638   9.158
   65MYC    C6210689   2.573   3.726   9.032
   65MYC    C6310690   2.543   3.649   8.902
   65MYC    C6410691   2.605   3.721   8.781
   65MYC    C6510692   2.553   3.667   8.647
   65MYC    C6610693   2.616   3.735   8.524
   65MYC    C6710694   2.568   3.652   8.404
   65MYC    C6810695   2.628   3.721   8.280
   65MYC    C6910696   2.624   3.626   8.159
   65MYC    C7010697   2.685   3.688   8.032
   65MYC    C7110698   2.662   3.604   7.905
   65MYC    C7210699   2.682   3.684   7.776
   65MYC    C7310700   2.634   3.599   7.657
   65MYC    C7410701   2.663   3.653   7.516
   65MYC    C7510702   2.597   3.563   7.409
   65MYC    C7610703   2.614   3.618   7.266
   65MYC    C7710704   2.556   3.524   7.160
   65MYC    C7810705   2.612   3.564   7.022
   65MYC    C7910706   2.541   3.491   6.907
   65MYC    C8010707   2.591   3.532   6.767
   65MYC    C8110708   3.228   4.305   9.713
   65MYC    O8210709   3.349   4.300   9.726
   65MYC    O8310710   3.162   4.417   9.747
   65MYC     H110711   3.217   4.108   9.619
   65MYC     H210712   2.992   4.053   9.690
   65MYC     H310713   2.853   4.179   9.767
   65MYC     H410714   3.184   4.013   9.839
   65MYC     H510715   3.162   4.162   9.923
   65MYC     H610716   2.945   3.941   9.891
   65MYC     H710717   3.074   3.921   9.996
   65MYC     H810718   2.958   4.172  10.079
   65MYC     H910719   2.820   4.072  10.030
   65MYC   0H1010720   2.724   3.675  10.166
   65MYC   1H1010721   2.552   3.508  10.043
   65MYC   2H1010722   2.448   3.644  10.025
   65MYC   3H1010723   2.687   3.738   9.909
   65MYC   4H1010724   2.715   3.571   9.905
   65MYC   5H1010725   2.513   3.533   9.763
   65MYC   6H1010726   2.454   3.694   9.781
   65MYC   7H1010727   2.686   3.768   9.680
   65MYC   8H1010728   2.704   3.600   9.633
   65MYC   9H1010729   2.459   3.642   9.531
   65MYC    H1010730   2.880   3.892  10.188
   65MYC   0H1110731   2.508   3.814   9.544
   65MYC   1H1110732   2.663   3.584   9.402
   65MYC   2H1110733   2.690   3.895   9.353
   65MYC   3H1110734   2.783   3.765   9.264
   65MYC   4H1110735   2.480   3.801   9.285
   65MYC   5H1110736   2.648   3.569   9.165
   65MYC   6H1110737   2.472   3.577   9.159
   65MYC   7H1110738   2.509   3.814   9.039
   65MYC   8H1110739   2.677   3.759   9.029
   65MYC   9H1110740   2.575   3.544   8.903
   65MYC    H1110741   3.034   3.952  10.213
   65MYC   0H1210742   2.434   3.649   8.895
   65MYC   1H1210743   2.585   3.829   8.787
   65MYC   2H1210744   2.714   3.712   8.781
   65MYC   3H1210745   2.562   3.558   8.648
   65MYC   4H1210746   2.447   3.688   8.629
   65MYC   5H1210747   2.590   3.842   8.515
   65MYC   6H1210748   2.725   3.725   8.532
   65MYC   7H1210749   2.602   3.548   8.403
   65MYC   8H1210750   2.460   3.662   8.390
   65MYC   9H1210751   2.581   3.818   8.260
   65MYC    H1210752   2.984   4.140  10.350
   65MYC   0H1310753   2.737   3.738   8.287
   65MYC   1H1310754   2.683   3.536   8.181
   65MYC   2H1310755   2.520   3.600   8.139
   65MYC   3H1310756   2.638   3.786   8.021
   65MYC   4H1310757   2.793   3.710   8.035
   65MYC   5H1310758   2.724   3.514   7.898
   65MYC   6H1310759   2.558   3.567   7.904
   65MYC   7H1310760   2.629   3.780   7.781
   65MYC   8H1310761   2.790   3.701   7.768
   65MYC   9H1310762   2.680   3.499   7.659
   65MYC    H1310763   2.814   4.130  10.306
   65MYC   0H1410764   2.528   3.573   7.666
   65MYC   1H1410765   2.615   3.751   7.506
   65MYC   2H1410766   2.771   3.664   7.502
   65MYC   3H1410767   2.657   3.472   7.414
   65MYC   4H1410768   2.491   3.540   7.426
   65MYC   5H1410769   2.557   3.711   7.254
   65MYC   6H1410770   2.718   3.640   7.240
   65MYC   7H1410771   2.585   3.421   7.183
   65MYC   8H1410772   2.447   3.515   7.159
   65MYC   9H1410773   2.603   3.673   7.014
   65MYC    H1410774   2.790   3.936  10.434
   65MYC   0H1510775   2.720   3.552   7.010
   65MYC   1H1510776   2.558   3.384   6.922
   65MYC   2H1510777   2.434   3.514   6.914
   65MYC   3H1510778   2.697   3.510   6.750
   65MYC   4H1510779   2.570   3.637   6.746
   65MYC   5H1510780   2.539   3.482   6.685
   65MYC   6H1510781   3.228   4.470   9.795
   65MYC    H1510782   2.959   3.900  10.449
   65MYC    H1610783   2.983   4.078  10.617
   65MYC    H1710784   2.834   4.156  10.571
   65MYC    H1810785   2.695   3.956  10.631
   65MYC    H1910786   2.827   3.887  10.715
   65MYC    H2010787   2.699   4.157  10.756
   65MYC    H2110788   2.669   4.018  10.860
   65MYC    H2210789   2.919   4.198  10.840
   65MYC    H2310790   2.816   4.173  10.979
   65MYC    H2410791   2.889   3.919  10.956
   65MYC    H2510792   3.010   3.981  10.851
   65MYC    H2610793   3.130   4.104  11.024
   65MYC    H2710794   2.998   4.094  11.136
   65MYC    H2810795   3.167   3.848  11.053
   65MYC    H2910796   3.175   3.947  11.193
   65MYC    H3010797   2.943   3.892  11.252
   65MYC    H3110798   2.972   3.675  11.031
   65MYC    H3210799   3.021   3.670  11.347
   65MYC    H3310800   3.137   3.650  11.208
   65MYC    H3410801   3.011   4.307   9.538
   65MYC    H3510802   3.178   4.304   9.463
   65MYC    H3610803   3.139   4.072   9.375
   65MYC    H3710804   2.977   4.078   9.456
   65MYC    H3810805   2.898   4.229   9.311
   65MYC    H3910806   3.057   4.271   9.235
   65MYC    H4010807   3.054   4.015   9.170
   65MYC    H4110808   2.885   4.023   9.206
   65MYC    H4210809   2.855   4.198   9.026
   65MYC    H4310810   3.027   4.218   9.018
   65MYC    H4410811   3.055   3.987   8.929
   65MYC    H4510812   2.880   3.979   8.918
   65MYC    H4610813   2.875   4.197   8.785
   65MYC    H4710814   3.040   4.211   8.786
   65MYC    H4810815   3.077   3.999   8.659
   65MYC    H4910816   2.897   3.973   8.660
   65MYC    H5010817   2.866   4.185   8.526
   65MYC    H5110818   3.045   4.204   8.524
   65MYC    H5210819   3.063   4.014   8.391
   65MYC    H5310820   2.896   3.956   8.428
   65MYC    H5410821   2.786   4.115   8.288
   65MYC    H5510822   2.933   4.207   8.260
   65MYC    H5610823   3.045   4.007   8.160
   65MYC    H5710824   2.883   3.927   8.157
   65MYC    H5810825   2.797   4.125   8.033
   65MYC    H5910826   2.947   4.203   8.035
   65MYC    H6010827   3.041   4.021   7.896
   65MYC    H6110828   2.889   3.925   7.908
   65MYC    H6210829   2.760   4.086   7.766
   65MYC    H6310830   2.896   4.199   7.780
   65MYC    H6410831   3.047   4.074   7.636
   65MYC    H6510832   2.934   3.944   7.638
   65MYC    H6610833   2.745   4.074   7.549
   65MYC    H6710834   2.840   4.218   7.540
   65MYC    H6810835   2.995   4.115   7.361
   65MYC    H6910836   2.916   3.966   7.387
   65MYC    H7010837   2.711   4.065   7.288
   65MYC    H7110838   2.780   4.230   7.292
   65MYC    H7210839   2.953   4.160   7.130
   65MYC    H7310840   2.874   3.999   7.124
   65MYC    H7410841   2.660   4.114   7.043
   65MYC    H7510842   2.744   4.260   7.062
   65MYC    H7610843   2.903   4.199   6.869
   65MYC    H7710844   2.838   4.045   6.858
   65MYC    H7810845   2.620   4.126   6.795
   65MYC    H7910846   2.673   4.297   6.806
   65MYC    H8010847   2.665   4.187   6.565
   65MYC    H8110848   2.787   4.078   6.630
   65MYC    H8210849   2.829   4.252   6.606
   65MYC    H8310850   2.768   3.652  11.256
   65MYC    H8410851   2.755   3.790  11.166
   65MYC    H8510852   2.752   3.508  11.042
   65MYC    H8610853   2.602   3.585  11.086
   65MYC    H8710854   2.662   3.770  10.916
   65MYC    H8810855   2.810   3.679  10.882
   65MYC    H8910856   2.639   3.487  10.813
   65MYC    H9010857   2.513   3.598  10.825
   65MYC    H9110858   2.626   3.754  10.662
   65MYC    H9210859   2.769   3.653  10.646
   65MYC    H9310860   2.627   3.476  10.557
   65MYC    H9410861   2.479   3.577  10.569
   65MYC    H9510862   2.548   3.746  10.434
   65MYC    H9610863   2.716   3.682  10.415
   65MYC    H9710864   2.629   3.489  10.273
   65MYC    H9810865   2.470   3.566  10.287
   65MYC    H9910866   2.569   3.769  10.190
   66MYC     C110867   3.990   3.935   9.615
   66MYC     C210868   3.946   3.943   9.762
   66MYC     O310869   3.950   4.075   9.815
   66MYC     C410870   4.025   3.849   9.855
   66MYC     C510871   3.961   3.827   9.993
   66MYC     C610872   3.977   3.946  10.089
   66MYC     C710873   3.969   3.903  10.236
   66MYC     C810874   3.908   4.005  10.334
   66MYC     C910875   3.908   3.945  10.475
   66MYC    C1010876   3.860   4.033  10.592
   66MYC    C1110877   3.927   3.998  10.726
   66MYC    C1210878   3.897   3.863  10.794
   66MYC    C1310879   3.954   3.850  10.936
   66MYC    C1410880   3.867   3.904  11.051
   66MYC    C1510881   3.915   3.883  11.195
   66MYC    C1610882   3.797   3.877  11.293
   66MYC    C1710883   3.699   3.991  11.272
   66MYC    C1810884   3.576   3.958  11.192
   66MYC    C1910885   3.564   3.995  11.337
   66MYC    C2010886   3.912   4.041   9.535
   66MYC    C2110887   3.873   4.007   9.391
   66MYC    C2210888   3.982   4.004   9.282
   66MYC    C2310889   3.919   3.999   9.141
   66MYC    C2410890   4.027   3.979   9.034
   66MYC    C2510891   3.952   3.984   8.900
   66MYC    C2610892   4.033   3.936   8.779
   66MYC    C2710893   3.965   3.954   8.642
   66MYC    C2810894   4.046   3.915   8.518
   66MYC    C2910895   3.965   3.925   8.387
   66MYC    C3010896   4.047   3.936   8.257
   66MYC    C3110897   3.954   3.942   8.135
   66MYC    C3210898   4.040   3.949   8.008
   66MYC    C3310899   3.946   3.966   7.887
   66MYC    C3410900   4.029   3.946   7.760
   66MYC    C3510901   3.942   3.975   7.636
   66MYC    C3610902   4.010   3.959   7.499
   66MYC    C3710903   3.914   3.990   7.383
   66MYC    C3810904   3.985   3.967   7.249
   66MYC    C3910905   3.905   3.961   7.118
   66MYC    C4010906   3.993   3.919   6.999
   66MYC    C4110907   3.912   3.916   6.868
   66MYC    C4210908   3.992   3.861   6.748
   66MYC    C4310909   3.904   3.832   6.626
   66MYC    C4410910   3.536   4.054  11.081
   66MYC    C4510911   3.442   3.992  10.976
   66MYC    C4610912   3.519   3.924  10.862
   66MYC    C4710913   3.424   3.902  10.743
   66MYC    C4810914   3.485   3.824  10.625
   66MYC    C4910915   3.421   3.864  10.491
   66MYC    C5010916   3.477   3.787  10.370
   66MYC    C5110917   3.409   3.835  10.241
   66MYC    C5210918   3.471   3.786  10.109
   66MYC    C5310919   3.406   3.846   9.984
   66MYC    C5410920   3.471   3.808   9.850
   66MYC    C5510921   3.396   3.879   9.735
   66MYC    C5610922   3.466   3.866   9.599
   66MYC    C5710923   3.394   3.949   9.492
   66MYC    C5810924   3.446   3.931   9.350
   66MYC    C5910925   3.544   4.022   9.279
   66MYC    C6010926   3.399   4.018   9.236
   66MYC    C6110927   3.350   3.970   9.100
   66MYC    C6210928   3.454   4.002   8.991
   66MYC    C6310929   3.395   3.990   8.849
   66MYC    C6410930   3.498   4.029   8.742
   66MYC    C6510931   3.454   3.981   8.603
   66MYC    C6610932   3.541   4.037   8.490
   66MYC    C6710933   3.475   3.987   8.360
   66MYC    C6810934   3.565   3.991   8.236
   66MYC    C6910935   3.476   3.978   8.111
   66MYC    C7010936   3.565   3.987   7.986
   66MYC    C7110937   3.476   4.030   7.868
   66MYC    C7210938   3.548   4.019   7.732
   66MYC    C7310939   3.449   4.052   7.619
   66MYC    C7410940   3.514   4.010   7.486
   66MYC    C7510941   3.430   4.049   7.363
   66MYC    C7610942   3.473   3.959   7.246
   66MYC    C7710943   3.389   3.971   7.117
   66MYC    C7810944   3.473   3.937   6.993
   66MYC    C7910945   3.402   3.989   6.866
   66MYC    C8010946   3.468   3.951   6.733
   66MYC    C8110947   4.141   3.946   9.595
   66MYC    O8210948   4.222   3.858   9.578
   66MYC    O8310949   4.192   4.071   9.591
   66MYC     H110950   3.958   3.839   9.572
   66MYC     H210951   3.843   3.905   9.758
   66MYC     H310952   3.938   4.073   9.912
   66MYC     H410953   4.030   3.751   9.806
   66MYC     H510954   4.126   3.887   9.875
   66MYC     H610955   3.854   3.808   9.978
   66MYC     H710956   3.999   3.737  10.042
   66MYC     H810957   4.069   4.006  10.082
   66MYC     H910958   3.895   4.016  10.074
   66MYC   0H1010959   3.457   3.677  10.102
   66MYC   1H1010960   3.304   3.806   9.973
   66MYC   2H1010961   3.389   3.954   9.996
   66MYC   3H1010962   3.577   3.837   9.846
   66MYC   4H1010963   3.464   3.699   9.840
   66MYC   5H1010964   3.296   3.833   9.727
   66MYC   6H1010965   3.381   3.985   9.760
   66MYC   7H1010966   3.570   3.897   9.611
   66MYC   8H1010967   3.472   3.761   9.566
   66MYC   9H1010968   3.287   3.927   9.496
   66MYC    H1010969   3.905   3.814  10.249
   66MYC   0H1110970   3.414   4.055   9.509
   66MYC   1H1110971   3.452   3.825   9.327
   66MYC   2H1110972   3.575   4.110   9.335
   66MYC   3H1110973   3.618   3.981   9.211
   66MYC   4H1110974   3.354   4.114   9.261
   66MYC   5H1110975   3.327   3.864   9.116
   66MYC   6H1110976   3.256   4.021   9.077
   66MYC   7H1110977   3.480   4.107   9.009
   66MYC   8H1110978   3.540   3.938   9.012
   66MYC   9H1110979   3.376   3.883   8.837
   66MYC    H1110980   4.070   3.869  10.262
   66MYC   0H1210981   3.296   4.036   8.840
   66MYC   1H1210982   3.492   4.139   8.740
   66MYC   2H1210983   3.602   4.000   8.764
   66MYC   3H1210984   3.457   3.871   8.602
   66MYC   4H1210985   3.353   4.018   8.582
   66MYC   5H1210986   3.545   4.147   8.493
   66MYC   6H1210987   3.640   3.990   8.501
   66MYC   7H1210988   3.434   3.887   8.378
   66MYC   8H1210989   3.388   4.053   8.345
   66MYC   9H1210990   3.624   4.082   8.216
   66MYC    H1210991   3.961   4.101  10.333
   66MYC   0H1310992   3.645   3.916   8.239
   66MYC   1H1310993   3.430   3.879   8.106
   66MYC   2H1310994   3.394   4.052   8.108
   66MYC   3H1310995   3.636   4.069   8.005
   66MYC   4H1310996   3.618   3.893   7.969
   66MYC   5H1310997   3.397   3.953   7.859
   66MYC   6H1310998   3.425   4.125   7.886
   66MYC   7H1310999   3.635   4.085   7.734
   66MYC   8H1311000   3.584   3.917   7.714
   66MYC   9H1311001   3.360   3.988   7.628
   66MYC    H1311002   3.806   4.020  10.297
   66MYC   0H1411003   3.428   4.160   7.621
   66MYC   1H1411004   3.612   4.059   7.483
   66MYC   2H1411005   3.529   3.901   7.483
   66MYC   3H1411006   3.323   4.034   7.378
   66MYC   4H1411007   3.445   4.152   7.330
   66MYC   5H1411008   3.580   3.976   7.228
   66MYC   6H1411009   3.472   3.854   7.279
   66MYC   7H1411010   3.304   3.905   7.135
   66MYC   8H1411011   3.362   4.077   7.106
   66MYC   9H1411012   3.572   3.982   6.996
   66MYC    H1411013   3.844   3.855  10.472
   66MYC   0H1511014   3.480   3.827   6.993
   66MYC   1H1511015   3.297   3.955   6.871
   66MYC   2H1511016   3.404   4.098   6.873
   66MYC   3H1511017   3.474   3.844   6.710
   66MYC   4H1511018   3.572   3.985   6.738
   66MYC   5H1511019   3.417   4.002   6.649
   66MYC   6H1511020   4.289   4.057   9.588
   66MYC    H1511021   4.012   3.915  10.494
   66MYC    H1611022   3.892   4.137  10.581
   66MYC    H1711023   3.751   4.025  10.597
   66MYC    H1811024   4.035   4.016  10.721
   66MYC    H1911025   3.901   4.078  10.796
   66MYC    H2011026   3.790   3.839  10.803
   66MYC    H2111027   3.936   3.784  10.728
   66MYC    H2211028   3.975   3.744  10.958
   66MYC    H2311029   4.056   3.890  10.934
   66MYC    H2411030   3.862   4.011  11.027
   66MYC    H2511031   3.769   3.856  11.038
   66MYC    H2611032   3.967   3.787  11.203
   66MYC    H2711033   3.976   3.969  11.228
   66MYC    H2811034   3.743   3.783  11.272
   66MYC    H2911035   3.832   3.865  11.396
   66MYC    H3011036   3.741   4.090  11.255
   66MYC    H3111037   3.559   3.855  11.162
   66MYC    H3211038   3.545   4.096  11.375
   66MYC    H3311039   3.543   3.914  11.407
   66MYC    H3411040   3.820   4.058   9.592
   66MYC    H3511041   3.965   4.137   9.532
   66MYC    H3611042   3.806   3.920   9.389
   66MYC    H3711043   3.802   4.085   9.362
   66MYC    H3811044   4.057   4.084   9.288
   66MYC    H3911045   4.040   3.914   9.300
   66MYC    H4011046   3.843   3.922   9.119
   66MYC    H4111047   3.862   4.090   9.120
   66MYC    H4211048   4.101   4.060   9.046
   66MYC    H4311049   4.078   3.882   9.040
   66MYC    H4411050   3.866   3.916   8.907
   66MYC    H4511051   3.908   4.081   8.876
   66MYC    H4611052   4.135   3.976   8.774
   66MYC    H4711053   4.046   3.831   8.807
   66MYC    H4811054   3.869   3.900   8.645
   66MYC    H4911055   3.941   4.060   8.627
   66MYC    H5011056   4.135   3.978   8.508
   66MYC    H5111057   4.073   3.809   8.527
   66MYC    H5211058   3.908   3.832   8.386
   66MYC    H5311059   3.888   4.001   8.403
   66MYC    H5411060   4.111   4.025   8.261
   66MYC    H5511061   4.113   3.849   8.244
   66MYC    H5611062   3.886   3.856   8.131
   66MYC    H5711063   3.883   4.025   8.144
   66MYC    H5811064   4.108   4.035   8.009
   66MYC    H5911065   4.095   3.857   7.982
   66MYC    H6011066   3.867   3.890   7.896
   66MYC    H6111067   3.899   4.065   7.890
   66MYC    H6211068   4.111   4.019   7.755
   66MYC    H6311069   4.067   3.844   7.762
   66MYC    H6411070   3.849   3.916   7.635
   66MYC    H6511071   3.909   4.079   7.639
   66MYC    H6611072   4.102   4.018   7.493
   66MYC    H6711073   4.050   3.857   7.494
   66MYC    H6811074   3.827   3.923   7.392
   66MYC    H6911075   3.872   4.091   7.384
   66MYC    H7011076   4.059   4.047   7.244
   66MYC    H7111077   4.054   3.882   7.259
   66MYC    H7211078   3.818   3.897   7.140
   66MYC    H7311079   3.856   4.055   7.091
   66MYC    H7411080   4.081   3.983   6.985
   66MYC    H7511081   4.039   3.823   7.024
   66MYC    H7611082   3.831   3.845   6.885
   66MYC    H7711083   3.875   4.017   6.848
   66MYC    H7811084   4.078   3.924   6.720
   66MYC    H7911085   4.035   3.768   6.786
   66MYC    H8011086   3.961   3.787   6.544
   66MYC    H8111087   3.861   3.927   6.591
   66MYC    H8211088   3.815   3.771   6.645
   66MYC    H8311089   3.483   4.138  11.127
   66MYC    H8411090   3.623   4.097  11.028
   66MYC    H8511091   3.380   3.927  11.040
   66MYC    H8611092   3.374   4.071  10.943
   66MYC    H8711093   3.605   3.984  10.831
   66MYC    H8811094   3.557   3.827  10.897
   66MYC    H8911095   3.340   3.844  10.784
   66MYC    H9011096   3.389   3.996  10.698
   66MYC    H9111097   3.591   3.853  10.623
   66MYC    H9211098   3.482   3.717  10.644
   66MYC    H9311099   3.313   3.849  10.501
   66MYC    H9411100   3.437   3.970  10.465
   66MYC    H9511101   3.586   3.790  10.361
   66MYC    H9611102   3.450   3.682  10.383
   66MYC    H9711103   3.304   3.806  10.232
   66MYC    H9811104   3.412   3.944  10.241
   66MYC    H9911105   3.579   3.805  10.112
   67MYC     C111106   4.608   3.788   9.585
   67MYC     C211107   4.590   3.894   9.694
   67MYC     O311108   4.716   3.929   9.752
   67MYC     C411109   4.491   3.860   9.806
   67MYC     C511110   4.444   3.980   9.891
   67MYC     C611111   4.529   4.009  10.015
   67MYC     C711112   4.504   3.914  10.134
   67MYC     C811113   4.612   3.922  10.243
   67MYC     C911114   4.599   3.826  10.363
   67MYC    C1011115   4.684   3.873  10.483
   67MYC    C1111116   4.646   3.796  10.610
   67MYC    C1211117   4.545   3.857  10.709
   67MYC    C1311118   4.548   3.796  10.850
   67MYC    C1411119   4.478   3.882  10.957
   67MYC    C1511120   4.489   3.826  11.100
   67MYC    C1611121   4.415   3.914  11.203
   67MYC    C1711122   4.462   4.058  11.208
   67MYC    C1811123   4.370   4.176  11.197
   67MYC    C1911124   4.428   4.139  11.331
   67MYC    C2011125   4.676   3.840   9.457
   67MYC    C2111126   4.593   3.920   9.355
   67MYC    C2211127   4.650   3.945   9.214
   67MYC    C2311128   4.545   4.015   9.127
   67MYC    C2411129   4.608   4.065   8.996
   67MYC    C2511130   4.508   4.054   8.879
   67MYC    C2611131   4.584   4.064   8.745
   67MYC    C2711132   4.487   4.087   8.628
   67MYC    C2811133   4.561   4.061   8.495
   67MYC    C2911134   4.462   4.043   8.379
   67MYC    C3011135   4.534   4.000   8.250
   67MYC    C3111136   4.434   3.963   8.139
   67MYC    C3211137   4.505   3.943   8.004
   67MYC    C3311138   4.413   3.926   7.882
   67MYC    C3411139   4.492   3.900   7.753
   67MYC    C3511140   4.409   3.898   7.624
   67MYC    C3611141   4.500   3.912   7.501
   67MYC    C3711142   4.412   3.899   7.376
   67MYC    C3811143   4.494   3.893   7.245
   67MYC    C3911144   4.407   3.877   7.120
   67MYC    C4011145   4.485   3.891   6.988
   67MYC    C4111146   4.394   3.919   6.868
   67MYC    C4211147   4.469   3.966   6.742
   67MYC    C4311148   4.384   3.990   6.616
   67MYC    C4411149   4.401   4.314  11.139
   67MYC    C4511150   4.305   4.373  11.034
   67MYC    C4611151   4.324   4.305  10.897
   67MYC    C4711152   4.284   4.393  10.778
   67MYC    C4811153   4.290   4.315  10.645
   67MYC    C4911154   4.286   4.408  10.523
   67MYC    C5011155   4.260   4.332  10.392
   67MYC    C5111156   4.250   4.432  10.275
   67MYC    C5211157   4.248   4.360  10.139
   67MYC    C5311158   4.273   4.447  10.014
   67MYC    C5411159   4.240   4.368   9.886
   67MYC    C5511160   4.276   4.453   9.764
   67MYC    C5611161   4.255   4.388   9.626
   67MYC    C5711162   4.267   4.486   9.508
   67MYC    C5811163   4.221   4.415   9.381
   67MYC    C5911164   4.313   4.317   9.313
   67MYC    C6011165   4.276   4.446   9.244
   67MYC    C6111166   4.183   4.456   9.124
   67MYC    C6211167   4.248   4.463   8.985
   67MYC    C6311168   4.153   4.456   8.865
   67MYC    C6411169   4.231   4.440   8.734
   67MYC    C6511170   4.141   4.402   8.614
   67MYC    C6611171   4.220   4.399   8.482
   67MYC    C6711172   4.128   4.376   8.360
   67MYC    C6811173   4.200   4.397   8.226
   67MYC    C6911174   4.115   4.370   8.100
   67MYC    C7011175   4.199   4.364   7.972
   67MYC    C7111176   4.116   4.356   7.843
   67MYC    C7211177   4.206   4.335   7.721
   67MYC    C7311178   4.118   4.341   7.595
   67MYC    C7411179   4.200   4.325   7.466
   67MYC    C7511180   4.131   4.345   7.330
   67MYC    C7611181   4.227   4.320   7.212
   67MYC    C7711182   4.151   4.357   7.084
   67MYC    C7811183   4.236   4.329   6.959
   67MYC    C7911184   4.174   4.391   6.832
   67MYC    C8011185   4.257   4.396   6.703
   67MYC    C8111186   4.677   3.662   9.637
   67MYC    O8211187   4.799   3.650   9.640
   67MYC    O8311188   4.595   3.564   9.679
   67MYC     H111189   4.509   3.761   9.546
   67MYC     H211190   4.549   3.982   9.643
   67MYC     H311191   4.781   3.881   9.698
   67MYC     H411192   4.398   3.822   9.762
   67MYC     H511193   4.524   3.778   9.870
   67MYC     H611194   4.430   4.068   9.827
   67MYC     H711195   4.350   3.954   9.940
   67MYC     H811196   4.638   4.005  10.003
   67MYC     H911197   4.497   4.107  10.052
   67MYC   0H1011198   4.157   4.300  10.126
   67MYC   1H1011199   4.219   4.541  10.022
   67MYC   2H1011200   4.378   4.477  10.025
   67MYC   3H1011201   4.297   4.274   9.886
   67MYC   4H1011202   4.135   4.337   9.881
   67MYC   5H1011203   4.216   4.546   9.759
   67MYC   6H1011204   4.379   4.490   9.776
   67MYC   7H1011205   4.325   4.304   9.629
   67MYC   8H1011206   4.155   4.346   9.635
   67MYC   9H1011207   4.203   4.572   9.530
   67MYC    H1011208   4.408   3.926  10.186
   67MYC   0H1111209   4.373   4.515   9.496
   67MYC   1H1111210   4.114   4.396   9.385
   67MYC   2H1111211   4.417   4.307   9.344
   67MYC   3H1111212   4.281   4.225   9.266
   67MYC   4H1111213   4.345   4.531   9.244
   67MYC   5H1111214   4.119   4.367   9.120
   67MYC   6H1111215   4.116   4.543   9.132
   67MYC   7H1111216   4.307   4.555   8.979
   67MYC   8H1111217   4.320   4.381   8.984
   67MYC   9H1111218   4.081   4.373   8.864
   67MYC    H1111219   4.503   3.808  10.105
   67MYC   0H1211220   4.097   4.550   8.862
   67MYC   1H1211221   4.285   4.531   8.705
   67MYC   2H1211222   4.307   4.363   8.755
   67MYC   3H1211223   4.093   4.305   8.626
   67MYC   4H1211224   4.061   4.477   8.613
   67MYC   5H1211225   4.271   4.496   8.480
   67MYC   6H1211226   4.298   4.323   8.476
   67MYC   7H1211227   4.083   4.276   8.370
   67MYC   8H1211228   4.048   4.450   8.367
   67MYC   9H1211229   4.243   4.497   8.212
   67MYC    H1211230   4.714   3.924  10.202
   67MYC   0H1311231   4.287   4.332   8.218
   67MYC   1H1311232   4.047   4.284   8.109
   67MYC   2H1311233   4.057   4.462   8.086
   67MYC   3H1311234   4.264   4.452   7.963
   67MYC   4H1311235   4.262   4.274   7.973
   67MYC   5H1311236   4.036   4.281   7.848
   67MYC   6H1311237   4.051   4.444   7.834
   67MYC   7H1311238   4.275   4.420   7.709
   67MYC   8H1311239   4.265   4.243   7.730
   67MYC   9H1311240   4.050   4.255   7.603
   67MYC    H1311241   4.604   4.020  10.290
   67MYC   0H1411242   4.059   4.433   7.586
   67MYC   1H1411243   4.290   4.387   7.476
   67MYC   2H1411244   4.233   4.220   7.460
   67MYC   3H1411245   4.047   4.275   7.320
   67MYC   4H1411246   4.096   4.449   7.331
   67MYC   5H1411247   4.322   4.375   7.212
   67MYC   6H1411248   4.238   4.211   7.206
   67MYC   7H1411249   4.068   4.285   7.080
   67MYC   8H1411250   4.115   4.460   7.091
   67MYC   9H1411251   4.336   4.372   6.970
   67MYC    H1411252   4.492   3.834  10.385
   67MYC   0H1511253   4.256   4.222   6.949
   67MYC   1H1511254   4.081   4.336   6.812
   67MYC   2H1511255   4.150   4.496   6.853
   67MYC   3H1511256   4.245   4.300   6.651
   67MYC   4H1511257   4.363   4.400   6.732
   67MYC   5H1511258   4.233   4.478   6.635
   67MYC   6H1511259   4.659   3.490   9.685
   67MYC    H1511260   4.619   3.720  10.344
   67MYC    H1611261   4.788   3.850  10.457
   67MYC    H1711262   4.689   3.981  10.499
   67MYC    H1811263   4.610   3.699  10.574
   67MYC    H1911264   4.738   3.771  10.663
   67MYC    H2011265   4.556   3.965  10.722
   67MYC    H2111266   4.448   3.846  10.659
   67MYC    H2211267   4.503   3.696  10.846
   67MYC    H2311268   4.653   3.781  10.876
   67MYC    H2411269   4.527   3.980  10.960
   67MYC    H2511270   4.373   3.892  10.931
   67MYC    H2611271   4.439   3.730  11.119
   67MYC    H2711272   4.594   3.815  11.129
   67MYC    H2811273   4.307   3.902  11.188
   67MYC    H2911274   4.431   3.873  11.303
   67MYC    H3011275   4.562   4.077  11.169
   67MYC    H3111276   4.263   4.157  11.186
   67MYC    H3211277   4.504   4.203  11.374
   67MYC    H3311278   4.364   4.096  11.407
   67MYC    H3411279   4.761   3.901   9.490
   67MYC    H3511280   4.722   3.757   9.402
   67MYC    H3611281   4.496   3.869   9.347
   67MYC    H3711282   4.572   4.022   9.392
   67MYC    H3811283   4.744   4.001   9.221
   67MYC    H3911284   4.686   3.856   9.160
   67MYC    H4011285   4.464   3.945   9.103
   67MYC    H4111286   4.515   4.106   9.180
   67MYC    H4211287   4.631   4.172   9.003
   67MYC    H4311288   4.694   4.001   8.975
   67MYC    H4411289   4.456   3.957   8.884
   67MYC    H4511290   4.444   4.142   8.886
   67MYC    H4611291   4.662   4.141   8.754
   67MYC    H4711292   4.639   3.971   8.733
   67MYC    H4811293   4.406   4.016   8.646
   67MYC    H4911294   4.437   4.185   8.628
   67MYC    H5011295   4.633   4.137   8.461
   67MYC    H5111296   4.614   3.965   8.494
   67MYC    H5211297   4.382   3.971   8.402
   67MYC    H5311298   4.415   4.142   8.374
   67MYC    H5411299   4.608   4.076   8.223
   67MYC    H5511300   4.583   3.903   8.267
   67MYC    H5611301   4.377   3.873   8.168
   67MYC    H5711302   4.365   4.048   8.133
   67MYC    H5811303   4.573   4.027   7.986
   67MYC    H5911304   4.572   3.857   8.017
   67MYC    H6011305   4.336   3.848   7.895
   67MYC    H6111306   4.361   4.022   7.873
   67MYC    H6211307   4.572   3.975   7.744
   67MYC    H6311308   4.524   3.796   7.764
   67MYC    H6411309   4.358   3.801   7.615
   67MYC    H6511310   4.336   3.980   7.621
   67MYC    H6611311   4.558   4.006   7.492
   67MYC    H6711312   4.574   3.832   7.509
   67MYC    H6811313   4.347   3.811   7.376
   67MYC    H6911314   4.351   3.989   7.365
   67MYC    H7011315   4.538   3.993   7.235
   67MYC    H7111316   4.579   3.824   7.247
   67MYC    H7211317   4.351   3.782   7.116
   67MYC    H7311318   4.336   3.960   7.130
   67MYC    H7411319   4.560   3.971   6.999
   67MYC    H7511320   4.542   3.797   6.981
   67MYC    H7611321   4.329   3.832   6.849
   67MYC    H7711322   4.326   4.000   6.898
   67MYC    H7811323   4.518   4.060   6.769
   67MYC    H7911324   4.551   3.899   6.714
   67MYC    H8011325   4.431   4.053   6.540
   67MYC    H8111326   4.292   4.035   6.656
   67MYC    H8211327   4.342   3.899   6.572
   67MYC    H8311328   4.403   4.377  11.228
   67MYC    H8411329   4.502   4.321  11.098
   67MYC    H8511330   4.198   4.371  11.060
   67MYC    H8611331   4.342   4.476  11.025
   67MYC    H8711332   4.431   4.288  10.880
   67MYC    H8811333   4.266   4.213  10.892
   67MYC    H8911334   4.179   4.422  10.794
   67MYC    H9011335   4.343   4.486  10.770
   67MYC    H9111336   4.385   4.261  10.640
   67MYC    H9211337   4.208   4.243  10.640
   67MYC    H9311338   4.216   4.491  10.542
   67MYC    H9411339   4.383   4.458  10.518
   67MYC    H9511340   4.337   4.255  10.378
   67MYC    H9611341   4.165   4.277  10.389
   67MYC    H9711342   4.163   4.498  10.285
   67MYC    H9811343   4.339   4.496  10.271
   67MYC    H9911344   4.329   4.287  10.137
   68MYC     C111345   5.600   4.127   9.697
   68MYC     C211346   5.528   3.999   9.743
   68MYC     O311347   5.402   4.022   9.806
   68MYC     C411348   5.619   3.911   9.830
   68MYC     C511349   5.599   3.876   9.979
   68MYC     C611350   5.617   3.989  10.081
   68MYC     C711351   5.602   3.940  10.225
   68MYC     C811352   5.625   4.057  10.322
   68MYC     C911353   5.652   4.022  10.469
   68MYC    C1011354   5.688   4.142  10.559
   68MYC    C1111355   5.702   4.108  10.709
   68MYC    C1211356   5.572   4.096  10.790
   68MYC    C1311357   5.572   4.070  10.941
   68MYC    C1411358   5.430   4.075  11.000
   68MYC    C1511359   5.437   4.069  11.153
   68MYC    C1611360   5.298   4.040  11.212
   68MYC    C1711361   5.199   4.151  11.181
   68MYC    C1811362   5.078   4.121  11.097
   68MYC    C1911363   5.063   4.143  11.245
   68MYC    C2011364   5.549   4.173   9.559
   68MYC    C2111365   5.597   4.088   9.441
   68MYC    C2211366   5.577   4.170   9.313
   68MYC    C2311367   5.613   4.111   9.176
   68MYC    C2411368   5.602   4.221   9.069
   68MYC    C2511369   5.613   4.166   8.926
   68MYC    C2611370   5.583   4.269   8.817
   68MYC    C2711371   5.605   4.208   8.677
   68MYC    C2811372   5.582   4.290   8.549
   68MYC    C2911373   5.587   4.199   8.425
   68MYC    C3011374   5.585   4.278   8.293
   68MYC    C3111375   5.592   4.200   8.161
   68MYC    C3211376   5.579   4.276   8.028
   68MYC    C3311377   5.557   4.176   7.913
   68MYC    C3411378   5.555   4.250   7.778
   68MYC    C3511379   5.537   4.147   7.665
   68MYC    C3611380   5.583   4.196   7.527
   68MYC    C3711381   5.553   4.098   7.412
   68MYC    C3811382   5.618   4.134   7.278
   68MYC    C3911383   5.610   4.028   7.166
   68MYC    C4011384   5.620   4.098   7.029
   68MYC    C4111385   5.633   4.001   6.910
   68MYC    C4211386   5.634   4.084   6.781
   68MYC    C4311387   5.598   4.003   6.656
   68MYC    C4411388   5.029   4.227  10.999
   68MYC    C4511389   4.976   4.166  10.868
   68MYC    C4611390   5.091   4.113  10.781
   68MYC    C4711391   5.042   4.053  10.648
   68MYC    C4811392   5.157   4.014  10.554
   68MYC    C4911393   5.098   3.965  10.420
   68MYC    C5011394   5.199   3.926  10.310
   68MYC    C5111395   5.124   3.906  10.178
   68MYC    C5211396   5.199   3.855  10.054
   68MYC    C5311397   5.139   3.874   9.913
   68MYC    C5411398   5.196   3.783   9.804
   68MYC    C5511399   5.147   3.819   9.662
   68MYC    C5611400   5.202   3.738   9.544
   68MYC    C5711401   5.214   3.810   9.409
   68MYC    C5811402   5.213   3.731   9.278
   68MYC    C5911403   5.340   3.683   9.213
   68MYC    C6011404   5.255   3.788   9.145
   68MYC    C6111405   5.195   3.752   9.010
   68MYC    C6211406   5.189   3.865   8.906
   68MYC    C6311407   5.109   3.810   8.787
   68MYC    C6411408   5.074   3.917   8.682
   68MYC    C6511409   4.992   3.855   8.568
   68MYC    C6611410   4.964   3.954   8.453
   68MYC    C6711411   4.906   3.884   8.329
   68MYC    C6811412   4.931   3.969   8.203
   68MYC    C6911413   4.899   3.875   8.085
   68MYC    C7011414   4.916   3.947   7.950
   68MYC    C7111415   4.958   3.851   7.838
   68MYC    C7211416   5.015   3.914   7.709
   68MYC    C7311417   5.038   3.798   7.610
   68MYC    C7411418   5.116   3.844   7.485
   68MYC    C7511419   5.147   3.730   7.386
   68MYC    C7611420   5.147   3.779   7.240
   68MYC    C7711421   5.201   3.663   7.156
   68MYC    C7811422   5.245   3.719   7.019
   68MYC    C7911423   5.290   3.599   6.933
   68MYC    C8011424   5.318   3.638   6.787
   68MYC    C8111425   5.599   4.237   9.802
   68MYC    O8211426   5.495   4.293   9.833
   68MYC    O8311427   5.708   4.243   9.882
   68MYC     H111428   5.707   4.111   9.683
   68MYC     H211429   5.510   3.937   9.654
   68MYC     H311430   5.379   4.116   9.797
   68MYC     H411431   5.624   3.821   9.768
   68MYC     H511432   5.721   3.951   9.825
   68MYC     H611433   5.505   3.820   9.984
   68MYC     H711434   5.672   3.798  10.005
   68MYC     H811435   5.716   4.036  10.068
   68MYC     H911436   5.551   4.075  10.064
   68MYC   0H1011437   5.217   3.747  10.065
   68MYC   1H1011438   5.032   3.855   9.929
   68MYC   2H1011439   5.149   3.976   9.875
   68MYC   3H1011440   5.306   3.787   9.797
   68MYC   4H1011441   5.164   3.681   9.829
   68MYC   5H1011442   5.042   3.791   9.668
   68MYC   6H1011443   5.150   3.928   9.648
   68MYC   7H1011444   5.303   3.702   9.563
   68MYC   8H1011445   5.146   3.643   9.538
   68MYC   9H1011446   5.124   3.873   9.400
   68MYC    H1011447   5.512   3.883  10.251
   68MYC   0H1111448   5.298   3.880   9.416
   68MYC   1H1111449   5.137   3.654   9.272
   68MYC   2H1111450   5.434   3.707   9.262
   68MYC   3H1111451   5.336   3.586   9.163
   68MYC   4H1111452   5.304   3.885   9.135
   68MYC   5H1111453   5.256   3.673   8.964
   68MYC   6H1111454   5.096   3.707   9.027
   68MYC   7H1111455   5.133   3.946   8.955
   68MYC   8H1111456   5.284   3.905   8.871
   68MYC   9H1111457   5.163   3.729   8.736
   68MYC    H1111458   5.684   3.872  10.248
   68MYC   0H1211459   5.012   3.772   8.822
   68MYC   1H1211460   5.023   3.999   8.734
   68MYC   2H1211461   5.164   3.963   8.641
   68MYC   3H1211462   5.040   3.768   8.522
   68MYC   4H1211463   4.894   3.832   8.612
   68MYC   5H1211464   4.889   4.032   8.475
   68MYC   6H1211465   5.057   4.007   8.427
   68MYC   7H1211466   4.957   3.789   8.309
   68MYC   8H1211467   4.797   3.877   8.336
   68MYC   9H1211468   4.866   4.057   8.213
   68MYC    H1211469   5.714   4.104  10.278
   68MYC   0H1311470   5.032   4.009   8.193
   68MYC   1H1311471   4.966   3.788   8.089
   68MYC   2H1311472   4.794   3.845   8.094
   68MYC   3H1311473   4.824   3.996   7.916
   68MYC   4H1311474   4.987   4.030   7.957
   68MYC   5H1311475   5.033   3.780   7.875
   68MYC   6H1311476   4.867   3.796   7.812
   68MYC   7H1311477   4.942   3.985   7.669
   68MYC   8H1311478   5.107   3.970   7.728
   68MYC   9H1311479   5.099   3.721   7.658
   68MYC    H1311480   5.544   4.130  10.313
   68MYC   0H1411481   4.941   3.751   7.587
   68MYC   1H1411482   5.058   3.916   7.427
   68MYC   2H1411483   5.212   3.883   7.520
   68MYC   3H1411484   5.244   3.690   7.417
   68MYC   4H1411485   5.080   3.644   7.399
   68MYC   5H1411486   5.047   3.814   7.210
   68MYC   6H1411487   5.211   3.868   7.232
   68MYC   7H1411488   5.281   3.604   7.202
   68MYC   8H1411489   5.117   3.592   7.145
   68MYC   9H1411490   5.160   3.763   6.965
   68MYC    H1411491   5.562   3.976  10.511
   68MYC   0H1511492   5.325   3.793   7.018
   68MYC   1H1511493   5.379   3.547   6.971
   68MYC   2H1511494   5.218   3.516   6.935
   68MYC   3H1511495   5.405   3.706   6.789
   68MYC   4H1511496   5.228   3.688   6.752
   68MYC   5H1511497   5.344   3.553   6.723
   68MYC   6H1511498   5.683   4.313   9.944
   68MYC    H1511499   5.740   3.956  10.469
   68MYC    H1611500   5.781   4.190  10.528
   68MYC    H1711501   5.612   4.220  10.550
   68MYC    H1811502   5.763   4.017  10.714
   68MYC    H1911503   5.747   4.194  10.759
   68MYC    H2011504   5.521   4.192  10.777
   68MYC    H2111505   5.499   4.025  10.749
   68MYC    H2211506   5.610   3.969  10.962
   68MYC    H2311507   5.637   4.143  10.992
   68MYC    H2411508   5.381   4.171  10.977
   68MYC    H2511509   5.370   3.993  10.960
   68MYC    H2611510   5.506   3.989  11.184
   68MYC    H2711511   5.474   4.168  11.185
   68MYC    H2811512   5.258   3.943  11.179
   68MYC    H2911513   5.306   4.032  11.321
   68MYC    H3011514   5.242   4.250  11.171
   68MYC    H3111515   5.066   4.019  11.059
   68MYC    H3211516   5.014   4.234  11.281
   68MYC    H3311517   5.039   4.057  11.306
   68MYC    H3411518   5.440   4.182   9.570
   68MYC    H3511519   5.585   4.277   9.557
   68MYC    H3611520   5.702   4.060   9.458
   68MYC    H3711521   5.535   3.997   9.445
   68MYC    H3811522   5.471   4.198   9.312
   68MYC    H3911523   5.634   4.262   9.330
   68MYC    H4011524   5.714   4.069   9.184
   68MYC    H4111525   5.549   4.026   9.148
   68MYC    H4211526   5.511   4.282   9.081
   68MYC    H4311527   5.682   4.294   9.087
   68MYC    H4411528   5.715   4.126   8.913
   68MYC    H4511529   5.538   4.086   8.926
   68MYC    H4611530   5.482   4.311   8.813
   68MYC    H4711531   5.653   4.351   8.836
   68MYC    H4811532   5.706   4.166   8.666
   68MYC    H4911533   5.538   4.121   8.675
   68MYC    H5011534   5.480   4.325   8.566
   68MYC    H5111535   5.654   4.373   8.544
   68MYC    H5211536   5.674   4.133   8.436
   68MYC    H5311537   5.501   4.131   8.422
   68MYC    H5411538   5.494   4.340   8.289
   68MYC    H5511539   5.665   4.353   8.302
   68MYC    H5611540   5.681   4.135   8.157
   68MYC    H5711541   5.501   4.140   8.171
   68MYC    H5811542   5.502   4.354   8.031
   68MYC    H5911543   5.675   4.327   8.022
   68MYC    H6011544   5.636   4.100   7.907
   68MYC    H6111545   5.459   4.132   7.934
   68MYC    H6211546   5.474   4.323   7.766
   68MYC    H6311547   5.649   4.301   7.753
   68MYC    H6411548   5.595   4.057   7.688
   68MYC    H6511549   5.431   4.121   7.664
   68MYC    H6611550   5.532   4.289   7.499
   68MYC    H6711551   5.691   4.215   7.534
   68MYC    H6811552   5.586   4.000   7.450
   68MYC    H6911553   5.444   4.089   7.404
   68MYC    H7011554   5.567   4.225   7.244
   68MYC    H7111555   5.723   4.161   7.298
   68MYC    H7211556   5.694   3.960   7.177
   68MYC    H7311557   5.518   3.968   7.168
   68MYC    H7411558   5.538   4.169   7.012
   68MYC    H7511559   5.704   4.167   7.038
   68MYC    H7611560   5.733   3.956   6.916
   68MYC    H7711561   5.552   3.927   6.903
   68MYC    H7811562   5.570   4.173   6.787
   68MYC    H7911563   5.733   4.124   6.757
   68MYC    H8011564   5.636   3.900   6.644
   68MYC    H8111565   5.618   4.065   6.568
   68MYC    H8211566   5.490   3.981   6.657
   68MYC    H8311567   4.949   4.291  11.039
   68MYC    H8411568   5.102   4.305  10.975
   68MYC    H8511569   4.906   4.087  10.896
   68MYC    H8611570   4.916   4.240  10.813
   68MYC    H8711571   5.157   4.197  10.753
   68MYC    H8811572   5.155   4.045  10.839
   68MYC    H8911573   4.968   3.975  10.669
   68MYC    H9011574   4.983   4.131  10.599
   68MYC    H9111575   5.226   4.100  10.554
   68MYC    H9211576   5.213   3.934  10.603
   68MYC    H9311577   5.031   3.882  10.445
   68MYC    H9411578   5.031   4.042  10.380
   68MYC    H9511579   5.270   4.009  10.306
   68MYC    H9611580   5.255   3.837  10.341
   68MYC    H9711581   5.032   3.847  10.191
   68MYC    H9811582   5.085   4.005  10.150
   68MYC    H9911583   5.298   3.902  10.055
   69MYC     C111584   5.868   3.558   9.612
   69MYC     C211585   6.005   3.619   9.642
   69MYC     O311586   6.110   3.524   9.658
   69MYC     C411587   6.002   3.719   9.759
   69MYC     C511588   6.078   3.689   9.889
   69MYC     C611589   6.034   3.562   9.964
   69MYC     C711590   6.058   3.555  10.115
   69MYC     C811591   5.962   3.455  10.182
   69MYC     C911592   5.997   3.427  10.329
   69MYC    C1011593   5.890   3.343  10.399
   69MYC    C1111594   5.859   3.390  10.542
   69MYC    C1211595   5.973   3.402  10.645
   69MYC    C1311596   5.946   3.495  10.764
   69MYC    C1411597   6.055   3.504  10.872
   69MYC    C1511598   6.001   3.573  10.999
   69MYC    C1611599   6.016   3.726  10.994
   69MYC    C1711600   6.151   3.784  11.036
   69MYC    C1811601   6.151   3.925  11.088
   69MYC    C1911602   6.187   3.811  11.180
   69MYC    C2011603   5.851   3.475   9.484
   69MYC    C2111604   5.896   3.543   9.353
   69MYC    C2211605   5.879   3.453   9.230
   69MYC    C2311606   5.912   3.525   9.098
   69MYC    C2411607   5.888   3.431   8.979
   69MYC    C2511608   5.931   3.491   8.844
   69MYC    C2611609   5.884   3.405   8.725
   69MYC    C2711610   5.868   3.484   8.594
   69MYC    C2811611   5.849   3.395   8.471
   69MYC    C2911612   5.893   3.464   8.341
   69MYC    C3011613   5.880   3.389   8.207
   69MYC    C3111614   5.869   3.473   8.079
   69MYC    C3211615   5.869   3.399   7.944
   69MYC    C3311616   5.882   3.494   7.824
   69MYC    C3411617   5.904   3.420   7.691
   69MYC    C3511618   5.893   3.521   7.576
   69MYC    C3611619   5.920   3.449   7.443
   69MYC    C3711620   5.921   3.546   7.323
   69MYC    C3811621   5.943   3.473   7.189
   69MYC    C3911622   5.941   3.564   7.065
   69MYC    C4011623   5.954   3.485   6.933
   69MYC    C4111624   5.882   3.568   6.825
   69MYC    C4211625   5.851   3.484   6.701
   69MYC    C4311626   5.780   3.561   6.588
   69MYC    C4411627   6.250   4.031  11.041
   69MYC    C4511628   6.196   4.124  10.932
   69MYC    C4611629   6.168   4.052  10.799
   69MYC    C4711630   6.152   4.152  10.683
   69MYC    C4811631   6.129   4.085  10.547
   69MYC    C4911632   6.130   4.173  10.421
   69MYC    C5011633   6.120   4.103  10.284
   69MYC    C5111634   6.106   4.206  10.171
   69MYC    C5211635   6.080   4.137  10.036
   69MYC    C5311636   6.079   4.231   9.914
   69MYC    C5411637   6.033   4.147   9.793
   69MYC    C5511638   6.059   4.214   9.658
   69MYC    C5611639   6.010   4.131   9.537
   69MYC    C5711640   6.085   4.170   9.409
   69MYC    C5811641   6.027   4.096   9.289
   69MYC    C5911642   6.092   3.970   9.240
   69MYC    C6011643   6.096   4.095   9.155
   69MYC    C6111644   6.016   4.088   9.026
   69MYC    C6211645   6.095   4.041   8.902
   69MYC    C6311646   6.010   4.034   8.774
   69MYC    C6411647   6.074   3.966   8.652
   69MYC    C6511648   5.976   3.975   8.534
   69MYC    C6611649   6.046   3.944   8.401
   69MYC    C6711650   5.952   3.941   8.280
   69MYC    C6811651   6.032   3.903   8.154
   69MYC    C6911652   5.957   3.910   8.020
   69MYC    C7011653   6.060   3.911   7.905
   69MYC    C7111654   6.009   3.912   7.761
   69MYC    C7211655   6.111   3.963   7.658
   69MYC    C7311656   6.044   3.973   7.520
   69MYC    C7411657   6.122   4.042   7.407
   69MYC    C7511658   6.061   4.024   7.266
   69MYC    C7611659   6.130   4.099   7.151
   69MYC    C7711660   6.063   4.068   7.016
   69MYC    C7811661   6.150   4.114   6.898
   69MYC    C7911662   6.100   4.047   6.769
   69MYC    C8011663   6.164   4.112   6.646
   69MYC    C8111664   5.805   3.478   9.726
   69MYC    O8211665   5.804   3.356   9.733
   69MYC    O8311666   5.720   3.548   9.803
   69MYC     H111667   5.805   3.647   9.602
   69MYC     H211668   6.012   3.685   9.555
   69MYC     H311669   6.174   3.558   9.723
   69MYC     H411670   6.040   3.817   9.728
   69MYC     H511671   5.897   3.742   9.780
   69MYC     H611672   6.187   3.700   9.889
   69MYC     H711673   6.053   3.778   9.947
   69MYC     H811674   5.926   3.551   9.949
   69MYC     H911675   6.061   3.461   9.929
   69MYC   0H1011676   5.989   4.077  10.047
   69MYC   1H1011677   6.029   4.327   9.932
   69MYC   2H1011678   6.183   4.261   9.899
   69MYC   3H1011679   6.082   4.049   9.795
   69MYC   4H1011680   5.926   4.121   9.800
   69MYC   5H1011681   6.005   4.309   9.658
   69MYC   6H1011682   6.164   4.246   9.655
   69MYC   7H1011683   6.018   4.023   9.554
   69MYC   8H1011684   5.904   4.157   9.533
   69MYC   9H1011685   6.075   4.278   9.391
   69MYC    H1011686   6.163   3.525  10.128
   69MYC   0H1111687   6.192   4.148   9.413
   69MYC   1H1111688   5.919   4.109   9.288
   69MYC   2H1111689   6.188   3.943   9.284
   69MYC   3H1111690   6.028   3.890   9.205
   69MYC   4H1111691   6.188   4.149   9.132
   69MYC   5H1111692   5.929   4.022   9.034
   69MYC   6H1111693   5.982   4.190   9.004
   69MYC   7H1111694   6.185   4.102   8.886
   69MYC   8H1111695   6.130   3.939   8.922
   69MYC   9H1111696   5.925   3.969   8.796
   69MYC    H1111697   6.044   3.653  10.163
   69MYC   0H1211698   5.963   4.131   8.756
   69MYC   1H1211699   6.169   4.013   8.624
   69MYC   2H1211700   6.099   3.861   8.674
   69MYC   3H1211701   5.908   3.894   8.564
   69MYC   4H1211702   5.919   4.069   8.536
   69MYC   5H1211703   6.133   4.010   8.389
   69MYC   6H1211704   6.091   3.845   8.406
   69MYC   7H1211705   5.864   3.877   8.293
   69MYC   8H1211706   5.897   4.036   8.271
   69MYC   9H1211707   6.112   3.978   8.153
   69MYC    H1211708   5.862   3.498  10.170
   69MYC   0H1311709   6.087   3.808   8.157
   69MYC   1H1311710   5.893   3.823   8.003
   69MYC   2H1311711   5.892   3.998   8.013
   69MYC   3H1311712   6.127   3.995   7.931
   69MYC   4H1311713   6.125   3.823   7.914
   69MYC   5H1311714   5.970   3.815   7.727
   69MYC   6H1311715   5.925   3.981   7.748
   69MYC   7H1311716   6.150   4.062   7.687
   69MYC   8H1311717   6.193   3.890   7.660
   69MYC   9H1311718   6.030   3.870   7.485
   69MYC    H1311719   5.953   3.362  10.125
   69MYC   0H1411720   5.944   4.019   7.526
   69MYC   1H1411721   6.128   4.149   7.427
   69MYC   2H1411722   6.228   4.016   7.401
   69MYC   3H1411723   6.059   3.918   7.240
   69MYC   4H1411724   5.961   4.064   7.286
   69MYC   5H1411725   6.130   4.207   7.171
   69MYC   6H1411726   6.238   4.079   7.145
   69MYC   7H1411727   6.052   3.959   7.015
   69MYC   8H1411728   5.960   4.107   7.012
   69MYC   9H1411729   6.136   4.222   6.889
   69MYC    H1411730   6.101   3.392  10.338
   69MYC   0H1511731   6.257   4.096   6.914
   69MYC   1H1511732   6.124   3.940   6.771
   69MYC   2H1511733   5.991   4.059   6.759
   69MYC   3H1511734   6.272   4.130   6.662
   69MYC   4H1511735   6.125   4.213   6.627
   69MYC   5H1511736   6.162   4.046   6.559
   69MYC   6H1511737   5.691   3.484   9.870
   69MYC    H1511738   6.010   3.528  10.370
   69MYC    H1611739   5.795   3.341  10.344
   69MYC    H1711740   5.928   3.240  10.399
   69MYC    H1811741   5.812   3.489  10.539
   69MYC    H1911742   5.783   3.317  10.575
   69MYC    H2011743   5.998   3.300  10.676
   69MYC    H2111744   6.061   3.435  10.587
   69MYC    H2211745   5.925   3.592  10.717
   69MYC    H2311746   5.852   3.462  10.811
   69MYC    H2411747   6.082   3.400  10.892
   69MYC    H2511748   6.145   3.546  10.825
   69MYC    H2611749   5.898   3.539  11.015
   69MYC    H2711750   6.056   3.535  11.086
   69MYC    H2811751   5.982   3.757  10.895
   69MYC    H2911752   5.939   3.766  11.061
   69MYC    H3011753   6.227   3.746  10.969
   69MYC    H3111754   6.050   3.966  11.084
   69MYC    H3211755   6.294   3.802  11.197
   69MYC    H3311756   6.115   3.792  11.260
   69MYC    H3411757   5.891   3.373   9.493
   69MYC    H3511758   5.743   3.463   9.470
   69MYC    H3611759   5.833   3.632   9.348
   69MYC    H3711760   6.001   3.574   9.358
   69MYC    H3811761   5.940   3.362   9.246
   69MYC    H3911762   5.776   3.416   9.234
   69MYC    H4011763   5.863   3.622   9.087
   69MYC    H4111764   6.018   3.547   9.114
   69MYC    H4211765   5.929   3.331   8.997
   69MYC    H4311766   5.781   3.408   8.976
   69MYC    H4411767   5.884   3.589   8.827
   69MYC    H4511768   6.039   3.508   8.836
   69MYC    H4611769   5.956   3.323   8.711
   69MYC    H4711770   5.788   3.356   8.746
   69MYC    H4811771   5.799   3.568   8.607
   69MYC    H4911772   5.965   3.536   8.585
   69MYC    H5011773   5.917   3.310   8.486
   69MYC    H5111774   5.744   3.363   8.463
   69MYC    H5211775   5.829   3.552   8.331
   69MYC    H5311776   5.992   3.512   8.349
   69MYC    H5411777   5.964   3.319   8.199
   69MYC    H5511778   5.787   3.331   8.212
   69MYC    H5611779   5.791   3.550   8.093
   69MYC    H5711780   5.961   3.532   8.075
   69MYC    H5811781   5.945   3.319   7.936
   69MYC    H5911782   5.775   3.343   7.932
   69MYC    H6011783   5.789   3.551   7.813
   69MYC    H6111784   5.955   3.572   7.847
   69MYC    H6211785   6.009   3.389   7.699
   69MYC    H6311786   5.835   3.335   7.679
   69MYC    H6411787   5.792   3.564   7.575
   69MYC    H6511788   5.962   3.605   7.590
   69MYC    H6611789   6.016   3.397   7.454
   69MYC    H6711790   5.847   3.368   7.433
   69MYC    H6811791   5.830   3.606   7.314
   69MYC    H6911792   5.992   3.628   7.338
   69MYC    H7011793   6.042   3.426   7.179
   69MYC    H7111794   5.869   3.394   7.172
   69MYC    H7211795   5.850   3.625   7.068
   69MYC    H7311796   6.019   3.640   7.064
   69MYC    H7411797   6.053   3.460   6.892
   69MYC    H7511798   5.893   3.395   6.943
   69MYC    H7611799   5.787   3.608   6.862
   69MYC    H7711800   5.935   3.662   6.802
   69MYC    H7811801   5.932   3.423   6.659
   69MYC    H7911802   5.780   3.407   6.733
   69MYC    H8011803   5.827   3.535   6.493
   69MYC    H8111804   5.779   3.670   6.605
   69MYC    H8211805   5.678   3.521   6.581
   69MYC    H8311806   6.276   4.094  11.127
   69MYC    H8411807   6.346   3.987  11.012
   69MYC    H8511808   6.100   4.163  10.968
   69MYC    H8611809   6.257   4.213  10.912
   69MYC    H8711810   6.255   3.992  10.770
   69MYC    H8811811   6.089   3.978  10.816
   69MYC    H8911812   6.074   4.226  10.705
   69MYC    H9011813   6.245   4.209  10.671
   69MYC    H9111814   6.214   4.016  10.536
   69MYC    H9211815   6.035   4.028  10.553
   69MYC    H9311816   6.046   4.243  10.429
   69MYC    H9411817   6.217   4.239  10.421
   69MYC    H9511818   6.207   4.037  10.268
   69MYC    H9611819   6.037   4.031  10.286
   69MYC    H9711820   6.026   4.280  10.188
   69MYC    H9811821   6.196   4.268  10.163
   69MYC    H9911822   6.152   4.054  10.031
   70MYC     C111823   0.671   4.154   9.534
   70MYC     C211824   0.577   4.267   9.580
   70MYC     O311825   0.647   4.390   9.602
   70MYC     C411826   0.482   4.232   9.696
   70MYC     C511827   0.516   4.280   9.838
   70MYC     C611828   0.571   4.173   9.934
   70MYC     C711829   0.520   4.184  10.078
   70MYC     C811830   0.629   4.199  10.185
   70MYC     C911831   0.560   4.219  10.321
   70MYC    C1011832   0.660   4.251  10.433
   70MYC    C1111833   0.600   4.248  10.574
   70MYC    C1211834   0.494   4.354  10.608
   70MYC    C1311835   0.426   4.346  10.746
   70MYC    C1411836   0.327   4.463  10.756
   70MYC    C1511837   0.208   4.436  10.850
   70MYC    C1611838   0.096   4.542  10.840
   70MYC    C1711839   0.131   4.686  10.871
   70MYC    C1811840   0.129   4.787  10.759
   70MYC    C1911841   0.020   4.788  10.862
   70MYC    C2011842   0.737   4.182   9.398
   70MYC    C2111843   0.639   4.195   9.280
   70MYC    C2211844   0.721   4.204   9.149
   70MYC    C2311845   0.634   4.242   9.028
   70MYC    C2411846   0.704   4.222   8.892
   70MYC    C2511847   0.621   4.256   8.768
   70MYC    C2611848   0.696   4.214   8.640
   70MYC    C2711849   0.619   4.251   8.512
   70MYC    C2811850   0.698   4.197   8.391
   70MYC    C2911851   0.616   4.230   8.265
   70MYC    C3011852   0.663   4.167   8.133
   70MYC    C3111853   0.598   4.221   8.005
   70MYC    C3211854   0.615   4.111   7.898
   70MYC    C3311855   0.610   4.162   7.753
   70MYC    C3411856   0.629   4.048   7.652
   70MYC    C3511857   0.643   4.111   7.513
   70MYC    C3611858   0.673   4.012   7.398
   70MYC    C3711859   0.731   4.091   7.279
   70MYC    C3811860   0.691   4.040   7.139
   70MYC    C3911861   0.775   4.106   7.028
   70MYC    C4011862   0.713   4.071   6.891
   70MYC    C4111863   0.738   4.174   6.779
   70MYC    C4211864   0.667   4.127   6.651
   70MYC    C4311865   0.687   4.214   6.525
   70MYC    C4411866   0.235   4.896  10.766
   70MYC    C4511867   0.189   5.035  10.717
   70MYC    C4611868   0.152   5.031  10.568
   70MYC    C4711869   0.259   4.983  10.468
   70MYC    C4811870   0.214   5.001  10.322
   70MYC    C4911871   0.302   4.928  10.219
   70MYC    C5011872   0.255   4.945  10.073
   70MYC    C5111873   0.332   4.855   9.975
   70MYC    C5211874   0.269   4.856   9.835
   70MYC    C5311875   0.354   4.768   9.742
   70MYC    C5411876   0.294   4.742   9.602
   70MYC    C5511877   0.401   4.668   9.520
   70MYC    C5611878   0.386   4.674   9.367
   70MYC    C5711879   0.269   4.581   9.329
   70MYC    C5811880   0.240   4.586   9.179
   70MYC    C5911881   0.190   4.468   9.099
   70MYC    C6011882   0.332   4.516   9.082
   70MYC    C6111883   0.383   4.591   8.960
   70MYC    C6211884   0.282   4.628   8.850
   70MYC    C6311885   0.343   4.696   8.726
   70MYC    C6411886   0.236   4.749   8.629
   70MYC    C6511887   0.289   4.809   8.498
   70MYC    C6611888   0.181   4.798   8.388
   70MYC    C6711889   0.223   4.862   8.255
   70MYC    C6811890   0.135   4.807   8.142
   70MYC    C6911891   0.160   4.881   8.009
   70MYC    C7011892   0.236   4.794   7.907
   70MYC    C7111893   0.213   4.843   7.763
   70MYC    C7211894   0.280   4.742   7.668
   70MYC    C7311895   0.252   4.773   7.520
   70MYC    C7411896   0.363   4.722   7.428
   70MYC    C7511897   0.312   4.687   7.287
   70MYC    C7611898   0.421   4.635   7.192
   70MYC    C7711899   0.360   4.608   7.053
   70MYC    C7811900   0.456   4.575   6.937
   70MYC    C7911901   0.384   4.563   6.802
   70MYC    C8011902   0.490   4.548   6.692
   70MYC    C8111903   0.788   4.128   9.628
   70MYC    O8211904   0.824   4.207   9.714
   70MYC    O8311905   0.846   4.006   9.618
   70MYC     H111906   0.620   4.058   9.521
   70MYC     H211907   0.508   4.283   9.497
   70MYC     H311908   0.730   4.364   9.645
   70MYC     H411909   0.392   4.292   9.674
   70MYC     H511910   0.462   4.124   9.697
   70MYC     H611911   0.586   4.365   9.832
   70MYC     H711912   0.427   4.331   9.878
   70MYC     H811913   0.535   4.075   9.902
   70MYC     H911914   0.680   4.167   9.927
   70MYC   0H1011915   0.264   4.960   9.798
   70MYC   1H1011916   0.448   4.823   9.732
   70MYC   2H1011917   0.378   4.673   9.790
   70MYC   3H1011918   0.199   4.687   9.605
   70MYC   4H1011919   0.278   4.837   9.549
   70MYC   5H1011920   0.496   4.719   9.541
   70MYC   6H1011921   0.406   4.566   9.560
   70MYC   7H1011922   0.356   4.775   9.336
   70MYC   8H1011923   0.478   4.654   9.310
   70MYC   9H1011924   0.288   4.478   9.361
   70MYC    H1011925   0.453   4.272  10.078
   70MYC   0H1111926   0.178   4.595   9.388
   70MYC   1H1111927   0.215   4.688   9.153
   70MYC   2H1111928   0.169   4.381   9.162
   70MYC   3H1111929   0.123   4.477   9.014
   70MYC   4H1111930   0.401   4.439   9.116
   70MYC   5H1111931   0.432   4.681   8.999
   70MYC   6H1111932   0.463   4.533   8.913
   70MYC   7H1111933   0.221   4.543   8.820
   70MYC   8H1111934   0.201   4.690   8.892
   70MYC   9H1111935   0.413   4.776   8.752
   70MYC    H1111936   0.461   4.093  10.094
   70MYC   0H1211937   0.397   4.616   8.674
   70MYC   1H1211938   0.160   4.673   8.608
   70MYC   2H1211939   0.190   4.836   8.679
   70MYC   3H1211940   0.333   4.905   8.524
   70MYC   4H1211941   0.377   4.756   8.459
   70MYC   5H1211942   0.160   4.693   8.363
   70MYC   6H1211943   0.084   4.840   8.416
   70MYC   7H1211944   0.204   4.970   8.266
   70MYC   8H1211945   0.327   4.839   8.229
   70MYC   9H1211946   0.150   4.700   8.128
   70MYC    H1211947   0.689   4.107  10.188
   70MYC   0H1311948   0.027   4.819   8.157
   70MYC   1H1311949   0.061   4.890   7.962
   70MYC   2H1311950   0.200   4.982   8.025
   70MYC   3H1311951   0.342   4.784   7.936
   70MYC   4H1311952   0.200   4.691   7.917
   70MYC   5H1311953   0.107   4.856   7.735
   70MYC   6H1311954   0.248   4.944   7.743
   70MYC   7H1311955   0.388   4.728   7.686
   70MYC   8H1311956   0.236   4.645   7.693
   70MYC   9H1311957   0.159   4.723   7.491
   70MYC    H1311958   0.699   4.280  10.162
   70MYC   0H1411959   0.232   4.880   7.501
   70MYC   1H1411960   0.445   4.795   7.422
   70MYC   2H1411961   0.414   4.633   7.467
   70MYC   3H1411962   0.239   4.606   7.296
   70MYC   4H1411963   0.264   4.772   7.236
   70MYC   5H1411964   0.499   4.710   7.179
   70MYC   6H1411965   0.458   4.538   7.227
   70MYC   7H1411966   0.298   4.518   7.061
   70MYC   8H1411967   0.301   4.695   7.020
   70MYC   9H1411968   0.534   4.651   6.930
   70MYC    H1411969   0.486   4.299  10.305
   70MYC   0H1511970   0.508   4.479   6.952
   70MYC   1H1511971   0.320   4.473   6.801
   70MYC   2H1511972   0.326   4.655   6.788
   70MYC   3H1511973   0.539   4.450   6.691
   70MYC   4H1511974   0.565   4.626   6.706
   70MYC   5H1511975   0.450   4.578   6.594
   70MYC   6H1511976   0.910   4.011   9.691
   70MYC    H1511977   0.506   4.126  10.345
   70MYC    H1611978   0.753   4.193  10.429
   70MYC    H1711979   0.691   4.354  10.408
   70MYC    H1811980   0.573   4.144  10.598
   70MYC    H1911981   0.684   4.255  10.644
   70MYC    H2011982   0.534   4.454  10.590
   70MYC    H2111983   0.422   4.340  10.526
   70MYC    H2211984   0.387   4.244  10.756
   70MYC    H2311985   0.512   4.358  10.812
   70MYC    H2411986   0.385   4.553  10.781
   70MYC    H2511987   0.274   4.479  10.661
   70MYC    H2611988   0.164   4.340  10.822
   70MYC    H2711989   0.252   4.437  10.951
   70MYC    H2811990   0.049   4.537  10.741
   70MYC    H2911991   0.014   4.519  10.909
   70MYC    H3011992   0.202   4.697  10.953
   70MYC    H3111993   0.103   4.762  10.656
   70MYC    H3211994   0.018   4.866  10.937
   70MYC    H3311995  -0.080   4.757  10.830
   70MYC    H3411996   0.813   4.261   9.399
   70MYC    H3511997   0.797   4.091   9.385
   70MYC    H3611998   0.568   4.112   9.290
   70MYC    H3711999   0.581   4.287   9.288
   70MYC    H3812000   0.810   4.266   9.163
   70MYC    H3912001   0.756   4.101   9.136
   70MYC    H4012002   0.531   4.207   9.027
   70MYC    H4112003   0.613   4.350   9.025
   70MYC    H4212004   0.799   4.277   8.886
   70MYC    H4312005   0.723   4.114   8.893
   70MYC    H4412006   0.524   4.205   8.760
   70MYC    H4512007   0.590   4.361   8.762
   70MYC    H4612008   0.796   4.258   8.645
   70MYC    H4712009   0.710   4.105   8.647
   70MYC    H4812010   0.522   4.200   8.509
   70MYC    H4912011   0.603   4.359   8.502
   70MYC    H5012012   0.796   4.244   8.375
   70MYC    H5112013   0.707   4.088   8.389
   70MYC    H5212014   0.514   4.191   8.279
   70MYC    H5312015   0.604   4.339   8.259
   70MYC    H5412016   0.769   4.194   8.135
   70MYC    H5512017   0.656   4.058   8.140
   70MYC    H5612018   0.495   4.257   8.021
   70MYC    H5712019   0.646   4.309   7.960
   70MYC    H5812020   0.712   4.063   7.914
   70MYC    H5912021   0.548   4.028   7.922
   70MYC    H6012022   0.516   4.218   7.748
   70MYC    H6112023   0.685   4.241   7.738
   70MYC    H6212024   0.720   3.996   7.686
   70MYC    H6312025   0.546   3.977   7.648
   70MYC    H6412026   0.552   4.168   7.490
   70MYC    H6512027   0.722   4.187   7.509
   70MYC    H6612028   0.738   3.931   7.432
   70MYC    H6712029   0.574   3.970   7.373
   70MYC    H6812030   0.696   4.194   7.283
   70MYC    H6912031   0.839   4.101   7.291
   70MYC    H7012032   0.704   3.932   7.136
   70MYC    H7112033   0.584   4.063   7.129
   70MYC    H7212034   0.765   4.215   7.038
   70MYC    H7312035   0.878   4.069   7.030
   70MYC    H7412036   0.757   3.975   6.864
   70MYC    H7512037   0.607   4.046   6.894
   70MYC    H7612038   0.688   4.268   6.807
   70MYC    H7712039   0.844   4.189   6.759
   70MYC    H7812040   0.717   4.031   6.632
   70MYC    H7912041   0.558   4.115   6.660
   70MYC    H8012042   0.613   4.187   6.448
   70MYC    H8112043   0.791   4.206   6.490
   70MYC    H8212044   0.662   4.315   6.558
   70MYC    H8312045   0.280   4.902  10.866
   70MYC    H8412046   0.315   4.858  10.702
   70MYC    H8512047   0.101   5.060  10.778
   70MYC    H8612048   0.269   5.106  10.743
   70MYC    H8712049   0.069   4.960  10.560
   70MYC    H8812050   0.112   5.127  10.534
   70MYC    H8912051   0.358   5.025  10.490
   70MYC    H9012052   0.259   4.874  10.485
   70MYC    H9112053   0.113   4.961  10.311
   70MYC    H9212054   0.220   5.106  10.291
   70MYC    H9312055   0.409   4.953  10.225
   70MYC    H9412056   0.317   4.823  10.245
   70MYC    H9512057   0.150   4.913  10.074
   70MYC    H9612058   0.267   5.048  10.039
   70MYC    H9712059   0.435   4.893   9.968
   70MYC    H9812060   0.333   4.753  10.014
   70MYC    H9912061   0.165   4.822   9.844
   71MYC     C112062   1.576   4.905   9.706
   71MYC     C212063   1.447   4.906   9.789
   71MYC     O312064   1.424   5.036   9.843
   71MYC     C412065   1.445   4.810   9.909
   71MYC     C512066   1.314   4.812   9.990
   71MYC     C612067   1.321   4.907  10.110
   71MYC     C712068   1.197   4.898  10.200
   71MYC     C812069   1.200   5.000  10.315
   71MYC     C912070   1.067   5.019  10.390
   71MYC    C1012071   1.086   5.141  10.482
   71MYC    C1112072   1.174   5.134  10.608
   71MYC    C1212073   1.150   5.017  10.704
   71MYC    C1312074   1.246   5.028  10.824
   71MYC    C1412075   1.250   4.893  10.897
   71MYC    C1512076   1.371   4.868  10.988
   71MYC    C1612077   1.368   4.723  11.041
   71MYC    C1712078   1.257   4.691  11.140
   71MYC    C1812079   1.161   4.578  11.112
   71MYC    C1912080   1.256   4.569  11.229
   71MYC    C2012081   1.550   4.974   9.570
   71MYC    C2112082   1.490   4.886   9.459
   71MYC    C2212083   1.489   4.958   9.323
   71MYC    C2312084   1.481   4.866   9.201
   71MYC    C2412085   1.525   4.937   9.072
   71MYC    C2512086   1.494   4.856   8.946
   71MYC    C2612087   1.521   4.933   8.815
   71MYC    C2712088   1.470   4.858   8.691
   71MYC    C2812089   1.534   4.918   8.565
   71MYC    C2912090   1.471   4.859   8.437
   71MYC    C3012091   1.537   4.901   8.305
   71MYC    C3112092   1.442   4.878   8.186
   71MYC    C3212093   1.508   4.911   8.051
   71MYC    C3312094   1.411   4.889   7.934
   71MYC    C3412095   1.464   4.926   7.794
   71MYC    C3512096   1.381   4.892   7.669
   71MYC    C3612097   1.444   4.932   7.535
   71MYC    C3712098   1.363   4.898   7.409
   71MYC    C3812099   1.419   4.961   7.280
   71MYC    C3912100   1.345   4.914   7.153
   71MYC    C4012101   1.414   4.963   7.024
   71MYC    C4112102   1.349   4.918   6.892
   71MYC    C4212103   1.415   4.983   6.769
   71MYC    C4312104   1.333   4.988   6.638
   71MYC    C4412105   1.013   4.601  11.135
   71MYC    C4512106   0.925   4.561  11.015
   71MYC    C4612107   0.953   4.639  10.886
   71MYC    C4712108   0.856   4.604  10.771
   71MYC    C4812109   0.915   4.649  10.636
   71MYC    C4912110   0.827   4.619  10.514
   71MYC    C5012111   0.890   4.675  10.386
   71MYC    C5112112   0.799   4.663  10.263
   71MYC    C5212113   0.869   4.711  10.134
   71MYC    C5312114   0.779   4.692  10.011
   71MYC    C5412115   0.849   4.716   9.876
   71MYC    C5512116   0.751   4.711   9.758
   71MYC    C5612117   0.837   4.722   9.631
   71MYC    C5712118   0.767   4.712   9.495
   71MYC    C5812119   0.853   4.700   9.370
   71MYC    C5912120   0.890   4.818   9.282
   71MYC    C6012121   0.782   4.722   9.238
   71MYC    C6112122   0.818   4.626   9.125
   71MYC    C6212123   0.794   4.690   8.987
   71MYC    C6312124   0.821   4.600   8.866
   71MYC    C6412125   0.824   4.681   8.735
   71MYC    C6512126   0.830   4.595   8.607
   71MYC    C6612127   0.788   4.672   8.480
   71MYC    C6712128   0.781   4.581   8.356
   71MYC    C6812129   0.827   4.646   8.225
   71MYC    C6912130   0.773   4.569   8.103
   71MYC    C7012131   0.824   4.624   7.969
   71MYC    C7112132   0.793   4.541   7.843
   71MYC    C7212133   0.831   4.618   7.715
   71MYC    C7312134   0.786   4.541   7.589
   71MYC    C7412135   0.840   4.619   7.468
   71MYC    C7512136   0.805   4.551   7.334
   71MYC    C7612137   0.911   4.583   7.227
   71MYC    C7712138   0.852   4.591   7.085
   71MYC    C7812139   0.944   4.668   6.990
   71MYC    C7912140   0.907   4.650   6.842
   71MYC    C8012141   1.010   4.726   6.756
   71MYC    C8112142   1.694   4.964   9.781
   71MYC    O8212143   1.745   5.071   9.751
   71MYC    O8312144   1.750   4.893   9.882
   71MYC     H112145   1.602   4.801   9.685
   71MYC     H212146   1.365   4.878   9.721
   71MYC     H312147   1.379   5.025   9.929
   71MYC     H412148   1.457   4.707   9.872
   71MYC     H512149   1.531   4.825   9.975
   71MYC     H612150   1.243   4.856   9.919
   71MYC     H712151   1.281   4.712  10.023
   71MYC     H812152   1.410   4.888  10.172
   71MYC     H912153   1.343   5.008  10.074
   71MYC   0H1012154   0.964   4.657  10.122
   71MYC   1H1012155   0.742   4.589  10.007
   71MYC   2H1012156   0.694   4.758  10.033
   71MYC   3H1012157   0.892   4.817   9.881
   71MYC   4H1012158   0.925   4.638   9.859
   71MYC   5H1012159   0.699   4.615   9.761
   71MYC   6H1012160   0.686   4.799   9.756
   71MYC   7H1012161   0.906   4.807   9.628
   71MYC   8H1012162   0.908   4.639   9.627
   71MYC   9H1012163   0.702   4.623   9.491
   71MYC    H1012164   1.115   4.924  10.132
   71MYC   0H1112165   0.702   4.799   9.480
   71MYC   1H1112166   0.909   4.608   9.367
   71MYC   2H1112167   0.852   4.916   9.310
   71MYC   3H1112168   0.987   4.818   9.233
   71MYC   4H1112169   0.683   4.766   9.238
   71MYC   5H1112170   0.923   4.597   9.137
   71MYC   6H1112171   0.745   4.544   9.126
   71MYC   7H1112172   0.690   4.722   8.972
   71MYC   8H1112173   0.861   4.777   8.984
   71MYC   9H1112174   0.917   4.547   8.874
   71MYC    H1112175   1.199   4.794  10.237
   71MYC   0H1212176   0.738   4.528   8.863
   71MYC   1H1212177   0.741   4.751   8.728
   71MYC   2H1212178   0.910   4.749   8.739
   71MYC   3H1212179   0.936   4.572   8.596
   71MYC   4H1212180   0.770   4.504   8.619
   71MYC   5H1212181   0.694   4.726   8.497
   71MYC   6H1212182   0.865   4.743   8.449
   71MYC   7H1212183   0.843   4.492   8.373
   71MYC   8H1212184   0.676   4.551   8.346
   71MYC   9H1212185   0.789   4.749   8.229
   71MYC    H1212186   1.277   4.967  10.385
   71MYC   0H1312187   0.936   4.651   8.214
   71MYC   1H1312188   0.808   4.465   8.102
   71MYC   2H1312189   0.664   4.578   8.105
   71MYC   3H1312190   0.799   4.730   7.958
   71MYC   4H1312191   0.933   4.619   7.979
   71MYC   5H1312192   0.847   4.446   7.844
   71MYC   6H1312193   0.686   4.516   7.849
   71MYC   7H1312194   0.786   4.718   7.711
   71MYC   8H1312195   0.939   4.636   7.711
   71MYC   9H1312196   0.821   4.438   7.597
   71MYC    H1312197   1.245   5.091  10.272
   71MYC   0H1412198   0.677   4.544   7.600
   71MYC   1H1412199   0.805   4.723   7.469
   71MYC   2H1412200   0.949   4.621   7.471
   71MYC   3H1412201   0.809   4.442   7.346
   71MYC   4H1412202   0.706   4.578   7.296
   71MYC   5H1412203   0.954   4.680   7.256
   71MYC   6H1412204   0.991   4.508   7.227
   71MYC   7H1412205   0.829   4.491   7.047
   71MYC   8H1412206   0.754   4.641   7.084
   71MYC   9H1412207   0.922   4.773   7.015
   71MYC    H1412208   0.993   5.045  10.313
   71MYC   0H1512209   1.050   4.645   7.009
   71MYC   1H1512210   0.923   4.543   6.820
   71MYC   2H1512211   0.806   4.684   6.816
   71MYC   3H1512212   1.112   4.692   6.777
   71MYC   4H1512213   0.999   4.835   6.765
   71MYC   5H1512214   0.991   4.700   6.651
   71MYC   6H1512215   1.819   4.956   9.909
   71MYC    H1512216   1.041   4.930  10.448
   71MYC    H1612217   1.126   5.216  10.412
   71MYC    H1712218   0.988   5.181  10.510
   71MYC    H1812219   1.279   5.150  10.577
   71MYC    H1912220   1.154   5.224  10.668
   71MYC    H2012221   1.046   5.010  10.739
   71MYC    H2112222   1.161   4.923  10.647
   71MYC    H2212223   1.345   5.047  10.779
   71MYC    H2312224   1.218   5.102  10.900
   71MYC    H2412225   1.156   4.875  10.951
   71MYC    H2512226   1.268   4.814  10.823
   71MYC    H2612227   1.467   4.892  10.941
   71MYC    H2712228   1.369   4.946  11.065
   71MYC    H2812229   1.367   4.652  10.957
   71MYC    H2912230   1.462   4.701  11.092
   71MYC    H3012231   1.201   4.778  11.173
   71MYC    H3112232   1.185   4.510  11.030
   71MYC    H3212233   1.218   4.583  11.329
   71MYC    H3312234   1.329   4.490  11.217
   71MYC    H3412235   1.499   5.071   9.578
   71MYC    H3512236   1.644   5.009   9.527
   71MYC    H3612237   1.547   4.794   9.442
   71MYC    H3712238   1.389   4.852   9.484
   71MYC    H3812239   1.404   5.027   9.317
   71MYC    H3912240   1.578   5.022   9.319
   71MYC    H4012241   1.546   4.778   9.206
   71MYC    H4112242   1.385   4.813   9.187
   71MYC    H4212243   1.461   5.025   9.060
   71MYC    H4312244   1.631   4.965   9.077
   71MYC    H4412245   1.556   4.766   8.935
   71MYC    H4512246   1.389   4.826   8.952
   71MYC    H4612247   1.480   5.035   8.820
   71MYC    H4712248   1.630   4.943   8.808
   71MYC    H4812249   1.506   4.755   8.691
   71MYC    H4912250   1.360   4.858   8.682
   71MYC    H5012251   1.514   5.026   8.566
   71MYC    H5112252   1.643   4.906   8.568
   71MYC    H5212253   1.479   4.750   8.448
   71MYC    H5312254   1.364   4.881   8.432
   71MYC    H5412255   1.569   5.006   8.307
   71MYC    H5512256   1.629   4.843   8.293
   71MYC    H5612257   1.407   4.774   8.182
   71MYC    H5712258   1.354   4.942   8.202
   71MYC    H5812259   1.536   5.017   8.050
   71MYC    H5912260   1.601   4.852   8.041
   71MYC    H6012261   1.370   4.787   7.934
   71MYC    H6112262   1.323   4.952   7.954
   71MYC    H6212263   1.473   5.035   7.794
   71MYC    H6312264   1.564   4.884   7.776
   71MYC    H6412265   1.364   4.784   7.674
   71MYC    H6512266   1.281   4.935   7.685
   71MYC    H6612267   1.477   5.037   7.536
   71MYC    H6712268   1.538   4.874   7.530
   71MYC    H6812269   1.352   4.789   7.405
   71MYC    H6912270   1.260   4.933   7.417
   71MYC    H7012271   1.412   5.070   7.285
   71MYC    H7112272   1.523   4.929   7.270
   71MYC    H7212273   1.342   4.806   7.137
   71MYC    H7312274   1.245   4.957   7.163
   71MYC    H7412275   1.431   5.071   7.033
   71MYC    H7512276   1.514   4.918   7.021
   71MYC    H7612277   1.345   4.809   6.886
   71MYC    H7712278   1.243   4.949   6.894
   71MYC    H7812279   1.437   5.084   6.805
   71MYC    H7912280   1.512   4.934   6.755
   71MYC    H8012281   1.396   5.042   6.567
   71MYC    H8112282   1.248   5.053   6.662
   71MYC    H8212283   1.295   4.893   6.598
   71MYC    H8312284   0.982   4.539  11.220
   71MYC    H8412285   0.989   4.702  11.171
   71MYC    H8512286   0.929   4.454  10.994
   71MYC    H8612287   0.823   4.593  11.040
   71MYC    H8712288   0.956   4.748  10.895
   71MYC    H8812289   1.053   4.605  10.857
   71MYC    H8912290   0.847   4.495  10.776
   71MYC    H9012291   0.759   4.647  10.797
   71MYC    H9112292   0.942   4.755  10.627
   71MYC    H9212293   1.012   4.600  10.622
   71MYC    H9312294   0.807   4.511  10.506
   71MYC    H9412295   0.728   4.663  10.530
   71MYC    H9512296   0.906   4.783  10.398
   71MYC    H9612297   0.977   4.615  10.356
   71MYC    H9712298   0.754   4.564  10.246
   71MYC    H9812299   0.707   4.714  10.293
   71MYC    H9912300   0.895   4.815  10.156
   72MYC     C112301   1.661   4.444   9.627
   72MYC     C212302   1.790   4.464   9.708
   72MYC     O312303   1.832   4.338   9.758
   72MYC     C412304   1.764   4.565   9.821
   72MYC     C512305   1.838   4.544   9.954
   72MYC     C612306   1.765   4.471  10.069
   72MYC     C712307   1.809   4.510  10.211
   72MYC     C812308   1.749   4.421  10.323
   72MYC     C912309   1.774   4.474  10.465
   72MYC    C1012310   1.700   4.394  10.574
   72MYC    C1112311   1.712   4.437  10.721
   72MYC    C1212312   1.855   4.426  10.778
   72MYC    C1312313   1.867   4.493  10.916
   72MYC    C1412314   1.997   4.570  10.945
   72MYC    C1512315   2.001   4.625  11.089
   72MYC    C1612316   2.125   4.711  11.121
   72MYC    C1712317   2.250   4.628  11.143
   72MYC    C1812318   2.351   4.616  11.032
   72MYC    C1912319   2.380   4.703  11.152
   72MYC    C2012320   1.682   4.382   9.488
   72MYC    C2112321   1.730   4.484   9.382
   72MYC    C2212322   1.701   4.426   9.243
   72MYC    C2312323   1.753   4.511   9.126
   72MYC    C2412324   1.754   4.433   8.993
   72MYC    C2512325   1.806   4.508   8.869
   72MYC    C2612326   1.727   4.474   8.742
   72MYC    C2712327   1.783   4.550   8.620
   72MYC    C2812328   1.728   4.487   8.491
   72MYC    C2912329   1.775   4.548   8.359
   72MYC    C3012330   1.708   4.491   8.233
   72MYC    C3112331   1.762   4.559   8.106
   72MYC    C3212332   1.689   4.513   7.979
   72MYC    C3312333   1.724   4.598   7.856
   72MYC    C3412334   1.647   4.553   7.730
   72MYC    C3512335   1.718   4.584   7.598
   72MYC    C3612336   1.624   4.556   7.479
   72MYC    C3712337   1.667   4.622   7.348
   72MYC    C3812338   1.572   4.590   7.231
   72MYC    C3912339   1.632   4.617   7.092
   72MYC    C4012340   1.538   4.565   6.982
   72MYC    C4112341   1.595   4.593   6.841
   72MYC    C4212342   1.503   4.556   6.724
   72MYC    C4312343   1.559   4.590   6.585
   72MYC    C4412344   2.424   4.483  11.019
   72MYC    C4512345   2.468   4.450  10.875
   72MYC    C4612346   2.358   4.460  10.768
   72MYC    C4712347   2.409   4.524  10.638
   72MYC    C4812348   2.294   4.569  10.547
   72MYC    C4912349   2.354   4.588  10.406
   72MYC    C5012350   2.245   4.613  10.300
   72MYC    C5112351   2.296   4.602  10.156
   72MYC    C5212352   2.200   4.663  10.052
   72MYC    C5312353   2.265   4.658   9.912
   72MYC    C5412354   2.174   4.706   9.797
   72MYC    C5512355   2.247   4.708   9.661
   72MYC    C5612356   2.153   4.751   9.548
   72MYC    C5712357   2.224   4.761   9.412
   72MYC    C5812358   2.133   4.802   9.298
   72MYC    C5912359   1.983   4.782   9.297
   72MYC    C6012360   2.071   4.689   9.218
   72MYC    C6112361   2.071   4.711   9.067
   72MYC    C6212362   2.201   4.664   9.000
   72MYC    C6312363   2.251   4.746   8.880
   72MYC    C6412364   2.171   4.713   8.753
   72MYC    C6512365   2.184   4.809   8.634
   72MYC    C6612366   2.087   4.770   8.521
   72MYC    C6712367   2.121   4.844   8.391
   72MYC    C6812368   2.041   4.805   8.265
   72MYC    C6912369   2.108   4.861   8.138
   72MYC    C7012370   2.067   4.803   8.002
   72MYC    C7112371   2.124   4.872   7.877
   72MYC    C7212372   2.065   4.820   7.745
   72MYC    C7312373   2.096   4.909   7.624
   72MYC    C7412374   2.069   4.833   7.493
   72MYC    C7512375   2.125   4.906   7.369
   72MYC    C7612376   2.160   4.806   7.257
   72MYC    C7712377   2.186   4.883   7.126
   72MYC    C7812378   2.247   4.796   7.015
   72MYC    C7912379   2.192   4.814   6.873
   72MYC    C8012380   2.254   4.719   6.770
   72MYC    C8112381   1.566   4.353   9.704
   72MYC    O8212382   1.568   4.232   9.696
   72MYC    O8312383   1.455   4.417   9.746
   72MYC     H112384   1.618   4.544   9.609
   72MYC     H212385   1.866   4.503   9.639
   72MYC     H312386   1.779   4.271   9.712
   72MYC     H412387   1.794   4.661   9.778
   72MYC     H512388   1.657   4.570   9.845
   72MYC     H612389   1.937   4.503   9.928
   72MYC     H712390   1.860   4.643   9.995
   72MYC     H812391   1.656   4.483  10.065
   72MYC     H912392   1.790   4.365  10.062
   72MYC   0H1012393   2.162   4.762  10.077
   72MYC   1H1012394   2.360   4.713   9.913
   72MYC   2H1012395   2.282   4.553   9.888
   72MYC   3H1012396   2.087   4.640   9.786
   72MYC   4H1012397   2.137   4.803   9.831
   72MYC   5H1012398   2.335   4.774   9.662
   72MYC   6H1012399   2.282   4.606   9.643
   72MYC   7H1012400   2.077   4.673   9.536
   72MYC   8H1012401   2.101   4.843   9.580
   72MYC   9H1012402   2.306   4.833   9.422
   72MYC    H1012403   1.917   4.515  10.225
   72MYC   0H1112404   2.269   4.665   9.384
   72MYC   1H1112405   2.162   4.888   9.239
   72MYC   2H1112406   1.937   4.735   9.384
   72MYC   3H1112407   1.925   4.855   9.241
   72MYC   4H1112408   2.076   4.587   9.253
   72MYC   5H1112409   1.994   4.653   9.014
   72MYC   6H1112410   2.058   4.817   9.044
   72MYC   7H1112411   2.284   4.648   9.070
   72MYC   8H1112412   2.179   4.562   8.965
   72MYC   9H1112413   2.253   4.856   8.890
   72MYC    H1112414   1.770   4.611  10.226
   72MYC   0H1212415   2.352   4.708   8.863
   72MYC   1H1212416   2.207   4.612   8.729
   72MYC   2H1212417   2.062   4.712   8.767
   72MYC   3H1212418   2.166   4.913   8.662
   72MYC   4H1212419   2.287   4.799   8.596
   72MYC   5H1212420   2.098   4.664   8.495
   72MYC   6H1212421   1.983   4.784   8.555
   72MYC   7H1212422   2.111   4.952   8.407
   72MYC   8H1212423   2.228   4.838   8.370
   72MYC   9H1212424   2.045   4.696   8.262
   72MYC    H1212425   1.640   4.412  10.312
   72MYC   0H1312426   1.938   4.839   8.283
   72MYC   1H1312427   2.099   4.969   8.148
   72MYC   2H1312428   2.217   4.850   8.144
   72MYC   3H1312429   2.087   4.695   8.003
   72MYC   4H1312430   1.957   4.801   7.999
   72MYC   5H1312431   2.099   4.979   7.883
   72MYC   6H1312432   2.233   4.866   7.870
   72MYC   7H1312433   2.093   4.714   7.739
   72MYC   8H1312434   1.955   4.817   7.750
   72MYC   9H1312435   2.038   5.001   7.640
   72MYC    H1312436   1.777   4.316  10.308
   72MYC   0H1412437   2.203   4.933   7.628
   72MYC   1H1412438   2.108   4.731   7.500
   72MYC   2H1412439   1.962   4.824   7.470
   72MYC   3H1412440   2.044   4.974   7.342
   72MYC   4H1412441   2.207   4.975   7.395
   72MYC   5H1412442   2.252   4.757   7.292
   72MYC   6H1412443   2.077   4.735   7.256
   72MYC   7H1412444   2.090   4.926   7.097
   72MYC   8H1412445   2.248   4.967   7.159
   72MYC   9H1412446   2.354   4.813   7.000
   72MYC    H1412447   1.879   4.495  10.487
   72MYC   0H1512448   2.233   4.691   7.044
   72MYC   1H1512449   2.084   4.792   6.867
   72MYC   2H1512450   2.191   4.917   6.835
   72MYC   3H1512451   2.235   4.615   6.797
   72MYC   4H1512452   2.361   4.742   6.761
   72MYC   5H1512453   2.211   4.738   6.670
   72MYC   6H1512454   1.396   4.345   9.775
   72MYC    H1512455   1.739   4.578  10.471
   72MYC    H1612456   1.595   4.406  10.546
   72MYC    H1712457   1.713   4.285  10.574
   72MYC    H1812458   1.661   4.532  10.739
   72MYC    H1912459   1.647   4.371  10.780
   72MYC    H2012460   1.894   4.323  10.782
   72MYC    H2112461   1.917   4.489  10.714
   72MYC    H2212462   1.783   4.561  10.931
   72MYC    H2312463   1.856   4.417  10.994
   72MYC    H2412464   2.084   4.506  10.929
   72MYC    H2512465   2.002   4.651  10.872
   72MYC    H2612466   1.914   4.689  11.104
   72MYC    H2712467   2.000   4.552  11.170
   72MYC    H2812468   2.129   4.797  11.053
   72MYC    H2912469   2.100   4.749  11.221
   72MYC    H3012470   2.240   4.539  11.205
   72MYC    H3112471   2.332   4.680  10.946
   72MYC    H3212472   2.446   4.673  11.233
   72MYC    H3312473   2.370   4.811  11.144
   72MYC    H3412474   1.758   4.303   9.500
   72MYC    H3512475   1.589   4.337   9.454
   72MYC    H3612476   1.676   4.578   9.398
   72MYC    H3712477   1.837   4.502   9.399
   72MYC    H3812478   1.734   4.322   9.232
   72MYC    H3912479   1.593   4.426   9.225
   72MYC    H4012480   1.696   4.604   9.123
   72MYC    H4112481   1.860   4.528   9.147
   72MYC    H4212482   1.814   4.341   8.997
   72MYC    H4312483   1.649   4.404   8.979
   72MYC    H4412484   1.791   4.615   8.885
   72MYC    H4512485   1.911   4.483   8.852
   72MYC    H4612486   1.729   4.364   8.734
   72MYC    H4712487   1.622   4.505   8.753
   72MYC    H4812488   1.756   4.656   8.627
   72MYC    H4912489   1.891   4.540   8.611
   72MYC    H5012490   1.765   4.383   8.488
   72MYC    H5112491   1.620   4.470   8.499
   72MYC    H5212492   1.746   4.654   8.361
   72MYC    H5312493   1.885   4.546   8.360
   72MYC    H5412494   1.725   4.383   8.236
   72MYC    H5512495   1.598   4.502   8.232
   72MYC    H5612496   1.750   4.667   8.122
   72MYC    H5712497   1.869   4.534   8.104
   72MYC    H5812498   1.710   4.408   7.956
   72MYC    H5912499   1.581   4.521   7.993
   72MYC    H6012500   1.713   4.707   7.866
   72MYC    H6112501   1.828   4.580   7.825
   72MYC    H6212502   1.629   4.445   7.734
   72MYC    H6312503   1.550   4.604   7.727
   72MYC    H6412504   1.746   4.690   7.596
   72MYC    H6512505   1.808   4.521   7.603
   72MYC    H6612506   1.607   4.449   7.459
   72MYC    H6712507   1.524   4.597   7.496
   72MYC    H6812508   1.685   4.730   7.358
   72MYC    H6912509   1.762   4.575   7.319
   72MYC    H7012510   1.547   4.484   7.231
   72MYC    H7112511   1.477   4.641   7.251
   72MYC    H7212512   1.642   4.726   7.081
   72MYC    H7312513   1.736   4.584   7.078
   72MYC    H7412514   1.520   4.458   7.000
   72MYC    H7512515   1.438   4.606   6.996
   72MYC    H7612516   1.618   4.700   6.833
   72MYC    H7712517   1.685   4.534   6.823
   72MYC    H7812518   1.475   4.450   6.729
   72MYC    H7912519   1.410   4.613   6.732
   72MYC    H8012520   1.481   4.564   6.512
   72MYC    H8112521   1.650   4.532   6.566
   72MYC    H8212522   1.586   4.696   6.587
   72MYC    H8312523   2.516   4.482  11.079
   72MYC    H8412524   2.363   4.402  11.060
   72MYC    H8512525   2.549   4.518  10.847
   72MYC    H8612526   2.503   4.346  10.878
   72MYC    H8712527   2.324   4.358  10.748
   72MYC    H8812528   2.268   4.515  10.800
   72MYC    H8912529   2.477   4.607  10.662
   72MYC    H9012530   2.467   4.446  10.589
   72MYC    H9112531   2.207   4.502  10.548
   72MYC    H9212532   2.255   4.666  10.579
   72MYC    H9312533   2.423   4.673  10.413
   72MYC    H9412534   2.410   4.498  10.378
   72MYC    H9512535   2.156   4.550  10.317
   72MYC    H9612536   2.210   4.716  10.308
   72MYC    H9712537   2.394   4.650  10.150
   72MYC    H9812538   2.309   4.499  10.121
   72MYC    H9912539   2.108   4.604  10.050
   73MYC     C112540   2.744   4.559   9.554
   73MYC     C212541   2.783   4.598   9.698
   73MYC     O312542   2.911   4.545   9.731
   73MYC     C412543   2.684   4.543   9.801
   73MYC     C512544   2.696   4.610   9.939
   73MYC     C612545   2.784   4.537  10.042
   73MYC     C712546   2.777   4.590  10.186
   73MYC     C812547   2.853   4.505  10.288
   73MYC     C912548   2.824   4.538  10.436
   73MYC    C1012549   2.939   4.494  10.528
   73MYC    C1112550   2.894   4.497  10.675
   73MYC    C1212551   2.833   4.625  10.734
   73MYC    C1312552   2.836   4.615  10.888
   73MYC    C1412553   2.763   4.732  10.956
   73MYC    C1512554   2.762   4.718  11.109
   73MYC    C1612555   2.701   4.842  11.178
   73MYC    C1712556   2.783   4.969  11.163
   73MYC    C1812557   2.717   5.096  11.114
   73MYC    C1912558   2.766   5.086  11.257
   73MYC    C2012559   2.861   4.568   9.455
   73MYC    C2112560   2.817   4.542   9.310
   73MYC    C2212561   2.924   4.558   9.201
   73MYC    C2312562   2.867   4.551   9.059
   73MYC    C2412563   2.971   4.558   8.946
   73MYC    C2512564   2.916   4.607   8.811
   73MYC    C2612565   2.950   4.519   8.690
   73MYC    C2712566   2.885   4.580   8.565
   73MYC    C2812567   2.896   4.488   8.442
   73MYC    C2912568   2.852   4.562   8.315
   73MYC    C3012569   2.910   4.508   8.183
   73MYC    C3112570   2.859   4.582   8.058
   73MYC    C3212571   2.923   4.530   7.929
   73MYC    C3312572   2.899   4.625   7.811
   73MYC    C3412573   2.942   4.567   7.675
   73MYC    C3512574   2.905   4.643   7.547
   73MYC    C3612575   2.933   4.574   7.412
   73MYC    C3712576   2.890   4.653   7.288
   73MYC    C3812577   2.942   4.593   7.156
   73MYC    C3912578   2.836   4.608   7.045
   73MYC    C4012579   2.891   4.562   6.909
   73MYC    C4112580   2.808   4.608   6.788
   73MYC    C4212581   2.862   4.569   6.649
   73MYC    C4312582   2.782   4.629   6.532
   73MYC    C4412583   2.782   5.190  11.013
   73MYC    C4512584   2.699   5.197  10.884
   73MYC    C4612585   2.704   5.073  10.793
   73MYC    C4712586   2.628   5.118  10.667
   73MYC    C4812587   2.634   5.017  10.551
   73MYC    C4912588   2.553   5.070  10.432
   73MYC    C5012589   2.563   4.970  10.316
   73MYC    C5112590   2.502   5.032  10.189
   73MYC    C5212591   2.527   4.942  10.066
   73MYC    C5312592   2.514   5.016   9.932
   73MYC    C5412593   2.576   4.942   9.812
   73MYC    C5512594   2.530   5.000   9.676
   73MYC    C5612595   2.609   4.939   9.559
   73MYC    C5712596   2.562   5.003   9.427
   73MYC    C5812597   2.626   4.935   9.307
   73MYC    C5912598   2.768   4.966   9.269
   73MYC    C6012599   2.656   5.005   9.177
   73MYC    C6112600   2.632   4.933   9.045
   73MYC    C6212601   2.751   4.925   8.948
   73MYC    C6312602   2.743   5.016   8.823
   73MYC    C6412603   2.690   4.960   8.690
   73MYC    C6512604   2.715   5.061   8.577
   73MYC    C6612605   2.707   4.989   8.441
   73MYC    C6712606   2.737   5.087   8.327
   73MYC    C6812607   2.723   5.025   8.187
   73MYC    C6912608   2.787   5.105   8.072
   73MYC    C7012609   2.775   5.029   7.939
   73MYC    C7112610   2.783   5.128   7.821
   73MYC    C7212611   2.755   5.058   7.687
   73MYC    C7312612   2.760   5.151   7.564
   73MYC    C7412613   2.690   5.102   7.436
   73MYC    C7512614   2.761   5.141   7.306
   73MYC    C7612615   2.700   5.053   7.195
   73MYC    C7712616   2.759   5.093   7.059
   73MYC    C7812617   2.694   5.031   6.934
   73MYC    C7912618   2.737   5.108   6.807
   73MYC    C8012619   2.686   5.042   6.678
   73MYC    C8112620   2.673   4.425   9.543
   73MYC    O8212621   2.733   4.319   9.542
   73MYC    O8312622   2.543   4.432   9.505
   73MYC     H112623   2.678   4.636   9.513
   73MYC     H212624   2.791   4.706   9.713
   73MYC     H312625   2.888   4.460   9.772
   73MYC     H412626   2.586   4.573   9.762
   73MYC     H512627   2.692   4.434   9.813
   73MYC     H612628   2.731   4.714   9.937
   73MYC     H712629   2.595   4.623   9.978
   73MYC     H812630   2.741   4.437  10.058
   73MYC     H912631   2.890   4.526  10.016
   73MYC   0H1012632   2.450   4.865  10.078
   73MYC   1H1012633   2.408   5.030   9.906
   73MYC   2H1012634   2.561   5.114   9.946
   73MYC   3H1012635   2.685   4.950   9.819
   73MYC   4H1012636   2.545   4.837   9.814
   73MYC   5H1012637   2.425   4.974   9.659
   73MYC   6H1012638   2.538   5.109   9.674
   73MYC   7H1012639   2.718   4.952   9.563
   73MYC   8H1012640   2.587   4.832   9.554
   73MYC   9H1012641   2.453   5.005   9.423
   73MYC    H1012642   2.828   4.687  10.186
   73MYC   0H1112643   2.587   5.110   9.428
   73MYC   1H1112644   2.600   4.829   9.304
   73MYC   2H1112645   2.816   5.024   9.348
   73MYC   3H1112646   2.838   4.890   9.234
   73MYC   4H1112647   2.648   5.113   9.165
   73MYC   5H1112648   2.624   4.828   9.075
   73MYC   6H1112649   2.541   4.971   8.997
   73MYC   7H1112650   2.839   4.949   9.009
   73MYC   8H1112651   2.766   4.822   8.913
   73MYC   9H1112652   2.688   5.104   8.858
   73MYC    H1112653   2.671   4.604  10.213
   73MYC   0H1212654   2.844   5.050   8.799
   73MYC   1H1212655   2.746   4.866   8.678
   73MYC   2H1212656   2.582   4.942   8.694
   73MYC   3H1212657   2.640   5.141   8.581
   73MYC   4H1212658   2.813   5.111   8.579
   73MYC   5H1212659   2.769   4.899   8.436
   73MYC   6H1212660   2.601   4.961   8.434
   73MYC   7H1212661   2.675   5.176   8.346
   73MYC   8H1212662   2.841   5.120   8.336
   73MYC   9H1212663   2.774   4.928   8.192
   73MYC    H1212664   2.840   4.398  10.268
   73MYC   0H1312665   2.620   4.997   8.159
   73MYC   1H1312666   2.734   5.201   8.066
   73MYC   2H1312667   2.892   5.125   8.097
   73MYC   3H1312668   2.863   4.965   7.930
   73MYC   4H1312669   2.692   4.959   7.925
   73MYC   5H1312670   2.705   5.204   7.835
   73MYC   6H1312671   2.881   5.176   7.825
   73MYC   7H1312672   2.822   4.971   7.678
   73MYC   8H1312673   2.649   5.027   7.691
   73MYC   9H1312674   2.721   5.248   7.595
   73MYC    H1312675   2.960   4.523  10.275
   73MYC   0H1412676   2.865   5.175   7.542
   73MYC   1H1412677   2.678   4.993   7.441
   73MYC   2H1412678   2.587   5.140   7.429
   73MYC   3H1412679   2.748   5.249   7.292
   73MYC   4H1412680   2.869   5.122   7.307
   73MYC   5H1412681   2.719   4.946   7.208
   73MYC   6H1412682   2.591   5.067   7.186
   73MYC   7H1412683   2.746   5.202   7.054
   73MYC   8H1412684   2.867   5.073   7.056
   73MYC   9H1412685   2.727   4.927   6.928
   73MYC    H1412686   2.801   4.645  10.443
   73MYC   0H1512687   2.585   5.040   6.942
   73MYC   1H1512688   2.700   5.210   6.828
   73MYC   2H1512689   2.846   5.120   6.808
   73MYC   3H1512690   2.577   5.028   6.674
   73MYC   4H1512691   2.731   4.942   6.671
   73MYC   5H1512692   2.704   5.102   6.588
   73MYC   6H1512693   2.508   4.342   9.494
   73MYC    H1512694   2.735   4.489  10.478
   73MYC    H1612695   2.972   4.393  10.501
   73MYC    H1712696   3.026   4.555  10.502
   73MYC    H1812697   2.815   4.424  10.698
   73MYC    H1912698   2.984   4.480  10.736
   73MYC    H2012699   2.884   4.714  10.696
   73MYC    H2112700   2.727   4.630  10.709
   73MYC    H2212701   2.800   4.515  10.916
   73MYC    H2312702   2.938   4.614  10.927
   73MYC    H2412703   2.805   4.830  10.931
   73MYC    H2512704   2.660   4.738  10.920
   73MYC    H2612705   2.702   4.630  11.136
   73MYC    H2712706   2.861   4.696  11.149
   73MYC    H2812707   2.608   4.863  11.124
   73MYC    H2912708   2.693   4.817  11.284
   73MYC    H3012709   2.886   4.944  11.138
   73MYC    H3112710   2.610   5.084  11.099
   73MYC    H3212711   2.858   5.133  11.290
   73MYC    H3312712   2.691   5.083  11.335
   73MYC    H3412713   2.898   4.671   9.461
   73MYC    H3512714   2.947   4.503   9.477
   73MYC    H3612715   2.765   4.446   9.296
   73MYC    H3712716   2.741   4.618   9.287
   73MYC    H3812717   2.963   4.659   9.214
   73MYC    H3912718   3.012   4.493   9.217
   73MYC    H4012719   2.805   4.460   9.046
   73MYC    H4112720   2.792   4.631   9.052
   73MYC    H4212721   3.061   4.616   8.970
   73MYC    H4312722   3.009   4.455   8.939
   73MYC    H4412723   2.806   4.617   8.812
   73MYC    H4512724   2.957   4.708   8.796
   73MYC    H4612725   3.058   4.504   8.673
   73MYC    H4712726   2.907   4.420   8.710
   73MYC    H4812727   2.781   4.611   8.579
   73MYC    H4912728   2.943   4.671   8.544
   73MYC    H5012729   3.000   4.451   8.439
   73MYC    H5112730   2.834   4.398   8.454
   73MYC    H5212731   2.743   4.557   8.306
   73MYC    H5312732   2.875   4.669   8.317
   73MYC    H5412733   3.017   4.529   8.192
   73MYC    H5512734   2.903   4.400   8.165
   73MYC    H5612735   2.750   4.571   8.050
   73MYC    H5712736   2.890   4.686   8.077
   73MYC    H5812737   3.031   4.514   7.936
   73MYC    H5912738   2.879   4.430   7.920
   73MYC    H6012739   2.793   4.655   7.812
   73MYC    H6112740   2.958   4.717   7.818
   73MYC    H6212741   3.050   4.544   7.672
   73MYC    H6312742   2.889   4.471   7.671
   73MYC    H6412743   2.799   4.669   7.544
   73MYC    H6512744   2.940   4.747   7.552
   73MYC    H6612745   3.040   4.551   7.417
   73MYC    H6712746   2.895   4.472   7.401
   73MYC    H6812747   2.780   4.652   7.285
   73MYC    H6912748   2.920   4.758   7.299
   73MYC    H7012749   3.041   4.630   7.124
   73MYC    H7112750   2.944   4.484   7.168
   73MYC    H7212751   2.751   4.543   7.070
   73MYC    H7312752   2.793   4.709   7.038
   73MYC    H7412753   2.995   4.593   6.900
   73MYC    H7512754   2.898   4.452   6.908
   73MYC    H7612755   2.704   4.577   6.799
   73MYC    H7712756   2.805   4.717   6.784
   73MYC    H7812757   2.961   4.617   6.644
   73MYC    H7912758   2.882   4.462   6.642
   73MYC    H8012759   2.786   4.566   6.442
   73MYC    H8112760   2.818   4.731   6.517
   73MYC    H8212761   2.679   4.639   6.568
   73MYC    H8312762   2.809   5.281  11.068
   73MYC    H8412763   2.884   5.153  10.997
   73MYC    H8512764   2.597   5.235  10.903
   73MYC    H8612765   2.735   5.282  10.826
   73MYC    H8712766   2.808   5.040  10.783
   73MYC    H8812767   2.658   4.988  10.845
   73MYC    H8912768   2.523   5.131  10.693
   73MYC    H9012769   2.674   5.213  10.638
   73MYC    H9112770   2.738   4.992  10.524
   73MYC    H9212771   2.591   4.921  10.582
   73MYC    H9312772   2.445   5.078  10.454
   73MYC    H9412773   2.587   5.166  10.393
   73MYC    H9512774   2.669   4.942  10.306
   73MYC    H9612775   2.502   4.882  10.338
   73MYC    H9712776   2.396   5.057  10.203
   73MYC    H9812777   2.552   5.127  10.168
   73MYC    H9912778   2.625   4.893  10.074
   74MYC     C112779   3.757   4.561   9.490
   74MYC     C212780   3.630   4.620   9.553
   74MYC     O312781   3.651   4.748   9.612
   74MYC     C412782   3.557   4.524   9.649
   74MYC     C512783   3.493   4.600   9.766
   74MYC     C612784   3.598   4.619   9.877
   74MYC     C712785   3.533   4.650  10.013
   74MYC     C812786   3.629   4.672  10.130
   74MYC     C912787   3.580   4.637  10.272
   74MYC    C1012788   3.684   4.671  10.380
   74MYC    C1112789   3.693   4.564  10.491
   74MYC    C1212790   3.570   4.563  10.583
   74MYC    C1312791   3.568   4.450  10.687
   74MYC    C1412792   3.450   4.477  10.782
   74MYC    C1512793   3.441   4.364  10.886
   74MYC    C1612794   3.338   4.388  10.998
   74MYC    C1712795   3.366   4.509  11.087
   74MYC    C1812796   3.246   4.589  11.131
   74MYC    C1912797   3.322   4.506  11.231
   74MYC    C2012798   3.815   4.657   9.384
   74MYC    C2112799   3.738   4.689   9.255
   74MYC    C2212800   3.745   4.832   9.199
   74MYC    C2312801   3.703   4.855   9.053
   74MYC    C2412802   3.750   4.746   8.955
   74MYC    C2512803   3.751   4.796   8.809
   74MYC    C2612804   3.781   4.687   8.705
   74MYC    C2712805   3.793   4.746   8.563
   74MYC    C2812806   3.800   4.640   8.452
   74MYC    C2912807   3.779   4.705   8.314
   74MYC    C3012808   3.791   4.602   8.199
   74MYC    C3112809   3.720   4.647   8.070
   74MYC    C3212810   3.750   4.564   7.944
   74MYC    C3312811   3.658   4.605   7.827
   74MYC    C3412812   3.715   4.558   7.692
   74MYC    C3512813   3.633   4.602   7.570
   74MYC    C3612814   3.687   4.541   7.439
   74MYC    C3712815   3.629   4.599   7.309
   74MYC    C3812816   3.699   4.546   7.182
   74MYC    C3912817   3.662   4.630   7.058
   74MYC    C4012818   3.750   4.602   6.935
   74MYC    C4112819   3.717   4.694   6.816
   74MYC    C4212820   3.794   4.667   6.685
   74MYC    C4312821   3.747   4.754   6.568
   74MYC    C4412822   3.244   4.741  11.144
   74MYC    C4512823   3.168   4.822  11.037
   74MYC    C4612824   3.228   4.793  10.898
   74MYC    C4712825   3.166   4.858  10.773
   74MYC    C4812826   3.226   4.810  10.640
   74MYC    C4912827   3.143   4.867  10.524
   74MYC    C5012828   3.188   4.795  10.396
   74MYC    C5112829   3.117   4.848  10.270
   74MYC    C5212830   3.176   4.790  10.140
   74MYC    C5312831   3.118   4.852  10.012
   74MYC    C5412832   3.180   4.799   9.882
   74MYC    C5512833   3.147   4.889   9.762
   74MYC    C5612834   3.171   4.822   9.625
   74MYC    C5712835   3.175   4.922   9.508
   74MYC    C5812836   3.185   4.841   9.379
   74MYC    C5912837   3.326   4.825   9.328
   74MYC    C6012838   3.226   4.906   9.249
   74MYC    C6112839   3.171   4.850   9.119
   74MYC    C6212840   3.286   4.840   9.018
   74MYC    C6312841   3.233   4.843   8.873
   74MYC    C6412842   3.332   4.792   8.767
   74MYC    C6512843   3.262   4.740   8.640
   74MYC    C6612844   3.355   4.740   8.518
   74MYC    C6712845   3.273   4.761   8.390
   74MYC    C6812846   3.358   4.761   8.262
   74MYC    C6912847   3.273   4.819   8.148
   74MYC    C7012848   3.332   4.795   8.008
   74MYC    C7112849   3.254   4.850   7.888
   74MYC    C7212850   3.298   4.787   7.755
   74MYC    C7312851   3.218   4.848   7.638
   74MYC    C7412852   3.257   4.805   7.496
   74MYC    C7512853   3.195   4.898   7.391
   74MYC    C7612854   3.243   4.868   7.248
   74MYC    C7712855   3.156   4.932   7.138
   74MYC    C7812856   3.205   4.879   7.002
   74MYC    C7912857   3.139   4.957   6.888
   74MYC    C8012858   3.202   4.912   6.755
   74MYC    C8112859   3.859   4.518   9.595
   74MYC    O8212860   3.946   4.588   9.643
   74MYC    O8312861   3.858   4.384   9.617
   74MYC     H112862   3.724   4.478   9.426
   74MYC     H212863   3.550   4.628   9.477
   74MYC     H312864   3.733   4.739   9.664
   74MYC     H412865   3.472   4.484   9.593
   74MYC     H512866   3.621   4.441   9.681
   74MYC     H612867   3.444   4.694   9.739
   74MYC     H712868   3.410   4.544   9.811
   74MYC     H812869   3.656   4.527   9.889
   74MYC     H912870   3.667   4.702   9.854
   74MYC   0H1012871   3.165   4.681  10.142
   74MYC   1H1012872   3.010   4.832  10.017
   74MYC   2H1012873   3.119   4.961  10.026
   74MYC   3H1012874   3.289   4.805   9.891
   74MYC   4H1012875   3.156   4.695   9.857
   74MYC   5H1012876   3.042   4.914   9.779
   74MYC   6H1012877   3.204   4.982   9.773
   74MYC   7H1012878   3.264   4.766   9.634
   74MYC   8H1012879   3.091   4.748   9.617
   74MYC   9H1012880   3.084   4.984   9.511
   74MYC    H1012881   3.474   4.742  10.008
   74MYC   0H1112882   3.247   5.004   9.516
   74MYC   1H1112883   3.125   4.751   9.373
   74MYC   2H1112884   3.408   4.877   9.377
   74MYC   3H1112885   3.359   4.727   9.294
   74MYC   4H1112886   3.226   5.014   9.260
   74MYC   5H1112887   3.128   4.751   9.140
   74MYC   6H1112888   3.084   4.906   9.082
   74MYC   7H1112889   3.352   4.927   9.022
   74MYC   8H1112890   3.346   4.751   9.040
   74MYC   9H1112891   3.137   4.789   8.869
   74MYC    H1112892   3.461   4.573  10.047
   74MYC   0H1212893   3.207   4.946   8.847
   74MYC   1H1212894   3.400   4.874   8.745
   74MYC   2H1212895   3.390   4.711   8.813
   74MYC   3H1212896   3.222   4.641   8.666
   74MYC   4H1212897   3.171   4.797   8.616
   74MYC   5H1212898   3.419   4.828   8.525
   74MYC   6H1212899   3.412   4.646   8.506
   74MYC   7H1212900   3.189   4.691   8.381
   74MYC   8H1212901   3.219   4.857   8.393
   74MYC   9H1212902   3.449   4.821   8.279
   74MYC    H1212903   3.725   4.624  10.103
   74MYC   0H1312904   3.390   4.663   8.224
   74MYC   1H1312905   3.175   4.770   8.150
   74MYC   2H1312906   3.258   4.925   8.168
   74MYC   3H1312907   3.434   4.835   8.005
   74MYC   4H1312908   3.341   4.686   8.000
   74MYC   5H1312909   3.146   4.846   7.903
   74MYC   6H1312910   3.274   4.958   7.878
   74MYC   7H1312911   3.408   4.788   7.746
   74MYC   8H1312912   3.270   4.683   7.777
   74MYC   9H1312913   3.116   4.813   7.659
   74MYC    H1312914   3.664   4.776  10.126
   74MYC   0H1412915   3.225   4.957   7.646
   74MYC   1H1412916   3.367   4.805   7.485
   74MYC   2H1412917   3.224   4.703   7.474
   74MYC   3H1412918   3.085   4.889   7.394
   74MYC   4H1412919   3.216   5.004   7.408
   74MYC   5H1412920   3.348   4.900   7.238
   74MYC   6H1412921   3.233   4.760   7.234
   74MYC   7H1412922   3.051   4.914   7.165
   74MYC   8H1412923   3.167   5.041   7.134
   74MYC   9H1412924   3.313   4.898   6.994
   74MYC    H1412925   3.485   4.687  10.295
   74MYC   0H1512926   3.186   4.772   6.986
   74MYC   1H1512927   3.030   4.947   6.891
   74MYC   2H1512928   3.155   5.065   6.893
   74MYC   3H1512929   3.140   4.830   6.717
   74MYC   4H1512930   3.305   4.874   6.761
   74MYC   5H1512931   3.200   4.998   6.687
   74MYC   6H1512932   3.940   4.368   9.667
   74MYC    H1512933   3.565   4.528  10.270
   74MYC    H1612934   3.783   4.683  10.335
   74MYC    H1712935   3.664   4.765  10.432
   74MYC    H1812936   3.712   4.464  10.450
   74MYC    H1912937   3.775   4.592  10.557
   74MYC    H2012938   3.552   4.659  10.634
   74MYC    H2112939   3.484   4.539  10.520
   74MYC    H2212940   3.564   4.352  10.638
   74MYC    H2312941   3.659   4.459  10.748
   74MYC    H2412942   3.455   4.579  10.824
   74MYC    H2512943   3.360   4.471  10.720
   74MYC    H2612944   3.414   4.272  10.833
   74MYC    H2712945   3.543   4.340  10.919
   74MYC    H2812946   3.239   4.388  10.952
   74MYC    H2912947   3.344   4.299  11.062
   74MYC    H3012948   3.465   4.550  11.070
   74MYC    H3112949   3.154   4.551  11.089
   74MYC    H3212950   3.391   4.557  11.297
   74MYC    H3312951   3.264   4.430  11.284
   74MYC    H3412952   3.835   4.751   9.437
   74MYC    H3512953   3.909   4.614   9.348
   74MYC    H3612954   3.775   4.617   9.180
   74MYC    H3712955   3.633   4.663   9.272
   74MYC    H3812956   3.678   4.891   9.263
   74MYC    H3912957   3.847   4.873   9.210
   74MYC    H4012958   3.595   4.867   9.037
   74MYC    H4112959   3.745   4.952   9.027
   74MYC    H4212960   3.855   4.720   8.975
   74MYC    H4312961   3.699   4.649   8.960
   74MYC    H4412962   3.651   4.836   8.789
   74MYC    H4512963   3.814   4.886   8.804
   74MYC    H4612964   3.880   4.648   8.731
   74MYC    H4712965   3.707   4.606   8.715
   74MYC    H4812966   3.708   4.810   8.538
   74MYC    H4912967   3.882   4.810   8.553
   74MYC    H5012968   3.902   4.599   8.454
   74MYC    H5112969   3.726   4.560   8.460
   74MYC    H5212970   3.675   4.741   8.311
   74MYC    H5312971   3.850   4.787   8.298
   74MYC    H5412972   3.896   4.578   8.180
   74MYC    H5512973   3.747   4.508   8.236
   74MYC    H5612974   3.613   4.639   8.091
   74MYC    H5712975   3.753   4.750   8.052
   74MYC    H5812976   3.856   4.569   7.917
   74MYC    H5912977   3.736   4.456   7.961
   74MYC    H6012978   3.564   4.550   7.842
   74MYC    H6112979   3.621   4.708   7.831
   74MYC    H6212980   3.820   4.590   7.683
   74MYC    H6312981   3.723   4.449   7.690
   74MYC    H6412982   3.526   4.582   7.578
   74MYC    H6512983   3.641   4.712   7.572
   74MYC    H6612984   3.793   4.568   7.436
   74MYC    H6712985   3.680   4.432   7.450
   74MYC    H6812986   3.521   4.584   7.311
   74MYC    H6912987   3.649   4.706   7.321
   74MYC    H7012988   3.807   4.547   7.197
   74MYC    H7112989   3.680   4.439   7.170
   74MYC    H7212990   3.554   4.621   7.040
   74MYC    H7312991   3.671   4.735   7.090
   74MYC    H7412992   3.853   4.619   6.969
   74MYC    H7512993   3.741   4.496   6.910
   74MYC    H7612994   3.611   4.679   6.794
   74MYC    H7712995   3.726   4.794   6.860
   74MYC    H7812996   3.899   4.692   6.706
   74MYC    H7912997   3.781   4.561   6.659
   74MYC    H8012998   3.801   4.732   6.475
   74MYC    H8112999   3.767   4.860   6.586
   74MYC    H8213000   3.639   4.752   6.548
   74MYC    H8313001   3.192   4.763  11.238
   74MYC    H8413002   3.348   4.775  11.145
   74MYC    H8513003   3.062   4.793  11.046
   74MYC    H8613004   3.176   4.928  11.062
   74MYC    H8713005   3.335   4.814  10.903
   74MYC    H8813006   3.219   4.685  10.883
   74MYC    H8913007   3.059   4.834  10.766
   74MYC    H9013008   3.166   4.968  10.779
   74MYC    H9113009   3.330   4.842  10.626
   74MYC    H9213010   3.229   4.702  10.623
   74MYC    H9313011   3.036   4.849  10.538
   74MYC    H9413012   3.162   4.975  10.517
   74MYC    H9513013   3.296   4.804  10.378
   74MYC    H9613014   3.169   4.687  10.403
   74MYC    H9713015   3.011   4.819  10.271
   74MYC    H9813016   3.129   4.957  10.277
   74MYC    H9913017   3.284   4.804  10.149
   75MYC     C113018   4.696   4.468   9.589
   75MYC     C213019   4.783   4.588   9.629
   75MYC     O313020   4.920   4.558   9.607
   75MYC     C413021   4.757   4.649   9.768
   75MYC     C513022   4.861   4.752   9.815
   75MYC     C613023   4.861   4.789   9.964
   75MYC     C713024   4.723   4.838  10.011
   75MYC     C813025   4.732   4.868  10.162
   75MYC     C913026   4.610   4.812  10.236
   75MYC    C1013027   4.609   4.855  10.384
   75MYC    C1113028   4.483   4.807  10.458
   75MYC    C1213029   4.458   4.857  10.601
   75MYC    C1313030   4.576   4.835  10.698
   75MYC    C1413031   4.538   4.854  10.846
   75MYC    C1513032   4.652   4.869  10.949
   75MYC    C1613033   4.608   4.837  11.092
   75MYC    C1713034   4.503   4.937  11.140
   75MYC    C1813035   4.355   4.911  11.127
   75MYC    C1913036   4.421   4.902  11.262
   75MYC    C2013037   4.726   4.415   9.448
   75MYC    C2113038   4.664   4.505   9.340
   75MYC    C2213039   4.701   4.455   9.199
   75MYC    C2313040   4.645   4.542   9.084
   75MYC    C2413041   4.710   4.491   8.954
   75MYC    C2513042   4.629   4.525   8.828
   75MYC    C2613043   4.669   4.471   8.689
   75MYC    C2713044   4.618   4.543   8.563
   75MYC    C2813045   4.656   4.464   8.436
   75MYC    C2913046   4.581   4.516   8.312
   75MYC    C3013047   4.661   4.473   8.188
   75MYC    C3113048   4.597   4.523   8.057
   75MYC    C3213049   4.683   4.486   7.935
   75MYC    C3313050   4.622   4.533   7.802
   75MYC    C3413051   4.711   4.503   7.681
   75MYC    C3513052   4.640   4.531   7.548
   75MYC    C3613053   4.728   4.498   7.426
   75MYC    C3713054   4.648   4.483   7.295
   75MYC    C3813055   4.728   4.493   7.164
   75MYC    C3913056   4.636   4.467   7.043
   75MYC    C4013057   4.705   4.483   6.906
   75MYC    C4113058   4.613   4.428   6.796
   75MYC    C4213059   4.678   4.436   6.656
   75MYC    C4313060   4.584   4.379   6.549
   75MYC    C4413061   4.265   5.026  11.083
   75MYC    C4513062   4.143   4.985  10.999
   75MYC    C4613063   4.173   4.943  10.853
   75MYC    C4713064   4.045   4.930  10.769
   75MYC    C4813065   4.095   4.889  10.629
   75MYC    C4913066   3.995   4.906  10.514
   75MYC    C5013067   4.036   4.843  10.379
   75MYC    C5113068   3.997   4.916  10.250
   75MYC    C5213069   4.065   4.849  10.129
   75MYC    C5313070   4.067   4.936  10.003
   75MYC    C5413071   4.153   4.869   9.893
   75MYC    C5513072   4.180   4.957   9.770
   75MYC    C5613073   4.208   4.874   9.643
   75MYC    C5713074   4.256   4.955   9.521
   75MYC    C5813075   4.215   4.900   9.385
   75MYC    C5913076   4.293   4.785   9.327
   75MYC    C6013077   4.290   4.918   9.256
   75MYC    C6113078   4.202   4.930   9.132
   75MYC    C6213079   4.282   4.905   9.002
   75MYC    C6313080   4.199   4.896   8.873
   75MYC    C6413081   4.295   4.862   8.758
   75MYC    C6513082   4.214   4.844   8.629
   75MYC    C6613083   4.304   4.835   8.504
   75MYC    C6713084   4.215   4.818   8.380
   75MYC    C6813085   4.295   4.800   8.250
   75MYC    C6913086   4.192   4.789   8.135
   75MYC    C7013087   4.260   4.774   7.998
   75MYC    C7113088   4.160   4.781   7.881
   75MYC    C7213089   4.236   4.754   7.751
   75MYC    C7313090   4.164   4.810   7.627
   75MYC    C7413091   4.220   4.745   7.499
   75MYC    C7513092   4.171   4.815   7.371
   75MYC    C7613093   4.236   4.763   7.242
   75MYC    C7713094   4.171   4.824   7.116
   75MYC    C7813095   4.241   4.769   6.990
   75MYC    C7913096   4.173   4.815   6.860
   75MYC    C8013097   4.258   4.795   6.734
   75MYC    C8113098   4.711   4.353   9.688
   75MYC    O8213099   4.778   4.253   9.666
   75MYC    O8313100   4.613   4.350   9.781
   75MYC     H113101   4.591   4.501   9.591
   75MYC     H213102   4.745   4.662   9.557
   75MYC     H313103   4.935   4.463   9.619
   75MYC     H413104   4.657   4.693   9.760
   75MYC     H513105   4.765   4.575   9.849
   75MYC     H613106   4.962   4.714   9.795
   75MYC     H713107   4.845   4.841   9.752
   75MYC     H813108   4.890   4.699  10.020
   75MYC     H913109   4.940   4.863   9.983
   75MYC   0H1013110   4.022   4.748  10.121
   75MYC   1H1013111   3.963   4.941   9.969
   75MYC   2H1013112   4.097   5.038  10.030
   75MYC   3H1013113   4.253   4.856   9.935
   75MYC   4H1013114   4.110   4.771   9.869
   75MYC   5H1013115   4.089   5.016   9.757
   75MYC   6H1013116   4.269   5.019   9.787
   75MYC   7H1013117   4.285   4.799   9.667
   75MYC   8H1013118   4.121   4.813   9.616
   75MYC   9H1013119   4.215   5.057   9.524
   75MYC    H1013120   4.687   4.931   9.965
   75MYC   0H1113121   4.363   4.974   9.530
   75MYC   1H1113122   4.107   4.884   9.379
   75MYC   2H1113123   4.386   4.761   9.376
   75MYC   3H1113124   4.233   4.707   9.280
   75MYC   4H1113125   4.381   4.977   9.260
   75MYC   5H1113126   4.111   4.869   9.130
   75MYC   6H1113127   4.167   5.034   9.132
   75MYC   7H1113128   4.347   4.992   8.988
   75MYC   8H1113129   4.340   4.814   9.022
   75MYC   9H1113130   4.127   4.815   8.888
   75MYC    H1113131   4.648   4.759   9.999
   75MYC   0H1213132   4.141   4.989   8.858
   75MYC   1H1213133   4.370   4.943   8.757
   75MYC   2H1213134   4.342   4.766   8.780
   75MYC   3H1213135   4.157   4.750   8.633
   75MYC   4H1213136   4.138   4.920   8.611
   75MYC   5H1213137   4.367   4.923   8.488
   75MYC   6H1213138   4.367   4.747   8.516
   75MYC   7H1213139   4.161   4.724   8.399
   75MYC   8H1213140   4.153   4.907   8.371
   75MYC   9H1213141   4.367   4.882   8.243
   75MYC    H1213142   4.826   4.831  10.205
   75MYC   0H1313143   4.356   4.709   8.254
   75MYC   1H1313144   4.127   4.703   8.152
   75MYC   2H1313145   4.127   4.877   8.137
   75MYC   3H1313146   4.330   4.858   7.990
   75MYC   4H1313147   4.315   4.680   7.996
   75MYC   5H1313148   4.082   4.705   7.895
   75MYC   6H1313149   4.117   4.881   7.863
   75MYC   7H1313150   4.336   4.799   7.758
   75MYC   8H1313151   4.245   4.645   7.742
   75MYC   9H1313152   4.055   4.801   7.624
   75MYC    H1313153   4.733   4.978  10.166
   75MYC   0H1413154   4.181   4.919   7.622
   75MYC   1H1413155   4.328   4.749   7.518
   75MYC   2H1413156   4.193   4.639   7.506
   75MYC   3H1413157   4.063   4.797   7.371
   75MYC   4H1413158   4.177   4.924   7.378
   75MYC   5H1413159   4.336   4.806   7.242
   75MYC   6H1413160   4.237   4.653   7.242
   75MYC   7H1413161   4.068   4.787   7.111
   75MYC   8H1413162   4.168   4.933   7.110
   75MYC   9H1413163   4.346   4.800   6.986
   75MYC    H1413164   4.519   4.847  10.186
   75MYC   0H1513165   4.246   4.660   7.002
   75MYC   1H1513166   4.086   4.748   6.865
   75MYC   2H1513167   4.143   4.920   6.857
   75MYC   3H1513168   4.307   4.698   6.717
   75MYC   4H1513169   4.341   4.868   6.733
   75MYC   5H1513170   4.197   4.831   6.650
   75MYC   6H1513171   4.619   4.261   9.820
   75MYC    H1513172   4.608   4.703  10.226
   75MYC    H1613173   4.695   4.817  10.441
   75MYC    H1713174   4.623   4.963  10.400
   75MYC    H1813175   4.401   4.846  10.397
   75MYC    H1913176   4.487   4.698  10.451
   75MYC    H2013177   4.413   4.957  10.605
   75MYC    H2113178   4.376   4.793  10.635
   75MYC    H2213179   4.617   4.734  10.690
   75MYC    H2313180   4.659   4.905  10.679
   75MYC    H2413181   4.465   4.935  10.858
   75MYC    H2513182   4.492   4.762  10.885
   75MYC    H2613183   4.736   4.805  10.918
   75MYC    H2713184   4.689   4.972  10.945
   75MYC    H2813185   4.567   4.736  11.110
   75MYC    H2913186   4.688   4.840  11.167
   75MYC    H3013187   4.527   5.040  11.119
   75MYC    H3113188   4.321   4.814  11.091
   75MYC    H3213189   4.397   4.976  11.338
   75MYC    H3313190   4.426   4.800  11.299
   75MYC    H3413191   4.835   4.417   9.431
   75MYC    H3513192   4.690   4.313   9.429
   75MYC    H3613193   4.555   4.509   9.353
   75MYC    H3713194   4.694   4.609   9.357
   75MYC    H3813195   4.810   4.444   9.194
   75MYC    H3913196   4.648   4.362   9.176
   75MYC    H4013197   4.536   4.541   9.090
   75MYC    H4113198   4.661   4.648   9.107
   75MYC    H4213199   4.816   4.522   8.951
   75MYC    H4313200   4.732   4.384   8.960
   75MYC    H4413201   4.530   4.485   8.851
   75MYC    H4513202   4.616   4.633   8.818
   75MYC    H4613203   4.776   4.450   8.683
   75MYC    H4713204   4.622   4.373   8.678
   75MYC    H4813205   4.510   4.560   8.564
   75MYC    H4913206   4.658   4.645   8.562
   75MYC    H5013207   4.763   4.483   8.429
   75MYC    H5113208   4.641   4.358   8.457
   75MYC    H5213209   4.475   4.488   8.307
   75MYC    H5313210   4.582   4.626   8.320
   75MYC    H5413211   4.761   4.518   8.198
   75MYC    H5513212   4.678   4.365   8.187
   75MYC    H5613213   4.493   4.490   8.046
   75MYC    H5713214   4.586   4.632   8.056
   75MYC    H5813215   4.781   4.534   7.947
   75MYC    H5913216   4.694   4.377   7.931
   75MYC    H6013217   4.526   4.480   7.792
   75MYC    H6113218   4.596   4.639   7.813
   75MYC    H6213219   4.806   4.558   7.683
   75MYC    H6313220   4.730   4.395   7.678
   75MYC    H6413221   4.549   4.472   7.529
   75MYC    H6513222   4.615   4.637   7.553
   75MYC    H6613223   4.811   4.570   7.422
   75MYC    H6713224   4.780   4.404   7.446
   75MYC    H6813225   4.600   4.385   7.296
   75MYC    H6913226   4.573   4.563   7.293
   75MYC    H7013227   4.782   4.585   7.142
   75MYC    H7113228   4.805   4.415   7.158
   75MYC    H7213229   4.595   4.366   7.050
   75MYC    H7313230   4.550   4.535   7.044
   75MYC    H7413231   4.735   4.587   6.889
   75MYC    H7513232   4.790   4.415   6.897
   75MYC    H7613233   4.584   4.324   6.810
   75MYC    H7713234   4.521   4.488   6.790
   75MYC    H7813235   4.718   4.535   6.632
   75MYC    H7913236   4.767   4.373   6.654
   75MYC    H8013237   4.620   4.391   6.446
   75MYC    H8113238   4.505   4.455   6.544
   75MYC    H8213239   4.543   4.281   6.577
   75MYC    H8313240   4.232   5.083  11.170
   75MYC    H8413241   4.315   5.099  11.017
   75MYC    H8513242   4.085   4.902  11.040
   75MYC    H8613243   4.082   5.075  10.986
   75MYC    H8713244   4.232   5.028  10.817
   75MYC    H8813245   4.241   4.858  10.849
   75MYC    H8913246   3.991   4.843  10.808
   75MYC    H9013247   3.983   5.021  10.775
   75MYC    H9113248   4.176   4.956  10.598
   75MYC    H9213249   4.126   4.784  10.638
   75MYC    H9313250   3.891   4.875  10.533
   75MYC    H9413251   3.989   5.014  10.495
   75MYC    H9513252   4.146   4.839  10.384
   75MYC    H9613253   4.006   4.738  10.368
   75MYC    H9713254   3.890   4.922  10.224
   75MYC    H9813255   4.027   5.021  10.260
   75MYC    H9913256   4.171   4.833  10.152
   76MYC     C113257   5.339   4.880   9.655
   76MYC     C213258   5.269   4.831   9.783
   76MYC     O313259   5.164   4.925   9.804
   76MYC     C413260   5.362   4.827   9.906
   76MYC     C513261   5.304   4.765  10.034
   76MYC     C613262   5.262   4.859  10.147
   76MYC     C713263   5.272   4.798  10.288
   76MYC     C813264   5.267   4.898  10.405
   76MYC     C913265   5.341   4.850  10.531
   76MYC    C1013266   5.362   4.959  10.638
   76MYC    C1113267   5.458   4.928  10.754
   76MYC    C1213268   5.447   4.789  10.819
   76MYC    C1313269   5.547   4.763  10.933
   76MYC    C1413270   5.543   4.624  10.998
   76MYC    C1513271   5.559   4.638  11.151
   76MYC    C1613272   5.450   4.574  11.239
   76MYC    C1713273   5.321   4.655  11.239
   76MYC    C1813274   5.201   4.620  11.155
   76MYC    C1913275   5.198   4.597  11.304
   76MYC    C2013276   5.256   4.893   9.527
   76MYC    C2113277   5.322   4.852   9.395
   76MYC    C2213278   5.312   4.949   9.276
   76MYC    C2313279   5.342   4.882   9.141
   76MYC    C2413280   5.369   4.976   9.022
   76MYC    C2513281   5.326   4.918   8.886
   76MYC    C2613282   5.360   4.999   8.760
   76MYC    C2713283   5.316   4.938   8.626
   76MYC    C2813284   5.381   5.000   8.501
   76MYC    C2913285   5.327   4.941   8.370
   76MYC    C3013286   5.371   5.004   8.237
   76MYC    C3113287   5.312   4.936   8.113
   76MYC    C3213288   5.385   4.962   7.980
   76MYC    C3313289   5.328   4.870   7.871
   76MYC    C3413290   5.363   4.923   7.731
   76MYC    C3513291   5.314   4.847   7.606
   76MYC    C3613292   5.342   4.931   7.480
   76MYC    C3713293   5.310   4.855   7.350
   76MYC    C3813294   5.305   4.938   7.220
   76MYC    C3913295   5.290   4.852   7.094
   76MYC    C4013296   5.341   4.918   6.964
   76MYC    C4113297   5.340   4.816   6.848
   76MYC    C4213298   5.357   4.888   6.713
   76MYC    C4313299   5.371   4.791   6.595
   76MYC    C4413300   5.121   4.736  11.096
   76MYC    C4513301   5.007   4.687  11.005
   76MYC    C4613302   5.062   4.642  10.868
   76MYC    C4713303   4.957   4.609  10.760
   76MYC    C4813304   5.027   4.593  10.624
   76MYC    C4913305   4.932   4.549  10.512
   76MYC    C5013306   4.999   4.561  10.374
   76MYC    C5113307   4.954   4.461  10.265
   76MYC    C5213308   5.055   4.474  10.150
   76MYC    C5313309   5.029   4.385  10.028
   76MYC    C5413310   5.102   4.439   9.904
   76MYC    C5513311   5.079   4.338   9.790
   76MYC    C5613312   5.161   4.381   9.667
   76MYC    C5713313   5.114   4.303   9.543
   76MYC    C5813314   5.185   4.351   9.417
   76MYC    C5913315   5.129   4.468   9.340
   76MYC    C6013316   5.113   4.327   9.286
   76MYC    C6113317   5.190   4.293   9.160
   76MYC    C6213318   5.102   4.309   9.035
   76MYC    C6313319   5.178   4.286   8.903
   76MYC    C6413320   5.102   4.323   8.774
   76MYC    C6513321   5.193   4.330   8.650
   76MYC    C6613322   5.106   4.346   8.524
   76MYC    C6713323   5.180   4.347   8.389
   76MYC    C6813324   5.092   4.388   8.270
   76MYC    C6913325   5.157   4.364   8.133
   76MYC    C7013326   5.070   4.397   8.011
   76MYC    C7113327   5.148   4.356   7.885
   76MYC    C7213328   5.072   4.399   7.758
   76MYC    C7313329   5.146   4.367   7.628
   76MYC    C7413330   5.089   4.426   7.498
   76MYC    C7513331   5.185   4.407   7.380
   76MYC    C7613332   5.106   4.453   7.256
   76MYC    C7713333   5.196   4.440   7.132
   76MYC    C7813334   5.117   4.460   7.002
   76MYC    C7913335   5.204   4.439   6.877
   76MYC    C8013336   5.124   4.468   6.749
   76MYC    C8113337   5.423   5.006   9.669
   76MYC    O8213338   5.389   5.118   9.635
   76MYC    O8313339   5.550   4.983   9.708
   76MYC     H113340   5.407   4.795   9.643
   76MYC     H213341   5.230   4.730   9.767
   76MYC     H313342   5.175   4.956   9.896
   76MYC     H413343   5.459   4.779   9.887
   76MYC     H513344   5.378   4.935   9.921
   76MYC     H613345   5.215   4.707  10.007
   76MYC     H713346   5.382   4.698  10.073
   76MYC     H813347   5.332   4.944  10.151
   76MYC     H913348   5.162   4.901  10.132
   76MYC   0H1013349   5.158   4.465  10.187
   76MYC   1H1013350   5.061   4.283  10.055
   76MYC   2H1013351   4.920   4.386  10.017
   76MYC   3H1013352   5.061   4.536   9.873
   76MYC   4H1013353   5.210   4.447   9.921
   76MYC   5H1013354   5.101   4.235   9.822
   76MYC   6H1013355   4.975   4.349   9.757
   76MYC   7H1013356   5.148   4.489   9.648
   76MYC   8H1013357   5.267   4.359   9.683
   76MYC   9H1013358   5.152   4.202   9.564
   76MYC    H1013359   5.196   4.720  10.298
   76MYC   0H1113360   5.006   4.303   9.528
   76MYC   1H1113361   5.294   4.348   9.421
   76MYC   2H1113362   5.034   4.515   9.365
   76MYC   3H1113363   5.205   4.536   9.304
   76MYC   4H1113364   5.021   4.271   9.289
   76MYC   5H1113365   5.284   4.349   9.147
   76MYC   6H1113366   5.218   4.187   9.166
   76MYC   7H1113367   5.030   4.227   9.030
   76MYC   8H1113368   5.063   4.411   9.035
   76MYC   9H1113369   5.267   4.351   8.907
   76MYC    H1113370   5.371   4.750  10.288
   76MYC   0H1213371   5.207   4.181   8.889
   76MYC   1H1213372   5.030   4.242   8.754
   76MYC   2H1213373   5.045   4.415   8.789
   76MYC   3H1213374   5.256   4.419   8.665
   76MYC   4H1213375   5.257   4.241   8.649
   76MYC   5H1213376   5.037   4.260   8.524
   76MYC   6H1213377   5.033   4.427   8.537
   76MYC   7H1213378   5.264   4.417   8.396
   76MYC   8H1213379   5.214   4.243   8.376
   76MYC   9H1213380   5.000   4.328   8.281
   76MYC    H1213381   5.306   4.994  10.369
   76MYC   0H1313382   5.059   4.491   8.284
   76MYC   1H1313383   5.245   4.430   8.126
   76MYC   2H1313384   5.186   4.259   8.135
   76MYC   3H1313385   4.980   4.335   8.002
   76MYC   4H1313386   5.039   4.502   8.017
   76MYC   5H1313387   5.249   4.399   7.890
   76MYC   6H1313388   5.158   4.247   7.878
   76MYC   7H1313389   4.969   4.361   7.755
   76MYC   8H1313390   5.067   4.507   7.778
   76MYC   9H1313391   5.252   4.391   7.643
   76MYC    H1313392   5.161   4.919  10.424
   76MYC   0H1413393   5.148   4.259   7.606
   76MYC   1H1413394   4.989   4.385   7.479
   76MYC   2H1413395   5.074   4.532   7.522
   76MYC   3H1413396   5.277   4.467   7.389
   76MYC   4H1413397   5.207   4.300   7.366
   76MYC   5H1413398   5.030   4.377   7.235
   76MYC   6H1413399   5.058   4.551   7.270
   76MYC   7H1413400   5.274   4.516   7.140
   76MYC   8H1413401   5.250   4.345   7.132
   76MYC   9H1413402   5.035   4.388   6.994
   76MYC    H1413403   5.280   4.773  10.581
   76MYC   0H1513404   5.069   4.559   7.006
   76MYC   1H1513405   5.288   4.509   6.888
   76MYC   2H1513406   5.247   4.338   6.877
   76MYC   3H1513407   5.092   4.573   6.751
   76MYC   4H1513408   5.032   4.409   6.736
   76MYC   5H1513409   5.192   4.457   6.664
   76MYC   6H1513410   5.581   5.073   9.730
   76MYC    H1513411   5.441   4.816  10.505
   76MYC    H1613412   5.403   5.051  10.594
   76MYC    H1713413   5.263   4.981  10.680
   76MYC    H1813414   5.562   4.951  10.726
   76MYC    H1913415   5.449   4.997  10.839
   76MYC    H2013416   5.346   4.775  10.860
   76MYC    H2113417   5.468   4.710  10.746
   76MYC    H2213418   5.649   4.787  10.901
   76MYC    H2313419   5.533   4.845  11.003
   76MYC    H2413420   5.447   4.572  10.988
   76MYC    H2513421   5.622   4.559  10.958
   76MYC    H2613422   5.646   4.574  11.171
   76MYC    H2713423   5.589   4.737  11.186
   76MYC    H2813424   5.434   4.468  11.214
   76MYC    H2913425   5.477   4.566  11.345
   76MYC    H3013426   5.351   4.758  11.258
   76MYC    H3113427   5.231   4.541  11.088
   76MYC    H3213428   5.130   4.666  11.354
   76MYC    H3313429   5.208   4.498  11.347
   76MYC    H3413430   5.166   4.830   9.526
   76MYC    H3513431   5.212   4.992   9.513
   76MYC    H3613432   5.428   4.825   9.406
   76MYC    H3713433   5.271   4.767   9.347
   76MYC    H3813434   5.212   4.994   9.276
   76MYC    H3913435   5.375   5.038   9.284
   76MYC    H4013436   5.429   4.817   9.148
   76MYC    H4113437   5.252   4.823   9.119
   76MYC    H4213438   5.325   5.075   9.043
   76MYC    H4313439   5.477   4.997   9.028
   76MYC    H4413440   5.380   4.822   8.880
   76MYC    H4513441   5.218   4.898   8.890
   76MYC    H4613442   5.307   5.095   8.766
   76MYC    H4713443   5.468   5.017   8.757
   76MYC    H4813444   5.337   4.830   8.629
   76MYC    H4913445   5.207   4.943   8.616
   76MYC    H5013446   5.366   5.109   8.495
   76MYC    H5113447   5.489   4.984   8.504
   76MYC    H5213448   5.355   4.835   8.372
   76MYC    H5313449   5.217   4.938   8.367
   76MYC    H5413450   5.344   5.110   8.242
   76MYC    H5513451   5.480   5.003   8.227
   76MYC    H5613452   5.307   4.828   8.132
   76MYC    H5713453   5.206   4.961   8.100
   76MYC    H5813454   5.372   5.069   7.959
   76MYC    H5913455   5.495   4.951   7.984
   76MYC    H6013456   5.366   4.767   7.871
   76MYC    H6113457   5.221   4.859   7.891
   76MYC    H6213458   5.315   5.022   7.729
   76MYC    H6313459   5.471   4.935   7.720
   76MYC    H6413460   5.348   4.744   7.593
   76MYC    H6513461   5.207   4.835   7.625
   76MYC    H6613462   5.299   5.031   7.483
   76MYC    H6713463   5.450   4.951   7.475
   76MYC    H6813464   5.395   4.786   7.343
   76MYC    H6913465   5.223   4.789   7.358
   76MYC    H7013466   5.219   5.005   7.231
   76MYC    H7113467   5.387   5.011   7.212
   76MYC    H7213468   5.351   4.761   7.101
   76MYC    H7313469   5.188   4.815   7.078
   76MYC    H7413470   5.277   5.002   6.936
   76MYC    H7513471   5.445   4.951   6.974
   76MYC    H7613472   5.414   4.737   6.866
   76MYC    H7713473   5.247   4.761   6.859
   76MYC    H7813474   5.267   4.949   6.697
   76MYC    H7913475   5.443   4.955   6.724
   76MYC    H8013476   5.406   4.841   6.504
   76MYC    H8113477   5.274   4.748   6.570
   76MYC    H8213478   5.443   4.712   6.620
   76MYC    H8313479   5.090   4.815  11.164
   76MYC    H8413480   5.192   4.792  11.034
   76MYC    H8513481   4.944   4.612  11.053
   76MYC    H8613482   4.936   4.768  10.984
   76MYC    H8713483   5.124   4.723  10.828
   76MYC    H8813484   5.123   4.552  10.881
   76MYC    H8913485   4.900   4.518  10.782
   76MYC    H9013486   4.889   4.695  10.754
   76MYC    H9113487   5.072   4.690  10.595
   76MYC    H9213488   5.113   4.526  10.637
   76MYC    H9313489   4.895   4.449  10.537
   76MYC    H9413490   4.844   4.614  10.509
   76MYC    H9513491   4.990   4.665  10.342
   76MYC    H9613492   5.106   4.538  10.387
   76MYC    H9713493   4.950   4.358  10.301
   76MYC    H9813494   4.856   4.494  10.226
   76MYC    H9913495   5.073   4.578  10.118
   77MYC     C113496   5.776   4.684   9.551
   77MYC     C213497   5.881   4.785   9.600
   77MYC     O313498   6.011   4.731   9.620
   77MYC     C413499   5.832   4.869   9.719
   77MYC     C513500   5.908   4.863   9.852
   77MYC     C613501   5.835   4.890   9.985
   77MYC     C713502   5.917   4.890  10.114
   77MYC     C813503   5.979   4.755  10.151
   77MYC     C913504   5.984   4.722  10.301
   77MYC    C1013505   6.004   4.573  10.332
   77MYC    C1113506   5.883   4.511  10.404
   77MYC    C1213507   5.838   4.557  10.544
   77MYC    C1313508   5.958   4.581  10.637
   77MYC    C1413509   5.913   4.584  10.784
   77MYC    C1513510   6.033   4.624  10.871
   77MYC    C1613511   5.982   4.631  11.016
   77MYC    C1713512   6.062   4.734  11.094
   77MYC    C1813513   6.030   4.881  11.080
   77MYC    C1913514   5.986   4.806  11.203
   77MYC    C2013515   5.797   4.619   9.413
   77MYC    C2113516   5.754   4.709   9.295
   77MYC    C2213517   5.783   4.650   9.157
   77MYC    C2313518   5.733   4.734   9.039
   77MYC    C2413519   5.780   4.673   8.906
   77MYC    C2513520   5.721   4.745   8.783
   77MYC    C2613521   5.731   4.668   8.651
   77MYC    C2713522   5.662   4.734   8.530
   77MYC    C2813523   5.673   4.649   8.403
   77MYC    C2913524   5.666   4.725   8.270
   77MYC    C3013525   5.710   4.642   8.147
   77MYC    C3113526   5.662   4.702   8.014
   77MYC    C3213527   5.707   4.621   7.891
   77MYC    C3313528   5.666   4.691   7.760
   77MYC    C3413529   5.700   4.611   7.634
   77MYC    C3513530   5.718   4.706   7.514
   77MYC    C3613531   5.716   4.633   7.379
   77MYC    C3713532   5.730   4.731   7.261
   77MYC    C3813533   5.760   4.657   7.129
   77MYC    C3913534   5.814   4.747   7.016
   77MYC    C4013535   5.871   4.674   6.894
   77MYC    C4113536   5.911   4.772   6.782
   77MYC    C4213537   5.976   4.706   6.659
   77MYC    C4313538   6.014   4.807   6.550
   77MYC    C4413539   6.143   4.983  11.080
   77MYC    C4513540   6.138   5.092  10.972
   77MYC    C4613541   6.138   5.031  10.831
   77MYC    C4713542   6.202   5.121  10.724
   77MYC    C4813543   6.199   5.049  10.588
   77MYC    C4913544   6.246   5.123  10.462
   77MYC    C5013545   6.264   5.029  10.341
   77MYC    C5113546   6.313   5.118  10.225
   77MYC    C5213547   6.307   5.052  10.086
   77MYC    C5313548   6.360   5.163   9.994
   77MYC    C5413549   6.362   5.122   9.845
   77MYC    C5513550   6.286   5.212   9.746
   77MYC    C5613551   6.210   5.145   9.631
   77MYC    C5713552   6.207   5.227   9.500
   77MYC    C5813553   6.123   5.150   9.399
   77MYC    C5913554   6.185   5.029   9.333
   77MYC    C6013555   6.160   5.155   9.253
   77MYC    C6113556   6.056   5.137   9.143
   77MYC    C6213557   6.129   5.103   9.013
   77MYC    C6313558   6.040   5.114   8.888
   77MYC    C6413559   6.122   5.079   8.763
   77MYC    C6513560   6.059   5.114   8.627
   77MYC    C6613561   6.150   5.086   8.506
   77MYC    C6713562   6.097   5.142   8.372
   77MYC    C6813563   6.188   5.119   8.251
   77MYC    C6913564   6.169   5.222   8.137
   77MYC    C7013565   6.216   5.170   8.001
   77MYC    C7113566   6.183   5.271   7.889
   77MYC    C7213567   6.195   5.192   7.758
   77MYC    C7313568   6.173   5.283   7.636
   77MYC    C7413569   6.206   5.202   7.510
   77MYC    C7513570   6.204   5.296   7.389
   77MYC    C7613571   6.205   5.208   7.262
   77MYC    C7713572   6.223   5.268   7.122
   77MYC    C7813573   6.206   5.173   7.001
   77MYC    C7913574   6.184   5.249   6.870
   77MYC    C8013575   6.143   5.163   6.749
   77MYC    C8113576   5.753   4.575   9.655
   77MYC    O8213577   5.842   4.557   9.737
   77MYC    O8313578   5.622   4.568   9.686
   77MYC     H113579   5.683   4.742   9.546
   77MYC     H213580   5.898   4.854   9.517
   77MYC     H313581   5.996   4.642   9.658
   77MYC     H413582   5.826   4.973   9.685
   77MYC     H513583   5.734   4.827   9.745
   77MYC     H613584   5.944   4.760   9.861
   77MYC     H713585   5.997   4.926   9.841
   77MYC     H813586   5.789   4.990   9.982
   77MYC     H913587   5.758   4.812   9.995
   77MYC   0H1013588   6.205   5.019  10.065
   77MYC   1H1013589   6.290   5.247  10.006
   77MYC   2H1013590   6.458   5.199  10.025
   77MYC   3H1013591   6.465   5.105   9.814
   77MYC   4H1013592   6.310   5.026   9.840
   77MYC   5H1013593   6.210   5.268   9.802
   77MYC   6H1013594   6.365   5.281   9.714
   77MYC   7H1013595   6.262   5.052   9.604
   77MYC   8H1013596   6.112   5.108   9.662
   77MYC   9H1013597   6.160   5.325   9.510
   77MYC    H1013598   5.996   4.965  10.097
   77MYC   0H1113599   6.312   5.244   9.473
   77MYC   1H1113600   6.019   5.137   9.427
   77MYC   2H1113601   6.290   5.010   9.351
   77MYC   3H1113602   6.121   4.943   9.316
   77MYC   4H1113603   6.251   5.213   9.240
   77MYC   5H1113604   5.984   5.061   9.175
   77MYC   6H1113605   6.001   5.231   9.131
   77MYC   7H1113606   6.212   5.172   8.996
   77MYC   8H1113607   6.174   5.003   9.018
   77MYC   9H1113608   5.960   5.040   8.886
   77MYC    H1113609   5.855   4.927  10.197
   77MYC   0H1213610   5.997   5.215   8.889
   77MYC   1H1213611   6.217   5.133   8.768
   77MYC   2H1213612   6.147   4.972   8.766
   77MYC   3H1213613   5.965   5.059   8.623
   77MYC   4H1213614   6.040   5.222   8.625
   77MYC   5H1213615   6.246   5.135   8.523
   77MYC   6H1213616   6.173   4.980   8.492
   77MYC   7H1213617   6.002   5.095   8.343
   77MYC   8H1213618   6.084   5.251   8.379
   77MYC   9H1213619   6.293   5.132   8.280
   77MYC    H1213620   5.923   4.674  10.104
   77MYC   0H1313621   6.177   5.017   8.212
   77MYC   1H1313622   6.065   5.258   8.136
   77MYC   2H1313623   6.234   5.304   8.168
   77MYC   3H1313624   6.325   5.153   7.998
   77MYC   4H1313625   6.178   5.067   7.993
   77MYC   5H1313626   6.082   5.308   7.910
   77MYC   6H1313627   6.251   5.357   7.890
   77MYC   7H1313628   6.297   5.152   7.744
   77MYC   8H1313629   6.126   5.106   7.757
   77MYC   9H1313630   6.071   5.324   7.641
   77MYC    H1313631   6.084   4.749  10.120
   77MYC   0H1413632   6.229   5.377   7.632
   77MYC   1H1413633   6.307   5.160   7.522
   77MYC   2H1413634   6.135   5.120   7.498
   77MYC   3H1413635   6.116   5.360   7.381
   77MYC   4H1413636   6.285   5.370   7.393
   77MYC   5H1413637   6.282   5.132   7.275
   77MYC   6H1413638   6.108   5.156   7.264
   77MYC   7H1413639   6.150   5.348   7.108
   77MYC   8H1413640   6.317   5.323   7.111
   77MYC   9H1413641   6.299   5.117   6.985
   77MYC    H1413642   6.067   4.768  10.356
   77MYC   0H1513643   6.120   5.106   7.015
   77MYC   1H1513644   6.098   5.316   6.884
   77MYC   2H1513645   6.269   5.313   6.845
   77MYC   3H1513646   6.035   5.158   6.733
   77MYC   4H1513647   6.180   5.060   6.762
   77MYC   5H1513648   6.189   5.208   6.660
   77MYC   6H1513649   5.623   4.529   9.775
   77MYC    H1513650   5.893   4.757  10.351
   77MYC    H1613651   6.016   4.509  10.243
   77MYC    H1713652   6.097   4.553  10.387
   77MYC    H1813653   5.797   4.519  10.336
   77MYC    H1913654   5.901   4.403  10.411
   77MYC    H2013655   5.774   4.647  10.542
   77MYC    H2113656   5.764   4.484  10.577
   77MYC    H2213657   6.033   4.501  10.622
   77MYC    H2313658   6.009   4.673  10.607
   77MYC    H2413659   5.827   4.651  10.796
   77MYC    H2513660   5.883   4.482  10.811
   77MYC    H2613661   6.110   4.546  10.867
   77MYC    H2713662   6.077   4.717  10.834
   77MYC    H2813663   5.877   4.662  11.017
   77MYC    H2913664   5.991   4.532  11.062
   77MYC    H3013665   6.157   4.700  11.135
   77MYC    H3113666   5.949   4.913  11.014
   77MYC    H3213667   6.046   4.807  11.294
   77MYC    H3313668   5.881   4.781  11.213
   77MYC    H3413669   5.903   4.593   9.415
   77MYC    H3513670   5.749   4.520   9.408
   77MYC    H3613671   5.645   4.709   9.306
   77MYC    H3713672   5.781   4.815   9.296
   77MYC    H3813673   5.892   4.633   9.148
   77MYC    H3913674   5.740   4.549   9.153
   77MYC    H4013675   5.624   4.730   9.051
   77MYC    H4113676   5.770   4.838   9.041
   77MYC    H4213677   5.889   4.661   8.905
   77MYC    H4313678   5.755   4.566   8.906
   77MYC    H4413679   5.618   4.774   8.805
   77MYC    H4513680   5.776   4.839   8.773
   77MYC    H4613681   5.837   4.664   8.623
   77MYC    H4713682   5.696   4.564   8.660
   77MYC    H4813683   5.556   4.760   8.542
   77MYC    H4913684   5.706   4.833   8.508
   77MYC    H5013685   5.770   4.598   8.402
   77MYC    H5113686   5.599   4.568   8.400
   77MYC    H5213687   5.566   4.764   8.249
   77MYC    H5313688   5.738   4.808   8.267
   77MYC    H5413689   5.819   4.638   8.152
   77MYC    H5513690   5.665   4.543   8.158
   77MYC    H5613691   5.554   4.717   8.016
   77MYC    H5713692   5.705   4.802   8.001
   77MYC    H5813693   5.816   4.605   7.892
   77MYC    H5913694   5.658   4.523   7.891
   77MYC    H6013695   5.558   4.711   7.756
   77MYC    H6113696   5.718   4.788   7.771
   77MYC    H6213697   5.797   4.562   7.644
   77MYC    H6313698   5.629   4.529   7.616
   77MYC    H6413699   5.631   4.772   7.522
   77MYC    H6513700   5.812   4.762   7.525
   77MYC    H6613701   5.800   4.563   7.375
   77MYC    H6713702   5.631   4.567   7.360
   77MYC    H6813703   5.646   4.801   7.253
   77MYC    H6913704   5.818   4.793   7.280
   77MYC    H7013705   5.837   4.586   7.159
   77MYC    H7113706   5.681   4.589   7.095
   77MYC    H7213707   5.729   4.812   6.993
   77MYC    H7313708   5.889   4.809   7.067
   77MYC    H7413709   5.963   4.626   6.931
   77MYC    H7513710   5.812   4.587   6.861
   77MYC    H7613711   5.820   4.819   6.743
   77MYC    H7713712   5.985   4.843   6.822
   77MYC    H7813713   6.064   4.648   6.690
   77MYC    H7913714   5.908   4.633   6.614
   77MYC    H8013715   6.105   4.772   6.498
   77MYC    H8113716   6.050   4.902   6.593
   77MYC    H8213717   5.928   4.817   6.483
   77MYC    H8313718   6.154   5.035  11.176
   77MYC    H8413719   6.236   4.925  11.073
   77MYC    H8513720   6.053   5.160  10.982
   77MYC    H8613721   6.229   5.150  10.991
   77MYC    H8713722   6.190   4.935  10.841
   77MYC    H8813723   6.038   5.001  10.799
   77MYC    H8913724   6.147   5.216  10.719
   77MYC    H9013725   6.308   5.144  10.740
   77MYC    H9113726   6.257   4.957  10.599
   77MYC    H9213727   6.092   5.026  10.576
   77MYC    H9313728   6.189   5.216  10.452
   77MYC    H9413729   6.347   5.161  10.481
   77MYC    H9513730   6.327   4.942  10.363
   77MYC    H9613731   6.166   4.990  10.314
   77MYC    H9713732   6.257   5.212  10.226
   77MYC    H9813733   6.416   5.150  10.245
   77MYC    H9913734   6.370   4.962  10.083
   78MYC     C113735   0.161   5.655   9.595
   78MYC     C213736   0.162   5.553   9.710
   78MYC     O313737   0.031   5.504   9.738
   78MYC     C413738   0.234   5.612   9.832
   78MYC     C513739   0.261   5.508   9.941
   78MYC     C613740   0.323   5.585  10.059
   78MYC     C713741   0.366   5.506  10.183
   78MYC     C813742   0.253   5.421  10.245
   78MYC     C913743   0.129   5.510  10.263
   78MYC    C1013744   0.016   5.452  10.349
   78MYC    C1113745  -0.011   5.540  10.473
   78MYC    C1213746   0.116   5.538  10.559
   78MYC    C1313747   0.098   5.608  10.695
   78MYC    C1413748   0.226   5.610  10.781
   78MYC    C1513749   0.203   5.661  10.924
   78MYC    C1613750   0.322   5.675  11.021
   78MYC    C1713751   0.365   5.550  11.096
   78MYC    C1813752   0.491   5.482  11.048
   78MYC    C1913753   0.488   5.550  11.183
   78MYC    C2013754   0.146   5.590   9.457
   78MYC    C2113755   0.200   5.681   9.345
   78MYC    C2213756   0.167   5.630   9.204
   78MYC    C2313757   0.225   5.712   9.088
   78MYC    C2413758   0.191   5.643   8.954
   78MYC    C2513759   0.236   5.716   8.826
   78MYC    C2613760   0.199   5.641   8.696
   78MYC    C2713761   0.211   5.729   8.571
   78MYC    C2813762   0.155   5.665   8.442
   78MYC    C2913763   0.134   5.772   8.334
   78MYC    C3013764   0.087   5.708   8.203
   78MYC    C3113765   0.120   5.794   8.079
   78MYC    C3213766   0.056   5.731   7.954
   78MYC    C3313767   0.050   5.822   7.830
   78MYC    C3413768  -0.039   5.757   7.723
   78MYC    C3513769  -0.000   5.812   7.585
   78MYC    C3613770  -0.063   5.731   7.471
   78MYC    C3713771  -0.032   5.784   7.330
   78MYC    C3813772  -0.110   5.703   7.224
   78MYC    C3913773  -0.051   5.738   7.086
   78MYC    C4013774  -0.152   5.695   6.978
   78MYC    C4113775  -0.095   5.708   6.836
   78MYC    C4213776  -0.184   5.638   6.732
   78MYC    C4313777  -0.125   5.661   6.592
   78MYC    C4413778   0.499   5.331  11.032
   78MYC    C4513779   0.644   5.280  11.025
   78MYC    C4613780   0.724   5.314  10.898
   78MYC    C4713781   0.670   5.257  10.766
   78MYC    C4813782   0.745   5.292  10.636
   78MYC    C4913783   0.691   5.208  10.519
   78MYC    C5013784   0.716   5.261  10.377
   78MYC    C5113785   0.649   5.167  10.275
   78MYC    C5213786   0.684   5.205  10.130
   78MYC    C5313787   0.583   5.157  10.025
   78MYC    C5413788   0.620   5.196   9.881
   78MYC    C5513789   0.511   5.184   9.773
   78MYC    C5613790   0.568   5.212   9.633
   78MYC    C5713791   0.457   5.218   9.526
   78MYC    C5813792   0.513   5.219   9.385
   78MYC    C5913793   0.532   5.349   9.311
   78MYC    C6013794   0.426   5.252   9.266
   78MYC    C6113795   0.442   5.180   9.133
   78MYC    C6213796   0.393   5.257   9.010
   78MYC    C6313797   0.391   5.174   8.881
   78MYC    C6413798   0.330   5.260   8.768
   78MYC    C6513799   0.292   5.182   8.641
   78MYC    C6613800   0.257   5.284   8.531
   78MYC    C6713801   0.204   5.219   8.402
   78MYC    C6813802   0.193   5.317   8.284
   78MYC    C6913803   0.186   5.244   8.149
   78MYC    C7013804   0.187   5.340   8.029
   78MYC    C7113805   0.184   5.271   7.891
   78MYC    C7213806   0.194   5.359   7.766
   78MYC    C7313807   0.161   5.283   7.636
   78MYC    C7413808   0.195   5.365   7.511
   78MYC    C7513809   0.175   5.285   7.381
   78MYC    C7613810   0.159   5.375   7.257
   78MYC    C7713811   0.167   5.302   7.122
   78MYC    C7813812   0.173   5.387   6.994
   78MYC    C7913813   0.195   5.312   6.862
   78MYC    C8013814   0.225   5.402   6.741
   78MYC    C8113815   0.058   5.763   9.624
   78MYC    O8213816  -0.062   5.751   9.608
   78MYC    O8313817   0.107   5.889   9.626
   78MYC     H113818   0.258   5.706   9.592
   78MYC     H213819   0.225   5.468   9.681
   78MYC     H313820  -0.025   5.547   9.671
   78MYC     H413821   0.328   5.661   9.802
   78MYC     H513822   0.174   5.697   9.868
   78MYC     H613823   0.172   5.458   9.981
   78MYC     H713824   0.326   5.425   9.911
   78MYC     H813825   0.410   5.644  10.027
   78MYC     H913826   0.252   5.663  10.089
   78MYC   0H1013827   0.787   5.176  10.106
   78MYC   1H1013828   0.552   5.053  10.038
   78MYC   2H1013829   0.490   5.213  10.045
   78MYC   3H1013830   0.677   5.288   9.862
   78MYC   4H1013831   0.681   5.110   9.851
   78MYC   5H1013832   0.466   5.084   9.778
   78MYC   6H1013833   0.440   5.265   9.795
   78MYC   7H1013834   0.618   5.309   9.631
   78MYC   8H1013835   0.643   5.140   9.599
   78MYC   9H1013836   0.398   5.128   9.544
   78MYC    H1013837   0.452   5.443  10.158
   78MYC   0H1113838   0.390   5.304   9.541
   78MYC   1H1113839   0.603   5.161   9.369
   78MYC   2H1113840   0.494   5.439   9.359
   78MYC   3H1113841   0.621   5.363   9.249
   78MYC   4H1113842   0.324   5.287   9.279
   78MYC   5H1113843   0.546   5.144   9.129
   78MYC   6H1113844   0.389   5.085   9.142
   78MYC   7H1113845   0.291   5.292   9.034
   78MYC   8H1113846   0.454   5.348   8.998
   78MYC   9H1113847   0.490   5.129   8.865
   78MYC    H1113848   0.396   5.571  10.266
   78MYC   0H1213849   0.318   5.096   8.906
   78MYC   1H1213850   0.244   5.308   8.815
   78MYC   2H1213851   0.392   5.346   8.741
   78MYC   3H1213852   0.372   5.113   8.611
   78MYC   4H1213853   0.208   5.117   8.667
   78MYC   5H1213854   0.177   5.344   8.576
   78MYC   6H1213855   0.342   5.352   8.516
   78MYC   7H1213856   0.276   5.140   8.378
   78MYC   8H1213857   0.114   5.162   8.427
   78MYC   9H1213858   0.101   5.376   8.295
   78MYC    H1213859   0.228   5.336  10.182
   78MYC   0H1313860   0.279   5.385   8.283
   78MYC   1H1313861   0.279   5.186   8.145
   78MYC   2H1313862   0.098   5.181   8.131
   78MYC   3H1313863   0.100   5.406   8.036
   78MYC   4H1313864   0.268   5.414   8.035
   78MYC   5H1313865   0.276   5.211   7.886
   78MYC   6H1313866   0.110   5.190   7.883
   78MYC   7H1313867   0.112   5.430   7.780
   78MYC   8H1313868   0.288   5.414   7.750
   78MYC   9H1313869   0.218   5.189   7.637
   78MYC    H1313870   0.284   5.384  10.344
   78MYC   0H1413871   0.055   5.258   7.636
   78MYC   1H1413872   0.140   5.460   7.514
   78MYC   2H1413873   0.301   5.393   7.515
   78MYC   3H1413874   0.260   5.217   7.364
   78MYC   4H1413875   0.086   5.223   7.392
   78MYC   5H1413876   0.062   5.425   7.259
   78MYC   6H1413877   0.240   5.449   7.255
   78MYC   7H1413878   0.257   5.240   7.118
   78MYC   8H1413879   0.081   5.235   7.112
   78MYC   9H1413880   0.080   5.446   6.990
   78MYC    H1413881   0.163   5.610  10.291
   78MYC   0H1513882   0.247   5.468   7.001
   78MYC   1H1513883   0.283   5.248   6.872
   78MYC   2H1513884   0.103   5.257   6.841
   78MYC   3H1513885   0.303   5.474   6.767
   78MYC   4H1513886   0.141   5.471   6.726
   78MYC   5H1513887   0.251   5.346   6.649
   78MYC   6H1513888   0.027   5.943   9.639
   78MYC    H1513889   0.089   5.531  10.163
   78MYC    H1613890  -0.071   5.429  10.287
   78MYC    H1713891   0.052   5.351  10.371
   78MYC    H1813892  -0.032   5.638  10.430
   78MYC    H1913893  -0.097   5.499  10.528
   78MYC    H2013894   0.144   5.434  10.582
   78MYC    H2113895   0.207   5.579  10.512
   78MYC    H2213896   0.075   5.713  10.675
   78MYC    H2313897   0.013   5.566  10.751
   78MYC    H2413898   0.266   5.508  10.780
   78MYC    H2513899   0.297   5.674  10.727
   78MYC    H2613900   0.164   5.762  10.908
   78MYC    H2713901   0.122   5.605  10.974
   78MYC    H2813902   0.409   5.716  10.968
   78MYC    H2913903   0.297   5.755  11.092
   78MYC    H3013904   0.282   5.485  11.123
   78MYC    H3113905   0.547   5.536  10.973
   78MYC    H3213906   0.495   5.488  11.272
   78MYC    H3313907   0.525   5.651  11.193
   78MYC    H3413908   0.199   5.495   9.459
   78MYC    H3513909   0.041   5.568   9.434
   78MYC    H3613910   0.164   5.783   9.365
   78MYC    H3713911   0.309   5.688   9.355
   78MYC    H3813912   0.197   5.525   9.193
   78MYC    H3913913   0.058   5.624   9.190
   78MYC    H4013914   0.187   5.815   9.094
   78MYC    H4113915   0.334   5.716   9.093
   78MYC    H4213916   0.220   5.539   8.969
   78MYC    H4313917   0.082   5.650   8.946
   78MYC    H4413918   0.189   5.815   8.829
   78MYC    H4513919   0.345   5.720   8.832
   78MYC    H4613920   0.253   5.546   8.688
   78MYC    H4713921   0.094   5.612   8.703
   78MYC    H4813922   0.173   5.830   8.590
   78MYC    H4913923   0.316   5.743   8.542
   78MYC    H5013924   0.219   5.581   8.410
   78MYC    H5113925   0.058   5.619   8.463
   78MYC    H5213926   0.063   5.850   8.362
   78MYC    H5313927   0.233   5.816   8.317
   78MYC    H5413928   0.124   5.605   8.197
   78MYC    H5513929  -0.020   5.682   8.204
   78MYC    H5613930   0.082   5.896   8.086
   78MYC    H5713931   0.228   5.804   8.066
   78MYC    H5813932   0.110   5.639   7.927
   78MYC    H5913933  -0.043   5.689   7.979
   78MYC    H6013934   0.005   5.915   7.867
   78MYC    H6113935   0.154   5.837   7.797
   78MYC    H6213936  -0.020   5.650   7.714
   78MYC    H6313937  -0.147   5.763   7.744
   78MYC    H6413938  -0.027   5.919   7.590
   78MYC    H6513939   0.108   5.819   7.568
   78MYC    H6613940  -0.023   5.629   7.484
   78MYC    H6713941  -0.171   5.722   7.489
   78MYC    H6813942  -0.064   5.889   7.323
   78MYC    H6913943   0.076   5.777   7.315
   78MYC    H7013944  -0.109   5.597   7.249
   78MYC    H7113945  -0.216   5.731   7.230
   78MYC    H7213946  -0.036   5.847   7.084
   78MYC    H7313947   0.048   5.692   7.075
   78MYC    H7413948  -0.175   5.592   7.005
   78MYC    H7513949  -0.245   5.754   6.983
   78MYC    H7613950  -0.076   5.812   6.805
   78MYC    H7713951   0.003   5.659   6.832
   78MYC    H7813952  -0.188   5.533   6.765
   78MYC    H7913953  -0.284   5.683   6.731
   78MYC    H8013954  -0.189   5.619   6.514
   78MYC    H8113955  -0.025   5.619   6.599
   78MYC    H8213956  -0.118   5.769   6.572
   78MYC    H8313957   0.444   5.277  11.110
   78MYC    H8413958   0.447   5.291  10.944
   78MYC    H8513959   0.695   5.322  11.113
   78MYC    H8613960   0.635   5.172  11.043
   78MYC    H8713961   0.735   5.423  10.892
   78MYC    H8813962   0.825   5.270  10.908
   78MYC    H8913963   0.671   5.147  10.777
   78MYC    H9013964   0.567   5.289  10.752
   78MYC    H9113965   0.736   5.399  10.615
   78MYC    H9213966   0.851   5.267  10.652
   78MYC    H9313967   0.737   5.109  10.531
   78MYC    H9413968   0.582   5.207  10.530
   78MYC    H9513969   0.683   5.365  10.362
   78MYC    H9613970   0.823   5.266  10.358
   78MYC    H9713971   0.682   5.065  10.297
   78MYC    H9813972   0.539   5.166  10.284
   78MYC    H9913973   0.681   5.315  10.124
   79MYC     C113974   0.975   5.881   9.525
   79MYC     C213975   1.046   5.878   9.661
   79MYC     O313976   1.165   5.800   9.647
   79MYC     C413977   0.949   5.818   9.765
   79MYC     C513978   0.959   5.880   9.905
   79MYC     C613979   1.069   5.829  10.001
   79MYC     C713980   1.074   5.915  10.128
   79MYC     C813981   0.974   5.873  10.237
   79MYC     C913982   1.000   5.947  10.369
   79MYC    C1013983   0.911   5.902  10.487
   79MYC    C1113984   0.946   5.980  10.614
   79MYC    C1213985   1.054   5.903  10.692
   79MYC    C1313986   1.070   5.951  10.838
   79MYC    C1413987   1.194   5.884  10.899
   79MYC    C1513988   1.189   5.883  11.053
   79MYC    C1613989   1.257   5.762  11.118
   79MYC    C1713990   1.184   5.630  11.105
   79MYC    C1813991   1.272   5.511  11.136
   79MYC    C1913992   1.149   5.537  11.219
   79MYC    C2013993   1.073   5.907   9.409
   79MYC    C2113994   1.010   5.887   9.270
   79MYC    C2213995   1.105   5.928   9.157
   79MYC    C2313996   1.033   5.914   9.022
   79MYC    C2413997   1.122   5.948   8.901
   79MYC    C2513998   1.084   5.909   8.757
   79MYC    C2613999   1.196   5.948   8.658
   79MYC    C2714000   1.151   5.956   8.511
   79MYC    C2814001   1.257   5.894   8.418
   79MYC    C2914002   1.245   5.936   8.270
   79MYC    C3014003   1.148   5.847   8.191
   79MYC    C3114004   1.126   5.906   8.051
   79MYC    C3214005   1.059   5.801   7.961
   79MYC    C3314006   1.030   5.867   7.825
   79MYC    C3414007   0.943   5.771   7.742
   79MYC    C3514008   0.926   5.824   7.599
   79MYC    C3614009   0.828   5.748   7.508
   79MYC    C3714010   0.882   5.756   7.365
   79MYC    C3814011   0.781   5.725   7.252
   79MYC    C3914012   0.853   5.717   7.117
   79MYC    C4014013   0.750   5.713   7.003
   79MYC    C4114014   0.812   5.635   6.885
   79MYC    C4214015   0.734   5.649   6.753
   79MYC    C4314016   0.774   5.552   6.641
   79MYC    C4414017   1.274   5.391  11.042
   79MYC    C4514018   1.366   5.403  10.920
   79MYC    C4614019   1.309   5.475  10.797
   79MYC    C4714020   1.417   5.519  10.697
   79MYC    C4814021   1.374   5.630  10.599
   79MYC    C4914022   1.456   5.638  10.469
   79MYC    C5014023   1.380   5.666  10.339
   79MYC    C5114024   1.455   5.609  10.217
   79MYC    C5214025   1.393   5.638  10.080
   79MYC    C5314026   1.430   5.528   9.979
   79MYC    C5414027   1.346   5.547   9.852
   79MYC    C5514028   1.403   5.459   9.739
   79MYC    C5614029   1.348   5.502   9.603
   79MYC    C5714030   1.397   5.413   9.487
   79MYC    C5814031   1.384   5.487   9.354
   79MYC    C5914032   1.253   5.509   9.283
   79MYC    C6014033   1.353   5.410   9.228
   79MYC    C6114034   1.428   5.437   9.098
   79MYC    C6214035   1.347   5.383   8.979
   79MYC    C6314036   1.429   5.393   8.849
   79MYC    C6414037   1.337   5.383   8.727
   79MYC    C6514038   1.414   5.414   8.597
   79MYC    C6614039   1.330   5.395   8.470
   79MYC    C6714040   1.403   5.448   8.346
   79MYC    C6814041   1.322   5.415   8.219
   79MYC    C6914042   1.408   5.410   8.092
   79MYC    C7014043   1.335   5.378   7.960
   79MYC    C7114044   1.417   5.405   7.833
   79MYC    C7214045   1.364   5.319   7.717
   79MYC    C7314046   1.405   5.373   7.578
   79MYC    C7414047   1.295   5.364   7.471
   79MYC    C7514048   1.345   5.427   7.339
   79MYC    C7614049   1.227   5.432   7.241
   79MYC    C7714050   1.270   5.431   7.093
   79MYC    C7814051   1.192   5.525   6.999
   79MYC    C7914052   1.224   5.492   6.852
   79MYC    C8014053   1.159   5.591   6.754
   79MYC    C8114054   0.877   5.767   9.503
   79MYC    O8214055   0.914   5.653   9.483
   79MYC    O8314056   0.750   5.808   9.485
   79MYC     H114057   0.911   5.970   9.531
   79MYC     H214058   1.078   5.979   9.689
   79MYC     H314059   1.144   5.711   9.615
   79MYC     H414060   0.845   5.835   9.732
   79MYC     H514061   0.963   5.710   9.757
   79MYC     H614062   0.963   5.988   9.890
   79MYC     H714063   0.866   5.857   9.959
   79MYC     H814064   1.056   5.723  10.028
   79MYC     H914065   1.167   5.840   9.952
   79MYC   0H1014066   1.412   5.741  10.050
   79MYC   1H1014067   1.538   5.525   9.960
   79MYC   2H1014068   1.418   5.426  10.018
   79MYC   3H1014069   1.238   5.531   9.867
   79MYC   4H1014070   1.345   5.652   9.820
   79MYC   5H1014071   1.512   5.444   9.746
   79MYC   6H1014072   1.363   5.358   9.752
   79MYC   7H1014073   1.239   5.506   9.605
   79MYC   8H1014074   1.387   5.604   9.591
   79MYC   9H1014075   1.503   5.387   9.499
   79MYC    H1014076   1.175   5.909  10.170
   79MYC   0H1114077   1.351   5.314   9.487
   79MYC   1H1114078   1.444   5.577   9.342
   79MYC   2H1114079   1.164   5.472   9.332
   79MYC   3H1114080   1.241   5.598   9.223
   79MYC   4H1114081   1.330   5.304   9.234
   79MYC   5H1114082   1.474   5.534   9.076
   79MYC   6H1114083   1.514   5.369   9.106
   79MYC   7H1114084   1.306   5.283   8.998
   79MYC   8H1114085   1.259   5.446   8.964
   79MYC   9H1114086   1.465   5.496   8.849
   79MYC    H1114087   1.066   6.020  10.095
   79MYC   0H1214088   1.517   5.328   8.841
   79MYC   1H1214089   1.290   5.284   8.729
   79MYC   2H1214090   1.266   5.466   8.741
   79MYC   3H1214091   1.445   5.519   8.603
   79MYC   4H1214092   1.504   5.354   8.584
   79MYC   5H1214093   1.306   5.290   8.448
   79MYC   6H1214094   1.235   5.449   8.481
   79MYC   7H1214095   1.417   5.557   8.353
   79MYC   8H1214096   1.503   5.405   8.330
   79MYC   9H1214097   1.268   5.321   8.234
   79MYC    H1214098   0.874   5.886  10.194
   79MYC   0H1314099   1.254   5.498   8.200
   79MYC   1H1314100   1.453   5.510   8.079
   79MYC   2H1314101   1.497   5.347   8.101
   79MYC   3H1314102   1.308   5.272   7.970
   79MYC   4H1314103   1.242   5.436   7.955
   79MYC   5H1314104   1.393   5.510   7.810
   79MYC   6H1314105   1.524   5.387   7.845
   79MYC   7H1314106   1.408   5.219   7.723
   79MYC   8H1314107   1.255   5.311   7.721
   79MYC   9H1314108   1.445   5.475   7.588
   79MYC    H1314109   0.992   5.768  10.261
   79MYC   0H1414110   1.486   5.308   7.542
   79MYC   1H1414111   1.269   5.260   7.449
   79MYC   2H1414112   1.205   5.418   7.501
   79MYC   3H1414113   1.384   5.526   7.367
   79MYC   4H1414114   1.430   5.372   7.297
   79MYC   5H1414115   1.155   5.351   7.258
   79MYC   6H1414116   1.186   5.529   7.273
   79MYC   7H1414117   1.373   5.468   7.089
   79MYC   8H1414118   1.269   5.329   7.054
   79MYC   9H1414119   1.084   5.516   7.011
   79MYC    H1414120   1.104   5.939  10.401
   79MYC   0H1514121   1.215   5.629   7.023
   79MYC   1H1514122   1.332   5.499   6.835
   79MYC   2H1514123   1.188   5.391   6.827
   79MYC   3H1514124   1.160   5.691   6.799
   79MYC   4H1514125   1.058   5.555   6.730
   79MYC   5H1514126   1.220   5.595   6.663
   79MYC   6H1514127   0.704   5.732   9.444
   79MYC    H1514128   0.976   6.054  10.363
   79MYC    H1614129   0.812   5.937  10.455
   79MYC    H1714130   0.902   5.794  10.505
   79MYC    H1814131   0.979   6.084  10.602
   79MYC    H1914132   0.853   5.991  10.672
   79MYC    H2014133   1.038   5.795  10.696
   79MYC    H2114134   1.149   5.919  10.639
   79MYC    H2214135   1.086   6.059  10.835
   79MYC    H2314136   0.980   5.922  10.893
   79MYC    H2414137   1.183   5.779  10.869
   79MYC    H2514138   1.288   5.920  10.855
   79MYC    H2614139   1.228   5.981  11.086
   79MYC    H2714140   1.085   5.880  11.088
   79MYC    H2814141   1.360   5.749  11.082
   79MYC    H2914142   1.266   5.781  11.226
   79MYC    H3014143   1.114   5.621  11.022
   79MYC    H3114144   1.367   5.543  11.177
   79MYC    H3214145   1.057   5.480  11.205
   79MYC    H3314146   1.161   5.564  11.324
   79MYC    H3414147   1.113   6.009   9.411
   79MYC    H3514148   1.149   5.827   9.409
   79MYC    H3614149   0.976   5.783   9.260
   79MYC    H3714150   0.912   5.936   9.268
   79MYC    H3814151   1.137   6.031   9.177
   79MYC    H3914152   1.199   5.873   9.163
   79MYC    H4014153   0.984   5.817   9.003
   79MYC    H4114154   0.955   5.991   9.014
   79MYC    H4214155   1.139   6.056   8.913
   79MYC    H4314156   1.214   5.895   8.927
   79MYC    H4414157   1.061   5.802   8.750
   79MYC    H4514158   0.992   5.964   8.736
   79MYC    H4614159   1.241   6.045   8.682
   79MYC    H4714160   1.284   5.885   8.674
   79MYC    H4814161   1.054   5.907   8.492
   79MYC    H4914162   1.142   6.059   8.476
   79MYC    H5014163   1.353   5.937   8.449
   79MYC    H5114164   1.258   5.785   8.423
   79MYC    H5214165   1.210   6.039   8.261
   79MYC    H5314166   1.338   5.924   8.213
   79MYC    H5414167   1.208   5.757   8.173
   79MYC    H5514168   1.058   5.825   8.250
   79MYC    H5614169   1.064   5.997   8.051
   79MYC    H5714170   1.222   5.939   8.008
   79MYC    H5814171   1.116   5.707   7.952
   79MYC    H5914172   0.964   5.769   8.004
   79MYC    H6014173   0.978   5.961   7.849
   79MYC    H6114174   1.127   5.891   7.779
   79MYC    H6214175   0.969   5.665   7.745
   79MYC    H6314176   0.840   5.775   7.780
   79MYC    H6414177   0.900   5.930   7.609
   79MYC    H6514178   1.022   5.813   7.548
   79MYC    H6614179   0.817   5.643   7.539
   79MYC    H6714180   0.726   5.788   7.512
   79MYC    H6814181   0.930   5.849   7.331
   79MYC    H6914182   0.963   5.683   7.357
   79MYC    H7014183   0.739   5.629   7.285
   79MYC    H7114184   0.702   5.801   7.249
   79MYC    H7214185   0.918   5.804   7.100
   79MYC    H7314186   0.919   5.629   7.121
   79MYC    H7414187   0.658   5.668   7.042
   79MYC    H7514188   0.735   5.817   6.971
   79MYC    H7614189   0.916   5.664   6.867
   79MYC    H7714190   0.820   5.530   6.917
   79MYC    H7814191   0.625   5.649   6.768
   79MYC    H7914192   0.759   5.744   6.705
   79MYC    H8014193   0.719   5.588   6.553
   79MYC    H8114194   0.718   5.460   6.661
   79MYC    H8214195   0.881   5.535   6.624
   79MYC    H8314196   1.315   5.303  11.093
   79MYC    H8414197   1.174   5.358  11.011
   79MYC    H8514198   1.455   5.453  10.960
   79MYC    H8614199   1.397   5.308  10.876
   79MYC    H8714200   1.239   5.412  10.741
   79MYC    H8814201   1.253   5.565  10.826
   79MYC    H8914202   1.503   5.563  10.748
   79MYC    H9014203   1.452   5.431  10.642
   79MYC    H9114204   1.270   5.611  10.569
   79MYC    H9214205   1.376   5.724  10.655
   79MYC    H9314206   1.537   5.710  10.486
   79MYC    H9414207   1.509   5.542  10.466
   79MYC    H9514208   1.278   5.627  10.353
   79MYC    H9614209   1.375   5.776  10.337
   79MYC    H9714210   1.556   5.651  10.216
   79MYC    H9814211   1.478   5.503  10.235
   79MYC    H9914212   1.284   5.628  10.093
   80MYC     C114213   1.835   5.676   9.626
   80MYC     C214214   1.971   5.630   9.681
   80MYC     O314215   1.964   5.500   9.738
   80MYC     C414216   2.025   5.737   9.777
   80MYC     C514217   2.127   5.687   9.881
   80MYC     C614218   2.074   5.627  10.012
   80MYC     C714219   2.181   5.612  10.122
   80MYC     C814220   2.118   5.593  10.261
   80MYC     C914221   2.169   5.702  10.357
   80MYC    C1014222   2.090   5.700  10.489
   80MYC    C1114223   2.135   5.789  10.606
   80MYC    C1214224   2.027   5.785  10.715
   80MYC    C1314225   2.068   5.858  10.844
   80MYC    C1414226   2.176   5.776  10.916
   80MYC    C1514227   2.193   5.818  11.063
   80MYC    C1614228   2.330   5.765  11.109
   80MYC    C1714229   2.325   5.618  11.151
   80MYC    C1814230   2.372   5.499  11.072
   80MYC    C1914231   2.448   5.542  11.195
   80MYC    C2014232   1.803   5.603   9.495
   80MYC    C2114233   1.869   5.662   9.368
   80MYC    C2214234   1.794   5.613   9.243
   80MYC    C2314235   1.889   5.616   9.122
   80MYC    C2414236   1.816   5.568   8.996
   80MYC    C2514237   1.877   5.621   8.865
   80MYC    C2614238   1.795   5.574   8.744
   80MYC    C2714239   1.871   5.590   8.611
   80MYC    C2814240   1.790   5.534   8.493
   80MYC    C2914241   1.847   5.591   8.362
   80MYC    C3014242   1.795   5.517   8.238
   80MYC    C3114243   1.870   5.565   8.112
   80MYC    C3214244   1.822   5.503   7.981
   80MYC    C3314245   1.891   5.570   7.861
   80MYC    C3414246   1.871   5.481   7.737
   80MYC    C3514247   1.908   5.564   7.614
   80MYC    C3614248   1.875   5.477   7.491
   80MYC    C3714249   1.881   5.558   7.360
   80MYC    C3814250   1.819   5.489   7.238
   80MYC    C3914251   1.837   5.567   7.107
   80MYC    C4014252   1.823   5.486   6.977
   80MYC    C4114253   1.832   5.576   6.852
   80MYC    C4214254   1.830   5.505   6.716
   80MYC    C4314255   1.879   5.594   6.601
   80MYC    C4414256   2.273   5.384  11.084
   80MYC    C4514257   2.283   5.287  10.964
   80MYC    C4614258   2.205   5.333  10.839
   80MYC    C4714259   2.234   5.246  10.716
   80MYC    C4814260   2.135   5.276  10.602
   80MYC    C4914261   2.156   5.177  10.486
   80MYC    C5014262   2.053   5.196  10.373
   80MYC    C5114263   2.094   5.116  10.248
   80MYC    C5214264   2.044   5.183  10.119
   80MYC    C5314265   2.060   5.093   9.995
   80MYC    C5414266   2.067   5.181   9.869
   80MYC    C5514267   2.083   5.100   9.739
   80MYC    C5614268   2.099   5.200   9.622
   80MYC    C5714269   2.089   5.130   9.486
   80MYC    C5814270   2.090   5.225   9.367
   80MYC    C5914271   1.973   5.244   9.274
   80MYC    C6014272   2.096   5.170   9.227
   80MYC    C6114273   2.203   5.211   9.127
   80MYC    C6214274   2.130   5.229   8.993
   80MYC    C6314275   2.227   5.278   8.883
   80MYC    C6414276   2.159   5.254   8.748
   80MYC    C6514277   2.244   5.316   8.635
   80MYC    C6614278   2.179   5.283   8.499
   80MYC    C6714279   2.236   5.358   8.378
   80MYC    C6814280   2.170   5.313   8.246
   80MYC    C6914281   2.235   5.382   8.125
   80MYC    C7014282   2.200   5.312   7.993
   80MYC    C7114283   2.278   5.372   7.874
   80MYC    C7214284   2.247   5.301   7.741
   80MYC    C7314285   2.304   5.376   7.619
   80MYC    C7414286   2.264   5.297   7.493
   80MYC    C7514287   2.330   5.357   7.368
   80MYC    C7614288   2.304   5.275   7.241
   80MYC    C7714289   2.352   5.348   7.114
   80MYC    C7814290   2.312   5.265   6.991
   80MYC    C7914291   2.374   5.305   6.856
   80MYC    C8014292   2.332   5.209   6.744
   80MYC    C8114293   1.714   5.676   9.719
   80MYC    O8214294   1.716   5.624   9.829
   80MYC    O8314295   1.606   5.744   9.675
   80MYC     H114296   1.847   5.780   9.594
   80MYC     H214297   2.043   5.626   9.598
   80MYC     H314298   1.916   5.514   9.821
   80MYC     H414299   2.063   5.822   9.721
   80MYC     H514300   1.941   5.781   9.833
   80MYC     H614301   2.198   5.617   9.834
   80MYC     H714302   2.193   5.772   9.901
   80MYC     H814303   1.994   5.690  10.052
   80MYC     H914304   2.024   5.531   9.993
   80MYC   0H1014305   2.110   5.269  10.106
   80MYC   1H1014306   2.160   5.048  10.002
   80MYC   2H1014307   1.980   5.019   9.990
   80MYC   3H1014308   1.978   5.245   9.867
   80MYC   4H1014309   2.157   5.244   9.869
   80MYC   5H1014310   2.173   5.042   9.759
   80MYC   6H1014311   2.002   5.029   9.718
   80MYC   7H1014312   2.018   5.274   9.625
   80MYC   8H1014313   2.196   5.251   9.629
   80MYC   9H1014314   2.178   5.067   9.472
   80MYC    H1014315   2.245   5.528  10.096
   80MYC   0H1114316   2.001   5.063   9.484
   80MYC   1H1114317   2.152   5.312   9.386
   80MYC   2H1114318   1.885   5.179   9.278
   80MYC   3H1114319   1.961   5.343   9.232
   80MYC   4H1114320   2.066   5.066   9.215
   80MYC   5H1114321   2.251   5.306   9.155
   80MYC   6H1114322   2.286   5.140   9.126
   80MYC   7H1114323   2.073   5.142   8.958
   80MYC   8H1114324   2.053   5.306   8.997
   80MYC   9H1114325   2.244   5.386   8.887
   80MYC    H1114326   2.249   5.698  10.129
   80MYC   0H1214327   2.323   5.226   8.896
   80MYC   1H1214328   2.144   5.147   8.729
   80MYC   2H1214329   2.065   5.311   8.746
   80MYC   3H1214330   2.257   5.424   8.642
   80MYC   4H1214331   2.344   5.271   8.631
   80MYC   5H1214332   2.193   5.175   8.484
   80MYC   6H1214333   2.072   5.301   8.512
   80MYC   7H1214334   2.214   5.465   8.387
   80MYC   8H1214335   2.343   5.334   8.370
   80MYC   9H1214336   2.171   5.205   8.231
   80MYC    H1214337   2.009   5.593  10.262
   80MYC   0H1314338   2.065   5.346   8.253
   80MYC   1H1314339   2.191   5.482   8.128
   80MYC   2H1314340   2.344   5.379   8.138
   80MYC   3H1314341   2.229   5.206   7.999
   80MYC   4H1314342   2.090   5.313   7.985
   80MYC   5H1314343   2.253   5.479   7.868
   80MYC   6H1314344   2.384   5.360   7.899
   80MYC   7H1314345   2.289   5.202   7.758
   80MYC   8H1314346   2.140   5.279   7.730
   80MYC   9H1314347   2.270   5.480   7.626
   80MYC    H1314348   2.155   5.498  10.303
   80MYC   0H1414349   2.413   5.374   7.625
   80MYC   1H1414350   2.282   5.190   7.504
   80MYC   2H1414351   2.155   5.299   7.480
   80MYC   3H1414352   2.305   5.463   7.352
   80MYC   4H1414353   2.436   5.337   7.391
   80MYC   5H1414354   2.336   5.170   7.251
   80MYC   6H1414355   2.195   5.264   7.238
   80MYC   7H1414356   2.319   5.452   7.110
   80MYC   8H1414357   2.461   5.346   7.122
   80MYC   9H1414358   2.330   5.157   7.005
   80MYC    H1414359   2.274   5.684  10.381
   80MYC   0H1514360   2.204   5.278   6.978
   80MYC   1H1514361   2.348   5.408   6.826
   80MYC   2H1514362   2.482   5.301   6.870
   80MYC   3H1514363   2.224   5.216   6.723
   80MYC   4H1514364   2.351   5.105   6.775
   80MYC   5H1514365   2.384   5.221   6.648
   80MYC   6H1514366   1.541   5.747   9.747
   80MYC    H1514367   2.157   5.800  10.310
   80MYC    H1614368   1.985   5.721  10.465
   80MYC    H1714369   2.089   5.596  10.526
   80MYC    H1814370   2.226   5.748  10.651
   80MYC    H1914371   2.166   5.890  10.575
   80MYC    H2014372   1.944   5.846  10.678
   80MYC    H2114373   1.987   5.684  10.729
   80MYC    H2214374   2.115   5.954  10.820
   80MYC    H2314375   1.982   5.882  10.908
   80MYC    H2414376   2.151   5.670  10.915
   80MYC    H2514377   2.271   5.797  10.866
   80MYC    H2614378   2.184   5.926  11.082
   80MYC    H2714379   2.112   5.776  11.124
   80MYC    H2814380   2.408   5.788  11.035
   80MYC    H2914381   2.358   5.831  11.192
   80MYC    H3014382   2.237   5.605  11.212
   80MYC    H3114383   2.409   5.523  10.972
   80MYC    H3214384   2.438   5.471  11.276
   80MYC    H3314385   2.547   5.585  11.186
   80MYC    H3414386   1.827   5.498   9.513
   80MYC    H3514387   1.695   5.607   9.476
   80MYC    H3614388   1.849   5.770   9.370
   80MYC    H3714389   1.978   5.652   9.363
   80MYC    H3814390   1.762   5.508   9.252
   80MYC    H3914391   1.706   5.675   9.223
   80MYC    H4014392   1.932   5.716   9.108
   80MYC    H4114393   1.970   5.543   9.130
   80MYC    H4214394   1.815   5.458   8.999
   80MYC    H4314395   1.714   5.609   9.002
   80MYC    H4414396   1.878   5.731   8.870
   80MYC    H4514397   1.981   5.591   8.846
   80MYC    H4614398   1.772   5.468   8.760
   80MYC    H4714399   1.698   5.625   8.738
   80MYC    H4814400   1.879   5.700   8.610
   80MYC    H4914401   1.971   5.547   8.614
   80MYC    H5014402   1.791   5.425   8.503
   80MYC    H5114403   1.683   5.555   8.502
   80MYC    H5214404   1.826   5.699   8.355
   80MYC    H5314405   1.956   5.579   8.364
   80MYC    H5414406   1.805   5.411   8.263
   80MYC    H5514407   1.688   5.540   8.241
   80MYC    H5614408   1.854   5.674   8.115
   80MYC    H5714409   1.977   5.542   8.119
   80MYC    H5814410   1.841   5.395   7.978
   80MYC    H5914411   1.713   5.513   7.970
   80MYC    H6014412   1.854   5.673   7.861
   80MYC    H6114413   2.001   5.573   7.870
   80MYC    H6214414   1.928   5.387   7.747
   80MYC    H6314415   1.764   5.457   7.726
   80MYC    H6414416   1.858   5.661   7.606
   80MYC    H6514417   2.016   5.585   7.605
   80MYC    H6614418   1.943   5.392   7.489
   80MYC    H6714419   1.775   5.433   7.504
   80MYC    H6814420   1.833   5.656   7.376
   80MYC    H6914421   1.989   5.574   7.345
   80MYC    H7014422   1.881   5.401   7.219
   80MYC    H7114423   1.716   5.452   7.249
   80MYC    H7214424   1.769   5.653   7.112
   80MYC    H7314425   1.935   5.617   7.113
   80MYC    H7414426   1.901   5.411   6.956
   80MYC    H7514427   1.723   5.442   6.975
   80MYC    H7614428   1.737   5.632   6.851
   80MYC    H7714429   1.913   5.649   6.866
   80MYC    H7814430   1.881   5.408   6.705
   80MYC    H7914431   1.727   5.479   6.689
   80MYC    H8014432   1.864   5.531   6.512
   80MYC    H8114433   1.979   5.632   6.622
   80MYC    H8214434   1.800   5.670   6.601
   80MYC    H8314435   2.289   5.328  11.177
   80MYC    H8414436   2.172   5.426  11.083
   80MYC    H8514437   2.389   5.276  10.939
   80MYC    H8614438   2.247   5.186  10.988
   80MYC    H8714439   2.097   5.335  10.861
   80MYC    H8814440   2.239   5.431  10.804
   80MYC    H8914441   2.337   5.266  10.684
   80MYC    H9014442   2.224   5.141  10.745
   80MYC    H9114443   2.031   5.277  10.637
   80MYC    H9214444   2.149   5.378  10.565
   80MYC    H9314445   2.258   5.183  10.447
   80MYC    H9414446   2.145   5.075  10.527
   80MYC    H9514447   1.957   5.157  10.410
   80MYC    H9614448   2.040   5.301  10.346
   80MYC    H9714449   2.204   5.112  10.245
   80MYC    H9814450   2.047   5.017  10.259
   80MYC    H9914451   1.941   5.219  10.127
   81MYC     C114452   2.524   5.607   9.634
   81MYC     C214453   2.561   5.550   9.772
   81MYC     O314454   2.501   5.423   9.790
   81MYC     C414455   2.512   5.635   9.890
   81MYC     C514456   2.586   5.623  10.025
   81MYC     C614457   2.588   5.482  10.086
   81MYC     C714458   2.638   5.487  10.232
   81MYC     C814459   2.540   5.557  10.327
   81MYC     C914460   2.612   5.604  10.455
   81MYC    C1014461   2.514   5.662  10.557
   81MYC    C1114462   2.576   5.749  10.668
   81MYC    C1214463   2.690   5.680  10.745
   81MYC    C1314464   2.696   5.710  10.896
   81MYC    C1414465   2.838   5.714  10.955
   81MYC    C1514466   2.853   5.746  11.105
   81MYC    C1614467   2.996   5.784  11.147
   81MYC    C1714468   3.095   5.669  11.157
   81MYC    C1814469   3.153   5.606  11.033
   81MYC    C1914470   3.236   5.701  11.115
   81MYC    C2014471   2.603   5.542   9.520
   81MYC    C2114472   2.572   5.593   9.378
   81MYC    C2214473   2.570   5.487   9.267
   81MYC    C2314474   2.602   5.549   9.130
   81MYC    C2414475   2.620   5.444   9.019
   81MYC    C2514476   2.688   5.503   8.894
   81MYC    C2614477   2.613   5.610   8.812
   81MYC    C2714478   2.670   5.619   8.670
   81MYC    C2814479   2.608   5.526   8.563
   81MYC    C2914480   2.680   5.549   8.429
   81MYC    C3014481   2.607   5.506   8.301
   81MYC    C3114482   2.678   5.560   8.176
   81MYC    C3214483   2.601   5.534   8.045
   81MYC    C3314484   2.690   5.569   7.924
   81MYC    C3414485   2.636   5.521   7.788
   81MYC    C3514486   2.699   5.577   7.659
   81MYC    C3614487   2.636   5.551   7.522
   81MYC    C3714488   2.702   5.620   7.402
   81MYC    C3814489   2.640   5.588   7.265
   81MYC    C3914490   2.723   5.646   7.148
   81MYC    C4014491   2.640   5.643   7.019
   81MYC    C4114492   2.716   5.720   6.909
   81MYC    C4214493   2.674   5.680   6.767
   81MYC    C4314494   2.706   5.797   6.674
   81MYC    C4414495   3.166   5.454  11.043
   81MYC    C4514496   3.193   5.381  10.910
   81MYC    C4614497   3.074   5.386  10.812
   81MYC    C4714498   3.101   5.316  10.678
   81MYC    C4814499   2.993   5.353  10.575
   81MYC    C4914500   3.029   5.274  10.447
   81MYC    C5014501   2.933   5.310  10.332
   81MYC    C5114502   2.984   5.247  10.202
   81MYC    C5214503   2.889   5.279  10.086
   81MYC    C5314504   2.940   5.222   9.952
   81MYC    C5414505   2.865   5.279   9.831
   81MYC    C5514506   2.925   5.253   9.692
   81MYC    C5614507   3.052   5.331   9.657
   81MYC    C5714508   3.123   5.302   9.524
   81MYC    C5814509   3.075   5.387   9.407
   81MYC    C5914510   2.942   5.361   9.342
   81MYC    C6014511   3.069   5.331   9.268
   81MYC    C6114512   3.104   5.410   9.142
   81MYC    C6214513   3.061   5.342   9.011
   81MYC    C6314514   3.104   5.418   8.885
   81MYC    C6414515   3.062   5.346   8.755
   81MYC    C6514516   3.143   5.384   8.629
   81MYC    C6614517   3.059   5.363   8.502
   81MYC    C6714518   3.154   5.356   8.381
   81MYC    C6814519   3.078   5.372   8.248
   81MYC    C6914520   3.176   5.343   8.134
   81MYC    C7014521   3.125   5.410   8.005
   81MYC    C7114522   3.183   5.354   7.874
   81MYC    C7214523   3.118   5.416   7.749
   81MYC    C7314524   3.177   5.373   7.614
   81MYC    C7414525   3.089   5.422   7.497
   81MYC    C7514526   3.144   5.391   7.357
   81MYC    C7614527   3.064   5.452   7.240
   81MYC    C7714528   3.121   5.404   7.105
   81MYC    C7814529   3.072   5.479   6.980
   81MYC    C7914530   3.122   5.414   6.849
   81MYC    C8014531   3.059   5.486   6.729
   81MYC    C8114532   2.373   5.591   9.615
   81MYC    O8214533   2.300   5.689   9.609
   81MYC    O8314534   2.329   5.471   9.572
   81MYC     H114535   2.541   5.714   9.620
   81MYC     H214536   2.671   5.548   9.775
   81MYC     H314537   2.430   5.415   9.723
   81MYC     H414538   2.521   5.738   9.853
   81MYC     H514539   2.404   5.617   9.903
   81MYC     H614540   2.683   5.674  10.026
   81MYC     H714541   2.521   5.688  10.085
   81MYC     H814542   2.487   5.443  10.071
   81MYC     H914543   2.650   5.418  10.022
   81MYC   0H1014544   2.871   5.386  10.073
   81MYC   1H1014545   3.047   5.244   9.944
   81MYC   2H1014546   2.938   5.114   9.971
   81MYC   3H1014547   2.766   5.232   9.831
   81MYC   4H1014548   2.847   5.387   9.845
   81MYC   5H1014549   2.953   5.147   9.689
   81MYC   6H1014550   2.839   5.271   9.625
   81MYC   7H1014551   3.042   5.439   9.676
   81MYC   8H1014552   3.119   5.303   9.739
   81MYC   9H1014553   3.233   5.302   9.533
   81MYC    H1014554   2.653   5.384  10.266
   81MYC   0H1114555   3.100   5.200   9.492
   81MYC   1H1114556   3.096   5.492   9.427
   81MYC   2H1114557   2.884   5.282   9.390
   81MYC   3H1114558   2.881   5.448   9.319
   81MYC   4H1114559   3.105   5.228   9.266
   81MYC   5H1114560   3.062   5.511   9.150
   81MYC   6H1114561   3.212   5.426   9.133
   81MYC   7H1114562   3.089   5.236   9.006
   81MYC   8H1114563   2.951   5.334   9.009
   81MYC   9H1114564   3.053   5.514   8.895
   81MYC    H1114565   2.733   5.541  10.229
   81MYC   0H1214566   3.213   5.436   8.882
   81MYC   1H1214567   3.074   5.241   8.781
   81MYC   2H1214568   2.954   5.357   8.747
   81MYC   3H1214569   3.177   5.488   8.626
   81MYC   4H1214570   3.238   5.329   8.629
   81MYC   5H1214571   2.998   5.273   8.514
   81MYC   6H1214572   2.999   5.454   8.491
   81MYC   7H1214573   3.225   5.438   8.392
   81MYC   8H1214574   3.218   5.267   8.386
   81MYC   9H1214575   2.991   5.305   8.248
   81MYC    H1214576   2.489   5.644  10.284
   81MYC   0H1314577   3.046   5.477   8.253
   81MYC   1H1314578   3.276   5.381   8.155
   81MYC   2H1314579   3.175   5.235   8.119
   81MYC   3H1314580   3.018   5.387   7.998
   81MYC   4H1314581   3.140   5.519   8.010
   81MYC   5H1314582   3.289   5.380   7.879
   81MYC   6H1314583   3.168   5.245   7.874
   81MYC   7H1314584   3.012   5.389   7.755
   81MYC   8H1314585   3.118   5.526   7.743
   81MYC   9H1314586   3.278   5.415   7.607
   81MYC    H1314587   2.467   5.479  10.352
   81MYC   0H1414588   3.188   5.264   7.612
   81MYC   1H1414589   2.989   5.380   7.513
   81MYC   2H1414590   3.073   5.530   7.510
   81MYC   3H1414591   3.243   5.438   7.357
   81MYC   4H1414592   3.141   5.283   7.340
   81MYC   5H1414593   2.960   5.419   7.250
   81MYC   6H1414594   3.066   5.561   7.250
   81MYC   7H1414595   3.230   5.411   7.117
   81MYC   8H1414596   3.101   5.298   7.087
   81MYC   9H1414597   2.963   5.477   6.984
   81MYC    H1414598   2.672   5.528  10.508
   81MYC   0H1514599   3.107   5.583   6.990
   81MYC   1H1514600   3.231   5.427   6.843
   81MYC   2H1514601   3.103   5.307   6.857
   81MYC   3H1514602   3.094   5.589   6.720
   81MYC   4H1514603   2.951   5.478   6.715
   81MYC   5H1514604   3.107   5.452   6.636
   81MYC   6H1514605   2.239   5.484   9.538
   81MYC    H1514606   2.682   5.685  10.430
   81MYC    H1614607   2.444   5.729  10.504
   81MYC    H1714608   2.455   5.586  10.610
   81MYC    H1814609   2.610   5.844  10.625
   81MYC    H1914610   2.499   5.762  10.745
   81MYC    H2014611   2.692   5.571  10.733
   81MYC    H2114612   2.783   5.723  10.707
   81MYC    H2214613   2.643   5.803  10.919
   81MYC    H2314614   2.636   5.637  10.951
   81MYC    H2414615   2.880   5.613  10.948
   81MYC    H2514616   2.889   5.783  10.887
   81MYC    H2614617   2.787   5.831  11.127
   81MYC    H2714618   2.823   5.659  11.164
   81MYC    H2814619   3.024   5.857  11.070
   81MYC    H2914620   3.000   5.844  11.239
   81MYC    H3014621   3.078   5.605  11.243
   81MYC    H3114622   3.106   5.638  10.941
   81MYC    H3214623   3.313   5.657  11.178
   81MYC    H3314624   3.260   5.799  11.075
   81MYC    H3414625   2.711   5.555   9.534
   81MYC    H3514626   2.587   5.433   9.522
   81MYC    H3614627   2.483   5.657   9.373
   81MYC    H3714628   2.654   5.663   9.355
   81MYC    H3814629   2.650   5.419   9.299
   81MYC    H3914630   2.475   5.433   9.264
   81MYC    H4014631   2.526   5.626   9.111
   81MYC    H4114632   2.691   5.612   9.139
   81MYC    H4214633   2.684   5.360   9.049
   81MYC    H4314634   2.522   5.399   9.001
   81MYC    H4414635   2.783   5.550   8.922
   81MYC    H4514636   2.709   5.419   8.827
   81MYC    H4614637   2.506   5.585   8.808
   81MYC    H4714638   2.632   5.705   8.863
   81MYC    H4814639   2.636   5.720   8.643
   81MYC    H4914640   2.780   5.619   8.666
   81MYC    H5014641   2.624   5.422   8.592
   81MYC    H5114642   2.501   5.545   8.551
   81MYC    H5214643   2.705   5.654   8.414
   81MYC    H5314644   2.784   5.514   8.432
   81MYC    H5414645   2.595   5.397   8.293
   81MYC    H5514646   2.505   5.546   8.306
   81MYC    H5614647   2.682   5.670   8.184
   81MYC    H5714648   2.781   5.524   8.170
   81MYC    H5814649   2.579   5.427   8.043
   81MYC    H5914650   2.506   5.589   8.047
   81MYC    H6014651   2.702   5.678   7.924
   81MYC    H6114652   2.787   5.519   7.937
   81MYC    H6214653   2.655   5.413   7.781
   81MYC    H6314654   2.530   5.547   7.783
   81MYC    H6414655   2.701   5.686   7.667
   81MYC    H6514656   2.803   5.541   7.654
   81MYC    H6614657   2.638   5.442   7.505
   81MYC    H6714658   2.528   5.572   7.522
   81MYC    H6814659   2.693   5.729   7.414
   81MYC    H6914660   2.811   5.608   7.402
   81MYC    H7014661   2.632   5.480   7.249
   81MYC    H7114662   2.536   5.624   7.263
   81MYC    H7214663   2.741   5.749   7.180
   81MYC    H7314664   2.818   5.594   7.134
   81MYC    H7414665   2.639   5.538   6.986
   81MYC    H7514666   2.538   5.683   7.026
   81MYC    H7614667   2.707   5.829   6.922
   81MYC    H7714668   2.822   5.699   6.930
   81MYC    H7814669   2.720   5.589   6.725
   81MYC    H7914670   2.566   5.664   6.772
   81MYC    H8014671   2.712   5.758   6.571
   81MYC    H8114672   2.805   5.837   6.702
   81MYC    H8214673   2.630   5.875   6.681
   81MYC    H8314674   3.225   5.410  11.124
   81MYC    H8414675   3.070   5.413  11.075
   81MYC    H8514676   3.282   5.423  10.862
   81MYC    H8614677   3.212   5.275  10.929
   81MYC    H8714678   2.991   5.333  10.860
   81MYC    H8814679   3.044   5.490  10.792
   81MYC    H8914680   3.197   5.354  10.641
   81MYC    H9014681   3.112   5.207  10.691
   81MYC    H9114682   2.900   5.325  10.625
   81MYC    H9214683   2.990   5.462  10.565
   81MYC    H9314684   3.129   5.296  10.408
   81MYC    H9414685   3.031   5.166  10.464
   81MYC    H9514686   2.831   5.277  10.356
   81MYC    H9614687   2.927   5.419  10.324
   81MYC    H9714688   3.081   5.291  10.177
   81MYC    H9814689   2.989   5.137  10.208
   81MYC    H9914690   2.794   5.225  10.100
   82MYC     C114691   3.354   5.899   9.628
   82MYC     C214692   3.298   5.768   9.685
   82MYC     O314693   3.162   5.755   9.647
   82MYC     C414694   3.302   5.757   9.838
   82MYC     C514695   3.302   5.609   9.881
   82MYC     C614696   3.255   5.594  10.027
   82MYC     C714697   3.352   5.654  10.130
   82MYC     C814698   3.285   5.665  10.268
   82MYC     C914699   3.383   5.692  10.384
   82MYC    C1014700   3.323   5.778  10.496
   82MYC    C1114701   3.424   5.796  10.611
   82MYC    C1214702   3.422   5.670  10.700
   82MYC    C1314703   3.515   5.698  10.819
   82MYC    C1414704   3.562   5.575  10.898
   82MYC    C1514705   3.619   5.633  11.028
   82MYC    C1614706   3.694   5.521  11.103
   82MYC    C1714707   3.594   5.419  11.156
   82MYC    C1814708   3.607   5.271  11.131
   82MYC    C1914709   3.637   5.328  11.268
   82MYC    C2014710   3.340   5.907   9.475
   82MYC    C2114711   3.440   5.809   9.411
   82MYC    C2214712   3.412   5.814   9.260
   82MYC    C2314713   3.505   5.721   9.181
   82MYC    C2414714   3.464   5.700   9.034
   82MYC    C2514715   3.576   5.645   8.945
   82MYC    C2614716   3.524   5.650   8.801
   82MYC    C2714717   3.627   5.594   8.701
   82MYC    C2814718   3.562   5.587   8.562
   82MYC    C2914719   3.665   5.572   8.449
   82MYC    C3014720   3.588   5.577   8.316
   82MYC    C3114721   3.682   5.580   8.194
   82MYC    C3214722   3.600   5.580   8.064
   82MYC    C3314723   3.687   5.577   7.937
   82MYC    C3414724   3.610   5.566   7.805
   82MYC    C3514725   3.678   5.618   7.677
   82MYC    C3614726   3.578   5.637   7.562
   82MYC    C3714727   3.650   5.664   7.429
   82MYC    C3814728   3.549   5.665   7.312
   82MYC    C3914729   3.611   5.675   7.172
   82MYC    C4014730   3.502   5.683   7.063
   82MYC    C4114731   3.553   5.713   6.921
   82MYC    C4214732   3.453   5.674   6.810
   82MYC    C4314733   3.510   5.685   6.668
   82MYC    C4414734   3.483   5.187  11.108
   82MYC    C4514735   3.473   5.110  10.975
   82MYC    C4614736   3.508   5.187  10.847
   82MYC    C4714737   3.466   5.110  10.720
   82MYC    C4814738   3.499   5.186  10.591
   82MYC    C4914739   3.474   5.097  10.468
   82MYC    C5014740   3.519   5.163  10.337
   82MYC    C5114741   3.462   5.086  10.217
   82MYC    C5214742   3.515   5.153  10.089
   82MYC    C5314743   3.520   5.049   9.977
   82MYC    C5414744   3.552   5.126   9.848
   82MYC    C5514745   3.573   5.020   9.738
   82MYC    C5614746   3.627   5.078   9.606
   82MYC    C5714747   3.551   5.205   9.565
   82MYC    C5814748   3.582   5.245   9.421
   82MYC    C5914749   3.505   5.358   9.358
   82MYC    C6014750   3.489   5.217   9.306
   82MYC    C6114751   3.555   5.189   9.172
   82MYC    C6214752   3.475   5.231   9.048
   82MYC    C6314753   3.558   5.199   8.922
   82MYC    C6414754   3.488   5.217   8.786
   82MYC    C6514755   3.570   5.185   8.660
   82MYC    C6614756   3.482   5.175   8.535
   82MYC    C6714757   3.562   5.139   8.409
   82MYC    C6814758   3.488   5.171   8.278
   82MYC    C6914759   3.573   5.134   8.156
   82MYC    C7014760   3.500   5.170   8.025
   82MYC    C7114761   3.576   5.136   7.896
   82MYC    C7214762   3.497   5.162   7.767
   82MYC    C7314763   3.582   5.156   7.638
   82MYC    C7414764   3.490   5.177   7.517
   82MYC    C7514765   3.566   5.130   7.392
   82MYC    C7614766   3.486   5.171   7.267
   82MYC    C7714767   3.541   5.117   7.134
   82MYC    C7814768   3.477   5.185   7.012
   82MYC    C7914769   3.533   5.130   6.879
   82MYC    C8014770   3.477   5.198   6.753
   82MYC    C8114771   3.288   6.022   9.689
   82MYC    O8214772   3.177   6.022   9.738
   82MYC    O8314773   3.354   6.138   9.667
   82MYC     H114774   3.462   5.906   9.647
   82MYC     H214775   3.347   5.680   9.640
   82MYC     H314776   3.113   5.832   9.683
   82MYC     H414777   3.399   5.797   9.868
   82MYC     H514778   3.219   5.811   9.885
   82MYC     H614779   3.222   5.552   9.832
   82MYC     H714780   3.394   5.557   9.851
   82MYC     H814781   3.158   5.643  10.039
   82MYC     H914782   3.236   5.489  10.053
   82MYC   0H1014783   3.616   5.197  10.097
   82MYC   1H1014784   3.609   4.989  10.004
   82MYC   2H1014785   3.426   4.993   9.967
   82MYC   3H1014786   3.474   5.196   9.815
   82MYC   4H1014787   3.646   5.180   9.858
   82MYC   5H1014788   3.648   4.954   9.782
   82MYC   6H1014789   3.486   4.962   9.706
   82MYC   7H1014790   3.732   5.111   9.612
   82MYC   8H1014791   3.622   5.001   9.528
   82MYC   9H1014792   3.446   5.175   9.564
   82MYC    H1014793   3.433   5.581  10.144
   82MYC   0H1114794   3.561   5.295   9.628
   82MYC   1H1114795   3.689   5.251   9.405
   82MYC   2H1114796   3.424   5.402   9.416
   82MYC   3H1114797   3.567   5.430   9.305
   82MYC   4H1114798   3.393   5.169   9.323
   82MYC   5H1114799   3.656   5.229   9.163
   82MYC   6H1114800   3.561   5.079   9.166
   82MYC   7H1114801   3.382   5.174   9.056
   82MYC   8H1114802   3.450   5.337   9.062
   82MYC   9H1114803   3.647   5.264   8.918
   82MYC    H1114804   3.401   5.750  10.109
   82MYC   0H1214805   3.592   5.096   8.934
   82MYC   1H1214806   3.400   5.152   8.780
   82MYC   2H1214807   3.458   5.323   8.779
   82MYC   3H1214808   3.653   5.257   8.656
   82MYC   4H1214809   3.615   5.087   8.684
   82MYC   5H1214810   3.396   5.106   8.545
   82MYC   6H1214811   3.426   5.267   8.514
   82MYC   7H1214812   3.654   5.199   8.422
   82MYC   8H1214813   3.592   5.034   8.415
   82MYC   9H1214814   3.394   5.114   8.275
   82MYC    H1214815   3.215   5.749  10.265
   82MYC   0H1314816   3.463   5.277   8.275
   82MYC   1H1314817   3.667   5.191   8.162
   82MYC   2H1314818   3.595   5.027   8.161
   82MYC   3H1314819   3.407   5.112   8.019
   82MYC   4H1314820   3.464   5.273   8.017
   82MYC   5H1314821   3.671   5.190   7.895
   82MYC   6H1314822   3.597   5.028   7.892
   82MYC   7H1314823   3.413   5.092   7.771
   82MYC   8H1314824   3.461   5.266   7.770
   82MYC   9H1314825   3.652   5.241   7.632
   82MYC    H1314826   3.221   5.579  10.288
   82MYC   0H1414827   3.630   5.058   7.642
   82MYC   1H1414828   3.399   5.116   7.528
   82MYC   2H1414829   3.463   5.283   7.510
   82MYC   3H1414830   3.670   5.164   7.392
   82MYC   4H1414831   3.566   5.021   7.396
   82MYC   5H1414832   3.385   5.129   7.271
   82MYC   6H1414833   3.491   5.281   7.263
   82MYC   7H1414834   3.650   5.133   7.143
   82MYC   8H1414835   3.527   5.008   7.131
   82MYC   9H1414836   3.369   5.169   7.008
   82MYC    H1414837   3.410   5.590  10.414
   82MYC   0H1514838   3.492   5.294   7.011
   82MYC   1H1514839   3.642   5.134   6.876
   82MYC   2H1514840   3.511   5.023   6.872
   82MYC   3H1514841   3.534   5.288   6.727
   82MYC   4H1514842   3.371   5.225   6.760
   82MYC   5H1514843   3.480   5.133   6.666
   82MYC   6H1514844   3.297   6.214   9.685
   82MYC    H1514845   3.468   5.740  10.334
   82MYC    H1614846   3.284   5.875  10.463
   82MYC    H1714847   3.233   5.722  10.526
   82MYC    H1814848   3.521   5.821  10.567
   82MYC    H1914849   3.390   5.885  10.665
   82MYC    H2014850   3.320   5.656  10.736
   82MYC    H2114851   3.452   5.583  10.641
   82MYC    H2214852   3.601   5.760  10.792
   82MYC    H2314853   3.462   5.764  10.890
   82MYC    H2414854   3.478   5.506  10.912
   82MYC    H2514855   3.647   5.531  10.844
   82MYC    H2614856   3.695   5.709  11.004
   82MYC    H2714857   3.539   5.680  11.086
   82MYC    H2814858   3.759   5.475  11.028
   82MYC    H2914859   3.769   5.547  11.179
   82MYC    H3014860   3.488   5.446  11.150
   82MYC    H3114861   3.691   5.243  11.068
   82MYC    H3214862   3.568   5.313  11.350
   82MYC    H3314863   3.740   5.338  11.301
   82MYC    H3414864   3.236   5.880   9.455
   82MYC    H3514865   3.371   6.005   9.437
   82MYC    H3614866   3.546   5.831   9.428
   82MYC    H3714867   3.435   5.707   9.452
   82MYC    H3814868   3.310   5.778   9.239
   82MYC    H3914869   3.417   5.918   9.227
   82MYC    H4014870   3.604   5.767   9.182
   82MYC    H4114871   3.507   5.625   9.233
   82MYC    H4214872   3.376   5.634   9.035
   82MYC    H4314873   3.434   5.795   8.988
   82MYC    H4414874   3.668   5.704   8.943
   82MYC    H4514875   3.619   5.549   8.978
   82MYC    H4614876   3.425   5.606   8.786
   82MYC    H4714877   3.504   5.755   8.776
   82MYC    H4814878   3.720   5.651   8.707
   82MYC    H4914879   3.662   5.495   8.734
   82MYC    H5014880   3.501   5.497   8.545
   82MYC    H5114881   3.502   5.677   8.545
   82MYC    H5214882   3.725   5.664   8.446
   82MYC    H5314883   3.728   5.483   8.460
   82MYC    H5414884   3.529   5.486   8.300
   82MYC    H5514885   3.524   5.666   8.314
   82MYC    H5614886   3.744   5.669   8.209
   82MYC    H5714887   3.745   5.490   8.204
   82MYC    H5814888   3.527   5.498   8.066
   82MYC    H5914889   3.543   5.674   8.064
   82MYC    H6014890   3.744   5.670   7.936
   82MYC    H6114891   3.757   5.493   7.934
   82MYC    H6214892   3.574   5.464   7.788
   82MYC    H6314893   3.518   5.625   7.818
   82MYC    H6414894   3.721   5.717   7.693
   82MYC    H6514895   3.765   5.556   7.651
   82MYC    H6614896   3.521   5.543   7.554
   82MYC    H6714897   3.501   5.712   7.583
   82MYC    H6814898   3.712   5.754   7.427
   82MYC    H6914899   3.719   5.581   7.404
   82MYC    H7014900   3.498   5.568   7.317
   82MYC    H7114901   3.485   5.753   7.324
   82MYC    H7214902   3.673   5.765   7.170
   82MYC    H7314903   3.685   5.597   7.151
   82MYC    H7414904   3.458   5.583   7.068
   82MYC    H7514905   3.417   5.744   7.098
   82MYC    H7614906   3.583   5.818   6.924
   82MYC    H7714907   3.652   5.670   6.900
   82MYC    H7814908   3.424   5.570   6.833
   82MYC    H7914909   3.365   5.738   6.820
   82MYC    H8014910   3.432   5.659   6.595
   82MYC    H8114911   3.597   5.622   6.651
   82MYC    H8214912   3.532   5.792   6.655
   82MYC    H8314913   3.477   5.107  11.183
   82MYC    H8414914   3.390   5.236  11.139
   82MYC    H8514915   3.544   5.027  10.987
   82MYC    H8614916   3.376   5.058  10.972
   82MYC    H8714917   3.463   5.286  10.851
   82MYC    H8814918   3.618   5.189  10.843
   82MYC    H8914919   3.531   5.022  10.723
   82MYC    H9014920   3.360   5.082  10.723
   82MYC    H9114921   3.455   5.286  10.581
   82MYC    H9214922   3.606   5.208  10.592
   82MYC    H9314923   3.532   5.003  10.469
   82MYC    H9414924   3.367   5.072  10.467
   82MYC    H9514925   3.471   5.261  10.332
   82MYC    H9614926   3.629   5.164  10.329
   82MYC    H9714927   3.497   4.982  10.223
   82MYC    H9814928   3.352   5.093  10.224
   82MYC    H9914929   3.447   5.233  10.060
   83MYC     C114930   4.518   5.406   9.656
   83MYC     C214931   4.402   5.506   9.665
   83MYC     O314932   4.452   5.637   9.690
   83MYC     C414933   4.299   5.461   9.770
   83MYC     C514934   4.273   5.555   9.888
   83MYC     C614935   4.391   5.589   9.982
   83MYC     C714936   4.338   5.681  10.093
   83MYC     C814937   4.448   5.767  10.157
   83MYC     C914938   4.488   5.713  10.295
   83MYC    C1014939   4.576   5.816  10.368
   83MYC    C1114940   4.622   5.764  10.506
   83MYC    C1214941   4.507   5.707  10.590
   83MYC    C1314942   4.558   5.657  10.726
   83MYC    C1414943   4.439   5.612  10.812
   83MYC    C1514944   4.485   5.596  10.958
   83MYC    C1614945   4.373   5.541  11.048
   83MYC    C1714946   4.263   5.644  11.074
   83MYC    C1814947   4.128   5.610  11.015
   83MYC    C1914948   4.148   5.608  11.165
   83MYC    C2014949   4.606   5.422   9.531
   83MYC    C2114950   4.531   5.423   9.396
   83MYC    C2214951   4.620   5.395   9.274
   83MYC    C2314952   4.553   5.412   9.137
   83MYC    C2414953   4.664   5.427   9.031
   83MYC    C2514954   4.610   5.452   8.890
   83MYC    C2614955   4.726   5.470   8.791
   83MYC    C2714956   4.665   5.509   8.655
   83MYC    C2814957   4.770   5.498   8.543
   83MYC    C2914958   4.708   5.534   8.408
   83MYC    C3014959   4.794   5.478   8.293
   83MYC    C3114960   4.746   5.516   8.152
   83MYC    C3214961   4.837   5.458   8.042
   83MYC    C3314962   4.784   5.489   7.900
   83MYC    C3414963   4.877   5.454   7.783
   83MYC    C3514964   4.818   5.515   7.655
   83MYC    C3614965   4.844   5.439   7.524
   83MYC    C3714966   4.781   5.509   7.402
   83MYC    C3814967   4.807   5.445   7.264
   83MYC    C3914968   4.734   5.513   7.147
   83MYC    C4014969   4.758   5.449   7.010
   83MYC    C4114970   4.687   5.519   6.893
   83MYC    C4214971   4.733   5.469   6.755
   83MYC    C4314972   4.701   5.561   6.636
   83MYC    C4414973   4.042   5.721  10.956
   83MYC    C4514974   3.937   5.673  10.855
   83MYC    C4614975   3.995   5.624  10.720
   83MYC    C4714976   3.879   5.594  10.624
   83MYC    C4814977   3.922   5.555  10.481
   83MYC    C4914978   3.811   5.468  10.420
   83MYC    C5014979   3.850   5.414  10.281
   83MYC    C5114980   3.838   5.519  10.169
   83MYC    C5214981   3.853   5.451  10.031
   83MYC    C5314982   3.820   5.546   9.914
   83MYC    C5414983   3.865   5.487   9.780
   83MYC    C5514984   3.836   5.568   9.653
   83MYC    C5614985   3.878   5.503   9.520
   83MYC    C5714986   3.927   5.611   9.422
   83MYC    C5814987   3.973   5.554   9.288
   83MYC    C5914988   4.118   5.517   9.264
   83MYC    C6014989   4.055   5.634   9.191
   83MYC    C6114990   4.014   5.627   9.044
   83MYC    C6214991   4.079   5.723   8.944
   83MYC    C6314992   3.990   5.755   8.823
   83MYC    C6414993   4.067   5.822   8.708
   83MYC    C6514994   4.002   5.789   8.572
   83MYC    C6614995   4.082   5.864   8.464
   83MYC    C6714996   4.031   5.812   8.328
   83MYC    C6814997   4.100   5.872   8.204
   83MYC    C6914998   4.018   5.830   8.081
   83MYC    C7014999   4.090   5.855   7.947
   83MYC    C7115000   4.012   5.795   7.829
   83MYC    C7215001   4.104   5.773   7.707
   83MYC    C7315002   4.072   5.863   7.587
   83MYC    C7415003   4.157   5.850   7.460
   83MYC    C7515004   4.106   5.921   7.333
   83MYC    C7615005   4.160   5.851   7.207
   83MYC    C7715006   4.073   5.898   7.089
   83MYC    C7815007   4.107   5.833   6.954
   83MYC    C7915008   4.002   5.861   6.844
   83MYC    C8015009   4.066   5.823   6.709
   83MYC    C8115010   4.604   5.402   9.782
   83MYC    O8215011   4.707   5.466   9.792
   83MYC    O8315012   4.571   5.299   9.863
   83MYC     H115013   4.469   5.310   9.635
   83MYC     H215014   4.347   5.509   9.570
   83MYC     H315015   4.500   5.652   9.607
   83MYC     H415016   4.207   5.447   9.713
   83MYC     H515017   4.325   5.363   9.813
   83MYC     H615018   4.244   5.652   9.846
   83MYC     H715019   4.187   5.522   9.947
   83MYC     H815020   4.437   5.500  10.028
   83MYC     H915021   4.467   5.647   9.928
   83MYC   0H1015022   3.785   5.366  10.020
   83MYC   1H1015023   3.715   5.576   9.927
   83MYC   2H1015024   3.878   5.637   9.931
   83MYC   3H1015025   3.971   5.457   9.777
   83MYC   4H1015026   3.813   5.392   9.763
   83MYC   5H1015027   3.728   5.583   9.649
   83MYC   6H1015028   3.879   5.668   9.663
   83MYC   7H1015029   3.966   5.437   9.531
   83MYC   8H1015030   3.788   5.454   9.480
   83MYC   9H1015031   3.841   5.676   9.402
   83MYC    H1015032   4.267   5.753  10.050
   83MYC   0H1115033   4.007   5.665   9.473
   83MYC   1H1115034   3.897   5.492   9.240
   83MYC   2H1115035   4.190   5.534   9.343
   83MYC   3H1115036   4.145   5.431   9.204
   83MYC   4H1115037   4.090   5.733   9.219
   83MYC   5H1115038   4.017   5.521   9.015
   83MYC   6H1115039   3.907   5.651   9.047
   83MYC   7H1115040   4.117   5.813   8.994
   83MYC   8H1115041   4.165   5.675   8.895
   83MYC   9H1115042   3.936   5.668   8.782
   83MYC    H1115043   4.280   5.630  10.170
   83MYC   0H1215044   3.918   5.829   8.861
   83MYC   1H1215045   4.063   5.930   8.722
   83MYC   2H1215046   4.173   5.794   8.708
   83MYC   3H1215047   3.996   5.681   8.557
   83MYC   4H1215048   3.897   5.822   8.579
   83MYC   5H1215049   4.056   5.970   8.471
   83MYC   6H1215050   4.190   5.850   8.471
   83MYC   7H1215051   4.041   5.702   8.329
   83MYC   8H1215052   3.922   5.822   8.329
   83MYC   9H1215053   4.104   5.981   8.200
   83MYC    H1215054   4.540   5.780  10.098
   83MYC   0H1315055   4.206   5.842   8.202
   83MYC   1H1315056   3.973   5.730   8.081
   83MYC   2H1315057   3.930   5.895   8.077
   83MYC   3H1315058   4.110   5.961   7.930
   83MYC   4H1315059   4.186   5.802   7.953
   83MYC   5H1315060   3.977   5.697   7.865
   83MYC   6H1315061   3.921   5.849   7.802
   83MYC   7H1315062   4.212   5.784   7.729
   83MYC   8H1315063   4.105   5.668   7.677
   83MYC   9H1315064   3.967   5.843   7.561
   83MYC    H1315065   4.405   5.865  10.182
   83MYC   0H1415066   4.062   5.969   7.612
   83MYC   1H1415067   4.259   5.882   7.487
   83MYC   2H1415068   4.171   5.743   7.444
   83MYC   3H1415069   3.996   5.912   7.337
   83MYC   4H1415070   4.132   6.027   7.332
   83MYC   5H1415071   4.263   5.874   7.180
   83MYC   6H1415072   4.143   5.744   7.224
   83MYC   7H1415073   3.965   5.884   7.103
   83MYC   8H1415074   4.097   6.005   7.090
   83MYC   9H1415075   4.209   5.859   6.924
   83MYC    H1415076   4.396   5.698  10.353
   83MYC   0H1515077   4.107   5.726   6.977
   83MYC   1H1515078   3.913   5.801   6.865
   83MYC   2H1515079   3.979   5.968   6.844
   83MYC   3H1515080   4.083   5.715   6.709
   83MYC   4H1515081   4.168   5.862   6.703
   83MYC   5H1515082   4.005   5.855   6.624
   83MYC   6H1515083   4.649   5.296   9.921
   83MYC    H1515084   4.532   5.612  10.289
   83MYC    H1615085   4.663   5.843  10.306
   83MYC    H1715086   4.517   5.908  10.376
   83MYC    H1815087   4.705   5.693  10.502
   83MYC    H1915088   4.663   5.855  10.552
   83MYC    H2015089   4.432   5.784  10.614
   83MYC    H2115090   4.464   5.617  10.545
   83MYC    H2215091   4.621   5.568  10.715
   83MYC    H2315092   4.619   5.740  10.765
   83MYC    H2415093   4.362   5.691  10.814
   83MYC    H2515094   4.398   5.518  10.773
   83MYC    H2615095   4.572   5.530  10.960
   83MYC    H2715096   4.527   5.693  10.986
   83MYC    H2815097   4.342   5.441  11.016
   83MYC    H2915098   4.428   5.524  11.141
   83MYC    H3015099   4.307   5.743  11.081
   83MYC    H3115100   4.136   5.517  10.959
   83MYC    H3215101   4.104   5.689  11.224
   83MYC    H3315102   4.140   5.512  11.215
   83MYC    H3415103   4.667   5.512   9.542
   83MYC    H3515104   4.680   5.341   9.539
   83MYC    H3615105   4.448   5.350   9.395
   83MYC    H3715106   4.479   5.519   9.385
   83MYC    H3815107   4.703   5.467   9.281
   83MYC    H3915108   4.661   5.294   9.287
   83MYC    H4015109   4.481   5.330   9.123
   83MYC    H4115110   4.488   5.500   9.132
   83MYC    H4215111   4.724   5.514   9.060
   83MYC    H4315112   4.726   5.336   9.031
   83MYC    H4415113   4.550   5.366   8.856
   83MYC    H4515114   4.540   5.536   8.885
   83MYC    H4615115   4.803   5.540   8.825
   83MYC    H4715116   4.780   5.374   8.783
   83MYC    H4815117   4.587   5.435   8.631
   83MYC    H4915118   4.630   5.612   8.667
   83MYC    H5015119   4.858   5.564   8.548
   83MYC    H5115120   4.802   5.393   8.546
   83MYC    H5215121   4.608   5.490   8.396
   83MYC    H5315122   4.698   5.642   8.399
   83MYC    H5415123   4.892   5.525   8.311
   83MYC    H5515124   4.817   5.372   8.307
   83MYC    H5615125   4.640   5.492   8.137
   83MYC    H5715126   4.746   5.625   8.144
   83MYC    H5815127   4.938   5.498   8.056
   83MYC    H5915128   4.845   5.349   8.044
   83MYC    H6015129   4.683   5.449   7.884
   83MYC    H6115130   4.768   5.598   7.898
   83MYC    H6215131   4.978   5.492   7.806
   83MYC    H6315132   4.878   5.344   7.776
   83MYC    H6415133   4.711   5.529   7.670
   83MYC    H6515134   4.874   5.608   7.640
   83MYC    H6615135   4.950   5.432   7.495
   83MYC    H6715136   4.805   5.337   7.529
   83MYC    H6815137   4.674   5.495   7.421
   83MYC    H6915138   4.808   5.615   7.401
   83MYC    H7015139   4.913   5.464   7.248
   83MYC    H7115140   4.793   5.337   7.283
   83MYC    H7215141   4.626   5.503   7.165
   83MYC    H7315142   4.767   5.618   7.153
   83MYC    H7415143   4.866   5.452   6.989
   83MYC    H7515144   4.719   5.346   7.011
   83MYC    H7615145   4.579   5.508   6.906
   83MYC    H7715146   4.708   5.626   6.899
   83MYC    H7815147   4.840   5.445   6.754
   83MYC    H7915148   4.686   5.371   6.743
   83MYC    H8015149   4.766   5.533   6.552
   83MYC    H8115150   4.731   5.664   6.660
   83MYC    H8215151   4.598   5.544   6.602
   83MYC    H8315152   3.981   5.776  11.028
   83MYC    H8415153   4.100   5.797  10.902
   83MYC    H8515154   3.893   5.583  10.900
   83MYC    H8615155   3.857   5.747  10.849
   83MYC    H8715156   4.063   5.698  10.677
   83MYC    H8815157   4.057   5.535  10.736
   83MYC    H8915158   3.819   5.514  10.670
   83MYC    H9015159   3.820   5.686  10.612
   83MYC    H9115160   3.940   5.636  10.409
   83MYC    H9215161   4.013   5.494  10.489
   83MYC    H9315162   3.801   5.382  10.487
   83MYC    H9415163   3.714   5.519  10.419
   83MYC    H9515164   3.951   5.372  10.285
   83MYC    H9615165   3.790   5.327  10.252
   83MYC    H9715166   3.741   5.570  10.181
   83MYC    H9815167   3.904   5.605  10.182
   83MYC    H9915168   3.954   5.412  10.016
   84MYC     C115169   5.410   5.676   9.614
   84MYC     C215170   5.342   5.564   9.695
   84MYC     O315171   5.242   5.625   9.775
   84MYC     C415172   5.440   5.467   9.763
   84MYC     C515173   5.409   5.439   9.911
   84MYC     C615174   5.463   5.557   9.994
   84MYC     C715175   5.442   5.544  10.146
   84MYC     C815176   5.444   5.683  10.211
   84MYC     C915177   5.433   5.667  10.364
   84MYC    C1015178   5.468   5.795  10.442
   84MYC    C1115179   5.478   5.766  10.593
   84MYC    C1215180   5.344   5.721  10.655
   84MYC    C1315181   5.350   5.731  10.808
   84MYC    C1415182   5.208   5.709  10.863
   84MYC    C1515183   5.200   5.745  11.012
   84MYC    C1615184   5.260   5.637  11.104
   84MYC    C1715185   5.164   5.530  11.155
   84MYC    C1815186   5.158   5.388  11.104
   84MYC    C1915187   5.207   5.417  11.244
   84MYC    C2015188   5.345   5.699   9.477
   84MYC    C2115189   5.420   5.795   9.383
   84MYC    C2215190   5.334   5.854   9.270
   84MYC    C2315191   5.417   5.855   9.141
   84MYC    C2415192   5.337   5.870   9.010
   84MYC    C2515193   5.434   5.849   8.892
   84MYC    C2615194   5.354   5.846   8.761
   84MYC    C2715195   5.448   5.827   8.641
   84MYC    C2815196   5.366   5.846   8.512
   84MYC    C2915197   5.461   5.821   8.393
   84MYC    C3015198   5.406   5.893   8.269
   84MYC    C3115199   5.452   5.819   8.142
   84MYC    C3215200   5.405   5.889   8.013
   84MYC    C3315201   5.476   5.825   7.892
   84MYC    C3415202   5.407   5.846   7.757
   84MYC    C3515203   5.480   5.812   7.625
   84MYC    C3615204   5.392   5.855   7.506
   84MYC    C3715205   5.447   5.822   7.367
   84MYC    C3815206   5.373   5.896   7.254
   84MYC    C3915207   5.389   5.830   7.116
   84MYC    C4015208   5.322   5.916   7.008
   84MYC    C4115209   5.347   5.860   6.867
   84MYC    C4215210   5.330   5.964   6.755
   84MYC    C4315211   5.356   5.899   6.618
   84MYC    C4415212   5.028   5.309  11.098
   84MYC    C4515213   5.016   5.223  10.971
   84MYC    C4615214   5.053   5.276  10.831
   84MYC    C4715215   4.994   5.201  10.711
   84MYC    C4815216   5.050   5.257  10.579
   84MYC    C4915217   4.975   5.200  10.457
   84MYC    C5015218   5.004   5.275  10.326
   84MYC    C5115219   4.959   5.195  10.202
   84MYC    C5215220   5.010   5.275  10.081
   84MYC    C5315221   4.986   5.203   9.948
   84MYC    C5415222   5.051   5.287   9.837
   84MYC    C5515223   4.988   5.266   9.699
   84MYC    C5615224   5.073   5.333   9.590
   84MYC    C5715225   5.035   5.310   9.443
   84MYC    C5815226   5.117   5.386   9.339
   84MYC    C5915227   5.070   5.520   9.287
   84MYC    C6015228   5.064   5.398   9.198
   84MYC    C6115229   5.166   5.393   9.085
   84MYC    C6215230   5.098   5.426   8.951
   84MYC    C6315231   5.197   5.426   8.833
   84MYC    C6415232   5.134   5.471   8.700
   84MYC    C6515233   5.234   5.437   8.589
   84MYC    C6615234   5.181   5.491   8.454
   84MYC    C6715235   5.215   5.406   8.330
   84MYC    C6815236   5.183   5.483   8.201
   84MYC    C6915237   5.205   5.396   8.076
   84MYC    C7015238   5.238   5.486   7.955
   84MYC    C7115239   5.269   5.397   7.834
   84MYC    C7215240   5.313   5.479   7.711
   84MYC    C7315241   5.342   5.379   7.598
   84MYC    C7415242   5.308   5.443   7.462
   84MYC    C7515243   5.333   5.349   7.343
   84MYC    C7615244   5.262   5.399   7.215
   84MYC    C7715245   5.332   5.347   7.088
   84MYC    C7815246   5.277   5.417   6.963
   84MYC    C7915247   5.327   5.348   6.835
   84MYC    C8015248   5.302   5.445   6.718
   84MYC    C8115249   5.429   5.807   9.689
   84MYC    O8215250   5.373   5.911   9.660
   84MYC    O8315251   5.530   5.812   9.779
   84MYC     H115252   5.506   5.634   9.582
   84MYC     H215253   5.295   5.495   9.624
   84MYC     H315254   5.155   5.584   9.758
   84MYC     H415255   5.450   5.381   9.696
   84MYC     H515256   5.539   5.513   9.764
   84MYC     H615257   5.304   5.421   9.935
   84MYC     H715258   5.456   5.343   9.939
   84MYC     H815259   5.569   5.580   9.979
   84MYC     H915260   5.406   5.645   9.960
   84MYC   0H1015261   5.116   5.303  10.093
   84MYC   1H1015262   5.029   5.103   9.957
   84MYC   2H1015263   4.882   5.186   9.915
   84MYC   3H1015264   5.041   5.390   9.875
   84MYC   4H1015265   5.158   5.260   9.837
   84MYC   5H1015266   4.982   5.158   9.682
   84MYC   6H1015267   4.881   5.289   9.702
   84MYC   7H1015268   5.062   5.441   9.610
   84MYC   8H1015269   5.179   5.305   9.601
   84MYC   9H1015270   5.037   5.202   9.421
   84MYC    H1015271   5.342   5.503  10.167
   84MYC   0H1115272   4.930   5.333   9.421
   84MYC   1H1115273   5.223   5.372   9.354
   84MYC   2H1115274   4.977   5.568   9.314
   84MYC   3H1115275   5.145   5.594   9.261
   84MYC   4H1115276   4.972   5.343   9.181
   84MYC   5H1115277   5.259   5.451   9.096
   84MYC   6H1115278   5.212   5.293   9.081
   84MYC   7H1115279   5.025   5.347   8.927
   84MYC   8H1115280   5.045   5.521   8.961
   84MYC   9H1115281   5.274   5.497   8.865
   84MYC    H1115282   5.516   5.473  10.185
   84MYC   0H1215283   5.244   5.327   8.827
   84MYC   1H1215284   5.041   5.414   8.685
   84MYC   2H1215285   5.121   5.580   8.699
   84MYC   3H1215286   5.330   5.483   8.613
   84MYC   4H1215287   5.243   5.328   8.589
   84MYC   5H1215288   5.073   5.477   8.458
   84MYC   6H1215289   5.206   5.595   8.434
   84MYC   7H1215290   5.322   5.383   8.335
   84MYC   8H1215291   5.163   5.311   8.346
   84MYC   9H1215292   5.077   5.511   8.201
   84MYC    H1215293   5.542   5.728  10.193
   84MYC   0H1315294   5.236   5.579   8.201
   84MYC   1H1315295   5.289   5.330   8.096
   84MYC   2H1315296   5.119   5.332   8.053
   84MYC   3H1315297   5.161   5.561   7.934
   84MYC   4H1315298   5.331   5.540   7.977
   84MYC   5H1315299   5.350   5.330   7.866
   84MYC   6H1315300   5.180   5.337   7.812
   84MYC   7H1315301   5.241   5.559   7.690
   84MYC   8H1315302   5.406   5.533   7.731
   84MYC   9H1315303   5.450   5.359   7.604
   84MYC    H1315304   5.366   5.745  10.165
   84MYC   0H1415305   5.292   5.282   7.609
   84MYC   1H1415306   5.201   5.467   7.463
   84MYC   2H1415307   5.366   5.535   7.451
   84MYC   3H1415308   5.441   5.351   7.326
   84MYC   4H1415309   5.314   5.247   7.377
   84MYC   5H1415310   5.158   5.365   7.211
   84MYC   6H1415311   5.268   5.508   7.218
   84MYC   7H1415312   5.441   5.361   7.100
   84MYC   8H1415313   5.312   5.239   7.092
   84MYC   9H1415314   5.169   5.402   6.968
   84MYC    H1415315   5.333   5.635  10.395
   84MYC   0H1515316   5.306   5.522   6.955
   84MYC   1H1515317   5.434   5.329   6.850
   84MYC   2H1515318   5.282   5.250   6.812
   84MYC   3H1515319   5.356   5.541   6.722
   84MYC   4H1515320   5.196   5.457   6.696
   84MYC   5H1515321   5.340   5.397   6.628
   84MYC   6H1515322   5.531   5.906   9.804
   84MYC    H1515323   5.498   5.581  10.386
   84MYC    H1615324   5.561   5.836  10.401
   84MYC    H1715325   5.393   5.872  10.422
   84MYC    H1815326   5.558   5.692  10.608
   84MYC    H1915327   5.510   5.857  10.644
   84MYC    H2015328   5.256   5.768  10.609
   84MYC    H2115329   5.326   5.616  10.627
   84MYC    H2215330   5.417   5.650  10.840
   84MYC    H2315331   5.386   5.833  10.826
   84MYC    H2415332   5.137   5.764  10.800
   84MYC    H2515333   5.170   5.608  10.845
   84MYC    H2615334   5.245   5.843  11.030
   84MYC    H2715335   5.096   5.754  11.046
   84MYC    H2815336   5.345   5.587  11.057
   84MYC    H2915337   5.293   5.687  11.196
   84MYC    H3015338   5.066   5.566  11.185
   84MYC    H3115339   5.230   5.365  11.026
   84MYC    H3215340   5.146   5.380  11.327
   84MYC    H3315341   5.313   5.418  11.266
   84MYC    H3415342   5.334   5.602   9.426
   84MYC    H3515343   5.240   5.725   9.498
   84MYC    H3615344   5.465   5.876   9.443
   84MYC    H3715345   5.509   5.750   9.338
   84MYC    H3815346   5.246   5.788   9.258
   84MYC    H3915347   5.297   5.955   9.292
   84MYC    H4015348   5.492   5.935   9.137
   84MYC    H4115349   5.471   5.761   9.127
   84MYC    H4215350   5.250   5.805   9.023
   84MYC    H4315351   5.297   5.972   9.004
   84MYC    H4415352   5.516   5.922   8.885
   84MYC    H4515353   5.486   5.754   8.901
   84MYC    H4615354   5.276   5.768   8.768
   84MYC    H4715355   5.296   5.939   8.753
   84MYC    H4815356   5.533   5.896   8.640
   84MYC    H4915357   5.488   5.725   8.651
   84MYC    H5015358   5.280   5.778   8.517
   84MYC    H5115359   5.323   5.946   8.500
   84MYC    H5215360   5.564   5.853   8.414
   84MYC    H5315361   5.466   5.713   8.374
   84MYC    H5415362   5.297   5.904   8.277
   84MYC    H5515363   5.449   5.994   8.268
   84MYC    H5615364   5.562   5.816   8.141
   84MYC    H5715365   5.419   5.715   8.154
   84MYC    H5815366   5.300   5.863   7.994
   84MYC    H5915367   5.422   5.997   8.017
   84MYC    H6015368   5.576   5.865   7.872
   84MYC    H6115369   5.494   5.718   7.908
   84MYC    H6215370   5.318   5.784   7.767
   84MYC    H6315371   5.366   5.948   7.755
   84MYC    H6415372   5.569   5.875   7.612
   84MYC    H6515373   5.521   5.711   7.620
   84MYC    H6615374   5.300   5.801   7.531
   84MYC    H6715375   5.351   5.957   7.511
   84MYC    H6815376   5.554   5.847   7.365
   84MYC    H6915377   5.449   5.715   7.342
   84MYC    H7015378   5.267   5.903   7.278
   84MYC    H7115379   5.410   6.000   7.244
   84MYC    H7215380   5.496   5.827   7.092
   84MYC    H7315381   5.344   5.730   7.117
   84MYC    H7415382   5.213   5.925   7.019
   84MYC    H7515383   5.352   6.022   7.008
   84MYC    H7615384   5.449   5.819   6.872
   84MYC    H7715385   5.276   5.777   6.860
   84MYC    H7815386   5.227   6.000   6.759
   84MYC    H7915387   5.390   6.055   6.767
   84MYC    H8015388   5.305   5.968   6.550
   84MYC    H8115389   5.312   5.800   6.601
   84MYC    H8215390   5.461   5.899   6.588
   84MYC    H8315391   5.014   5.246  11.187
   84MYC    H8415392   4.938   5.372  11.097
   84MYC    H8515393   5.088   5.141  10.984
   84MYC    H8615394   4.915   5.181  10.969
   84MYC    H8715395   5.027   5.382  10.823
   84MYC    H8815396   5.161   5.267  10.815
   84MYC    H8915397   5.023   5.095  10.724
   84MYC    H9015398   4.886   5.208  10.724
   84MYC    H9115399   5.035   5.366  10.580
   84MYC    H9215400   5.159   5.246  10.572
   84MYC    H9315401   5.023   5.101  10.448
   84MYC    H9415402   4.869   5.183  10.477
   84MYC    H9515403   4.937   5.362  10.328
   84MYC    H9615404   5.112   5.294  10.318
   84MYC    H9715405   5.005   5.095  10.195
   84MYC    H9815406   4.850   5.185  10.193
   84MYC    H9915407   4.948   5.365  10.072
   85MYC     C115408   5.985   5.847   9.564
   85MYC     C215409   5.920   5.712   9.599
   85MYC     O315410   5.779   5.723   9.600
   85MYC     C415411   5.974   5.639   9.724
   85MYC     C515412   5.898   5.665   9.855
   85MYC     C615413   5.983   5.636   9.979
   85MYC     C715414   5.925   5.699  10.107
   85MYC     C815415   6.016   5.675  10.228
   85MYC     C915416   5.966   5.735  10.360
   85MYC    C1015417   6.064   5.832  10.428
   85MYC    C1115418   6.031   5.848  10.577
   85MYC    C1215419   6.103   5.743  10.663
   85MYC    C1315420   6.100   5.794  10.808
   85MYC    C1415421   6.152   5.690  10.909
   85MYC    C1515422   6.185   5.751  11.046
   85MYC    C1615423   6.125   5.672  11.163
   85MYC    C1715424   5.974   5.678  11.177
   85MYC    C1815425   5.889   5.558  11.142
   85MYC    C1915426   5.915   5.592  11.286
   85MYC    C2015427   5.934   5.898   9.428
   85MYC    C2115428   5.950   5.806   9.307
   85MYC    C2215429   6.014   5.868   9.181
   85MYC    C2315430   6.005   5.773   9.061
   85MYC    C2415431   5.992   5.843   8.924
   85MYC    C2515432   5.931   5.746   8.821
   85MYC    C2615433   5.951   5.789   8.675
   85MYC    C2715434   5.867   5.710   8.574
   85MYC    C2815435   5.886   5.774   8.435
   85MYC    C2915436   5.830   5.691   8.319
   85MYC    C3015437   5.855   5.759   8.183
   85MYC    C3115438   5.856   5.659   8.066
   85MYC    C3215439   5.863   5.739   7.935
   85MYC    C3315440   5.851   5.642   7.816
   85MYC    C3415441   5.868   5.715   7.681
   85MYC    C3515442   5.831   5.618   7.567
   85MYC    C3615443   5.816   5.703   7.440
   85MYC    C3715444   5.789   5.626   7.310
   85MYC    C3815445   5.814   5.699   7.177
   85MYC    C3915446   5.755   5.612   7.064
   85MYC    C4015447   5.770   5.684   6.929
   85MYC    C4115448   5.732   5.589   6.813
   85MYC    C4215449   5.772   5.645   6.676
   85MYC    C4315450   5.732   5.566   6.551
   85MYC    C4415451   5.754   5.573  11.072
   85MYC    C4515452   5.731   5.470  10.961
   85MYC    C4615453   5.793   5.487  10.822
   85MYC    C4715454   5.730   5.398  10.714
   85MYC    C4815455   5.812   5.408  10.584
   85MYC    C4915456   5.773   5.293  10.489
   85MYC    C5015457   5.805   5.326  10.342
   85MYC    C5115458   5.852   5.207  10.256
   85MYC    C5215459   5.903   5.244  10.116
   85MYC    C5315460   5.802   5.277  10.005
   85MYC    C5415461   5.854   5.257   9.862
   85MYC    C5515462   5.757   5.290   9.747
   85MYC    C5615463   5.807   5.263   9.604
   85MYC    C5715464   5.735   5.358   9.506
   85MYC    C5815465   5.748   5.337   9.356
   85MYC    C5915466   5.753   5.459   9.268
   85MYC    C6015467   5.635   5.365   9.260
   85MYC    C6115468   5.614   5.282   9.134
   85MYC    C6215469   5.581   5.359   9.005
   85MYC    C6315470   5.626   5.280   8.881
   85MYC    C6415471   5.590   5.327   8.739
   85MYC    C6515472   5.670   5.248   8.634
   85MYC    C6615473   5.642   5.306   8.494
   85MYC    C6715474   5.731   5.242   8.386
   85MYC    C6815475   5.680   5.281   8.246
   85MYC    C6915476   5.752   5.209   8.131
   85MYC    C7015477   5.725   5.270   7.993
   85MYC    C7115478   5.788   5.189   7.879
   85MYC    C7215479   5.748   5.240   7.739
   85MYC    C7315480   5.808   5.158   7.624
   85MYC    C7415481   5.755   5.208   7.488
   85MYC    C7515482   5.769   5.121   7.362
   85MYC    C7615483   5.756   5.209   7.236
   85MYC    C7715484   5.757   5.126   7.107
   85MYC    C7815485   5.777   5.207   6.978
   85MYC    C7915486   5.750   5.118   6.856
   85MYC    C8015487   5.747   5.206   6.730
   85MYC    C8115488   5.958   5.950   9.673
   85MYC    O8215489   5.888   6.050   9.665
   85MYC    O8315490   6.039   5.939   9.781
   85MYC     H115491   6.093   5.830   9.556
   85MYC     H215492   5.945   5.637   9.523
   85MYC     H315493   5.753   5.771   9.680
   85MYC     H415494   5.955   5.531   9.713
   85MYC     H515495   6.080   5.663   9.737
   85MYC     H615496   5.874   5.772   9.859
   85MYC     H715497   5.801   5.613   9.853
   85MYC     H815498   6.004   5.530  10.000
   85MYC     H915499   6.081   5.681   9.960
   85MYC   0H1015500   5.971   5.165  10.081
   85MYC   1H1015501   5.710   5.217  10.013
   85MYC   2H1015502   5.770   5.382  10.018
   85MYC   3H1015503   5.953   5.302   9.848
   85MYC   4H1015504   5.872   5.149   9.855
   85MYC   5H1015505   5.665   5.236   9.771
   85MYC   6H1015506   5.727   5.395   9.751
   85MYC   7H1015507   5.913   5.287   9.598
   85MYC   8H1015508   5.791   5.160   9.571
   85MYC   9H1015509   5.629   5.348   9.533
   85MYC    H1015510   5.906   5.807  10.097
   85MYC   0H1115511   5.770   5.460   9.529
   85MYC   1H1115512   5.826   5.268   9.324
   85MYC   2H1115513   5.730   5.552   9.320
   85MYC   3H1115514   5.810   5.470   9.177
   85MYC   4H1115515   5.539   5.389   9.306
   85MYC   5H1115516   5.696   5.212   9.116
   85MYC   6H1115517   5.536   5.205   9.147
   85MYC   7H1115518   5.475   5.388   9.003
   85MYC   8H1115519   5.641   5.452   9.009
   85MYC   9H1115520   5.734   5.268   8.893
   85MYC    H1115521   5.823   5.659  10.114
   85MYC   0H1215522   5.590   5.178   8.897
   85MYC   1H1215523   5.484   5.317   8.711
   85MYC   2H1215524   5.618   5.433   8.733
   85MYC   3H1215525   5.775   5.265   8.661
   85MYC   4H1215526   5.640   5.142   8.636
   85MYC   5H1215527   5.536   5.290   8.472
   85MYC   6H1215528   5.651   5.415   8.487
   85MYC   7H1215529   5.838   5.264   8.398
   85MYC   8H1215530   5.722   5.133   8.396
   85MYC   9H1215531   5.576   5.245   8.240
   85MYC    H1215532   6.028   5.568  10.250
   85MYC   0H1315533   5.685   5.389   8.231
   85MYC   1H1315534   5.860   5.196   8.150
   85MYC   2H1315535   5.714   5.106   8.138
   85MYC   3H1315536   5.617   5.287   7.980
   85MYC   4H1315537   5.760   5.374   7.993
   85MYC   5H1315538   5.897   5.205   7.882
   85MYC   6H1315539   5.768   5.082   7.893
   85MYC   7H1315540   5.639   5.233   7.736
   85MYC   8H1315541   5.775   5.346   7.731
   85MYC   9H1315542   5.917   5.169   7.636
   85MYC    H1315543   6.115   5.718  10.208
   85MYC   0H1415544   5.775   5.056   7.646
   85MYC   1H1415545   5.650   5.239   7.494
   85MYC   2H1415546   5.808   5.304   7.478
   85MYC   3H1415547   5.867   5.071   7.361
   85MYC   4H1415548   5.695   5.042   7.352
   85MYC   5H1415549   5.662   5.264   7.251
   85MYC   6H1415550   5.837   5.283   7.239
   85MYC   7H1415551   5.827   5.042   7.109
   85MYC   8H1415552   5.651   5.099   7.097
   85MYC   9H1415553   5.719   5.300   6.973
   85MYC    H1415554   5.866   5.779  10.346
   85MYC   0H1515555   5.883   5.236   6.978
   85MYC   1H1515556   5.833   5.046   6.849
   85MYC   2H1515557   5.652   5.070   6.853
   85MYC   3H1515558   5.836   5.268   6.712
   85MYC   4H1515559   5.663   5.277   6.728
   85MYC   5H1515560   5.737   5.143   6.641
   85MYC   6H1515561   5.994   5.999   9.843
   85MYC    H1515562   5.954   5.649  10.426
   85MYC    H1615563   6.170   5.802  10.421
   85MYC    H1715564   6.062   5.924  10.368
   85MYC    H1815565   6.066   5.948  10.607
   85MYC    H1915566   5.923   5.840  10.594
   85MYC    H2015567   6.042   5.654  10.650
   85MYC    H2115568   6.207   5.732  10.628
   85MYC    H2215569   6.152   5.890  10.815
   85MYC    H2315570   6.001   5.825  10.844
   85MYC    H2415571   6.072   5.616  10.925
   85MYC    H2515572   6.241   5.641  10.867
   85MYC    H2615573   6.294   5.757  11.044
   85MYC    H2715574   6.151   5.854  11.064
   85MYC    H2815575   6.166   5.571  11.158
   85MYC    H2915576   6.174   5.717  11.251
   85MYC    H3015577   5.932   5.777  11.161
   85MYC    H3115578   5.937   5.466  11.110
   85MYC    H3215579   5.837   5.643  11.344
   85MYC    H3315580   5.974   5.523  11.345
   85MYC    H3415581   5.826   5.917   9.432
   85MYC    H3515582   5.979   5.996   9.406
   85MYC    H3615583   6.018   5.723   9.330
   85MYC    H3715584   5.854   5.757   9.290
   85MYC    H3815585   5.959   5.961   9.168
   85MYC    H3915586   6.119   5.892   9.203
   85MYC    H4015587   6.084   5.698   9.062
   85MYC    H4115588   5.913   5.714   9.076
   85MYC    H4215589   5.922   5.927   8.931
   85MYC    H4315590   6.089   5.882   8.889
   85MYC    H4415591   5.987   5.652   8.829
   85MYC    H4515592   5.825   5.721   8.833
   85MYC    H4615593   5.931   5.896   8.667
   85MYC    H4715594   6.057   5.781   8.647
   85MYC    H4815595   5.904   5.606   8.566
   85MYC    H4915596   5.764   5.717   8.610
   85MYC    H5015597   5.837   5.872   8.438
   85MYC    H5115598   5.993   5.784   8.413
   85MYC    H5215599   5.894   5.602   8.323
   85MYC    H5315600   5.724   5.666   8.333
   85MYC    H5415601   5.774   5.830   8.163
   85MYC    H5515602   5.943   5.824   8.177
   85MYC    H5615603   5.950   5.605   8.079
   85MYC    H5715604   5.776   5.584   8.071
   85MYC    H5815605   5.778   5.808   7.937
   85MYC    H5915606   5.951   5.805   7.930
   85MYC    H6015607   5.925   5.562   7.826
   85MYC    H6115608   5.756   5.588   7.830
   85MYC    H6215609   5.796   5.797   7.678
   85MYC    H6315610   5.971   5.751   7.674
   85MYC    H6415611   5.914   5.547   7.559
   85MYC    H6515612   5.739   5.565   7.593
   85MYC    H6615613   5.741   5.783   7.450
   85MYC    H6715614   5.913   5.752   7.425
   85MYC    H6815615   5.846   5.532   7.310
   85MYC    H6915616   5.684   5.596   7.318
   85MYC    H7015617   5.763   5.796   7.177
   85MYC    H7115618   5.921   5.707   7.155
   85MYC    H7215619   5.816   5.521   7.056
   85MYC    H7315620   5.650   5.591   7.085
   85MYC    H7415621   5.709   5.775   6.923
   85MYC    H7515622   5.874   5.715   6.917
   85MYC    H7615623   5.784   5.493   6.826
   85MYC    H7715624   5.627   5.560   6.822
   85MYC    H7815625   5.739   5.750   6.677
   85MYC    H7915626   5.882   5.652   6.675
   85MYC    H8015627   5.755   5.620   6.458
   85MYC    H8115628   5.624   5.545   6.554
   85MYC    H8215629   5.784   5.469   6.547
   85MYC    H8315630   5.669   5.562  11.142
   85MYC    H8415631   5.734   5.677  11.043
   85MYC    H8515632   5.766   5.371  10.992
   85MYC    H8615633   5.621   5.462  10.961
   85MYC    H8715634   5.777   5.589  10.785
   85MYC    H8815635   5.901   5.465  10.823
   85MYC    H8915636   5.735   5.292  10.742
   85MYC    H9015637   5.624   5.422  10.698
   85MYC    H9115638   5.782   5.497  10.529
   85MYC    H9215639   5.921   5.415  10.594
   85MYC    H9315640   5.835   5.204  10.505
   85MYC    H9415641   5.666   5.274  10.499
   85MYC    H9515642   5.717   5.372  10.297
   85MYC    H9615643   5.881   5.405  10.337
   85MYC    H9715644   5.933   5.151  10.303
   85MYC    H9815645   5.769   5.143  10.224
   85MYC    H9915646   5.966   5.333  10.126
   86MYC     C115647   6.891   0.282   3.244
   86MYC     C215648   6.737   0.284   3.250
   86MYC     O315649   6.675   0.158   3.229
   86MYC     C415650   6.680   0.394   3.160
   86MYC     C515651   6.581   0.341   3.055
   86MYC     C615652   6.643   0.287   2.926
   86MYC     C715653   6.534   0.277   2.818
   86MYC     C815654   6.585   0.177   2.714
   86MYC     C915655   6.497   0.186   2.588
   86MYC    C1015656   6.563   0.134   2.459
   86MYC    C1115657   6.644   0.242   2.385
   86MYC    C1215658   6.592   0.288   2.248
   86MYC    C1315659   6.616   0.185   2.136
   86MYC    C1415660   6.545   0.205   2.001
   86MYC    C1515661   6.591   0.115   1.886
   86MYC    C1615662   6.585   0.180   1.747
   86MYC    C1715663   6.441   0.187   1.699
   86MYC    C1815664   6.360   0.315   1.705
   86MYC    C1915665   6.412   0.264   1.573
   86MYC    C2015666   6.963   0.201   3.354
   86MYC    C2115667   6.902   0.221   3.493
   86MYC    C2215668   7.001   0.181   3.603
   86MYC    C2315669   6.925   0.185   3.737
   86MYC    C2415670   7.011   0.129   3.852
   86MYC    C2515671   6.932   0.119   3.983
   86MYC    C2615672   7.024   0.097   4.105
   86MYC    C2715673   6.950   0.109   4.239
   86MYC    C2815674   7.040   0.074   4.359
   86MYC    C2915675   6.956   0.102   4.485
   86MYC    C3015676   7.009   0.047   4.619
   86MYC    C3115677   6.930   0.090   4.743
   86MYC    C3215678   6.970   0.037   4.882
   86MYC    C3315679   6.886   0.101   4.993
   86MYC    C3415680   6.933   0.038   5.126
   86MYC    C3515681   6.853   0.103   5.241
   86MYC    C3615682   6.911   0.080   5.381
   86MYC    C3715683   6.837   0.144   5.500
   86MYC    C3815684   6.884   0.093   5.637
   86MYC    C3915685   6.816   0.160   5.758
   86MYC    C4015686   6.868   0.102   5.890
   86MYC    C4115687   6.796   0.159   6.014
   86MYC    C4215688   6.789   0.063   6.134
   86MYC    C4315689   6.742   0.142   6.257
   86MYC    C4415690   6.210   0.310   1.729
   86MYC    C4515691   6.162   0.403   1.841
   86MYC    C4615692   6.222   0.362   1.977
   86MYC    C4715693   6.147   0.442   2.085
   86MYC    C4815694   6.214   0.409   2.219
   86MYC    C4915695   6.124   0.462   2.332
   86MYC    C5015696   6.209   0.464   2.460
   86MYC    C5115697   6.117   0.495   2.579
   86MYC    C5215698   6.191   0.460   2.708
   86MYC    C5315699   6.098   0.440   2.829
   86MYC    C5415700   6.174   0.436   2.963
   86MYC    C5515701   6.091   0.389   3.083
   86MYC    C5615702   6.184   0.402   3.205
   86MYC    C5715703   6.128   0.353   3.340
   86MYC    C5815704   6.190   0.422   3.461
   86MYC    C5915705   6.323   0.369   3.508
   86MYC    C6015706   6.201   0.358   3.597
   86MYC    C6115707   6.183   0.459   3.709
   86MYC    C6215708   6.251   0.408   3.837
   86MYC    C6315709   6.205   0.488   3.960
   86MYC    C6415710   6.253   0.435   4.096
   86MYC    C6515711   6.174   0.493   4.215
   86MYC    C6615712   6.186   0.409   4.344
   86MYC    C6715713   6.112   0.478   4.460
   86MYC    C6815714   6.141   0.409   4.594
   86MYC    C6915715   6.104   0.493   4.718
   86MYC    C7015716   6.125   0.412   4.846
   86MYC    C7115717   6.122   0.491   4.978
   86MYC    C7215718   6.099   0.405   5.103
   86MYC    C7315719   6.107   0.482   5.236
   86MYC    C7415720   6.045   0.405   5.355
   86MYC    C7515721   6.102   0.456   5.488
   86MYC    C7615722   6.058   0.375   5.610
   86MYC    C7715723   6.094   0.448   5.740
   86MYC    C7815724   6.102   0.348   5.857
   86MYC    C7915725   6.155   0.422   5.981
   86MYC    C8015726   6.210   0.329   6.091
   86MYC    C8115727   6.945   0.232   3.110
   86MYC    O8215728   6.911   0.131   3.051
   86MYC    O8315729   7.016   0.330   3.049
   86MYC     H115730   6.917   0.388   3.254
   86MYC     H215731   6.710   0.314   3.352
   86MYC     H315732   6.704   0.132   3.140
   86MYC     H415733   6.624   0.458   3.230
   86MYC     H515734   6.761   0.452   3.114
   86MYC     H615735   6.503   0.276   3.098
   86MYC     H715736   6.517   0.423   3.021
   86MYC     H815737   6.727   0.352   2.897
   86MYC     H915738   6.683   0.187   2.948
   86MYC   0H1015739   6.258   0.544   2.732
   86MYC   1H1015740   6.018   0.514   2.826
   86MYC   2H1015741   6.053   0.341   2.814
   86MYC   3H1015742   6.255   0.364   2.949
   86MYC   4H1015743   6.224   0.533   2.980
   86MYC   5H1015744   6.006   0.457   3.091
   86MYC   6H1015745   6.047   0.290   3.067
   86MYC   7H1015746   6.280   0.352   3.184
   86MYC   8H1015747   6.205   0.510   3.210
   86MYC   9H1015748   6.020   0.373   3.334
   86MYC    H1015749   6.437   0.243   2.856
   86MYC   0H1115750   6.135   0.244   3.340
   86MYC   1H1115751   6.175   0.529   3.457
   86MYC   2H1115752   6.359   0.281   3.455
   86MYC   3H1115753   6.398   0.444   3.533
   86MYC   4H1115754   6.157   0.259   3.608
   86MYC   5H1115755   6.228   0.553   3.674
   86MYC   6H1115756   6.078   0.484   3.728
   86MYC   7H1115757   6.238   0.300   3.851
   86MYC   8H1115758   6.360   0.416   3.822
   86MYC   9H1115759   6.228   0.595   3.948
   86MYC    H1115760   6.523   0.373   2.766
   86MYC   0H1215761   6.097   0.475   3.959
   86MYC   1H1215762   6.229   0.328   4.094
   86MYC   2H1215763   6.360   0.458   4.101
   86MYC   3H1215764   6.208   0.597   4.224
   86MYC   4H1215765   6.067   0.505   4.198
   86MYC   5H1215766   6.131   0.317   4.322
   86MYC   6H1215767   6.284   0.368   4.368
   86MYC   7H1215768   6.152   0.580   4.472
   86MYC   8H1215769   6.004   0.481   4.443
   86MYC   9H1215770   6.096   0.309   4.588
   86MYC    H1215771   6.688   0.201   2.683
   86MYC   0H1315772   6.250   0.404   4.594
   86MYC   1H1315773   6.173   0.579   4.712
   86MYC   2H1315774   6.001   0.528   4.701
   86MYC   3H1315775   6.040   0.341   4.846
   86MYC   4H1315776   6.226   0.369   4.842
   86MYC   5H1315777   6.214   0.548   4.997
   86MYC   6H1315778   6.045   0.569   4.972
   86MYC   7H1315779   5.997   0.367   5.105
   86MYC   8H1315780   6.168   0.320   5.111
   86MYC   9H1315781   6.205   0.526   5.260
   86MYC    H1315782   6.583   0.075   2.756
   86MYC   0H1415783   6.053   0.576   5.218
   86MYC   1H1415784   5.937   0.420   5.351
   86MYC   2H1415785   6.071   0.300   5.341
   86MYC   3H1415786   6.212   0.457   5.487
   86MYC   4H1415787   6.072   0.561   5.498
   86MYC   5H1415788   5.949   0.358   5.605
   86MYC   6H1415789   6.099   0.273   5.611
   86MYC   7H1415790   6.196   0.487   5.726
   86MYC   8H1415791   6.022   0.529   5.759
   86MYC   9H1415792   6.005   0.303   5.880
   86MYC    H1415793   6.406   0.130   2.615
   86MYC   0H1515794   6.165   0.263   5.827
   86MYC   1H1515795   6.235   0.490   5.950
   86MYC   2H1515796   6.073   0.476   6.030
   86MYC   3H1515797   6.300   0.276   6.060
   86MYC   4H1515798   6.141   0.255   6.134
   86MYC   5H1515799   6.229   0.395   6.177
   86MYC   6H1515800   7.022   0.297   2.958
   86MYC    H1515801   6.461   0.289   2.582
   86MYC    H1615802   6.631   0.049   2.472
   86MYC    H1715803   6.489   0.096   2.388
   86MYC    H1815804   6.656   0.329   2.451
   86MYC    H1915805   6.746   0.207   2.367
   86MYC    H2015806   6.485   0.310   2.260
   86MYC    H2115807   6.632   0.384   2.213
   86MYC    H2215808   6.721   0.191   2.106
   86MYC    H2315809   6.596   0.082   2.169
   86MYC    H2415810   6.435   0.203   2.012
   86MYC    H2515811   6.562   0.309   1.970
   86MYC    H2615812   6.698   0.099   1.903
   86MYC    H2715813   6.538   0.019   1.889
   86MYC    H2815814   6.625   0.281   1.766
   86MYC    H2915815   6.649   0.131   1.672
   86MYC    H3015816   6.393   0.090   1.710
   86MYC    H3115817   6.412   0.397   1.754
   86MYC    H3215818   6.352   0.216   1.496
   86MYC    H3315819   6.500   0.311   1.529
   86MYC    H3415820   6.973   0.093   3.335
   86MYC    H3515821   7.068   0.232   3.354
   86MYC    H3615822   6.878   0.328   3.505
   86MYC    H3715823   6.810   0.162   3.498
   86MYC    H3815824   7.037   0.078   3.586
   86MYC    H3915825   7.088   0.247   3.599
   86MYC    H4015826   6.905   0.292   3.752
   86MYC    H4115827   6.829   0.133   3.728
   86MYC    H4215828   7.054   0.031   3.827
   86MYC    H4315829   7.093   0.202   3.864
   86MYC    H4415830   6.873   0.210   4.000
   86MYC    H4515831   6.857   0.040   3.981
   86MYC    H4615832   7.073  -0.001   4.107
   86MYC    H4715833   7.103   0.173   4.110
   86MYC    H4815834   6.895   0.203   4.248
   86MYC    H4915835   6.872   0.032   4.230
   86MYC    H5015836   7.076  -0.029   4.361
   86MYC    H5115837   7.124   0.143   4.349
   86MYC    H5215838   6.958   0.211   4.489
   86MYC    H5315839   6.854   0.064   4.467
   86MYC    H5415840   7.011  -0.062   4.611
   86MYC    H5515841   7.114   0.077   4.633
   86MYC    H5615842   6.925   0.199   4.751
   86MYC    H5715843   6.827   0.057   4.724
   86MYC    H5815844   6.960  -0.072   4.878
   86MYC    H5915845   7.075   0.062   4.902
   86MYC    H6015846   6.903   0.209   5.005
   86MYC    H6115847   6.779   0.078   4.978
   86MYC    H6215848   6.904  -0.068   5.122
   86MYC    H6315849   7.041   0.040   5.143
   86MYC    H6415850   6.848   0.209   5.213
   86MYC    H6515851   6.751   0.065   5.234
   86MYC    H6615852   6.907  -0.029   5.394
   86MYC    H6715853   7.018   0.105   5.377
   86MYC    H6815854   6.848   0.253   5.497
   86MYC    H6915855   6.732   0.116   5.486
   86MYC    H7015856   6.877  -0.017   5.632
   86MYC    H7115857   6.992   0.107   5.646
   86MYC    H7215858   6.820   0.270   5.759
   86MYC    H7315859   6.707   0.143   5.755
   86MYC    H7415860   6.868  -0.008   5.883
   86MYC    H7515861   6.971   0.139   5.890
   86MYC    H7615862   6.844   0.253   6.040
   86MYC    H7715863   6.693   0.181   5.981
   86MYC    H7815864   6.713  -0.015   6.124
   86MYC    H7915865   6.890   0.025   6.156
   86MYC    H8015866   6.732   0.069   6.338
   86MYC    H8115867   6.640   0.179   6.239
   86MYC    H8215868   6.805   0.224   6.293
   86MYC    H8315869   6.154   0.334   1.638
   86MYC    H8415870   6.186   0.206   1.752
   86MYC    H8515871   6.183   0.509   1.821
   86MYC    H8615872   6.054   0.387   1.848
   86MYC    H8715873   6.202   0.256   1.998
   86MYC    H8815874   6.326   0.395   1.970
   86MYC    H8915875   6.155   0.549   2.061
   86MYC    H9015876   6.041   0.414   2.086
   86MYC    H9115877   6.238   0.302   2.226
   86MYC    H9215878   6.313   0.457   2.226
   86MYC    H9315879   6.104   0.568   2.314
   86MYC    H9415880   6.030   0.407   2.345
   86MYC    H9515881   6.267   0.372   2.468
   86MYC    H9615882   6.285   0.543   2.453
   86MYC    H9715883   6.080   0.599   2.578
   86MYC    H9815884   6.031   0.426   2.575
   86MYC    H9915885   6.250   0.368   2.695
   87MYC     C115886  -0.177   1.397   3.196
   87MYC     C215887  -0.207   1.255   3.146
   87MYC     O315888  -0.091   1.178   3.119
   87MYC     C415889  -0.299   1.262   3.024
   87MYC     C515890  -0.307   1.141   2.928
   87MYC     C615891  -0.192   1.109   2.831
   87MYC     C715892  -0.146   1.236   2.758
   87MYC     C815893  -0.059   1.217   2.633
   87MYC     C915894  -0.020   1.352   2.571
   87MYC    C1015895   0.104   1.343   2.481
   87MYC    C1115896   0.080   1.346   2.329
   87MYC    C1215897   0.047   1.217   2.250
   87MYC    C1315898  -0.035   1.246   2.123
   87MYC    C1415899  -0.067   1.117   2.045
   87MYC    C1515900  -0.183   1.140   1.947
   87MYC    C1615901  -0.240   1.013   1.883
   87MYC    C1715902  -0.141   0.937   1.796
   87MYC    C1815903  -0.134   0.787   1.790
   87MYC    C1915904  -0.192   0.864   1.674
   87MYC    C2015905  -0.079   1.392   3.315
   87MYC    C2115906  -0.138   1.370   3.455
   87MYC    C2215907  -0.026   1.353   3.560
   87MYC    C2315908  -0.074   1.333   3.705
   87MYC    C2415909   0.034   1.274   3.797
   87MYC    C2515910  -0.013   1.233   3.937
   87MYC    C2615911   0.009   1.336   4.050
   87MYC    C2715912  -0.030   1.278   4.187
   87MYC    C2815913   0.049   1.333   4.306
   87MYC    C2915914  -0.021   1.320   4.442
   87MYC    C3015915   0.069   1.360   4.560
   87MYC    C3115916  -0.014   1.375   4.689
   87MYC    C3215917   0.073   1.408   4.811
   87MYC    C3315918  -0.007   1.418   4.943
   87MYC    C3415919   0.082   1.455   5.063
   87MYC    C3515920   0.021   1.437   5.203
   87MYC    C3615921   0.119   1.470   5.316
   87MYC    C3715922   0.093   1.396   5.448
   87MYC    C3815923   0.187   1.456   5.553
   87MYC    C3915924   0.141   1.426   5.696
   87MYC    C4015925   0.233   1.503   5.792
   87MYC    C4115926   0.201   1.477   5.941
   87MYC    C4215927   0.299   1.554   6.031
   87MYC    C4315928   0.266   1.535   6.180
   87MYC    C4415929  -0.001   0.714   1.773
   87MYC    C4515930   0.072   0.681   1.904
   87MYC    C4615931   0.093   0.798   2.000
   87MYC    C4715932   0.166   0.752   2.128
   87MYC    C4815933   0.153   0.853   2.243
   87MYC    C4915934   0.200   0.798   2.379
   87MYC    C5015935   0.131   0.867   2.498
   87MYC    C5115936   0.129   0.772   2.619
   87MYC    C5215937   0.086   0.842   2.749
   87MYC    C5315938   0.107   0.753   2.873
   87MYC    C5415939   0.061   0.830   2.998
   87MYC    C5515940   0.109   0.767   3.130
   87MYC    C5615941   0.072   0.840   3.260
   87MYC    C5715942   0.129   0.768   3.383
   87MYC    C5815943   0.108   0.858   3.504
   87MYC    C5915944   0.220   0.939   3.564
   87MYC    C6015945   0.176   0.810   3.629
   87MYC    C6115946   0.088   0.804   3.753
   87MYC    C6215947   0.165   0.812   3.887
   87MYC    C6315948   0.074   0.794   4.009
   87MYC    C6415949   0.149   0.817   4.141
   87MYC    C6515950   0.071   0.782   4.269
   87MYC    C6615951   0.128   0.821   4.407
   87MYC    C6715952   0.014   0.832   4.510
   87MYC    C6815953   0.057   0.900   4.641
   87MYC    C6915954  -0.040   0.874   4.757
   87MYC    C7015955  -0.010   0.958   4.882
   87MYC    C7115956  -0.108   0.917   4.993
   87MYC    C7215957  -0.122   1.014   5.112
   87MYC    C7315958  -0.150   0.938   5.243
   87MYC    C7415959  -0.091   1.009   5.366
   87MYC    C7515960  -0.149   0.955   5.498
   87MYC    C7615961  -0.073   1.009   5.619
   87MYC    C7715962  -0.063   0.905   5.732
   87MYC    C7815963  -0.004   0.953   5.866
   87MYC    C7915964  -0.020   0.858   5.986
   87MYC    C8015965   0.034   0.911   6.120
   87MYC    C8115966  -0.115   1.490   3.092
   87MYC    O8215967  -0.161   1.597   3.058
   87MYC    O8315968  -0.005   1.437   3.034
   87MYC     H115969  -0.271   1.445   3.226
   87MYC     H215970  -0.266   1.209   3.227
   87MYC     H315971  -0.037   1.224   3.052
   87MYC     H415972  -0.396   1.273   3.075
   87MYC     H515973  -0.280   1.346   2.956
   87MYC     H615974  -0.327   1.057   2.996
   87MYC     H715975  -0.399   1.161   2.872
   87MYC     H815976  -0.103   1.064   2.876
   87MYC     H915977  -0.220   1.034   2.756
   87MYC   0H1015978  -0.016   0.881   2.742
   87MYC   1H1015979   0.049   0.660   2.867
   87MYC   2H1015980   0.214   0.732   2.878
   87MYC   3H1015981   0.111   0.928   2.998
   87MYC   4H1015982  -0.047   0.848   3.000
   87MYC   5H1015983   0.071   0.665   3.142
   87MYC   6H1015984   0.218   0.756   3.118
   87MYC   7H1015985   0.113   0.942   3.262
   87MYC   8H1015986  -0.037   0.851   3.270
   87MYC   9H1015987   0.067   0.679   3.402
   87MYC    H1015988  -0.241   1.282   2.725
   87MYC   0H1115989   0.234   0.739   3.370
   87MYC   1H1115990   0.006   0.895   3.505
   87MYC   2H1115991   0.318   0.946   3.518
   87MYC   3H1115992   0.188   1.028   3.617
   87MYC   4H1115993   0.249   0.729   3.631
   87MYC   5H1115994   0.008   0.879   3.751
   87MYC   6H1115995   0.039   0.706   3.752
   87MYC   7H1115996   0.242   0.735   3.897
   87MYC   8H1115997   0.220   0.906   3.900
   87MYC   9H1115998  -0.018   0.854   4.002
   87MYC    H1115999  -0.096   1.304   2.828
   87MYC   0H1216000   0.040   0.690   4.015
   87MYC   1H1216001   0.238   0.753   4.134
   87MYC   2H1216002   0.187   0.920   4.150
   87MYC   3H1216003  -0.026   0.831   4.256
   87MYC   4H1216004   0.048   0.675   4.273
   87MYC   5H1216005   0.203   0.751   4.443
   87MYC   6H1216006   0.179   0.918   4.401
   87MYC   7H1216007  -0.073   0.883   4.467
   87MYC   8H1216008  -0.019   0.731   4.539
   87MYC   9H1216009   0.153   0.861   4.675
   87MYC    H1216010   0.032   1.157   2.646
   87MYC   0H1316011   0.066   1.008   4.626
   87MYC   1H1316012  -0.139   0.904   4.721
   87MYC   2H1316013  -0.053   0.767   4.776
   87MYC   3H1316014   0.093   0.950   4.919
   87MYC   4H1316015  -0.029   1.062   4.852
   87MYC   5H1316016  -0.209   0.891   4.959
   87MYC   6H1316017  -0.061   0.827   5.035
   87MYC   7H1316018  -0.029   1.071   5.122
   87MYC   8H1316019  -0.197   1.087   5.080
   87MYC   9H1316020  -0.260   0.933   5.235
   87MYC    H1316021  -0.127   1.166   2.563
   87MYC   0H1416022  -0.115   0.834   5.243
   87MYC   1H1416023   0.018   0.998   5.360
   87MYC   2H1416024  -0.119   1.114   5.353
   87MYC   3H1416025  -0.257   0.974   5.496
   87MYC   4H1416026  -0.146   0.845   5.495
   87MYC   5H1416027   0.030   1.033   5.589
   87MYC   6H1416028  -0.108   1.104   5.661
   87MYC   7H1416029  -0.168   0.876   5.746
   87MYC   8H1416030  -0.014   0.812   5.701
   87MYC   9H1416031   0.103   0.971   5.853
   87MYC    H1416032  -0.107   1.389   2.517
   87MYC   0H1516033  -0.047   1.051   5.894
   87MYC   1H1516034  -0.125   0.831   6.001
   87MYC   2H1516035   0.022   0.762   5.953
   87MYC   3H1516036  -0.030   0.993   6.154
   87MYC   4H1516037   0.135   0.950   6.102
   87MYC   5H1516038   0.040   0.836   6.200
   87MYC   6H1516039   0.028   1.507   2.976
   87MYC    H1516040  -0.003   1.427   2.649
   87MYC    H1616041   0.160   1.433   2.508
   87MYC    H1716042   0.178   1.268   2.513
   87MYC    H1816043  -0.009   1.408   2.318
   87MYC    H1916044   0.169   1.386   2.279
   87MYC    H2016045   0.146   1.178   2.223
   87MYC    H2116046  -0.012   1.157   2.320
   87MYC    H2216047  -0.130   1.290   2.155
   87MYC    H2316048   0.015   1.315   2.055
   87MYC    H2416049   0.023   1.079   1.995
   87MYC    H2516050  -0.102   1.040   2.116
   87MYC    H2616051  -0.267   1.186   2.000
   87MYC    H2716052  -0.158   1.219   1.876
   87MYC    H2816053  -0.280   0.945   1.959
   87MYC    H2916054  -0.327   1.049   1.826
   87MYC    H3016055  -0.040   0.977   1.794
   87MYC    H3116056  -0.205   0.727   1.847
   87MYC    H3216057  -0.137   0.884   1.582
   87MYC    H3316058  -0.299   0.862   1.657
   87MYC    H3416059  -0.001   1.316   3.303
   87MYC    H3516060  -0.022   1.485   3.328
   87MYC    H3616061  -0.215   1.443   3.484
   87MYC    H3716062  -0.193   1.275   3.446
   87MYC    H3816063   0.024   1.261   3.528
   87MYC    H3916064   0.059   1.422   3.553
   87MYC    H4016065  -0.101   1.430   3.748
   87MYC    H4116066  -0.160   1.264   3.701
   87MYC    H4216067   0.072   1.184   3.747
   87MYC    H4316068   0.121   1.340   3.803
   87MYC    H4416069  -0.115   1.196   3.923
   87MYC    H4516070   0.038   1.141   3.968
   87MYC    H4616071   0.112   1.371   4.041
   87MYC    H4716072  -0.054   1.424   4.034
   87MYC    H4816073  -0.138   1.291   4.203
   87MYC    H4916074  -0.031   1.168   4.184
   87MYC    H5016075   0.149   1.289   4.312
   87MYC    H5116076   0.061   1.441   4.286
   87MYC    H5216077  -0.114   1.379   4.444
   87MYC    H5316078  -0.053   1.216   4.455
   87MYC    H5416079   0.137   1.275   4.568
   87MYC    H5516080   0.128   1.452   4.547
   87MYC    H5616081  -0.081   1.462   4.681
   87MYC    H5716082  -0.068   1.281   4.705
   87MYC    H5816083   0.140   1.322   4.818
   87MYC    H5916084   0.125   1.503   4.794
   87MYC    H6016085  -0.078   1.500   4.925
   87MYC    H6116086  -0.062   1.326   4.964
   87MYC    H6216087   0.173   1.395   5.054
   87MYC    H6316088   0.114   1.560   5.053
   87MYC    H6416089  -0.071   1.495   5.207
   87MYC    H6516090  -0.013   1.333   5.213
   87MYC    H6616091   0.219   1.436   5.284
   87MYC    H6716092   0.133   1.578   5.332
   87MYC    H6816093  -0.010   1.405   5.484
   87MYC    H6916094   0.105   1.289   5.428
   87MYC    H7016095   0.294   1.436   5.536
   87MYC    H7116096   0.183   1.566   5.550
   87MYC    H7216097   0.036   1.456   5.707
   87MYC    H7316098   0.140   1.317   5.708
   87MYC    H7416099   0.337   1.469   5.780
   87MYC    H7516100   0.228   1.610   5.771
   87MYC    H7616101   0.099   1.512   5.957
   87MYC    H7716102   0.205   1.374   5.977
   87MYC    H7816103   0.402   1.521   6.013
   87MYC    H7916104   0.296   1.662   6.008
   87MYC    H8016105   0.262   1.427   6.201
   87MYC    H8116106   0.169   1.577   6.207
   87MYC    H8216107   0.343   1.583   6.243
   87MYC    H8316108  -0.012   0.616   1.725
   87MYC    H8416109   0.061   0.783   1.714
   87MYC    H8516110   0.016   0.604   1.960
   87MYC    H8616111   0.168   0.639   1.873
   87MYC    H8716112   0.145   0.884   1.956
   87MYC    H8816113  -0.004   0.840   2.029
   87MYC    H8916114   0.121   0.656   2.152
   87MYC    H9016115   0.272   0.729   2.109
   87MYC    H9116116   0.223   0.934   2.217
   87MYC    H9216117   0.054   0.901   2.251
   87MYC    H9316118   0.178   0.691   2.389
   87MYC    H9416119   0.307   0.812   2.396
   87MYC    H9516120   0.177   0.964   2.520
   87MYC    H9616121   0.025   0.890   2.484
   87MYC    H9716122   0.060   0.689   2.601
   87MYC    H9816123   0.227   0.724   2.634
   87MYC    H9916124   0.153   0.927   2.764
   88MYC     C116125   6.586   2.270   3.381
   88MYC     C216126   6.603   2.234   3.232
   88MYC     O316127   6.742   2.236   3.201
   88MYC     C416128   6.528   2.328   3.136
   88MYC     C516129   6.497   2.277   2.994
   88MYC     C616130   6.606   2.188   2.931
   88MYC     C716131   6.573   2.175   2.781
   88MYC     C816132   6.668   2.075   2.713
   88MYC     C916133   6.680   2.100   2.562
   88MYC    C1016134   6.770   1.989   2.504
   88MYC    C1116135   6.798   2.013   2.354
   88MYC    C1216136   6.693   1.944   2.266
   88MYC    C1316137   6.704   1.995   2.121
   88MYC    C1416138   6.602   1.925   2.030
   88MYC    C1516139   6.623   1.971   1.885
   88MYC    C1616140   6.507   1.928   1.793
   88MYC    C1716141   6.491   1.778   1.773
   88MYC    C1816142   6.359   1.706   1.776
   88MYC    C1916143   6.429   1.728   1.645
   88MYC    C2016144   6.654   2.160   3.464
   88MYC    C2116145   6.654   2.180   3.617
   88MYC    C2216146   6.732   2.072   3.694
   88MYC    C2316147   6.743   2.108   3.843
   88MYC    C2416148   6.810   1.999   3.928
   88MYC    C2516149   6.744   1.993   4.067
   88MYC    C2616150   6.822   1.924   4.180
   88MYC    C2716151   6.754   1.938   4.318
   88MYC    C2816152   6.827   2.043   4.403
   88MYC    C2916153   6.751   2.053   4.537
   88MYC    C3016154   6.832   2.137   4.636
   88MYC    C3116155   6.754   2.148   4.768
   88MYC    C3216156   6.843   2.125   4.892
   88MYC    C3316157   6.746   2.129   5.011
   88MYC    C3416158   6.815   2.099   5.146
   88MYC    C3516159   6.712   2.088   5.260
   88MYC    C3616160   6.779   2.124   5.393
   88MYC    C3716161   6.677   2.138   5.507
   88MYC    C3816162   6.739   2.212   5.627
   88MYC    C3916163   6.659   2.194   5.756
   88MYC    C4016164   6.738   2.269   5.865
   88MYC    C4116165   6.652   2.252   5.991
   88MYC    C4216166   6.728   2.308   6.112
   88MYC    C4316167   6.650   2.289   6.243
   88MYC    C4416168   6.348   1.564   1.830
   88MYC    C4516169   6.264   1.557   1.958
   88MYC    C4616170   6.321   1.652   2.065
   88MYC    C4716171   6.251   1.624   2.200
   88MYC    C4816172   6.296   1.731   2.301
   88MYC    C4916173   6.196   1.750   2.416
   88MYC    C5016174   6.248   1.856   2.514
   88MYC    C5116175   6.138   1.882   2.618
   88MYC    C5216176   6.194   1.930   2.753
   88MYC    C5316177   6.094   1.939   2.870
   88MYC    C5416178   6.173   1.981   2.996
   88MYC    C5516179   6.116   1.927   3.128
   88MYC    C5616180   6.200   1.978   3.247
   88MYC    C5716181   6.156   1.916   3.381
   88MYC    C5816182   6.255   1.946   3.493
   88MYC    C5916183   6.375   1.858   3.517
   88MYC    C6016184   6.264   1.865   3.619
   88MYC    C6116185   6.267   1.937   3.754
   88MYC    C6216186   6.325   1.849   3.866
   88MYC    C6316187   6.304   1.920   4.000
   88MYC    C6416188   6.360   1.835   4.116
   88MYC    C6516189   6.325   1.887   4.256
   88MYC    C6616190   6.390   1.815   4.375
   88MYC    C6716191   6.331   1.867   4.507
   88MYC    C6816192   6.408   1.819   4.631
   88MYC    C6916193   6.327   1.843   4.760
   88MYC    C7016194   6.419   1.858   4.882
   88MYC    C7116195   6.341   1.840   5.014
   88MYC    C7216196   6.410   1.887   5.143
   88MYC    C7316197   6.309   1.878   5.259
   88MYC    C7416198   6.370   1.928   5.391
   88MYC    C7516199   6.297   1.880   5.517
   88MYC    C7616200   6.366   1.929   5.645
   88MYC    C7716201   6.289   1.878   5.768
   88MYC    C7816202   6.343   1.942   5.897
   88MYC    C7916203   6.250   1.939   6.020
   88MYC    C8016204   6.310   2.017   6.138
   88MYC    C8116205   6.628   2.411   3.422
   88MYC    O8216206   6.546   2.498   3.444
   88MYC    O8316207   6.756   2.447   3.399
   88MYC     H116208   6.480   2.272   3.408
   88MYC     H216209   6.562   2.134   3.215
   88MYC     H316210   6.759   2.282   3.117
   88MYC     H416211   6.434   2.355   3.184
   88MYC     H516212   6.591   2.417   3.132
   88MYC     H616213   6.406   2.215   2.995
   88MYC     H716214   6.481   2.364   2.929
   88MYC     H816215   6.697   2.246   2.945
   88MYC     H916216   6.619   2.087   2.971
   88MYC   0H1016217   6.228   2.032   2.735
   88MYC   1H1016218   6.015   2.013   2.852
   88MYC   2H1016219   6.041   1.846   2.895
   88MYC   3H1016220   6.276   1.943   2.994
   88MYC   4H1016221   6.193   2.088   3.008
   88MYC   5H1016222   6.014   1.966   3.143
   88MYC   6H1016223   6.106   1.819   3.137
   88MYC   7H1016224   6.306   1.955   3.231
   88MYC   8H1016225   6.199   2.087   3.258
   88MYC   9H1016226   6.063   1.961   3.415
   88MYC    H1016227   6.471   2.137   2.769
   88MYC   0H1116228   6.146   1.808   3.365
   88MYC   1H1116229   6.270   2.049   3.524
   88MYC   2H1116230   6.381   1.762   3.467
   88MYC   3H1116231   6.473   1.900   3.539
   88MYC   4H1116232   6.189   1.787   3.622
   88MYC   5H1116233   6.319   2.033   3.743
   88MYC   6H1116234   6.173   1.965   3.803
   88MYC   7H1116235   6.269   1.755   3.856
   88MYC   8H1116236   6.431   1.829   3.846
   88MYC   9H1116237   6.363   2.012   3.999
   88MYC    H1116238   6.569   2.272   2.730
   88MYC   0H1216239   6.201   1.951   4.023
   88MYC   1H1216240   6.312   1.737   4.111
   88MYC   2H1216241   6.469   1.828   4.106
   88MYC   3H1216242   6.350   1.994   4.263
   88MYC   4H1216243   6.216   1.877   4.266
   88MYC   5H1216244   6.376   1.707   4.362
   88MYC   6H1216245   6.497   1.838   4.371
   88MYC   7H1216246   6.332   1.977   4.497
   88MYC   8H1216247   6.226   1.840   4.520
   88MYC   9H1216248   6.426   1.711   4.621
   88MYC    H1216249   6.769   2.074   2.755
   88MYC   0H1316250   6.505   1.870   4.624
   88MYC   1H1316251   6.258   1.927   4.758
   88MYC   2H1316252   6.252   1.763   4.771
   88MYC   3H1316253   6.506   1.792   4.879
   88MYC   4H1316254   6.451   1.963   4.884
   88MYC   5H1316255   6.249   1.898   4.999
   88MYC   6H1316256   6.309   1.736   5.024
   88MYC   7H1316257   6.507   1.836   5.150
   88MYC   8H1316258   6.442   1.990   5.125
   88MYC   9H1316259   6.222   1.938   5.230
   88MYC    H1316260   6.622   1.975   2.720
   88MYC   0H1416261   6.272   1.775   5.267
   88MYC   1H1416262   6.475   1.900   5.409
   88MYC   2H1416263   6.371   2.038   5.394
   88MYC   3H1416264   6.192   1.911   5.519
   88MYC   4H1416265   6.292   1.770   5.512
   88MYC   5H1416266   6.470   1.895   5.644
   88MYC   6H1416267   6.369   2.039   5.644
   88MYC   7H1416268   6.182   1.902   5.766
   88MYC   8H1416269   6.302   1.769   5.771
   88MYC   9H1416270   6.435   1.893   5.929
   88MYC    H1416271   6.577   2.101   2.525
   88MYC   0H1516272   6.379   2.044   5.877
   88MYC   1H1516273   6.152   1.983   6.001
   88MYC   2H1516274   6.225   1.833   6.029
   88MYC   3H1516275   6.329   2.122   6.114
   88MYC   4H1516276   6.400   1.966   6.175
   88MYC   5H1516277   6.243   2.014   6.225
   88MYC   6H1516278   6.759   2.543   3.386
   88MYC    H1516279   6.724   2.199   2.545
   88MYC    H1616280   6.866   1.975   2.555
   88MYC    H1716281   6.714   1.895   2.512
   88MYC    H1816282   6.812   2.119   2.333
   88MYC    H1916283   6.895   1.962   2.342
   88MYC    H2016284   6.705   1.835   2.271
   88MYC    H2116285   6.593   1.962   2.307
   88MYC    H2216286   6.687   2.103   2.118
   88MYC    H2316287   6.804   1.982   2.079
   88MYC    H2416288   6.634   1.819   2.031
   88MYC    H2516289   6.499   1.913   2.065
   88MYC    H2616290   6.612   2.080   1.886
   88MYC    H2716291   6.723   1.943   1.850
   88MYC    H2816292   6.419   1.979   1.832
   88MYC    H2916293   6.523   1.987   1.701
   88MYC    H3016294   6.581   1.725   1.805
   88MYC    H3116295   6.274   1.773   1.792
   88MYC    H3216296   6.480   1.642   1.602
   88MYC    H3316297   6.387   1.791   1.566
   88MYC    H3416298   6.609   2.062   3.445
   88MYC    H3516299   6.756   2.141   3.428
   88MYC    H3616300   6.701   2.274   3.646
   88MYC    H3716301   6.549   2.194   3.645
   88MYC    H3816302   6.682   1.975   3.678
   88MYC    H3916303   6.834   2.067   3.655
   88MYC    H4016304   6.790   2.206   3.860
   88MYC    H4116305   6.640   2.116   3.880
   88MYC    H4216306   6.792   1.902   3.880
   88MYC    H4316307   6.919   2.015   3.928
   88MYC    H4416308   6.721   2.094   4.101
   88MYC    H4516309   6.646   1.946   4.054
   88MYC    H4616310   6.813   1.818   4.150
   88MYC    H4716311   6.926   1.957   4.174
   88MYC    H4816312   6.651   1.971   4.301
   88MYC    H4916313   6.751   1.839   4.364
   88MYC    H5016314   6.928   2.005   4.421
   88MYC    H5116315   6.847   2.137   4.351
   88MYC    H5216316   6.648   2.089   4.522
   88MYC    H5316317   6.731   1.951   4.573
   88MYC    H5416318   6.932   2.093   4.648
   88MYC    H5516319   6.839   2.241   4.601
   88MYC    H5616320   6.709   2.248   4.776
   88MYC    H5716321   6.668   2.080   4.765
   88MYC    H5816322   6.889   2.026   4.885
   88MYC    H5916323   6.924   2.199   4.883
   88MYC    H6016324   6.696   2.226   5.010
   88MYC    H6116325   6.670   2.051   4.996
   88MYC    H6216326   6.871   2.005   5.146
   88MYC    H6316327   6.878   2.186   5.169
   88MYC    H6416328   6.629   2.158   5.249
   88MYC    H6516329   6.685   1.982   5.265
   88MYC    H6616330   6.856   2.052   5.425
   88MYC    H6716331   6.823   2.225   5.391
   88MYC    H6816332   6.602   2.204   5.462
   88MYC    H6916333   6.634   2.041   5.532
   88MYC    H7016334   6.845   2.184   5.630
   88MYC    H7116335   6.751   2.319   5.607
   88MYC    H7216336   6.565   2.251   5.753
   88MYC    H7316337   6.636   2.088   5.774
   88MYC    H7416338   6.842   2.237   5.880
   88MYC    H7516339   6.734   2.376   5.844
   88MYC    H7616340   6.557   2.306   5.981
   88MYC    H7716341   6.644   2.143   6.000
   88MYC    H7816342   6.822   2.251   6.119
   88MYC    H7916343   6.762   2.412   6.100
   88MYC    H8016344   6.718   2.293   6.330
   88MYC    H8116345   6.603   2.189   6.239
   88MYC    H8216346   6.572   2.365   6.254
   88MYC    H8316347   6.298   1.499   1.756
   88MYC    H8416348   6.443   1.512   1.845
   88MYC    H8516349   6.160   1.570   1.927
   88MYC    H8616350   6.278   1.455   1.994
   88MYC    H8716351   6.430   1.642   2.067
   88MYC    H8816352   6.298   1.755   2.037
   88MYC    H8916353   6.142   1.628   2.197
   88MYC    H9016354   6.268   1.520   2.229
   88MYC    H9116355   6.392   1.699   2.344
   88MYC    H9216356   6.322   1.828   2.256
   88MYC    H9316357   6.096   1.780   2.381
   88MYC    H9416358   6.177   1.653   2.463
   88MYC    H9516359   6.345   1.822   2.553
   88MYC    H9616360   6.264   1.952   2.464
   88MYC    H9716361   6.067   1.956   2.579
   88MYC    H9816362   6.077   1.792   2.630
   88MYC    H9916363   6.279   1.865   2.778
   89MYC     C116364   6.587   2.856   3.147
   89MYC     C216365   6.448   2.800   3.108
   89MYC     O316366   6.436   2.663   3.141
   89MYC     C416367   6.402   2.827   2.964
   89MYC     C516368   6.444   2.727   2.855
   89MYC     C616369   6.540   2.782   2.748
   89MYC     C716370   6.496   2.736   2.608
   89MYC     C816371   6.603   2.779   2.506
   89MYC     C916372   6.548   2.782   2.362
   89MYC    C1016373   6.664   2.794   2.261
   89MYC    C1116374   6.606   2.846   2.128
   89MYC    C1216375   6.519   2.741   2.057
   89MYC    C1316376   6.494   2.777   1.909
   89MYC    C1416377   6.354   2.742   1.857
   89MYC    C1516378   6.317   2.805   1.722
   89MYC    C1616379   6.190   2.741   1.663
   89MYC    C1716380   6.192   2.595   1.620
   89MYC    C1816381   6.079   2.497   1.639
   89MYC    C1916382   6.104   2.557   1.503
   89MYC    C2016383   6.634   2.828   3.291
   89MYC    C2116384   6.562   2.894   3.410
   89MYC    C2216385   6.603   2.824   3.541
   89MYC    C2316386   6.557   2.896   3.669
   89MYC    C2416387   6.570   2.812   3.797
   89MYC    C2516388   6.527   2.894   3.920
   89MYC    C2616389   6.548   2.811   4.047
   89MYC    C2716390   6.492   2.866   4.179
   89MYC    C2816391   6.527   2.780   4.302
   89MYC    C2916392   6.467   2.827   4.435
   89MYC    C3016393   6.539   2.753   4.549
   89MYC    C3116394   6.476   2.806   4.679
   89MYC    C3216395   6.535   2.743   4.806
   89MYC    C3316396   6.487   2.822   4.928
   89MYC    C3416397   6.551   2.760   5.054
   89MYC    C3516398   6.517   2.829   5.187
   89MYC    C3616399   6.599   2.781   5.309
   89MYC    C3716400   6.540   2.840   5.438
   89MYC    C3816401   6.629   2.841   5.563
   89MYC    C3916402   6.559   2.895   5.689
   89MYC    C4016403   6.653   2.873   5.809
   89MYC    C4116404   6.580   2.895   5.942
   89MYC    C4216405   6.680   2.852   6.050
   89MYC    C4316406   6.626   2.855   6.194
   89MYC    C4416407   6.101   2.348   1.661
   89MYC    C4516408   6.033   2.290   1.786
   89MYC    C4616409   6.085   2.363   1.911
   89MYC    C4716410   6.048   2.278   2.034
   89MYC    C4816411   6.083   2.349   2.166
   89MYC    C4916412   6.091   2.264   2.294
   89MYC    C5016413   6.119   2.358   2.412
   89MYC    C5116414   6.133   2.285   2.547
   89MYC    C5216415   6.119   2.382   2.665
   89MYC    C5316416   6.109   2.321   2.805
   89MYC    C5416417   6.104   2.429   2.914
   89MYC    C5516418   6.129   2.375   3.056
   89MYC    C5616419   6.126   2.489   3.159
   89MYC    C5716420   6.117   2.432   3.302
   89MYC    C5816421   6.085   2.538   3.406
   89MYC    C5916422   6.186   2.639   3.454
   89MYC    C6016423   6.138   2.531   3.547
   89MYC    C6116424   6.035   2.549   3.659
   89MYC    C6216425   6.105   2.501   3.787
   89MYC    C6316426   6.026   2.521   3.918
   89MYC    C6416427   6.127   2.523   4.034
   89MYC    C6516428   6.057   2.523   4.171
   89MYC    C6616429   6.154   2.494   4.286
   89MYC    C6716430   6.094   2.498   4.428
   89MYC    C6816431   6.196   2.487   4.542
   89MYC    C6916432   6.129   2.435   4.670
   89MYC    C7016433   6.224   2.448   4.791
   89MYC    C7116434   6.195   2.347   4.903
   89MYC    C7216435   6.220   2.416   5.039
   89MYC    C7316436   6.194   2.324   5.159
   89MYC    C7416437   6.195   2.396   5.296
   89MYC    C7516438   6.162   2.304   5.415
   89MYC    C7616439   6.135   2.394   5.536
   89MYC    C7716440   6.100   2.315   5.664
   89MYC    C7816441   6.099   2.396   5.794
   89MYC    C7916442   6.125   2.319   5.925
   89MYC    C8016443   6.152   2.402   6.052
   89MYC    C8116444   6.694   2.796   3.057
   89MYC    O8216445   6.775   2.709   3.084
   89MYC    O8316446   6.726   2.882   2.958
   89MYC     H116447   6.585   2.963   3.123
   89MYC     H216448   6.370   2.853   3.163
   89MYC     H316449   6.479   2.655   3.228
   89MYC     H416450   6.292   2.835   2.955
   89MYC     H516451   6.432   2.931   2.946
   89MYC     H616452   6.498   2.643   2.900
   89MYC     H716453   6.355   2.679   2.813
   89MYC     H816454   6.544   2.891   2.756
   89MYC     H916455   6.636   2.733   2.766
   89MYC   0H1016456   6.037   2.453   2.644
   89MYC   1H1016457   6.023   2.254   2.822
   89MYC   2H1016458   6.195   2.259   2.830
   89MYC   3H1016459   6.174   2.512   2.893
   89MYC   4H1016460   5.998   2.454   2.921
   89MYC   5H1016461   6.060   2.293   3.080
   89MYC   6H1016462   6.233   2.341   3.052
   89MYC   7H1016463   6.209   2.559   3.142
   89MYC   8H1016464   6.037   2.542   3.126
   89MYC   9H1016465   6.049   2.346   3.297
   89MYC    H1016466   6.484   2.627   2.604
   89MYC   0H1116467   6.215   2.387   3.320
   89MYC   1H1116468   5.981   2.566   3.394
   89MYC   2H1116469   6.288   2.634   3.417
   89MYC   3H1116470   6.151   2.738   3.483
   89MYC   4H1116471   6.210   2.453   3.569
   89MYC   5H1116472   6.001   2.653   3.664
   89MYC   6H1116473   5.944   2.494   3.634
   89MYC   7H1116474   6.129   2.396   3.769
   89MYC   8H1116475   6.205   2.545   3.801
   89MYC   9H1116476   5.975   2.618   3.913
   89MYC    H1116477   6.404   2.791   2.581
   89MYC   0H1216478   5.954   2.440   3.931
   89MYC   1H1216479   6.194   2.435   4.033
   89MYC   2H1216480   6.178   2.619   4.019
   89MYC   3H1216481   6.007   2.619   4.189
   89MYC   4H1216482   5.980   2.445   4.162
   89MYC   5H1216483   6.221   2.409   4.269
   89MYC   6H1216484   6.222   2.579   4.284
   89MYC   7H1216485   6.030   2.585   4.445
   89MYC   8H1216486   6.027   2.412   4.440
   89MYC   9H1216487   6.280   2.421   4.517
   89MYC    H1216488   6.646   2.876   2.533
   89MYC   0H1316489   6.248   2.580   4.567
   89MYC   1H1316490   6.027   2.473   4.685
   89MYC   2H1316491   6.108   2.330   4.649
   89MYC   3H1316492   6.326   2.441   4.750
   89MYC   4H1316493   6.215   2.551   4.828
   89MYC   5H1316494   6.095   2.304   4.891
   89MYC   6H1316495   6.270   2.268   4.883
   89MYC   7H1316496   6.322   2.456   5.042
   89MYC   8H1316497   6.165   2.510   5.041
   89MYC   9H1316498   6.100   2.269   5.145
   89MYC    H1316499   6.682   2.702   2.509
   89MYC   0H1416500   6.265   2.240   5.157
   89MYC   1H1416501   6.286   2.455   5.313
   89MYC   2H1416502   6.124   2.477   5.277
   89MYC   3H1416503   6.076   2.238   5.400
   89MYC   4H1416504   6.252   2.242   5.429
   89MYC   5H1416505   6.220   2.462   5.552
   89MYC   6H1416506   6.044   2.449   5.511
   89MYC   7H1416507   6.002   2.266   5.655
   89MYC   8H1416508   6.179   2.239   5.663
   89MYC   9H1416509   6.172   2.477   5.781
   89MYC    H1416510   6.498   2.686   2.344
   89MYC   0H1516511   6.006   2.453   5.803
   89MYC   1H1516512   6.046   2.245   5.945
   89MYC   2H1516513   6.218   2.263   5.912
   89MYC   3H1516514   6.059   2.435   6.102
   89MYC   4H1516515   6.203   2.491   6.013
   89MYC   5H1516516   6.221   2.353   6.121
   89MYC   6H1516517   6.807   2.844   2.921
   89MYC    H1516518   6.474   2.861   2.348
   89MYC    H1616519   6.750   2.849   2.301
   89MYC    H1716520   6.690   2.689   2.246
   89MYC    H1816521   6.569   2.949   2.136
   89MYC    H1916522   6.692   2.859   2.061
   89MYC    H2016523   6.570   2.643   2.060
   89MYC    H2116524   6.419   2.740   2.100
   89MYC    H2216525   6.520   2.882   1.889
   89MYC    H2316526   6.558   2.716   1.845
   89MYC    H2416527   6.334   2.634   1.854
   89MYC    H2516528   6.276   2.774   1.927
   89MYC    H2616529   6.308   2.912   1.745
   89MYC    H2716530   6.405   2.784   1.660
   89MYC    H2816531   6.119   2.746   1.747
   89MYC    H2916532   6.161   2.794   1.572
   89MYC    H3016533   6.292   2.555   1.629
   89MYC    H3116534   6.003   2.539   1.705
   89MYC    H3216535   6.141   2.493   1.424
   89MYC    H3316536   6.037   2.633   1.465
   89MYC    H3416537   6.643   2.720   3.306
   89MYC    H3516538   6.737   2.866   3.292
   89MYC    H3616539   6.577   3.002   3.413
   89MYC    H3716540   6.453   2.881   3.411
   89MYC    H3816541   6.580   2.718   3.558
   89MYC    H3916542   6.712   2.818   3.542
   89MYC    H4016543   6.617   2.986   3.685
   89MYC    H4116544   6.450   2.919   3.670
   89MYC    H4216545   6.498   2.729   3.792
   89MYC    H4316546   6.670   2.767   3.801
   89MYC    H4416547   6.591   2.983   3.922
   89MYC    H4516548   6.425   2.933   3.924
   89MYC    H4616549   6.499   2.713   4.039
   89MYC    H4716550   6.656   2.794   4.063
   89MYC    H4816551   6.532   2.965   4.201
   89MYC    H4916552   6.382   2.875   4.178
   89MYC    H5016553   6.509   2.674   4.277
   89MYC    H5116554   6.637   2.780   4.300
   89MYC    H5216555   6.468   2.936   4.440
   89MYC    H5316556   6.362   2.799   4.452
   89MYC    H5416557   6.532   2.644   4.539
   89MYC    H5516558   6.643   2.790   4.543
   89MYC    H5616559   6.499   2.913   4.675
   89MYC    H5716560   6.368   2.787   4.673
   89MYC    H5816561   6.510   2.636   4.807
   89MYC    H5916562   6.643   2.759   4.794
   89MYC    H6016563   6.518   2.928   4.925
   89MYC    H6116564   6.378   2.814   4.933
   89MYC    H6216565   6.516   2.657   5.071
   89MYC    H6316566   6.660   2.764   5.043
   89MYC    H6416567   6.542   2.935   5.179
   89MYC    H6516568   6.413   2.807   5.215
   89MYC    H6616569   6.585   2.672   5.309
   89MYC    H6716570   6.704   2.805   5.294
   89MYC    H6816571   6.523   2.945   5.410
   89MYC    H6916572   6.443   2.791   5.454
   89MYC    H7016573   6.650   2.734   5.581
   89MYC    H7116574   6.726   2.892   5.550
   89MYC    H7216575   6.542   3.003   5.679
   89MYC    H7316576   6.464   2.843   5.704
   89MYC    H7416577   6.699   2.774   5.797
   89MYC    H7516578   6.735   2.944   5.793
   89MYC    H7616579   6.553   3.000   5.962
   89MYC    H7716580   6.486   2.838   5.949
   89MYC    H7816581   6.718   2.751   6.034
   89MYC    H7916582   6.771   2.912   6.038
   89MYC    H8016583   6.710   2.876   6.261
   89MYC    H8116584   6.572   2.763   6.217
   89MYC    H8216585   6.556   2.939   6.204
   89MYC    H8316586   6.064   2.288   1.576
   89MYC    H8416587   6.207   2.322   1.651
   89MYC    H8516588   5.925   2.305   1.775
   89MYC    H8616589   6.056   2.184   1.801
   89MYC    H8716590   6.193   2.375   1.899
   89MYC    H8816591   6.047   2.465   1.925
   89MYC    H8916592   5.940   2.265   2.046
   89MYC    H9016593   6.099   2.182   2.034
   89MYC    H9116594   6.185   2.386   2.151
   89MYC    H9216595   6.026   2.442   2.179
   89MYC    H9316596   5.996   2.211   2.306
   89MYC    H9416597   6.174   2.195   2.272
   89MYC    H9516598   6.212   2.415   2.395
   89MYC    H9616599   6.045   2.438   2.423
   89MYC    H9716600   6.063   2.200   2.550
   89MYC    H9816601   6.228   2.230   2.544
   89MYC    H9916602   6.213   2.439   2.666
   90MYC     C116603   6.639   3.358   3.304
   90MYC     C216604   6.523   3.396   3.209
   90MYC     O316605   6.473   3.281   3.141
   90MYC     C416606   6.561   3.507   3.110
   90MYC     C516607   6.505   3.498   2.967
   90MYC     C616608   6.595   3.424   2.867
   90MYC     C716609   6.544   3.452   2.724
   90MYC     C816610   6.627   3.379   2.617
   90MYC     C916611   6.606   3.435   2.475
   90MYC    C1016612   6.709   3.379   2.375
   90MYC    C1116613   6.692   3.442   2.236
   90MYC    C1216614   6.611   3.354   2.139
   90MYC    C1316615   6.609   3.422   2.001
   90MYC    C1416616   6.526   3.346   1.896
   90MYC    C1516617   6.523   3.400   1.752
   90MYC    C1616618   6.446   3.531   1.726
   90MYC    C1716619   6.299   3.497   1.751
   90MYC    C1816620   6.200   3.586   1.681
   90MYC    C1916621   6.220   3.444   1.634
   90MYC    C2016622   6.580   3.298   3.432
   90MYC    C2116623   6.517   3.389   3.540
   90MYC    C2216624   6.555   3.328   3.676
   90MYC    C2316625   6.486   3.389   3.799
   90MYC    C2416626   6.539   3.333   3.932
   90MYC    C2516627   6.471   3.388   4.059
   90MYC    C2616628   6.510   3.305   4.182
   90MYC    C2716629   6.476   3.376   4.314
   90MYC    C2816630   6.540   3.290   4.425
   90MYC    C2916631   6.491   3.339   4.563
   90MYC    C3016632   6.563   3.271   4.680
   90MYC    C3116633   6.519   3.313   4.821
   90MYC    C3216634   6.618   3.253   4.923
   90MYC    C3316635   6.585   3.303   5.065
   90MYC    C3416636   6.674   3.241   5.174
   90MYC    C3516637   6.627   3.283   5.314
   90MYC    C3616638   6.704   3.216   5.429
   90MYC    C3716639   6.664   3.278   5.564
   90MYC    C3816640   6.774   3.253   5.669
   90MYC    C3916641   6.748   3.328   5.801
   90MYC    C4016642   6.851   3.287   5.908
   90MYC    C4116643   6.845   3.381   6.029
   90MYC    C4216644   6.957   3.367   6.133
   90MYC    C4316645   6.921   3.441   6.264
   90MYC    C4416646   6.072   3.627   1.753
   90MYC    C4516647   6.069   3.751   1.844
   90MYC    C4616648   6.141   3.749   1.980
   90MYC    C4716649   6.075   3.833   2.090
   90MYC    C4816650   6.166   3.831   2.214
   90MYC    C4916651   6.109   3.759   2.338
   90MYC    C5016652   6.211   3.755   2.453
   90MYC    C5116653   6.155   3.699   2.585
   90MYC    C5216654   6.219   3.763   2.709
   90MYC    C5316655   6.146   3.716   2.837
   90MYC    C5416656   6.202   3.789   2.960
   90MYC    C5516657   6.160   3.715   3.088
   90MYC    C5616658   6.197   3.797   3.213
   90MYC    C5716659   6.158   3.716   3.337
   90MYC    C5816660   6.199   3.775   3.472
   90MYC    C5916661   6.322   3.727   3.545
   90MYC    C6016662   6.184   3.688   3.594
   90MYC    C6116663   6.120   3.741   3.722
   90MYC    C6216664   6.171   3.666   3.846
   90MYC    C6316665   6.111   3.707   3.982
   90MYC    C6416666   6.186   3.648   4.103
   90MYC    C6516667   6.127   3.689   4.239
   90MYC    C6616668   6.193   3.614   4.356
   90MYC    C6716669   6.158   3.677   4.491
   90MYC    C6816670   6.219   3.607   4.614
   90MYC    C6916671   6.177   3.669   4.748
   90MYC    C7016672   6.251   3.606   4.866
   90MYC    C7116673   6.204   3.649   5.006
   90MYC    C7216674   6.288   3.587   5.119
   90MYC    C7316675   6.243   3.624   5.261
   90MYC    C7416676   6.308   3.543   5.374
   90MYC    C7516677   6.238   3.559   5.509
   90MYC    C7616678   6.293   3.473   5.624
   90MYC    C7716679   6.244   3.511   5.765
   90MYC    C7816680   6.308   3.426   5.876
   90MYC    C7916681   6.291   3.483   6.017
   90MYC    C8016682   6.326   3.395   6.138
   90MYC    C8116683   6.735   3.263   3.234
   90MYC    O8216684   6.770   3.156   3.282
   90MYC    O8316685   6.763   3.287   3.104
   90MYC     H116686   6.690   3.452   3.327
   90MYC     H216687   6.451   3.438   3.279
   90MYC     H316688   6.468   3.290   3.045
   90MYC     H416689   6.532   3.605   3.148
   90MYC     H516690   6.671   3.513   3.102
   90MYC     H616691   6.401   3.463   2.975
   90MYC     H716692   6.501   3.601   2.929
   90MYC     H816693   6.697   3.456   2.888
   90MYC     H916694   6.603   3.317   2.890
   90MYC   0H1016695   6.217   3.873   2.698
   90MYC   1H1016696   6.038   3.731   2.828
   90MYC   2H1016697   6.178   3.612   2.850
   90MYC   3H1016698   6.311   3.799   2.962
   90MYC   4H1016699   6.167   3.893   2.958
   90MYC   5H1016700   6.050   3.712   3.086
   90MYC   6H1016701   6.206   3.617   3.107
   90MYC   7H1016702   6.303   3.826   3.211
   90MYC   8H1016703   6.151   3.897   3.209
   90MYC   9H1016704   6.048   3.720   3.338
   90MYC    H1016705   6.439   3.425   2.710
   90MYC   0H1116706   6.192   3.613   3.326
   90MYC   1H1116707   6.180   3.881   3.481
   90MYC   2H1116708   6.379   3.646   3.501
   90MYC   3H1116709   6.374   3.803   3.603
   90MYC   4H1116710   6.181   3.580   3.585
   90MYC   5H1116711   6.135   3.849   3.734
   90MYC   6H1116712   6.014   3.715   3.711
   90MYC   7H1116713   6.164   3.559   3.824
   90MYC   8H1116714   6.280   3.670   3.855
   90MYC   9H1116715   6.108   3.816   3.998
   90MYC    H1116716   6.563   3.559   2.708
   90MYC   0H1216717   6.010   3.665   3.984
   90MYC   1H1216718   6.186   3.539   4.100
   90MYC   2H1216719   6.290   3.682   4.106
   90MYC   3H1216720   6.146   3.796   4.250
   90MYC   4H1216721   6.020   3.663   4.243
   90MYC   5H1216722   6.174   3.506   4.349
   90MYC   6H1216723   6.302   3.626   4.364
   90MYC   7H1216724   6.202   3.777   4.487
   90MYC   8H1216725   6.049   3.667   4.493
   90MYC   9H1216726   6.195   3.501   4.625
   90MYC    H1216727   6.730   3.395   2.650
   90MYC   0H1316728   6.329   3.607   4.612
   90MYC   1H1316729   6.196   3.777   4.748
   90MYC   2H1316730   6.068   3.652   4.751
   90MYC   3H1316731   6.220   3.500   4.867
   90MYC   4H1316732   6.359   3.611   4.850
   90MYC   5H1316733   6.216   3.758   5.003
   90MYC   6H1316734   6.101   3.620   5.026
   90MYC   7H1316735   6.306   3.480   5.100
   90MYC   8H1316736   6.382   3.645   5.121
   90MYC   9H1316737   6.266   3.729   5.284
   90MYC    H1316738   6.616   3.270   2.615
   90MYC   0H1416739   6.134   3.612   5.260
   90MYC   1H1416740   6.309   3.439   5.336
   90MYC   2H1416741   6.412   3.577   5.387
   90MYC   3H1416742   6.259   3.662   5.541
   90MYC   4H1416743   6.129   3.558   5.508
   90MYC   5H1416744   6.277   3.368   5.597
   90MYC   6H1416745   6.402   3.475   5.630
   90MYC   7H1416746   6.275   3.616   5.774
   90MYC   8H1416747   6.134   3.500   5.765
   90MYC   9H1416748   6.253   3.331   5.882
   90MYC    H1416749   6.505   3.409   2.440
   90MYC   0H1516750   6.415   3.405   5.866
   90MYC   1H1516751   6.367   3.562   6.019
   90MYC   2H1516752   6.192   3.527   6.033
   90MYC   3H1516753   6.428   3.355   6.136
   90MYC   4H1516754   6.268   3.302   6.142
   90MYC   5H1516755   6.296   3.442   6.233
   90MYC   6H1516756   6.811   3.213   3.064
   90MYC    H1516757   6.595   3.544   2.474
   90MYC    H1616758   6.812   3.413   2.395
   90MYC    H1716759   6.711   3.270   2.367
   90MYC    H1816760   6.649   3.543   2.234
   90MYC    H1916761   6.797   3.454   2.208
   90MYC    H2016762   6.646   3.250   2.131
   90MYC    H2116763   6.508   3.349   2.177
   90MYC    H2216764   6.590   3.529   2.010
   90MYC    H2316765   6.715   3.419   1.972
   90MYC    H2416766   6.548   3.238   1.896
   90MYC    H2516767   6.421   3.348   1.929
   90MYC    H2616768   6.626   3.433   1.732
   90MYC    H2716769   6.505   3.324   1.676
   90MYC    H2816770   6.499   3.615   1.772
   90MYC    H2916771   6.462   3.554   1.621
   90MYC    H3016772   6.276   3.465   1.853
   90MYC    H3116773   6.245   3.667   1.625
   90MYC    H3216774   6.151   3.364   1.659
   90MYC    H3316775   6.268   3.425   1.538
   90MYC    H3416776   6.513   3.217   3.402
   90MYC    H3516777   6.665   3.248   3.480
   90MYC    H3616778   6.548   3.492   3.519
   90MYC    H3716779   6.407   3.382   3.537
   90MYC    H3816780   6.524   3.223   3.674
   90MYC    H3916781   6.663   3.333   3.689
   90MYC    H4016782   6.512   3.496   3.799
   90MYC    H4116783   6.377   3.379   3.792
   90MYC    H4216784   6.513   3.227   3.926
   90MYC    H4316785   6.648   3.339   3.934
   90MYC    H4416786   6.508   3.492   4.061
   90MYC    H4516787   6.361   3.383   4.059
   90MYC    H4616788   6.465   3.205   4.182
   90MYC    H4716789   6.618   3.291   4.177
   90MYC    H4816790   6.518   3.477   4.324
   90MYC    H4916791   6.368   3.380   4.332
   90MYC    H5016792   6.518   3.184   4.408
   90MYC    H5116793   6.649   3.299   4.421
   90MYC    H5216794   6.500   3.448   4.567
   90MYC    H5316795   6.383   3.321   4.573
   90MYC    H5416796   6.532   3.166   4.678
   90MYC    H5516797   6.669   3.294   4.666
   90MYC    H5616798   6.508   3.422   4.817
   90MYC    H5716799   6.415   3.285   4.838
   90MYC    H5816800   6.622   3.144   4.917
   90MYC    H5916801   6.719   3.286   4.897
   90MYC    H6016802   6.587   3.412   5.066
   90MYC    H6116803   6.480   3.278   5.083
   90MYC    H6216804   6.660   3.133   5.167
   90MYC    H6316805   6.777   3.275   5.156
   90MYC    H6416806   6.644   3.391   5.311
   90MYC    H6516807   6.520   3.264   5.331
   90MYC    H6616808   6.683   3.109   5.435
   90MYC    H6716809   6.810   3.240   5.414
   90MYC    H6816810   6.654   3.387   5.563
   90MYC    H6916811   6.566   3.235   5.590
   90MYC    H7016812   6.802   3.149   5.688
   90MYC    H7116813   6.870   3.291   5.632
   90MYC    H7216814   6.772   3.433   5.780
   90MYC    H7316815   6.643   3.331   5.830
   90MYC    H7416816   6.834   3.183   5.935
   90MYC    H7516817   6.952   3.294   5.865
   90MYC    H7616818   6.837   3.487   6.000
   90MYC    H7716819   6.758   3.341   6.082
   90MYC    H7816820   6.968   3.261   6.158
   90MYC    H7916821   7.057   3.399   6.100
   90MYC    H8016822   7.009   3.488   6.311
   90MYC    H8116823   6.872   3.375   6.336
   90MYC    H8216824   6.854   3.523   6.237
   90MYC    H8316825   5.998   3.635   1.672
   90MYC    H8416826   6.038   3.540   1.810
   90MYC    H8516827   6.092   3.835   1.776
   90MYC    H8616828   5.963   3.760   1.869
   90MYC    H8716829   6.126   3.644   2.008
   90MYC    H8816830   6.245   3.780   1.965
   90MYC    H8916831   6.065   3.935   2.051
   90MYC    H9016832   5.972   3.806   2.116
   90MYC    H9116833   6.254   3.770   2.188
   90MYC    H9216834   6.202   3.933   2.234
   90MYC    H9316835   6.016   3.807   2.369
   90MYC    H9416836   6.093   3.654   2.314
   90MYC    H9516837   6.298   3.696   2.422
   90MYC    H9616838   6.250   3.854   2.479
   90MYC    H9716839   6.047   3.714   2.585
   90MYC    H9816840   6.180   3.592   2.589
   90MYC    H9916841   6.323   3.731   2.724
   91MYC     C116842   0.287   4.022   3.165
   91MYC     C216843   0.326   4.141   3.076
   91MYC     O316844   0.208   4.201   3.024
   91MYC     C416845   0.437   4.107   2.975
   91MYC     C516846   0.439   4.159   2.830
   91MYC     C616847   0.328   4.098   2.743
   91MYC     C716848   0.348   4.059   2.595
   91MYC     C816849   0.232   3.983   2.530
   91MYC     C916850   0.258   3.967   2.379
   91MYC    C1016851   0.183   3.853   2.308
   91MYC    C1116852   0.201   3.858   2.155
   91MYC    C1216853   0.093   3.943   2.086
   91MYC    C1316854   0.099   3.939   1.933
   91MYC    C1416855   0.024   4.049   1.857
   91MYC    C1516856  -0.015   4.013   1.713
   91MYC    C1616857  -0.084   4.131   1.642
   91MYC    C1716858  -0.216   4.169   1.707
   91MYC    C1816859  -0.221   4.271   1.818
   91MYC    C1916860  -0.259   4.311   1.677
   91MYC    C2016861   0.231   4.065   3.302
   91MYC    C2116862   0.252   3.965   3.416
   91MYC    C2216863   0.206   4.015   3.554
   91MYC    C2316864   0.235   3.920   3.671
   91MYC    C2416865   0.157   3.969   3.794
   91MYC    C2516866   0.181   3.874   3.912
   91MYC    C2616867   0.101   3.927   4.032
   91MYC    C2716868   0.132   3.853   4.163
   91MYC    C2816869   0.101   3.934   4.289
   91MYC    C2916870   0.132   3.852   4.416
   91MYC    C3016871   0.081   3.917   4.546
   91MYC    C3116872   0.141   3.855   4.673
   91MYC    C3216873   0.073   3.921   4.795
   91MYC    C3316874   0.162   3.909   4.920
   91MYC    C3416875   0.086   3.954   5.046
   91MYC    C3516876   0.170   3.947   5.175
   91MYC    C3616877   0.080   3.974   5.297
   91MYC    C3716878   0.154   3.974   5.432
   91MYC    C3816879   0.063   3.907   5.536
   91MYC    C3916880   0.109   3.949   5.677
   91MYC    C4016881   0.047   3.862   5.787
   91MYC    C4116882   0.106   3.909   5.921
   91MYC    C4216883   0.054   3.831   6.042
   91MYC    C4316884   0.115   3.894   6.168
   91MYC    C4416885  -0.334   4.256   1.919
   91MYC    C4516886  -0.341   4.376   2.015
   91MYC    C4616887  -0.243   4.365   2.133
   91MYC    C4716888  -0.235   4.494   2.216
   91MYC    C4816889  -0.156   4.470   2.346
   91MYC    C4916890  -0.167   4.593   2.438
   91MYC    C5016891  -0.064   4.574   2.551
   91MYC    C5116892  -0.048   4.706   2.628
   91MYC    C5216893   0.020   4.681   2.763
   91MYC    C5316894  -0.080   4.627   2.866
   91MYC    C5416895  -0.022   4.632   3.009
   91MYC    C5516896  -0.105   4.558   3.115
   91MYC    C5616897  -0.078   4.618   3.254
   91MYC    C5716898  -0.164   4.555   3.365
   91MYC    C5816899  -0.161   4.631   3.496
   91MYC    C5916900  -0.039   4.623   3.585
   91MYC    C6016901  -0.171   4.566   3.632
   91MYC    C6116902  -0.244   4.636   3.746
   91MYC    C6216903  -0.193   4.579   3.879
   91MYC    C6316904  -0.213   4.679   3.994
   91MYC    C6416905  -0.173   4.625   4.132
   91MYC    C6516906  -0.174   4.728   4.247
   91MYC    C6616907  -0.188   4.658   4.383
   91MYC    C6716908  -0.172   4.750   4.504
   91MYC    C6816909  -0.207   4.675   4.634
   91MYC    C6916910  -0.127   4.733   4.751
   91MYC    C7016911  -0.171   4.644   4.869
   91MYC    C7116912  -0.077   4.668   4.989
   91MYC    C7216913  -0.125   4.589   5.112
   91MYC    C7316914  -0.045   4.634   5.235
   91MYC    C7416915  -0.103   4.576   5.365
   91MYC    C7516916  -0.026   4.626   5.488
   91MYC    C7616917  -0.079   4.565   5.619
   91MYC    C7716918   0.010   4.607   5.737
   91MYC    C7816919  -0.046   4.551   5.869
   91MYC    C7916920   0.033   4.599   5.992
   91MYC    C8016921  -0.052   4.570   6.117
   91MYC    C8116922   0.187   3.932   3.093
   91MYC    O8216923   0.076   3.906   3.136
   91MYC    O8316924   0.250   3.838   3.021
   91MYC     H116925   0.376   3.961   3.184
   91MYC     H216926   0.369   4.221   3.138
   91MYC     H316927   0.220   4.189   2.929
   91MYC     H416928   0.530   4.144   3.021
   91MYC     H516929   0.453   3.999   2.972
   91MYC     H616930   0.422   4.267   2.836
   91MYC     H716931   0.541   4.149   2.792
   91MYC     H816932   0.301   4.003   2.792
   91MYC     H916933   0.236   4.158   2.749
   91MYC   0H1016934   0.075   4.767   2.804
   91MYC   1H1016935  -0.169   4.689   2.862
   91MYC   2H1016936  -0.111   4.523   2.846
   91MYC   3H1016937   0.075   4.583   3.000
   91MYC   4H1016938  -0.004   4.738   3.034
   91MYC   5H1016939  -0.213   4.552   3.096
   91MYC   6H1016940  -0.067   4.455   3.107
   91MYC   7H1016941   0.027   4.596   3.278
   91MYC   8H1016942  -0.103   4.725   3.244
   91MYC   9H1016943  -0.266   4.546   3.325
   91MYC    H1016944   0.349   4.151   2.535
   91MYC   0H1116945  -0.114   4.458   3.379
   91MYC   1H1116946  -0.213   4.726   3.488
   91MYC   2H1116947   0.037   4.550   3.561
   91MYC   3H1116948   0.001   4.714   3.629
   91MYC   4H1116949  -0.170   4.458   3.640
   91MYC   5H1116950  -0.223   4.744   3.748
   91MYC   6H1116951  -0.353   4.624   3.739
   91MYC   7H1116952  -0.232   4.479   3.901
   91MYC   8H1116953  -0.084   4.565   3.869
   91MYC   9H1116954  -0.145   4.764   3.980
   91MYC    H1116955   0.441   4.002   2.581
   91MYC   0H1216956  -0.316   4.719   3.994
   91MYC   1H1216957  -0.250   4.552   4.157
   91MYC   2H1216958  -0.079   4.569   4.134
   91MYC   3H1216959  -0.080   4.785   4.246
   91MYC   4H1216960  -0.260   4.797   4.242
   91MYC   5H1216961  -0.286   4.610   4.391
   91MYC   6H1216962  -0.103   4.588   4.388
   91MYC   7H1216963  -0.065   4.777   4.509
   91MYC   8H1216964  -0.231   4.842   4.501
   91MYC   9H1216965  -0.313   4.670   4.660
   91MYC    H1216966   0.219   3.888   2.583
   91MYC   0H1316967  -0.188   4.567   4.625
   91MYC   1H1316968  -0.018   4.726   4.746
   91MYC   2H1316969  -0.154   4.837   4.775
   91MYC   3H1316970  -0.275   4.668   4.895
   91MYC   4H1316971  -0.173   4.537   4.850
   91MYC   5H1316972   0.028   4.639   4.976
   91MYC   6H1316973  -0.083   4.776   5.010
   91MYC   7H1316974  -0.233   4.599   5.127
   91MYC   8H1316975  -0.108   4.481   5.101
   91MYC   9H1316976   0.061   4.605   5.225
   91MYC    H1316977   0.143   4.045   2.548
   91MYC   0H1416978  -0.046   4.743   5.246
   91MYC   1H1416979  -0.209   4.601   5.376
   91MYC   2H1416980  -0.099   4.466   5.371
   91MYC   3H1416981   0.081   4.605   5.481
   91MYC   4H1416982  -0.047   4.733   5.495
   91MYC   5H1416983  -0.184   4.592   5.637
   91MYC   6H1416984  -0.073   4.456   5.612
   91MYC   7H1416985   0.117   4.583   5.731
   91MYC   8H1416986   0.008   4.715   5.751
   91MYC   9H1416987  -0.145   4.597   5.873
   91MYC    H1416988   0.227   4.064   2.340
   91MYC   0H1516989  -0.075   4.445   5.866
   91MYC   1H1516990   0.128   4.545   5.990
   91MYC   2H1516991   0.054   4.706   5.981
   91MYC   3H1516992  -0.088   4.467   6.132
   91MYC   4H1516993  -0.154   4.609   6.103
   91MYC   5H1516994  -0.020   4.621   6.209
   91MYC   6H1516995   0.201   3.758   3.047
   91MYC    H1516996   0.367   3.964   2.369
   91MYC    H1616997   0.229   3.759   2.339
   91MYC    H1716998   0.076   3.852   2.330
   91MYC    H1816999   0.302   3.880   2.118
   91MYC    H1917000   0.187   3.757   2.114
   91MYC    H2017001  -0.007   3.914   2.121
   91MYC    H2117002   0.115   4.047   2.116
   91MYC    H2217003   0.205   3.945   1.903
   91MYC    H2317004   0.066   3.839   1.901
   91MYC    H2417005  -0.065   4.077   1.915
   91MYC    H2517006   0.083   4.142   1.852
   91MYC    H2617007   0.079   3.987   1.662
   91MYC    H2717008  -0.065   3.916   1.720
   91MYC    H2817009  -0.024   4.221   1.627
   91MYC    H2917010  -0.098   4.104   1.537
   91MYC    H3017011  -0.289   4.089   1.703
   91MYC    H3117012  -0.122   4.290   1.860
   91MYC    H3217013  -0.362   4.342   1.663
   91MYC    H3317014  -0.185   4.377   1.633
   91MYC    H3417015   0.292   4.147   3.342
   91MYC    H3517016   0.122   4.081   3.299
   91MYC    H3617017   0.203   3.870   3.389
   91MYC    H3717018   0.360   3.947   3.415
   91MYC    H3817019   0.253   4.112   3.572
   91MYC    H3917020   0.100   4.042   3.540
   91MYC    H4017021   0.208   3.815   3.650
   91MYC    H4117022   0.342   3.934   3.691
   91MYC    H4217023   0.202   4.064   3.824
   91MYC    H4317024   0.049   3.983   3.781
   91MYC    H4417025   0.131   3.778   3.892
   91MYC    H4517026   0.289   3.863   3.930
   91MYC    H4617027   0.139   4.029   4.042
   91MYC    H4717028  -0.008   3.923   4.020
   91MYC    H4817029   0.068   3.764   4.175
   91MYC    H4917030   0.232   3.808   4.168
   91MYC    H5017031   0.156   4.028   4.290
   91MYC    H5117032  -0.008   3.949   4.289
   91MYC    H5217033   0.084   3.754   4.402
   91MYC    H5317034   0.241   3.844   4.405
   91MYC    H5417035   0.107   4.023   4.540
   91MYC    H5517036  -0.028   3.902   4.550
   91MYC    H5617037   0.118   3.749   4.684
   91MYC    H5717038   0.250   3.864   4.677
   91MYC    H5817039   0.039   4.024   4.782
   91MYC    H5917040  -0.015   3.866   4.831
   91MYC    H6017041   0.192   3.804   4.935
   91MYC    H6117042   0.256   3.964   4.905
   91MYC    H6217043   0.048   4.056   5.031
   91MYC    H6317044   0.010   3.875   5.056
   91MYC    H6417045   0.219   3.852   5.198
   91MYC    H6517046   0.253   4.018   5.165
   91MYC    H6617047   0.021   4.065   5.285
   91MYC    H6717048   0.004   3.895   5.300
   91MYC    H6817049   0.247   3.917   5.422
   91MYC    H6917050   0.186   4.073   5.466
   91MYC    H7017051  -0.041   3.939   5.522
   91MYC    H7117052   0.065   3.799   5.520
   91MYC    H7217053   0.217   3.935   5.690
   91MYC    H7317054   0.092   4.057   5.693
   91MYC    H7417055  -0.063   3.864   5.781
   91MYC    H7517056   0.065   3.754   5.773
   91MYC    H7617057   0.213   3.887   5.908
   91MYC    H7717058   0.103   4.019   5.925
   91MYC    H7817059  -0.055   3.837   6.040
   91MYC    H7917060   0.080   3.724   6.038
   91MYC    H8017061   0.049   3.876   6.255
   91MYC    H8117062   0.127   4.003   6.162
   91MYC    H8217063   0.216   3.856   6.188
   91MYC    H8317064  -0.432   4.264   1.871
   91MYC    H8417065  -0.336   4.166   1.981
   91MYC    H8517066  -0.332   4.473   1.963
   91MYC    H8617067  -0.440   4.379   2.062
   91MYC    H8717068  -0.272   4.276   2.190
   91MYC    H8817069  -0.148   4.333   2.089
   91MYC    H8917070  -0.190   4.572   2.154
   91MYC    H9017071  -0.337   4.522   2.246
   91MYC    H9117072  -0.187   4.379   2.399
   91MYC    H9217073  -0.053   4.454   2.313
   91MYC    H9317074  -0.145   4.685   2.383
   91MYC    H9417075  -0.270   4.594   2.477
   91MYC    H9517076  -0.091   4.482   2.604
   91MYC    H9617077   0.036   4.561   2.508
   91MYC    H9717078   0.012   4.769   2.561
   91MYC    H9817079  -0.146   4.756   2.638
   91MYC    H9917080   0.101   4.608   2.754
   92MYC     C117081  -0.301   4.981   3.273
   92MYC     C217082  -0.299   5.103   3.179
   92MYC     O317083  -0.411   5.102   3.092
   92MYC     C417084  -0.164   5.106   3.106
   92MYC     C517085  -0.155   5.189   2.977
   92MYC     C617086  -0.245   5.132   2.866
   92MYC     C717087  -0.191   5.138   2.723
   92MYC     C817088  -0.306   5.117   2.622
   92MYC     C917089  -0.263   5.048   2.492
   92MYC    C1017090  -0.368   5.056   2.380
   92MYC    C1117091  -0.321   4.999   2.245
   92MYC    C1217092  -0.219   5.085   2.170
   92MYC    C1317093  -0.194   5.037   2.026
   92MYC    C1417094  -0.085   5.127   1.965
   92MYC    C1517095  -0.004   5.091   1.839
   92MYC    C1617096   0.115   5.186   1.817
   92MYC    C1717097   0.085   5.332   1.786
   92MYC    C1817098   0.196   5.413   1.724
   92MYC    C1917099   0.072   5.381   1.644
   92MYC    C2017100  -0.372   5.003   3.407
   92MYC    C2117101  -0.277   5.062   3.513
   92MYC    C2217102  -0.345   5.049   3.650
   92MYC    C2317103  -0.273   5.144   3.747
   92MYC    C2417104  -0.318   5.121   3.892
   92MYC    C2517105  -0.237   5.201   3.995
   92MYC    C2617106  -0.235   5.131   4.132
   92MYC    C2717107  -0.196   5.229   4.245
   92MYC    C2817108  -0.185   5.156   4.380
   92MYC    C2917109  -0.141   5.243   4.498
   92MYC    C3017110  -0.156   5.165   4.630
   92MYC    C3117111  -0.131   5.247   4.757
   92MYC    C3217112  -0.148   5.155   4.879
   92MYC    C3317113  -0.129   5.221   5.017
   92MYC    C3417114  -0.165   5.132   5.137
   92MYC    C3517115  -0.141   5.190   5.278
   92MYC    C3617116  -0.151   5.089   5.393
   92MYC    C3717117  -0.129   5.156   5.529
   92MYC    C3817118  -0.162   5.062   5.646
   92MYC    C3917119  -0.152   5.139   5.778
   92MYC    C4017120  -0.202   5.068   5.905
   92MYC    C4117121  -0.197   5.162   6.026
   92MYC    C4217122  -0.245   5.106   6.161
   92MYC    C4317123  -0.261   5.219   6.265
   92MYC    C4417124   0.208   5.554   1.780
   92MYC    C4517125   0.289   5.558   1.911
   92MYC    C4617126   0.221   5.486   2.028
   92MYC    C4717127   0.285   5.526   2.163
   92MYC    C4817128   0.225   5.459   2.287
   92MYC    C4917129   0.273   5.536   2.411
   92MYC    C5017130   0.224   5.468   2.540
   92MYC    C5117131   0.287   5.526   2.668
   92MYC    C5217132   0.270   5.447   2.799
   92MYC    C5317133   0.330   5.531   2.913
   92MYC    C5417134   0.295   5.473   3.051
   92MYC    C5517135   0.348   5.564   3.164
   92MYC    C5617136   0.314   5.503   3.301
   92MYC    C5717137   0.368   5.580   3.423
   92MYC    C5817138   0.339   5.500   3.549
   92MYC    C5917139   0.198   5.468   3.591
   92MYC    C6017140   0.283   5.558   3.677
   92MYC    C6117141   0.333   5.511   3.813
   92MYC    C6217142   0.248   5.542   3.938
   92MYC    C6317143   0.307   5.474   4.063
   92MYC    C6417144   0.227   5.516   4.188
   92MYC    C6517145   0.306   5.504   4.320
   92MYC    C6617146   0.220   5.525   4.446
   92MYC    C6717147   0.307   5.510   4.572
   92MYC    C6817148   0.216   5.514   4.697
   92MYC    C6917149   0.292   5.488   4.828
   92MYC    C7017150   0.200   5.504   4.951
   92MYC    C7117151   0.284   5.507   5.080
   92MYC    C7217152   0.205   5.477   5.209
   92MYC    C7317153   0.301   5.447   5.325
   92MYC    C7417154   0.232   5.437   5.462
   92MYC    C7517155   0.326   5.365   5.560
   92MYC    C7617156   0.295   5.380   5.710
   92MYC    C7717157   0.338   5.509   5.781
   92MYC    C7817158   0.267   5.529   5.916
   92MYC    C7917159   0.327   5.635   6.011
   92MYC    C8017160   0.272   5.650   6.154
   92MYC    C8117161  -0.385   4.876   3.202
   92MYC    O8217162  -0.505   4.865   3.218
   92MYC    O8317163  -0.322   4.784   3.125
   92MYC     H117164  -0.199   4.944   3.289
   92MYC     H217165  -0.293   5.194   3.240
   92MYC     H317166  -0.452   5.189   3.101
   92MYC     H417167  -0.084   5.132   3.177
   92MYC     H517168  -0.145   5.003   3.073
   92MYC     H617169  -0.184   5.289   3.009
   92MYC     H717170  -0.052   5.192   2.940
   92MYC     H817171  -0.269   5.025   2.880
   92MYC     H917172  -0.340   5.187   2.871
   92MYC   0H1017173   0.326   5.353   2.790
   92MYC   1H1017174   0.438   5.542   2.897
   92MYC   2H1017175   0.282   5.629   2.918
   92MYC   3H1017176   0.188   5.462   3.071
   92MYC   4H1017177   0.339   5.375   3.070
   92MYC   5H1017178   0.456   5.581   3.155
   92MYC   6H1017179   0.313   5.668   3.162
   92MYC   7H1017180   0.205   5.492   3.307
   92MYC   8H1017181   0.351   5.400   3.303
   92MYC   9H1017182   0.478   5.585   3.414
   92MYC    H1017183  -0.141   5.234   2.701
   92MYC   0H1117184   0.328   5.682   3.421
   92MYC   1H1117185   0.399   5.411   3.566
   92MYC   2H1117186   0.117   5.501   3.526
   92MYC   3H1117187   0.164   5.381   3.646
   92MYC   4H1117188   0.261   5.664   3.671
   92MYC   5H1117189   0.359   5.405   3.814
   92MYC   6H1117190   0.425   5.569   3.828
   92MYC   7H1117191   0.235   5.650   3.949
   92MYC   8H1117192   0.146   5.505   3.922
   92MYC   9H1117193   0.317   5.365   4.054
   92MYC    H1117194  -0.106   5.070   2.712
   92MYC   0H1217195   0.409   5.511   4.080
   92MYC   1H1217196   0.194   5.621   4.184
   92MYC   2H1217197   0.141   5.449   4.196
   92MYC   3H1217198   0.371   5.416   4.316
   92MYC   4H1217199   0.385   5.580   4.319
   92MYC   5H1217200   0.188   5.630   4.444
   92MYC   6H1217201   0.132   5.459   4.446
   92MYC   7H1217202   0.351   5.410   4.579
   92MYC   8H1217203   0.382   5.590   4.573
   92MYC   9H1217204   0.167   5.612   4.707
   92MYC    H1217205  -0.382   5.057   2.673
   92MYC   0H1317206   0.132   5.445   4.688
   92MYC   1H1317207   0.326   5.384   4.831
   92MYC   2H1317208   0.381   5.551   4.834
   92MYC   3H1317209   0.148   5.601   4.938
   92MYC   4H1317210   0.125   5.424   4.952
   92MYC   5H1317211   0.369   5.439   5.083
   92MYC   6H1317212   0.330   5.606   5.085
   92MYC   7H1317213   0.140   5.564   5.225
   92MYC   8H1317214   0.150   5.385   5.187
   92MYC   9H1317215   0.362   5.358   5.305
   92MYC    H1317216  -0.340   5.219   2.599
   92MYC   0H1417217   0.371   5.530   5.338
   92MYC   1H1417218   0.202   5.535   5.502
   92MYC   2H1417219   0.139   5.381   5.446
   92MYC   3H1417220   0.308   5.258   5.544
   92MYC   4H1417221   0.431   5.392   5.550
   92MYC   5H1417222   0.187   5.370   5.728
   92MYC   6H1417223   0.338   5.291   5.757
   92MYC   7H1417224   0.446   5.505   5.800
   92MYC   8H1417225   0.321   5.599   5.720
   92MYC   9H1417226   0.163   5.562   5.903
   92MYC    H1417227  -0.172   5.102   2.463
   92MYC   0H1517228   0.263   5.433   5.968
   92MYC   1H1517229   0.436   5.621   6.012
   92MYC   2H1517230   0.314   5.733   5.963
   92MYC   3H1517231   0.254   5.559   6.213
   92MYC   4H1517232   0.176   5.704   6.155
   92MYC   5H1517233   0.341   5.708   6.216
   92MYC   6H1517234  -0.394   4.737   3.080
   92MYC    H1517235  -0.246   4.944   2.522
   92MYC    H1617236  -0.467   5.013   2.401
   92MYC    H1717237  -0.389   5.163   2.369
   92MYC    H1817238  -0.293   4.894   2.259
   92MYC    H1917239  -0.407   5.010   2.178
   92MYC    H2017240  -0.265   5.184   2.169
   92MYC    H2117241  -0.127   5.091   2.230
   92MYC    H2217242  -0.160   4.933   2.032
   92MYC    H2317243  -0.289   5.032   1.972
   92MYC    H2417244  -0.130   5.227   1.958
   92MYC    H2517245  -0.006   5.142   2.040
   92MYC    H2617246   0.024   4.987   1.860
   92MYC    H2717247  -0.076   5.082   1.757
   92MYC    H2817248   0.177   5.175   1.907
   92MYC    H2917249   0.175   5.155   1.731
   92MYC    H3017250   0.023   5.384   1.859
   92MYC    H3117251   0.289   5.370   1.689
   92MYC    H3217252  -0.000   5.458   1.617
   92MYC    H3317253   0.082   5.306   1.565
   92MYC    H3417254  -0.459   5.069   3.392
   92MYC    H3517255  -0.408   4.905   3.441
   92MYC    H3617256  -0.182   5.008   3.520
   92MYC    H3717257  -0.245   5.160   3.475
   92MYC    H3817258  -0.452   5.073   3.642
   92MYC    H3917259  -0.328   4.948   3.690
   92MYC    H4017260  -0.164   5.131   3.746
   92MYC    H4117261  -0.287   5.249   3.718
   92MYC    H4217262  -0.424   5.145   3.907
   92MYC    H4317263  -0.294   5.018   3.922
   92MYC    H4417264  -0.135   5.228   3.967
   92MYC    H4517265  -0.293   5.296   3.995
   92MYC    H4617266  -0.337   5.096   4.154
   92MYC    H4717267  -0.164   5.048   4.126
   92MYC    H4817268  -0.104   5.285   4.227
   92MYC    H4917269  -0.277   5.302   4.256
   92MYC    H5017270  -0.287   5.116   4.392
   92MYC    H5117271  -0.119   5.068   4.375
   92MYC    H5217272  -0.034   5.264   4.488
   92MYC    H5317273  -0.191   5.340   4.488
   92MYC    H5417274  -0.248   5.106   4.641
   92MYC    H5517275  -0.077   5.089   4.630
   92MYC    H5617276  -0.025   5.278   4.762
   92MYC    H5717277  -0.210   5.323   4.753
   92MYC    H5817278  -0.252   5.121   4.877
   92MYC    H5917279  -0.080   5.070   4.876
   92MYC    H6017280  -0.026   5.255   5.028
   92MYC    H6117281  -0.189   5.313   5.019
   92MYC    H6217282  -0.269   5.100   5.124
   92MYC    H6317283  -0.096   5.049   5.118
   92MYC    H6417284  -0.041   5.234   5.283
   92MYC    H6517285  -0.217   5.267   5.300
   92MYC    H6617286  -0.253   5.049   5.388
   92MYC    H6717287  -0.074   5.011   5.384
   92MYC    H6817288  -0.025   5.189   5.529
   92MYC    H6917289  -0.196   5.244   5.532
   92MYC    H7017290  -0.266   5.028   5.632
   92MYC    H7117291  -0.099   4.972   5.640
   92MYC    H7217292  -0.045   5.167   5.779
   92MYC    H7317293  -0.214   5.229   5.765
   92MYC    H7417294  -0.304   5.029   5.894
   92MYC    H7517295  -0.134   4.982   5.919
   92MYC    H7617296  -0.093   5.194   6.040
   92MYC    H7717297  -0.260   5.248   6.001
   92MYC    H7817298  -0.333   5.041   6.152
   92MYC    H7917299  -0.173   5.030   6.193
   92MYC    H8017300  -0.306   5.183   6.358
   92MYC    H8117301  -0.325   5.293   6.217
   92MYC    H8217302  -0.166   5.273   6.277
   92MYC    H8317303   0.269   5.604   1.703
   92MYC    H8417304   0.111   5.604   1.793
   92MYC    H8517305   0.385   5.510   1.892
   92MYC    H8617306   0.315   5.661   1.938
   92MYC    H8717307   0.117   5.517   2.039
   92MYC    H8817308   0.229   5.378   2.010
   92MYC    H8917309   0.393   5.510   2.159
   92MYC    H9017310   0.269   5.635   2.167
   92MYC    H9117311   0.116   5.468   2.285
   92MYC    H9217312   0.250   5.352   2.287
   92MYC    H9317313   0.382   5.545   2.409
   92MYC    H9417314   0.238   5.640   2.400
   92MYC    H9517315   0.115   5.474   2.548
   92MYC    H9617316   0.245   5.361   2.543
   92MYC    H9717317   0.394   5.540   2.652
   92MYC    H9817318   0.248   5.627   2.688
   92MYC    H9917319   0.165   5.423   2.818
   93MYC     C117320   6.522   6.283   3.226
   93MYC     C217321   6.459   6.148   3.186
   93MYC     O317322   6.547   6.049   3.134
   93MYC     C417323   6.325   6.161   3.113
   93MYC     C517324   6.317   6.077   2.984
   93MYC     C617325   6.394   6.146   2.870
   93MYC     C717326   6.344   6.101   2.731
   93MYC     C817327   6.413   6.178   2.618
   93MYC     C917328   6.346   6.162   2.481
   93MYC    C1017329   6.442   6.183   2.363
   93MYC    C1117330   6.372   6.159   2.228
   93MYC    C1217331   6.466   6.106   2.118
   93MYC    C1317332   6.379   6.066   1.997
   93MYC    C1417333   6.455   5.999   1.882
   93MYC    C1517334   6.378   6.005   1.749
   93MYC    C1617335   6.244   5.930   1.741
   93MYC    C1717336   6.256   5.783   1.704
   93MYC    C1817337   6.134   5.694   1.699
   93MYC    C1917338   6.194   5.745   1.571
   93MYC    C2017339   6.597   6.288   3.360
   93MYC    C2117340   6.500   6.319   3.474
   93MYC    C2217341   6.587   6.335   3.600
   93MYC    C2317342   6.514   6.402   3.717
   93MYC    C2417343   6.585   6.376   3.851
   93MYC    C2517344   6.500   6.405   3.976
   93MYC    C2617345   6.583   6.379   4.103
   93MYC    C2717346   6.500   6.367   4.231
   93MYC    C2817347   6.580   6.355   4.362
   93MYC    C2917348   6.494   6.310   4.481
   93MYC    C3017349   6.565   6.338   4.615
   93MYC    C3117350   6.508   6.268   4.739
   93MYC    C3217351   6.583   6.304   4.869
   93MYC    C3317352   6.543   6.214   4.987
   93MYC    C3417353   6.567   6.281   5.123
   93MYC    C3517354   6.498   6.203   5.236
   93MYC    C3617355   6.522   6.264   5.376
   93MYC    C3717356   6.434   6.200   5.485
   93MYC    C3817357   6.451   6.285   5.612
   93MYC    C3917358   6.392   6.224   5.740
   93MYC    C4017359   6.454   6.278   5.870
   93MYC    C4117360   6.440   6.190   5.995
   93MYC    C4217361   6.478   6.255   6.129
   93MYC    C4317362   6.396   6.194   6.244
   93MYC    C4417363   6.144   5.544   1.724
   93MYC    C4517364   6.098   5.501   1.864
   93MYC    C4617365   6.186   5.558   1.976
   93MYC    C4717366   6.176   5.493   2.115
   93MYC    C4817367   6.247   5.564   2.231
   93MYC    C4917368   6.197   5.518   2.369
   93MYC    C5017369   6.238   5.614   2.481
   93MYC    C5117370   6.231   5.551   2.621
   93MYC    C5217371   6.251   5.650   2.737
   93MYC    C5317372   6.275   5.587   2.876
   93MYC    C5417373   6.300   5.695   2.982
   93MYC    C5517374   6.307   5.643   3.127
   93MYC    C5617375   6.332   5.756   3.228
   93MYC    C5717376   6.401   5.710   3.357
   93MYC    C5817377   6.302   5.690   3.471
   93MYC    C5917378   6.247   5.807   3.548
   93MYC    C6017379   6.350   5.717   3.612
   93MYC    C6117380   6.306   5.623   3.723
   93MYC    C6217381   6.262   5.697   3.851
   93MYC    C6317382   6.261   5.603   3.973
   93MYC    C6417383   6.245   5.686   4.102
   93MYC    C6517384   6.225   5.611   4.235
   93MYC    C6617385   6.217   5.706   4.356
   93MYC    C6717386   6.205   5.627   4.487
   93MYC    C6817387   6.192   5.715   4.612
   93MYC    C6917388   6.182   5.626   4.738
   93MYC    C7017389   6.162   5.706   4.868
   93MYC    C7117390   6.210   5.622   4.987
   93MYC    C7217391   6.175   5.683   5.124
   93MYC    C7317392   6.234   5.597   5.237
   93MYC    C7417393   6.204   5.670   5.368
   93MYC    C7517394   6.282   5.613   5.488
   93MYC    C7617395   6.277   5.693   5.619
   93MYC    C7717396   6.287   5.606   5.746
   93MYC    C7817397   6.295   5.696   5.870
   93MYC    C7917398   6.209   5.636   5.982
   93MYC    C8017399   6.236   5.705   6.117
   93MYC    C8117400   6.613   6.327   3.111
   93MYC    O8217401   6.733   6.309   3.105
   93MYC    O8317402   6.552   6.410   3.024
   93MYC     H117403   6.450   6.365   3.231
   93MYC     H217404   6.433   6.107   3.284
   93MYC     H317405   6.517   6.031   3.043
   93MYC     H417406   6.242   6.124   3.174
   93MYC     H517407   6.304   6.266   3.093
   93MYC     H617408   6.363   5.979   2.999
   93MYC     H717409   6.213   6.064   2.950
   93MYC     H817410   6.375   6.254   2.873
   93MYC     H917411   6.503   6.132   2.874
   93MYC   0H1017412   6.170   5.723   2.748
   93MYC   1H1017413   6.186   5.528   2.900
   93MYC   2H1017414   6.366   5.526   2.879
   93MYC   3H1017415   6.391   5.753   2.962
   93MYC   4H1017416   6.221   5.771   2.974
   93MYC   5H1017417   6.217   5.588   3.155
   93MYC   6H1017418   6.392   5.573   3.129
   93MYC   7H1017419   6.400   5.830   3.183
   93MYC   8H1017420   6.241   5.815   3.240
   93MYC   9H1017421   6.450   5.613   3.343
   93MYC    H1017422   6.367   5.994   2.724
   93MYC   0H1117423   6.487   5.775   3.377
   93MYC   1H1117424   6.245   5.598   3.461
   93MYC   2H1117425   6.282   5.908   3.528
   93MYC   3H1117426   6.145   5.804   3.586
   93MYC   4H1117427   6.448   5.761   3.627
   93MYC   5H1117428   6.216   5.570   3.689
   93MYC   6H1117429   6.387   5.551   3.737
   93MYC   7H1117430   6.327   5.783   3.872
   93MYC   8H1117431   6.162   5.741   3.841
   93MYC   9H1117432   6.182   5.528   3.967
   93MYC    H1117433   6.236   6.116   2.719
   93MYC   0H1217434   6.361   5.559   3.982
   93MYC   1H1217435   6.337   5.744   4.113
   93MYC   2H1217436   6.161   5.757   4.097
   93MYC   3H1217437   6.133   5.552   4.225
   93MYC   4H1217438   6.309   5.544   4.256
   93MYC   5H1217439   6.307   5.769   4.357
   93MYC   6H1217440   6.128   5.769   4.350
   93MYC   7H1217441   6.120   5.557   4.479
   93MYC   8H1217442   6.274   5.546   4.514
   93MYC   9H1217443   6.280   5.776   4.636
   93MYC    H1217444   6.412   6.284   2.648
   93MYC   0H1317445   6.108   5.785   4.608
   93MYC   1H1317446   6.096   5.559   4.726
   93MYC   2H1317447   6.274   5.567   4.749
   93MYC   3H1317448   6.226   5.795   4.865
   93MYC   4H1317449   6.058   5.741   4.874
   93MYC   5H1317450   6.166   5.522   4.974
   93MYC   6H1317451   6.319   5.609   4.982
   93MYC   7H1317452   6.224   5.781   5.127
   93MYC   8H1317453   6.067   5.702   5.131
   93MYC   9H1317454   6.188   5.497   5.241
   93MYC    H1317455   6.519   6.148   2.618
   93MYC   0H1417456   6.343   5.587   5.223
   93MYC   1H1417457   6.221   5.778   5.364
   93MYC   2H1417458   6.097   5.663   5.392
   93MYC   3H1417459   6.243   5.511   5.499
   93MYC   4H1417460   6.388   5.611   5.457
   93MYC   5H1417461   6.361   5.763   5.625
   93MYC   6H1417462   6.183   5.749   5.627
   93MYC   7H1417463   6.202   5.538   5.755
   93MYC   8H1417464   6.374   5.540   5.735
   93MYC   9H1417465   6.396   5.715   5.909
   93MYC    H1417466   6.301   6.062   2.486
   93MYC   0H1517467   6.249   5.793   5.846
   93MYC   1H1517468   6.101   5.638   5.963
   93MYC   2H1517469   6.233   5.530   5.993
   93MYC   3H1517470   6.223   5.813   6.103
   93MYC   4H1517471   6.339   5.679   6.145
   93MYC   5H1517472   6.172   5.660   6.194
   93MYC   6H1517473   6.627   6.444   2.972
   93MYC    H1517474   6.255   6.225   2.483
   93MYC    H1617475   6.497   6.277   2.377
   93MYC    H1717476   6.514   6.100   2.366
   93MYC    H1817477   6.293   6.083   2.234
   93MYC    H1917478   6.317   6.244   2.187
   93MYC    H2017479   6.544   6.181   2.099
   93MYC    H2117480   6.518   6.015   2.149
   93MYC    H2217481   6.303   5.994   2.030
   93MYC    H2317482   6.317   6.152   1.967
   93MYC    H2417483   6.551   6.050   1.867
   93MYC    H2517484   6.474   5.900   1.926
   93MYC    H2617485   6.347   6.108   1.726
   93MYC    H2717486   6.455   5.979   1.675
   93MYC    H2817487   6.194   5.948   1.836
   93MYC    H2917488   6.175   5.984   1.675
   93MYC    H3017489   6.344   5.733   1.742
   93MYC    H3117490   6.049   5.746   1.742
   93MYC    H3217491   6.237   5.672   1.504
   93MYC    H3317492   6.134   5.816   1.515
   93MYC    H3417493   6.651   6.195   3.380
   93MYC    H3517494   6.677   6.364   3.352
   93MYC    H3617495   6.442   6.410   3.452
   93MYC    H3717496   6.426   6.238   3.486
   93MYC    H3817497   6.623   6.235   3.628
   93MYC    H3917498   6.680   6.386   3.569
   93MYC    H4017499   6.488   6.507   3.698
   93MYC    H4117500   6.416   6.355   3.729
   93MYC    H4217501   6.606   6.269   3.867
   93MYC    H4317502   6.679   6.433   3.852
   93MYC    H4417503   6.470   6.511   3.978
   93MYC    H4517504   6.417   6.334   3.977
   93MYC    H4617505   6.646   6.289   4.093
   93MYC    H4717506   6.656   6.458   4.126
   93MYC    H4817507   6.430   6.451   4.244
   93MYC    H4917508   6.431   6.283   4.217
   93MYC    H5017509   6.655   6.278   4.342
   93MYC    H5117510   6.635   6.447   4.385
   93MYC    H5217511   6.403   6.372   4.477
   93MYC    H5317512   6.468   6.204   4.473
   93MYC    H5417513   6.670   6.306   4.605
   93MYC    H5517514   6.565   6.446   4.633
   93MYC    H5617515   6.400   6.290   4.747
   93MYC    H5717516   6.515   6.160   4.721
   93MYC    H5817517   6.692   6.301   4.856
   93MYC    H5917518   6.563   6.409   4.895
   93MYC    H6017519   6.437   6.188   4.975
   93MYC    H6117520   6.607   6.125   4.989
   93MYC    H6217521   6.675   6.290   5.140
   93MYC    H6317522   6.522   6.381   5.118
   93MYC    H6417523   6.392   6.212   5.210
   93MYC    H6517524   6.535   6.100   5.240
   93MYC    H6617525   6.630   6.253   5.391
   93MYC    H6717526   6.488   6.368   5.385
   93MYC    H6817527   6.329   6.205   5.453
   93MYC    H6917528   6.459   6.094   5.497
   93MYC    H7017529   6.560   6.295   5.622
   93MYC    H7117530   6.412   6.387   5.602
   93MYC    H7217531   6.288   6.261   5.742
   93MYC    H7317532   6.392   6.114   5.736
   93MYC    H7417533   6.562   6.282   5.852
   93MYC    H7517534   6.427   6.381   5.893
   93MYC    H7617535   6.335   6.155   5.996
   93MYC    H7717536   6.504   6.104   5.971
   93MYC    H7817537   6.584   6.239   6.149
   93MYC    H7917538   6.467   6.364   6.135
   93MYC    H8017539   6.412   6.086   6.238
   93MYC    H8117540   6.293   6.224   6.224
   93MYC    H8217541   6.438   6.218   6.343
   93MYC    H8317542   6.078   5.492   1.653
   93MYC    H8417543   6.248   5.514   1.707
   93MYC    H8517544   5.995   5.539   1.871
   93MYC    H8617545   6.107   5.392   1.858
   93MYC    H8717546   6.290   5.562   1.941
   93MYC    H8817547   6.162   5.663   1.993
   93MYC    H8917548   6.068   5.484   2.133
   93MYC    H9017549   6.208   5.388   2.110
   93MYC    H9117550   6.356   5.559   2.222
   93MYC    H9217551   6.241   5.673   2.225
   93MYC    H9317552   6.088   5.509   2.378
   93MYC    H9417553   6.238   5.420   2.397
   93MYC    H9517554   6.338   5.656   2.464
   93MYC    H9617555   6.175   5.704   2.479
   93MYC    H9717556   6.129   5.509   2.625
   93MYC    H9817557   6.299   5.467   2.634
   93MYC    H9917558   6.344   5.701   2.711
   94MYC     C117559   0.730   0.657   3.260
   94MYC     C217560   0.870   0.657   3.198
   94MYC     O317561   0.930   0.785   3.181
   94MYC     C417562   0.870   0.569   3.072
   94MYC     C517563   0.934   0.614   2.939
   94MYC     C617564   0.840   0.702   2.856
   94MYC     C717565   0.810   0.649   2.714
   94MYC     C817566   0.751   0.758   2.622
   94MYC     C917567   0.705   0.696   2.489
   94MYC    C1017568   0.629   0.792   2.395
   94MYC    C1117569   0.544   0.707   2.299
   94MYC    C1217570   0.622   0.616   2.204
   94MYC    C1317571   0.526   0.576   2.090
   94MYC    C1417572   0.597   0.482   1.991
   94MYC    C1517573   0.510   0.444   1.870
   94MYC    C1617574   0.546   0.307   1.810
   94MYC    C1717575   0.692   0.292   1.771
   94MYC    C1817576   0.742   0.154   1.735
   94MYC    C1917577   0.738   0.263   1.631
   94MYC    C2017578   0.730   0.704   3.407
   94MYC    C2117579   0.763   0.589   3.503
   94MYC    C2217580   0.754   0.647   3.645
   94MYC    C2317581   0.774   0.536   3.750
   94MYC    C2417582   0.744   0.573   3.896
   94MYC    C2517583   0.815   0.476   3.992
   94MYC    C2617584   0.774   0.510   4.136
   94MYC    C2717585   0.843   0.441   4.255
   94MYC    C2817586   0.786   0.504   4.383
   94MYC    C2917587   0.805   0.424   4.513
   94MYC    C3017588   0.722   0.461   4.637
   94MYC    C3117589   0.779   0.388   4.759
   94MYC    C3217590   0.713   0.447   4.885
   94MYC    C3317591   0.772   0.383   5.012
   94MYC    C3417592   0.698   0.431   5.139
   94MYC    C3517593   0.756   0.367   5.266
   94MYC    C3617594   0.693   0.435   5.389
   94MYC    C3717595   0.743   0.365   5.517
   94MYC    C3817596   0.716   0.459   5.635
   94MYC    C3917597   0.744   0.393   5.771
   94MYC    C4017598   0.690   0.478   5.887
   94MYC    C4117599   0.709   0.402   6.019
   94MYC    C4217600   0.710   0.492   6.143
   94MYC    C4317601   0.712   0.417   6.277
   94MYC    C4417602   0.873   0.101   1.791
   94MYC    C4517603   0.855   0.024   1.923
   94MYC    C4617604   0.827   0.115   2.044
   94MYC    C4717605   0.825   0.028   2.171
   94MYC    C4817606   0.842   0.109   2.301
   94MYC    C4917607   0.857   0.014   2.422
   94MYC    C5017608   0.842   0.082   2.559
   94MYC    C5117609   0.857  -0.017   2.676
   94MYC    C5217610   0.873   0.053   2.812
   94MYC    C5317611   0.893  -0.056   2.919
   94MYC    C5417612   0.909  -0.003   3.063
   94MYC    C5517613   0.922  -0.117   3.165
   94MYC    C5617614   0.929  -0.054   3.305
   94MYC    C5717615   0.940  -0.162   3.415
   94MYC    C5817616   0.918  -0.088   3.546
   94MYC    C5917617   1.016   0.015   3.596
   94MYC    C6017618   1.001  -0.116   3.669
   94MYC    C6117619   0.923  -0.134   3.798
   94MYC    C6217620   1.014  -0.132   3.922
   94MYC    C6317621   0.931  -0.117   4.051
   94MYC    C6417622   1.017  -0.082   4.174
   94MYC    C6517623   0.942  -0.107   4.305
   94MYC    C6617624   1.017  -0.064   4.432
   94MYC    C6717625   0.933  -0.121   4.548
   94MYC    C6817626   0.965  -0.056   4.683
   94MYC    C6917627   0.874  -0.111   4.794
   94MYC    C7017628   0.912  -0.043   4.927
   94MYC    C7117629   0.845  -0.109   5.049
   94MYC    C7217630   0.876  -0.048   5.187
   94MYC    C7317631   0.813  -0.124   5.305
   94MYC    C7417632   0.867  -0.062   5.435
   94MYC    C7517633   0.812  -0.133   5.561
   94MYC    C7617634   0.839  -0.045   5.684
   94MYC    C7717635   0.778  -0.094   5.817
   94MYC    C7817636   0.795  -0.001   5.938
   94MYC    C7917637   0.792  -0.060   6.080
   94MYC    C8017638   0.834   0.020   6.204
   94MYC    C8117639   0.640   0.756   3.187
   94MYC    O8217640   0.649   0.877   3.203
   94MYC    O8317641   0.542   0.700   3.113
   94MYC     H117642   0.684   0.559   3.243
   94MYC     H217643   0.931   0.599   3.269
   94MYC     H317644   0.876   0.845   3.127
   94MYC     H417645   0.913   0.475   3.110
   94MYC     H517646   0.766   0.541   3.046
   94MYC     H617647   1.026   0.671   2.955
   94MYC     H717648   0.971   0.520   2.898
   94MYC     H817649   0.746   0.718   2.911
   94MYC     H917650   0.888   0.801   2.856
   94MYC   0H1017651   0.790   0.119   2.839
   94MYC   1H1017652   0.812  -0.131   2.922
   94MYC   2H1017653   0.985  -0.108   2.892
   94MYC   3H1017654   0.986   0.075   3.064
   94MYC   4H1017655   0.814   0.049   3.078
   94MYC   5H1017656   0.833  -0.182   3.173
   94MYC   6H1017657   1.016  -0.168   3.142
   94MYC   7H1017658   1.014   0.016   3.312
   94MYC   8H1017659   0.841   0.008   3.324
   94MYC   9H1017660   0.859  -0.230   3.387
   94MYC    H1017661   0.894   0.598   2.667
   94MYC   0H1117662   1.035  -0.216   3.410
   94MYC   1H1117663   0.813  -0.062   3.560
   94MYC   2H1117664   1.100   0.027   3.528
   94MYC   3H1117665   0.988   0.103   3.654
   94MYC   4H1117666   1.081  -0.188   3.655
   94MYC   5H1117667   0.860  -0.045   3.809
   94MYC   6H1117668   0.861  -0.224   3.793
   94MYC   7H1117669   1.083  -0.217   3.931
   94MYC   8H1117670   1.079  -0.044   3.918
   94MYC   9H1117671   0.848  -0.048   4.036
   94MYC    H1117672   0.740   0.566   2.727
   94MYC   0H1217673   0.895  -0.220   4.061
   94MYC   1H1217674   1.098  -0.155   4.165
   94MYC   2H1217675   1.059   0.019   4.171
   94MYC   3H1217676   0.840  -0.067   4.306
   94MYC   4H1217677   0.920  -0.214   4.301
   94MYC   5H1217678   1.121  -0.098   4.437
   94MYC   6H1217679   1.025   0.045   4.430
   94MYC   7H1217680   0.828  -0.104   4.523
   94MYC   8H1217681   0.952  -0.230   4.547
   94MYC   9H1217682   1.070  -0.081   4.702
   94MYC    H1217683   0.675   0.820   2.672
   94MYC   0H1317684   0.968   0.053   4.672
   94MYC   1H1317685   0.769  -0.093   4.767
   94MYC   2H1317686   0.895  -0.219   4.800
   94MYC   3H1317687   1.019  -0.054   4.944
   94MYC   4H1317688   0.893   0.064   4.913
   94MYC   5H1317689   0.737  -0.101   5.034
   94MYC   6H1317690   0.877  -0.214   5.055
   94MYC   7H1317691   0.984  -0.052   5.200
   94MYC   8H1317692   0.844   0.057   5.190
   94MYC   9H1317693   0.703  -0.121   5.303
   94MYC    H1317694   0.830   0.829   2.595
   94MYC   0H1417695   0.840  -0.230   5.299
   94MYC   1H1417696   0.976  -0.061   5.432
   94MYC   2H1417697   0.836   0.043   5.441
   94MYC   3H1417698   0.703  -0.140   5.555
   94MYC   4H1417699   0.862  -0.230   5.569
   94MYC   5H1417700   0.948  -0.036   5.688
   94MYC   6H1417701   0.792   0.053   5.671
   94MYC   7H1417702   0.671  -0.117   5.806
   94MYC   8H1417703   0.833  -0.186   5.840
   94MYC   9H1417704   0.898   0.037   5.931
   94MYC    H1417705   0.783   0.642   2.434
   94MYC   0H1517706   0.725   0.083   5.944
   94MYC   1H1517707   0.688  -0.088   6.103
   94MYC   2H1517708   0.849  -0.154   6.077
   94MYC   3H1517709   0.787   0.119   6.210
   94MYC   4H1517710   0.941   0.043   6.207
   94MYC   5H1517711   0.830  -0.036   6.297
   94MYC   6H1517712   0.502   0.772   3.061
   94MYC    H1517713   0.638   0.614   2.519
   94MYC    H1617714   0.569   0.871   2.443
   94MYC    H1717715   0.702   0.857   2.345
   94MYC    H1817716   0.475   0.645   2.358
   94MYC    H1917717   0.481   0.781   2.249
   94MYC    H2017718   0.714   0.664   2.169
   94MYC    H2117719   0.651   0.523   2.255
   94MYC    H2217720   0.433   0.529   2.126
   94MYC    H2317721   0.485   0.662   2.037
   94MYC    H2417722   0.686   0.533   1.953
   94MYC    H2517723   0.633   0.386   2.028
   94MYC    H2617724   0.405   0.451   1.901
   94MYC    H2717725   0.526   0.513   1.786
   94MYC    H2817726   0.515   0.227   1.878
   94MYC    H2917727   0.485   0.288   1.720
   94MYC    H3017728   0.757   0.353   1.834
   94MYC    H3117729   0.665   0.078   1.729
   94MYC    H3217730   0.837   0.293   1.598
   94MYC    H3317731   0.657   0.268   1.558
   94MYC    H3417732   0.812   0.776   3.416
   94MYC    H3517733   0.638   0.759   3.430
   94MYC    H3617734   0.687   0.509   3.496
   94MYC    H3717735   0.852   0.533   3.471
   94MYC    H3817736   0.839   0.715   3.659
   94MYC    H3917737   0.658   0.693   3.671
   94MYC    H4017738   0.705   0.454   3.729
   94MYC    H4117739   0.876   0.497   3.739
   94MYC    H4217740   0.777   0.677   3.912
   94MYC    H4317741   0.636   0.564   3.912
   94MYC    H4417742   0.772   0.377   3.970
   94MYC    H4517743   0.924   0.480   3.982
   94MYC    H4617744   0.778   0.618   4.150
   94MYC    H4717745   0.666   0.494   4.145
   94MYC    H4817746   0.824   0.333   4.245
   94MYC    H4917747   0.952   0.457   4.254
   94MYC    H5017748   0.818   0.607   4.396
   94MYC    H5117749   0.678   0.504   4.364
   94MYC    H5217750   0.799   0.318   4.489
   94MYC    H5317751   0.911   0.439   4.538
   94MYC    H5417752   0.724   0.570   4.648
   94MYC    H5517753   0.617   0.432   4.622
   94MYC    H5617754   0.751   0.282   4.760
   94MYC    H5717755   0.888   0.380   4.768
   94MYC    H5817756   0.726   0.555   4.879
   94MYC    H5917757   0.606   0.423   4.881
   94MYC    H6017758   0.784   0.274   5.000
   94MYC    H6117759   0.872   0.422   5.034
   94MYC    H6217760   0.715   0.538   5.154
   94MYC    H6317761   0.592   0.408   5.131
   94MYC    H6417762   0.735   0.259   5.263
   94MYC    H6517763   0.864   0.381   5.271
   94MYC    H6617764   0.715   0.542   5.392
   94MYC    H6717765   0.584   0.417   5.384
   94MYC    H6817766   0.682   0.276   5.537
   94MYC    H6917767   0.849   0.336   5.519
   94MYC    H7017768   0.779   0.549   5.629
   94MYC    H7117769   0.609   0.486   5.634
   94MYC    H7217770   0.707   0.290   5.776
   94MYC    H7317771   0.852   0.375   5.782
   94MYC    H7417772   0.749   0.570   5.894
   94MYC    H7517773   0.584   0.497   5.868
   94MYC    H7617774   0.627   0.330   6.032
   94MYC    H7717775   0.797   0.337   6.015
   94MYC    H7817776   0.800   0.555   6.138
   94MYC    H7917777   0.625   0.561   6.135
   94MYC    H8017778   0.804   0.359   6.288
   94MYC    H8117779   0.623   0.354   6.285
   94MYC    H8217780   0.707   0.491   6.359
   94MYC    H8317781   0.921   0.032   1.720
   94MYC    H8417782   0.947   0.181   1.805
   94MYC    H8517783   0.778  -0.052   1.908
   94MYC    H8617784   0.951  -0.025   1.948
   94MYC    H8717785   0.898   0.198   2.046
   94MYC    H8817786   0.724   0.149   2.026
   94MYC    H8917787   0.720  -0.005   2.168
   94MYC    H9017788   0.900  -0.052   2.166
   94MYC    H9117789   0.925   0.179   2.286
   94MYC    H9217790   0.755   0.174   2.314
   94MYC    H9317791   0.782  -0.066   2.417
   94MYC    H9417792   0.956  -0.033   2.417
   94MYC    H9517793   0.925   0.153   2.567
   94MYC    H9617794   0.750   0.142   2.562
   94MYC    H9717795   0.767  -0.079   2.684
   94MYC    H9817796   0.946  -0.078   2.657
   94MYC    H9917797   0.962   0.116   2.822
   95MYC     C117798   0.328   1.344   3.202
   95MYC     C217799   0.392   1.210   3.163
   95MYC     O317800   0.532   1.216   3.186
   95MYC     C417801   0.355   1.168   3.019
   95MYC     C517802   0.436   1.050   2.964
   95MYC     C617803   0.519   1.074   2.837
   95MYC     C717804   0.431   1.112   2.717
   95MYC     C817805   0.527   1.140   2.600
   95MYC     C917806   0.464   1.177   2.464
   95MYC    C1017807   0.574   1.206   2.361
   95MYC    C1117808   0.540   1.240   2.215
   95MYC    C1217809   0.538   1.106   2.139
   95MYC    C1317810   0.527   1.125   1.987
   95MYC    C1417811   0.576   0.996   1.919
   95MYC    C1517812   0.537   0.977   1.772
   95MYC    C1617813   0.576   0.842   1.711
   95MYC    C1717814   0.727   0.824   1.703
   95MYC    C1817815   0.803   0.772   1.822
   95MYC    C1917816   0.787   0.685   1.700
   95MYC    C2017817   0.353   1.386   3.348
   95MYC    C2117818   0.354   1.281   3.460
   95MYC    C2217819   0.401   1.337   3.595
   95MYC    C2317820   0.412   1.237   3.712
   95MYC    C2417821   0.470   1.296   3.842
   95MYC    C2517822   0.443   1.205   3.962
   95MYC    C2617823   0.508   1.259   4.090
   95MYC    C2717824   0.469   1.192   4.223
   95MYC    C2817825   0.495   1.270   4.353
   95MYC    C2917826   0.475   1.176   4.473
   95MYC    C3017827   0.470   1.259   4.602
   95MYC    C3117828   0.457   1.168   4.726
   95MYC    C3217829   0.480   1.245   4.858
   95MYC    C3317830   0.456   1.163   4.986
   95MYC    C3417831   0.493   1.239   5.114
   95MYC    C3517832   0.472   1.159   5.243
   95MYC    C3617833   0.487   1.249   5.367
   95MYC    C3717834   0.507   1.167   5.496
   95MYC    C3817835   0.481   1.251   5.622
   95MYC    C3917836   0.538   1.172   5.741
   95MYC    C4017837   0.503   1.239   5.875
   95MYC    C4117838   0.575   1.193   6.002
   95MYC    C4217839   0.493   1.219   6.130
   95MYC    C4317840   0.567   1.183   6.259
   95MYC    C4417841   0.939   0.829   1.861
   95MYC    C4517842   0.992   0.811   2.004
   95MYC    C4617843   0.919   0.899   2.107
   95MYC    C4717844   1.001   0.900   2.237
   95MYC    C4817845   0.966   1.015   2.333
   95MYC    C4917846   1.070   1.051   2.440
   95MYC    C5017847   0.998   1.141   2.542
   95MYC    C5117848   1.085   1.162   2.666
   95MYC    C5217849   0.996   1.200   2.786
   95MYC    C5317850   1.078   1.184   2.915
   95MYC    C5417851   0.999   1.242   3.034
   95MYC    C5517852   1.072   1.214   3.166
   95MYC    C5617853   0.977   1.240   3.283
   95MYC    C5717854   1.050   1.261   3.417
   95MYC    C5817855   0.952   1.251   3.533
   95MYC    C5917856   0.930   1.375   3.616
   95MYC    C6017857   1.005   1.257   3.674
   95MYC    C6117858   0.937   1.161   3.771
   95MYC    C6217859   0.949   1.209   3.916
   95MYC    C6317860   0.915   1.098   4.017
   95MYC    C6417861   0.907   1.150   4.161
   95MYC    C6517862   0.913   1.034   4.262
   95MYC    C6617863   0.907   1.089   4.406
   95MYC    C6717864   0.944   0.985   4.513
   95MYC    C6817865   0.909   1.030   4.656
   95MYC    C6917866   0.932   0.915   4.756
   95MYC    C7017867   0.913   0.973   4.897
   95MYC    C7117868   0.949   0.868   5.003
   95MYC    C7217869   0.938   0.938   5.140
   95MYC    C7317870   0.983   0.844   5.252
   95MYC    C7417871   0.964   0.910   5.390
   95MYC    C7517872   0.964   0.813   5.509
   95MYC    C7617873   0.981   0.894   5.638
   95MYC    C7717874   0.997   0.802   5.759
   95MYC    C7817875   0.965   0.881   5.887
   95MYC    C7917876   0.993   0.798   6.013
   95MYC    C8017877   0.933   0.865   6.138
   95MYC    C8117878   0.369   1.452   3.102
   95MYC    O8217879   0.284   1.523   3.051
   95MYC    O8317880   0.502   1.470   3.086
   95MYC     H117881   0.221   1.321   3.198
   95MYC     H217882   0.358   1.133   3.233
   95MYC     H317883   0.568   1.263   3.108
   95MYC     H417884   0.249   1.139   3.013
   95MYC     H517885   0.370   1.250   2.948
   95MYC     H617886   0.508   1.017   3.041
   95MYC     H717887   0.367   0.969   2.938
   95MYC     H817888   0.588   1.155   2.862
   95MYC     H917889   0.567   0.976   2.823
   95MYC   0H1017890   0.904   1.142   2.791
   95MYC   1H1017891   1.097   1.077   2.927
   95MYC   2H1017892   1.174   1.234   2.899
   95MYC   3H1017893   1.003   1.350   3.014
   95MYC   4H1017894   0.892   1.216   3.038
   95MYC   5H1017895   1.106   1.110   3.170
   95MYC   6H1017896   1.161   1.278   3.179
   95MYC   7H1017897   0.924   1.335   3.265
   95MYC   8H1017898   0.900   1.161   3.283
   95MYC   9H1017899   1.130   1.188   3.432
   95MYC    H1017900   0.379   1.021   2.683
   95MYC   0H1117901   1.099   1.359   3.428
   95MYC   1H1117902   0.872   1.180   3.518
   95MYC   2H1117903   0.981   1.467   3.589
   95MYC   3H1117904   0.825   1.385   3.644
   95MYC   4H1117905   1.111   1.274   3.689
   95MYC   5H1117906   0.832   1.144   3.745
   95MYC   6H1117907   0.985   1.065   3.751
   95MYC   7H1117908   1.053   1.241   3.930
   95MYC   8H1117909   0.884   1.295   3.937
   95MYC   9H1117910   0.810   1.070   4.004
   95MYC    H1117911   0.358   1.192   2.732
   95MYC   0H1217912   0.974   1.006   4.004
   95MYC   1H1217913   0.996   1.209   4.185
   95MYC   2H1217914   0.824   1.221   4.170
   95MYC   3H1217915   0.830   0.970   4.229
   95MYC   4H1217916   1.010   0.982   4.267
   95MYC   5H1217917   0.973   1.175   4.421
   95MYC   6H1217918   0.808   1.130   4.428
   95MYC   7H1217919   0.893   0.892   4.486
   95MYC   8H1217920   1.052   0.969   4.499
   95MYC   9H1217921   0.967   1.116   4.691
   95MYC    H1217922   0.589   1.227   2.626
   95MYC   0H1317923   0.804   1.059   4.664
   95MYC   1H1317924   0.858   0.836   4.738
   95MYC   2H1317925   1.029   0.866   4.738
   95MYC   3H1317926   0.982   1.056   4.916
   95MYC   4H1317927   0.810   1.008   4.904
   95MYC   5H1317928   0.869   0.792   5.007
   95MYC   6H1317929   1.049   0.824   4.992
   95MYC   7H1317930   1.003   1.027   5.141
   95MYC   8H1317931   0.837   0.971   5.165
   95MYC   9H1317932   0.924   0.752   5.242
   95MYC    H1317933   0.603   1.061   2.596
   95MYC   0H1417934   1.087   0.819   5.229
   95MYC   1H1417935   1.043   0.984   5.405
   95MYC   2H1417936   0.871   0.968   5.393
   95MYC   3H1417937   0.869   0.757   5.504
   95MYC   4H1417938   1.043   0.737   5.500
   95MYC   5H1417939   1.072   0.955   5.633
   95MYC   6H1417940   0.890   0.952   5.659
   95MYC   7H1417941   0.932   0.714   5.747
   95MYC   8H1417942   1.096   0.755   5.759
   95MYC   9H1417943   1.025   0.972   5.888
   95MYC    H1417944   0.411   1.089   2.425
   95MYC   0H1517945   0.859   0.908   5.876
   95MYC   1H1517946   0.955   0.695   6.011
   95MYC   2H1517947   1.101   0.792   6.027
   95MYC   3H1517948   0.824   0.866   6.143
   95MYC   4H1517949   0.968   0.969   6.134
   95MYC   5H1517950   0.974   0.821   6.230
   95MYC   6H1517951   0.503   1.544   3.023
   95MYC    H1517952   0.392   1.259   2.470
   95MYC    H1617953   0.633   1.290   2.399
   95MYC    H1717954   0.640   1.120   2.349
   95MYC    H1817955   0.446   1.295   2.205
   95MYC    H1917956   0.627   1.298   2.182
   95MYC    H2017957   0.635   1.055   2.148
   95MYC    H2117958   0.468   1.035   2.186
   95MYC    H2217959   0.422   1.141   1.959
   95MYC    H2317960   0.584   1.215   1.960
   95MYC    H2417961   0.684   0.995   1.938
   95MYC    H2517962   0.531   0.909   1.969
   95MYC    H2617963   0.429   0.993   1.768
   95MYC    H2717964   0.570   1.060   1.707
   95MYC    H2817965   0.524   0.763   1.765
   95MYC    H2917966   0.548   0.847   1.605
   95MYC    H3017967   0.771   0.907   1.648
   95MYC    H3117968   0.750   0.739   1.911
   95MYC    H3217969   0.873   0.677   1.635
   95MYC    H3317970   0.728   0.596   1.718
   95MYC    H3417971   0.453   1.430   3.347
   95MYC    H3517972   0.277   1.462   3.370
   95MYC    H3617973   0.256   1.232   3.474
   95MYC    H3717974   0.424   1.200   3.436
   95MYC    H3817975   0.501   1.380   3.579
   95MYC    H3917976   0.331   1.416   3.624
   95MYC    H4017977   0.309   1.209   3.736
   95MYC    H4117978   0.475   1.153   3.679
   95MYC    H4217979   0.578   1.314   3.834
   95MYC    H4317980   0.418   1.389   3.870
   95MYC    H4417981   0.334   1.194   3.974
   95MYC    H4517982   0.484   1.104   3.948
   95MYC    H4617983   0.617   1.255   4.078
   95MYC    H4717984   0.479   1.365   4.098
   95MYC    H4817985   0.361   1.174   4.220
   95MYC    H4917986   0.510   1.090   4.228
   95MYC    H5017987   0.601   1.299   4.354
   95MYC    H5117988   0.434   1.361   4.358
   95MYC    H5217989   0.386   1.115   4.454
   95MYC    H5317990   0.561   1.108   4.473
   95MYC    H5417991   0.561   1.318   4.615
   95MYC    H5517992   0.385   1.327   4.613
   95MYC    H5617993   0.355   1.130   4.718
   95MYC    H5717994   0.528   1.086   4.713
   95MYC    H5817995   0.584   1.280   4.860
   95MYC    H5917996   0.415   1.333   4.865
   95MYC    H6017997   0.352   1.129   4.998
   95MYC    H6117998   0.522   1.076   4.985
   95MYC    H6217999   0.594   1.282   5.114
   95MYC    H6318000   0.428   1.328   5.119
   95MYC    H6418001   0.374   1.110   5.233
   95MYC    H6518002   0.550   1.083   5.258
   95MYC    H6618003   0.579   1.309   5.363
   95MYC    H6718004   0.397   1.307   5.387
   95MYC    H6818005   0.437   1.083   5.492
   95MYC    H6918006   0.609   1.126   5.492
   95MYC    H7018007   0.532   1.348   5.614
   95MYC    H7118008   0.372   1.254   5.620
   95MYC    H7218009   0.495   1.072   5.743
   95MYC    H7318010   0.647   1.170   5.725
   95MYC    H7418011   0.514   1.348   5.862
   95MYC    H7518012   0.397   1.220   5.897
   95MYC    H7618013   0.600   1.086   5.993
   95MYC    H7718014   0.672   1.245   6.003
   95MYC    H7818015   0.461   1.323   6.133
   95MYC    H7918016   0.405   1.153   6.125
   95MYC    H8018017   0.500   1.198   6.345
   95MYC    H8118018   0.643   1.262   6.265
   95MYC    H8218019   0.608   1.081   6.260
   95MYC    H8318020   1.015   0.787   1.794
   95MYC    H8418021   0.932   0.936   1.835
   95MYC    H8518022   0.991   0.706   2.035
   95MYC    H8618023   1.098   0.839   1.998
   95MYC    H8718024   0.908   1.001   2.068
   95MYC    H8818025   0.816   0.872   2.133
   95MYC    H8918026   1.006   0.800   2.282
   95MYC    H9018027   1.107   0.918   2.216
   95MYC    H9118028   0.960   1.101   2.265
   95MYC    H9218029   0.864   0.998   2.370
   95MYC    H9318030   1.123   0.963   2.478
   95MYC    H9418031   1.145   1.110   2.387
   95MYC    H9518032   0.968   1.240   2.504
   95MYC    H9618033   0.909   1.087   2.577
   95MYC    H9718034   1.145   1.073   2.689
   95MYC    H9818035   1.159   1.237   2.635
   95MYC    H9918036   0.971   1.306   2.771
   96MYC     C118037   0.619   2.315   3.259
   96MYC     C218038   0.730   2.253   3.173
   96MYC     O318039   0.837   2.346   3.162
   96MYC     C418040   0.692   2.213   3.029
   96MYC     C518041   0.781   2.102   2.972
   96MYC     C618042   0.874   2.156   2.861
   96MYC     C718043   0.954   2.051   2.783
   96MYC     C818044   1.026   2.114   2.662
   96MYC     C918045   0.944   2.116   2.531
   96MYC    C1018046   0.968   2.246   2.452
   96MYC    C1118047   0.919   2.239   2.306
   96MYC    C1218048   0.828   2.128   2.252
   96MYC    C1318049   0.783   2.151   2.107
   96MYC    C1418050   0.703   2.037   2.042
   96MYC    C1518051   0.656   2.067   1.898
   96MYC    C1618052   0.568   1.960   1.831
   96MYC    C1718053   0.655   1.853   1.766
   96MYC    C1818054   0.645   1.703   1.785
   96MYC    C1918055   0.589   1.767   1.660
   96MYC    C2018056   0.666   2.353   3.400
   96MYC    C2118057   0.671   2.239   3.504
   96MYC    C2218058   0.735   2.290   3.634
   96MYC    C2318059   0.731   2.187   3.748
   96MYC    C2418060   0.801   2.233   3.877
   96MYC    C2518061   0.734   2.190   4.008
   96MYC    C2618062   0.806   2.247   4.131
   96MYC    C2718063   0.762   2.183   4.263
   96MYC    C2818064   0.825   2.242   4.390
   96MYC    C2918065   0.760   2.185   4.517
   96MYC    C3018066   0.827   2.232   4.647
   96MYC    C3118067   0.773   2.168   4.776
   96MYC    C3218068   0.848   2.227   4.897
   96MYC    C3318069   0.770   2.185   5.023
   96MYC    C3418070   0.822   2.246   5.154
   96MYC    C3518071   0.734   2.189   5.267
   96MYC    C3618072   0.787   2.239   5.402
   96MYC    C3718073   0.701   2.185   5.518
   96MYC    C3818074   0.758   2.236   5.652
   96MYC    C3918075   0.673   2.213   5.778
   96MYC    C4018076   0.750   2.244   5.907
   96MYC    C4118077   0.658   2.248   6.030
   96MYC    C4218078   0.732   2.241   6.165
   96MYC    C4318079   0.645   2.266   6.289
   96MYC    C4418080   0.769   1.616   1.775
   96MYC    C4518081   0.800   1.538   1.904
   96MYC    C4618082   0.800   1.624   2.031
   96MYC    C4718083   0.850   1.551   2.157
   96MYC    C4818084   0.791   1.605   2.288
   96MYC    C4918085   0.842   1.540   2.418
   96MYC    C5018086   0.803   1.632   2.535
   96MYC    C5118087   0.824   1.575   2.676
   96MYC    C5218088   0.790   1.669   2.793
   96MYC    C5318089   0.785   1.594   2.927
   96MYC    C5418090   0.732   1.674   3.047
   96MYC    C5518091   0.763   1.619   3.187
   96MYC    C5618092   0.688   1.696   3.296
   96MYC    C5718093   0.714   1.629   3.432
   96MYC    C5818094   0.640   1.709   3.538
   96MYC    C5918095   0.665   1.847   3.595
   96MYC    C6018096   0.712   1.725   3.669
   96MYC    C6118097   0.648   1.676   3.799
   96MYC    C6218098   0.704   1.741   3.927
   96MYC    C6318099   0.635   1.680   4.050
   96MYC    C6418100   0.699   1.733   4.179
   96MYC    C6518101   0.624   1.686   4.306
   96MYC    C6618102   0.705   1.733   4.428
   96MYC    C6718103   0.639   1.676   4.555
   96MYC    C6818104   0.672   1.748   4.687
   96MYC    C6918105   0.645   1.665   4.814
   96MYC    C7018106   0.679   1.744   4.941
   96MYC    C7118107   0.653   1.657   5.066
   96MYC    C7218108   0.696   1.732   5.193
   96MYC    C7318109   0.653   1.660   5.323
   96MYC    C7418110   0.678   1.753   5.443
   96MYC    C7518111   0.674   1.676   5.577
   96MYC    C7618112   0.674   1.776   5.694
   96MYC    C7718113   0.651   1.722   5.837
   96MYC    C7818114   0.654   1.834   5.942
   96MYC    C7918115   0.671   1.766   6.079
   96MYC    C8018116   0.639   1.858   6.198
   96MYC    C8118117   0.558   2.434   3.185
   96MYC    O8218118   0.559   2.549   3.226
   96MYC    O8318119   0.466   2.399   3.093
   96MYC     H118120   0.540   2.239   3.269
   96MYC     H218121   0.763   2.165   3.229
   96MYC     H318122   0.867   2.356   3.070
   96MYC     H418123   0.597   2.159   3.038
   96MYC     H518124   0.684   2.300   2.963
   96MYC     H618125   0.844   2.051   3.046
   96MYC     H718126   0.712   2.026   2.935
   96MYC     H818127   0.799   2.193   2.790
   96MYC     H918128   0.937   2.239   2.894
   96MYC   0H1018129   0.702   1.728   2.762
   96MYC   1H1018130   0.719   1.508   2.912
   96MYC   2H1018131   0.883   1.551   2.950
   96MYC   3H1018132   0.770   1.776   3.052
   96MYC   4H1018133   0.624   1.685   3.031
   96MYC   5H1018134   0.742   1.511   3.189
   96MYC   6H1018135   0.868   1.636   3.217
   96MYC   7H1018136   0.711   1.803   3.297
   96MYC   8H1018137   0.580   1.685   3.276
   96MYC   9H1018138   0.679   1.525   3.436
   96MYC    H1018139   1.031   2.012   2.850
   96MYC   0H1118140   0.821   1.632   3.455
   96MYC   1H1118141   0.534   1.684   3.536
   96MYC   2H1118142   0.739   1.908   3.544
   96MYC   3H1118143   0.578   1.896   3.638
   96MYC   4H1118144   0.819   1.705   3.674
   96MYC   5H1118145   0.539   1.678   3.801
   96MYC   6H1118146   0.661   1.568   3.813
   96MYC   7H1118147   0.813   1.735   3.935
   96MYC   8H1118148   0.682   1.849   3.927
   96MYC   9H1118149   0.527   1.698   4.052
   96MYC    H1118150   0.886   1.971   2.752
   96MYC   0H1218151   0.636   1.570   4.041
   96MYC   1H1218152   0.797   1.686   4.191
   96MYC   2H1218153   0.707   1.842   4.175
   96MYC   3H1218154   0.521   1.723   4.310
   96MYC   4H1218155   0.613   1.577   4.307
   96MYC   5H1218156   0.800   1.681   4.409
   96MYC   6H1218157   0.722   1.841   4.430
   96MYC   7H1218158   0.530   1.689   4.550
   96MYC   8H1218159   0.659   1.569   4.562
   96MYC   9H1218160   0.780   1.767   4.681
   96MYC    H1218161   1.070   2.212   2.683
   96MYC   0H1318162   0.629   1.849   4.687
   96MYC   1H1318163   0.538   1.641   4.817
   96MYC   2H1318164   0.709   1.576   4.810
   96MYC   3H1318165   0.782   1.782   4.934
   96MYC   4H1318166   0.608   1.827   4.949
   96MYC   5H1318167   0.547   1.628   5.068
   96MYC   6H1318168   0.696   1.558   5.049
   96MYC   7H1318169   0.806   1.730   5.188
   96MYC   8H1318170   0.656   1.834   5.195
   96MYC   9H1318171   0.549   1.625   5.317
   96MYC    H1318172   1.114   2.052   2.645
   96MYC   0H1418173   0.710   1.567   5.333
   96MYC   1H1418174   0.781   1.790   5.440
   96MYC   2H1418175   0.603   1.832   5.454
   96MYC   3H1418176   0.580   1.620   5.584
   96MYC   4H1418177   0.751   1.598   5.579
   96MYC   5H1418178   0.773   1.823   5.696
   96MYC   6H1418179   0.604   1.859   5.679
   96MYC   7H1418180   0.556   1.669   5.843
   96MYC   8H1418181   0.734   1.657   5.869
   96MYC   9H1418182   0.743   1.896   5.930
   96MYC    H1418183   0.965   2.027   2.470
   96MYC   0H1518184   0.567   1.900   5.933
   96MYC   1H1518185   0.604   1.680   6.078
   96MYC   2H1518186   0.771   1.723   6.092
   96MYC   3H1518187   0.550   1.916   6.172
   96MYC   4H1518188   0.726   1.921   6.220
   96MYC   5H1518189   0.623   1.795   6.287
   96MYC   6H1518190   0.415   2.479   3.075
   96MYC    H1518191   0.836   2.117   2.551
   96MYC    H1618192   0.911   2.332   2.490
   96MYC    H1718193   1.075   2.267   2.462
   96MYC    H1818194   0.867   2.334   2.288
   96MYC    H1918195   1.007   2.245   2.241
   96MYC    H2018196   0.868   2.026   2.263
   96MYC    H2118197   0.734   2.132   2.308
   96MYC    H2218198   0.722   2.242   2.108
   96MYC    H2318199   0.869   2.176   2.044
   96MYC    H2418200   0.763   1.945   2.047
   96MYC    H2518201   0.618   2.018   2.109
   96MYC    H2618202   0.599   2.160   1.911
   96MYC    H2718203   0.739   2.094   1.831
   96MYC    H2818204   0.489   1.923   1.897
   96MYC    H2918205   0.512   2.008   1.750
   96MYC    H3018206   0.752   1.893   1.740
   96MYC    H3118207   0.576   1.665   1.860
   96MYC    H3218208   0.639   1.756   1.564
   96MYC    H3318209   0.481   1.770   1.656
   96MYC    H3418210   0.761   2.407   3.396
   96MYC    H3518211   0.598   2.423   3.450
   96MYC    H3618212   0.573   2.197   3.526
   96MYC    H3718213   0.731   2.154   3.470
   96MYC    H3818214   0.839   2.315   3.613
   96MYC    H3918215   0.678   2.375   3.676
   96MYC    H4018216   0.624   2.175   3.768
   96MYC    H4118217   0.775   2.093   3.712
   96MYC    H4218218   0.905   2.199   3.875
   96MYC    H4318219   0.805   2.343   3.875
   96MYC    H4418220   0.632   2.229   3.999
   96MYC    H4518221   0.727   2.081   3.999
   96MYC    H4618222   0.911   2.217   4.118
   96MYC    H4718223   0.797   2.356   4.131
   96MYC    H4818224   0.655   2.210   4.265
   96MYC    H4918225   0.774   2.074   4.256
   96MYC    H5018226   0.933   2.223   4.398
   96MYC    H5118227   0.822   2.351   4.382
   96MYC    H5218228   0.651   2.197   4.509
   96MYC    H5318229   0.774   2.076   4.519
   96MYC    H5418230   0.935   2.215   4.642
   96MYC    H5518231   0.808   2.340   4.647
   96MYC    H5618232   0.666   2.190   4.774
   96MYC    H5718233   0.797   2.061   4.781
   96MYC    H5818234   0.956   2.207   4.893
   96MYC    H5918235   0.851   2.337   4.902
   96MYC    H6018236   0.663   2.207   5.020
   96MYC    H6118237   0.778   2.075   5.023
   96MYC    H6218238   0.929   2.220   5.162
   96MYC    H6318239   0.805   2.354   5.147
   96MYC    H6418240   0.631   2.220   5.247
   96MYC    H6518241   0.728   2.080   5.271
   96MYC    H6618242   0.886   2.202   5.433
   96MYC    H6718243   0.778   2.348   5.404
   96MYC    H6818244   0.597   2.218   5.507
   96MYC    H6918245   0.710   2.076   5.526
   96MYC    H7018246   0.860   2.199   5.667
   96MYC    H7118247   0.766   2.345   5.645
   96MYC    H7218248   0.585   2.277   5.770
   96MYC    H7318249   0.632   2.111   5.782
   96MYC    H7418250   0.826   2.167   5.927
   96MYC    H7518251   0.806   2.339   5.902
   96MYC    H7618252   0.597   2.340   6.035
   96MYC    H7718253   0.578   2.174   6.023
   96MYC    H7818254   0.788   2.147   6.170
   96MYC    H7918255   0.809   2.319   6.161
   96MYC    H8018256   0.694   2.245   6.385
   96MYC    H8118257   0.552   2.206   6.282
   96MYC    H8218258   0.618   2.372   6.296
   96MYC    H8318259   0.761   1.553   1.685
   96MYC    H8418260   0.851   1.683   1.747
   96MYC    H8518261   0.736   1.451   1.918
   96MYC    H8618262   0.901   1.496   1.888
   96MYC    H8718263   0.864   1.711   2.010
   96MYC    H8818264   0.699   1.661   2.053
   96MYC    H8918265   0.836   1.442   2.146
   96MYC    H9018266   0.959   1.563   2.159
   96MYC    H9118267   0.808   1.713   2.286
   96MYC    H9218268   0.683   1.587   2.286
   96MYC    H9318269   0.793   1.443   2.436
   96MYC    H9418270   0.951   1.537   2.420
   96MYC    H9518271   0.847   1.732   2.523
   96MYC    H9618272   0.697   1.653   2.518
   96MYC    H9718273   0.750   1.494   2.683
   96MYC    H9818274   0.927   1.537   2.686
   96MYC    H9918275   0.874   1.738   2.809
   97MYC     C118276   1.138   2.624   3.076
   97MYC     C218277   1.030   2.720   3.024
   97MYC     O318278   0.896   2.674   3.027
   97MYC     C418279   1.064   2.788   2.890
   97MYC     C518280   1.020   2.713   2.763
   97MYC     C618281   1.137   2.664   2.676
   97MYC     C718282   1.105   2.661   2.526
   97MYC     C818283   1.207   2.574   2.451
   97MYC     C918284   1.181   2.577   2.299
   97MYC    C1018285   1.280   2.492   2.218
   97MYC    C1118286   1.294   2.532   2.071
   97MYC    C1218287   1.158   2.529   1.998
   97MYC    C1318288   1.177   2.582   1.855
   97MYC    C1418289   1.045   2.593   1.775
   97MYC    C1518290   1.061   2.654   1.635
   97MYC    C1618291   1.041   2.807   1.628
   97MYC    C1718292   0.892   2.838   1.629
   97MYC    C1818293   0.835   2.919   1.742
   97MYC    C1918294   0.854   2.982   1.606
   97MYC    C2018295   1.117   2.562   3.215
   97MYC    C2118296   1.121   2.656   3.337
   97MYC    C2218297   1.067   2.595   3.468
   97MYC    C2318298   1.131   2.648   3.597
   97MYC    C2418299   1.076   2.581   3.724
   97MYC    C2518300   1.138   2.633   3.855
   97MYC    C2618301   1.071   2.576   3.981
   97MYC    C2718302   1.140   2.603   4.116
   97MYC    C2818303   1.082   2.514   4.228
   97MYC    C2918304   1.139   2.566   4.361
   97MYC    C3018305   1.083   2.495   4.486
   97MYC    C3118306   1.145   2.540   4.619
   97MYC    C3218307   1.086   2.481   4.749
   97MYC    C3318308   1.171   2.501   4.875
   97MYC    C3418309   1.095   2.456   5.001
   97MYC    C3518310   1.162   2.504   5.131
   97MYC    C3618311   1.077   2.476   5.256
   97MYC    C3718312   1.144   2.528   5.384
   97MYC    C3818313   1.088   2.467   5.514
   97MYC    C3918314   1.130   2.546   5.639
   97MYC    C4018315   1.095   2.460   5.761
   97MYC    C4118316   1.122   2.537   5.892
   97MYC    C4218317   1.117   2.452   6.020
   97MYC    C4318318   1.138   2.521   6.155
   97MYC    C4418319   0.692   2.901   1.792
   97MYC    C4518320   0.632   3.027   1.856
   97MYC    C4618321   0.676   3.056   2.000
   97MYC    C4718322   0.641   3.196   2.052
   97MYC    C4818323   0.688   3.221   2.196
   97MYC    C4918324   0.595   3.163   2.303
   97MYC    C5018325   0.627   3.198   2.450
   97MYC    C5118326   0.532   3.152   2.561
   97MYC    C5218327   0.586   3.196   2.697
   97MYC    C5318328   0.564   3.091   2.808
   97MYC    C5418329   0.620   3.123   2.947
   97MYC    C5518330   0.602   3.019   3.059
   97MYC    C5618331   0.654   3.070   3.195
   97MYC    C5718332   0.632   2.984   3.320
   97MYC    C5818333   0.676   3.050   3.450
   97MYC    C5918334   0.793   2.992   3.526
   97MYC    C6018335   0.653   2.981   3.582
   97MYC    C6118336   0.597   3.056   3.702
   97MYC    C6218337   0.592   2.970   3.830
   97MYC    C6318338   0.518   3.048   3.940
   97MYC    C6418339   0.502   2.977   4.076
   97MYC    C6518340   0.489   3.073   4.195
   97MYC    C6618341   0.441   3.000   4.322
   97MYC    C6718342   0.430   3.094   4.443
   97MYC    C6818343   0.479   3.024   4.571
   97MYC    C6918344   0.481   3.119   4.692
   97MYC    C7018345   0.589   3.055   4.781
   97MYC    C7118346   0.575   3.096   4.928
   97MYC    C7218347   0.654   3.015   5.032
   97MYC    C7318348   0.598   3.047   5.171
   97MYC    C7418349   0.691   2.994   5.282
   97MYC    C7518350   0.630   2.989   5.422
   97MYC    C7618351   0.739   2.989   5.531
   97MYC    C7718352   0.673   2.982   5.670
   97MYC    C7818353   0.758   3.016   5.794
   97MYC    C7918354   0.690   2.977   5.925
   97MYC    C8018355   0.773   3.019   6.048
   97MYC    C8118356   1.171   2.506   2.984
   97MYC    O8218357   1.096   2.413   2.958
   97MYC    O8318358   1.293   2.519   2.930
   97MYC     H118359   1.231   2.680   3.091
   97MYC     H218360   1.031   2.804   3.095
   97MYC     H318361   0.843   2.754   3.011
   97MYC     H418362   1.020   2.888   2.883
   97MYC     H518363   1.172   2.804   2.893
   97MYC     H618364   0.969   2.620   2.791
   97MYC     H718365   0.952   2.777   2.705
   97MYC     H818366   1.225   2.726   2.695
   97MYC     H918367   1.161   2.568   2.724
   97MYC   0H1018368   0.548   3.295   2.724
   97MYC   1H1018369   0.456   3.084   2.823
   97MYC   2H1018370   0.590   2.988   2.778
   97MYC   3H1018371   0.726   3.146   2.933
   97MYC   4H1018372   0.579   3.223   2.967
   97MYC   5H1018373   0.496   2.992   3.066
   97MYC   6H1018374   0.652   2.928   3.026
   97MYC   7H1018375   0.761   3.091   3.181
   97MYC   8H1018376   0.604   3.166   3.211
   97MYC   9H1018377   0.527   2.953   3.324
   97MYC    H1018378   1.005   2.620   2.505
   97MYC   0H1118379   0.670   2.882   3.306
   97MYC   1H1118380   0.681   3.158   3.451
   97MYC   2H1118381   0.838   2.900   3.490
   97MYC   3H1118382   0.856   3.071   3.566
   97MYC   4H1118383   0.612   2.881   3.570
   97MYC   5H1118384   0.640   3.156   3.706
   97MYC   6H1118385   0.490   3.069   3.682
   97MYC   7H1118386   0.528   2.885   3.803
   97MYC   8H1118387   0.686   2.928   3.866
   97MYC   9H1118388   0.561   3.148   3.947
   97MYC    H1118389   1.107   2.760   2.479
   97MYC   0H1218390   0.416   3.058   3.900
   97MYC   1H1218391   0.415   2.911   4.072
   97MYC   2H1218392   0.592   2.916   4.085
   97MYC   3H1218393   0.587   3.123   4.197
   97MYC   4H1218394   0.417   3.146   4.157
   97MYC   5H1218395   0.338   2.965   4.309
   97MYC   6H1218396   0.499   2.909   4.342
   97MYC   7H1218397   0.484   3.188   4.427
   97MYC   8H1218398   0.325   3.117   4.465
   97MYC   9H1218399   0.420   2.936   4.598
   97MYC    H1218400   1.306   2.606   2.486
   97MYC   0H1318401   0.579   2.988   4.544
   97MYC   1H1318402   0.505   3.224   4.672
   97MYC   2H1318403   0.383   3.119   4.741
   97MYC   3H1318404   0.580   2.946   4.782
   97MYC   4H1318405   0.687   3.076   4.735
   97MYC   5H1318406   0.624   3.194   4.935
   97MYC   6H1318407   0.469   3.095   4.958
   97MYC   7H1318408   0.645   2.907   5.013
   97MYC   8H1318409   0.762   3.036   5.022
   97MYC   9H1318410   0.595   3.156   5.182
   97MYC    H1318411   1.208   2.468   2.478
   97MYC   0H1418412   0.498   3.002   5.181
   97MYC   1H1418413   0.726   2.893   5.255
   97MYC   2H1418414   0.789   3.044   5.287
   97MYC   3H1418415   0.567   3.076   5.445
   97MYC   4H1418416   0.565   2.900   5.430
   97MYC   5H1418417   0.803   2.903   5.513
   97MYC   6H1418418   0.799   3.081   5.531
   97MYC   7H1418419   0.593   3.056   5.665
   97MYC   8H1418420   0.628   2.883   5.683
   97MYC   9H1418421   0.854   2.964   5.782
   97MYC    H1418422   1.080   2.537   2.282
   97MYC   0H1518423   0.794   3.120   5.798
   97MYC   1H1518424   0.589   3.015   5.948
   97MYC   2H1518425   0.672   2.868   5.923
   97MYC   3H1518426   0.774   3.128   6.049
   97MYC   4H1518427   0.874   2.982   6.027
   97MYC   5H1518428   0.733   2.981   6.143
   97MYC   6H1518429   1.312   2.439   2.878
   97MYC    H1518430   1.177   2.681   2.264
   97MYC    H1618431   1.374   2.486   2.274
   97MYC    H1718432   1.239   2.390   2.218
   97MYC    H1818433   1.336   2.633   2.071
   97MYC    H1918434   1.358   2.462   2.016
   97MYC    H2018435   1.108   2.432   1.999
   97MYC    H2118436   1.094   2.599   2.052
   97MYC    H2218437   1.246   2.666   1.850
   97MYC    H2318438   1.236   2.504   1.805
   97MYC    H2418439   0.991   2.497   1.778
   97MYC    H2518440   0.984   2.665   1.830
   97MYC    H2618441   1.166   2.637   1.610
   97MYC    H2718442   0.995   2.597   1.568
   97MYC    H2818443   1.103   2.860   1.701
   97MYC    H2918444   1.071   2.840   1.527
   97MYC    H3018445   0.831   2.760   1.584
   97MYC    H3118446   0.910   2.945   1.816
   97MYC    H3218447   0.758   2.999   1.558
   97MYC    H3318448   0.932   3.055   1.584
   97MYC    H3418449   1.028   2.498   3.220
   97MYC    H3518450   1.199   2.491   3.232
   97MYC    H3618451   1.227   2.680   3.353
   97MYC    H3718452   1.065   2.748   3.319
   97MYC    H3818453   0.958   2.611   3.471
   97MYC    H3918454   1.070   2.485   3.470
   97MYC    H4018455   1.239   2.627   3.595
   97MYC    H4118456   1.115   2.756   3.602
   97MYC    H4218457   0.967   2.592   3.720
   97MYC    H4318458   1.095   2.474   3.710
   97MYC    H4418459   1.244   2.604   3.847
   97MYC    H4518460   1.121   2.741   3.851
   97MYC    H4618461   0.973   2.624   3.988
   97MYC    H4718462   1.066   2.467   3.966
   97MYC    H4818463   1.248   2.592   4.102
   97MYC    H4918464   1.123   2.709   4.138
   97MYC    H5018465   0.972   2.511   4.227
   97MYC    H5118466   1.122   2.413   4.214
   97MYC    H5218467   1.248   2.560   4.358
   97MYC    H5318468   1.116   2.671   4.380
   97MYC    H5418469   0.974   2.506   4.483
   97MYC    H5518470   1.104   2.389   4.471
   97MYC    H5618471   1.251   2.514   4.614
   97MYC    H5718472   1.144   2.650   4.630
   97MYC    H5818473   0.988   2.529   4.755
   97MYC    H5918474   1.055   2.376   4.738
   97MYC    H6018475   1.266   2.447   4.869
   97MYC    H6118476   1.193   2.608   4.889
   97MYC    H6218477   0.994   2.498   4.998
   97MYC    H6318478   1.079   2.348   5.010
   97MYC    H6418479   1.255   2.449   5.150
   97MYC    H6518480   1.186   2.610   5.118
   97MYC    H6618481   0.978   2.520   5.244
   97MYC    H6718482   1.064   2.368   5.273
   97MYC    H6818483   1.252   2.514   5.383
   97MYC    H6918484   1.130   2.637   5.391
   97MYC    H7018485   0.979   2.467   5.502
   97MYC    H7118486   1.124   2.364   5.524
   97MYC    H7218487   1.237   2.571   5.636
   97MYC    H7318488   1.077   2.640   5.653
   97MYC    H7418489   0.989   2.433   5.769
   97MYC    H7518490   1.150   2.365   5.765
   97MYC    H7618491   1.222   2.580   5.881
   97MYC    H7718492   1.055   2.622   5.908
   97MYC    H7818493   1.016   2.408   6.027
   97MYC    H7918494   1.186   2.367   6.008
   97MYC    H8018495   1.127   2.456   6.243
   97MYC    H8118496   1.064   2.599   6.176
   97MYC    H8218497   1.243   2.553   6.151
   97MYC    H8318498   0.619   2.869   1.717
   97MYC    H8418499   0.697   2.818   1.863
   97MYC    H8518500   0.663   3.107   1.787
   97MYC    H8618501   0.523   3.034   1.868
   97MYC    H8718502   0.624   2.984   2.065
   97MYC    H8818503   0.785   3.050   2.010
   97MYC    H8918504   0.693   3.269   1.989
   97MYC    H9018505   0.533   3.210   2.035
   97MYC    H9118506   0.781   3.168   2.220
   97MYC    H9218507   0.702   3.328   2.215
   97MYC    H9318508   0.490   3.188   2.285
   97MYC    H9418509   0.601   3.053   2.308
   97MYC    H9518510   0.721   3.144   2.470
   97MYC    H9618511   0.641   3.307   2.454
   97MYC    H9718512   0.436   3.197   2.533
   97MYC    H9818513   0.514   3.043   2.563
   97MYC    H9918514   0.694   3.194   2.678
   98MYC     C118515   1.077   3.454   3.286
   98MYC     C218516   0.988   3.481   3.164
   98MYC     O318517   0.949   3.359   3.101
   98MYC     C418518   1.055   3.571   3.059
   98MYC     C518519   0.995   3.575   2.917
   98MYC     C618520   1.037   3.470   2.812
   98MYC     C718521   0.920   3.436   2.718
   98MYC     C818522   0.959   3.344   2.602
   98MYC     C918523   1.056   3.404   2.500
   98MYC    C1018524   1.081   3.295   2.395
   98MYC    C1118525   1.168   3.344   2.278
   98MYC    C1218526   1.092   3.439   2.184
   98MYC    C1318527   1.038   3.365   2.060
   98MYC    C1418528   0.953   3.451   1.966
   98MYC    C1518529   0.967   3.407   1.819
   98MYC    C1618530   0.911   3.509   1.718
   98MYC    C1718531   0.760   3.521   1.709
   98MYC    C1818532   0.683   3.629   1.781
   98MYC    C1918533   0.689   3.628   1.630
   98MYC    C2018534   1.008   3.382   3.402
   98MYC    C2118535   0.966   3.481   3.512
   98MYC    C2218536   0.942   3.411   3.648
   98MYC    C2318537   0.922   3.509   3.765
   98MYC    C2418538   0.942   3.438   3.899
   98MYC    C2518539   0.896   3.522   4.019
   98MYC    C2618540   0.907   3.454   4.157
   98MYC    C2718541   0.895   3.550   4.276
   98MYC    C2818542   0.890   3.472   4.409
   98MYC    C2918543   0.870   3.558   4.535
   98MYC    C3018544   0.887   3.489   4.672
   98MYC    C3118545   0.839   3.576   4.790
   98MYC    C3218546   0.883   3.519   4.926
   98MYC    C3318547   0.835   3.610   5.040
   98MYC    C3418548   0.852   3.539   5.175
   98MYC    C3518549   0.849   3.632   5.298
   98MYC    C3618550   0.881   3.561   5.430
   98MYC    C3718551   0.890   3.660   5.547
   98MYC    C3818552   0.923   3.592   5.681
   98MYC    C3918553   0.928   3.690   5.800
   98MYC    C4018554   0.996   3.644   5.930
   98MYC    C4118555   0.937   3.698   6.062
   98MYC    C4218556   1.006   3.627   6.180
   98MYC    C4318557   0.917   3.597   6.302
   98MYC    C4418558   0.544   3.610   1.838
   98MYC    C4518559   0.514   3.682   1.971
   98MYC    C4618560   0.601   3.645   2.092
   98MYC    C4718561   0.541   3.709   2.218
   98MYC    C4818562   0.603   3.659   2.349
   98MYC    C4918563   0.565   3.734   2.478
   98MYC    C5018564   0.634   3.674   2.602
   98MYC    C5118565   0.563   3.718   2.731
   98MYC    C5218566   0.629   3.660   2.858
   98MYC    C5318567   0.556   3.697   2.988
   98MYC    C5418568   0.613   3.624   3.110
   98MYC    C5518569   0.522   3.632   3.234
   98MYC    C5618570   0.570   3.587   3.373
   98MYC    C5718571   0.487   3.653   3.485
   98MYC    C5818572   0.524   3.594   3.620
   98MYC    C5918573   0.508   3.449   3.658
   98MYC    C6018574   0.405   3.550   3.701
   98MYC    C6118575   0.392   3.596   3.846
   98MYC    C6218576   0.465   3.511   3.951
   98MYC    C6318577   0.424   3.568   4.088
   98MYC    C6418578   0.484   3.502   4.214
   98MYC    C6518579   0.419   3.571   4.335
   98MYC    C6618580   0.463   3.507   4.468
   98MYC    C6718581   0.368   3.540   4.585
   98MYC    C6818582   0.411   3.488   4.723
   98MYC    C6918583   0.364   3.567   4.846
   98MYC    C7018584   0.444   3.517   4.968
   98MYC    C7118585   0.399   3.599   5.091
   98MYC    C7218586   0.468   3.548   5.219
   98MYC    C7318587   0.414   3.623   5.341
   98MYC    C7418588   0.500   3.613   5.469
   98MYC    C7518589   0.422   3.662   5.592
   98MYC    C7618590   0.516   3.663   5.714
   98MYC    C7718591   0.449   3.734   5.833
   98MYC    C7818592   0.547   3.755   5.950
   98MYC    C7918593   0.467   3.812   6.069
   98MYC    C8018594   0.559   3.847   6.187
   98MYC    C8118595   1.210   3.392   3.245
   98MYC    O8218596   1.230   3.314   3.153
   98MYC    O8318597   1.314   3.420   3.326
   98MYC     H118598   1.112   3.551   3.323
   98MYC     H218599   0.895   3.529   3.198
   98MYC     H318600   0.946   3.380   3.006
   98MYC     H418601   1.072   3.673   3.094
   98MYC     H518602   1.160   3.541   3.054
   98MYC     H618603   0.887   3.563   2.933
   98MYC     H718604   1.006   3.675   2.874
   98MYC     H818605   1.123   3.507   2.754
   98MYC     H918606   1.066   3.376   2.859
   98MYC   0H1018607   0.735   3.685   2.866
   98MYC   1H1018608   0.543   3.804   3.007
   98MYC   2H1018609   0.459   3.650   2.968
   98MYC   3H1018610   0.638   3.520   3.086
   98MYC   4H1018611   0.708   3.677   3.128
   98MYC   5H1018612   0.491   3.737   3.246
   98MYC   6H1018613   0.436   3.573   3.200
   98MYC   7H1018614   0.556   3.478   3.379
   98MYC   8H1018615   0.676   3.609   3.390
   98MYC   9H1018616   0.520   3.758   3.487
   98MYC    H1018617   0.842   3.388   2.779
   98MYC   0H1118618   0.380   3.655   3.462
   98MYC   1H1118619   0.599   3.653   3.671
   98MYC   2H1118620   0.483   3.373   3.583
   98MYC   3H1118621   0.588   3.419   3.724
   98MYC   4H1118622   0.304   3.550   3.661
   98MYC   5H1118623   0.427   3.700   3.856
   98MYC   6H1118624   0.288   3.579   3.877
   98MYC   7H1118625   0.423   3.409   3.953
   98MYC   8H1118626   0.573   3.508   3.932
   98MYC   9H1118627   0.444   3.675   4.100
   98MYC    H1118628   0.880   3.533   2.687
   98MYC   0H1218629   0.314   3.564   4.089
   98MYC   1H1218630   0.444   3.401   4.204
   98MYC   2H1218631   0.593   3.506   4.210
   98MYC   3H1218632   0.446   3.677   4.340
   98MYC   4H1218633   0.309   3.565   4.328
   98MYC   5H1218634   0.461   3.398   4.457
   98MYC   6H1218635   0.569   3.522   4.489
   98MYC   7H1218636   0.368   3.650   4.587
   98MYC   8H1218637   0.265   3.514   4.561
   98MYC   9H1218638   0.390   3.381   4.734
   98MYC    H1218639   1.000   3.252   2.647
   98MYC   0H1318640   0.521   3.487   4.724
   98MYC   1H1318641   0.363   3.674   4.823
   98MYC   2H1318642   0.262   3.529   4.860
   98MYC   3H1318643   0.434   3.411   4.993
   98MYC   4H1318644   0.551   3.535   4.958
   98MYC   5H1318645   0.414   3.705   5.070
   98MYC   6H1318646   0.290   3.593   5.098
   98MYC   7H1318647   0.460   3.439   5.225
   98MYC   8H1318648   0.577   3.555   5.209
   98MYC   9H1318649   0.397   3.730   5.319
   98MYC    H1318650   0.870   3.312   2.546
   98MYC   0H1418651   0.315   3.579   5.356
   98MYC   1H1418652   0.516   3.506   5.488
   98MYC   2H1418653   0.596   3.664   5.460
   98MYC   3H1418654   0.378   3.762   5.583
   98MYC   4H1418655   0.335   3.604   5.623
   98MYC   5H1418656   0.532   3.557   5.738
   98MYC   6H1418657   0.617   3.704   5.702
   98MYC   7H1418658   0.419   3.834   5.801
   98MYC   8H1418659   0.356   3.686   5.866
   98MYC   9H1418660   0.593   3.660   5.977
   98MYC    H1418661   1.011   3.488   2.445
   98MYC   0H1518662   0.635   3.819   5.934
   98MYC   1H1518663   0.406   3.895   6.032
   98MYC   2H1518664   0.391   3.742   6.108
   98MYC   3H1518665   0.647   3.905   6.156
   98MYC   4H1518666   0.605   3.760   6.235
   98MYC   5H1518667   0.500   3.895   6.265
   98MYC   6H1518668   1.389   3.385   3.275
   98MYC    H1518669   1.150   3.432   2.550
   98MYC    H1618670   1.135   3.221   2.456
   98MYC    H1718671   0.985   3.256   2.359
   98MYC    H1818672   1.257   3.395   2.318
   98MYC    H1918673   1.212   3.265   2.217
   98MYC    H2018674   1.005   3.480   2.235
   98MYC    H2118675   1.163   3.515   2.147
   98MYC    H2218676   1.128   3.330   2.008
   98MYC    H2318677   0.986   3.275   2.096
   98MYC    H2418678   0.851   3.451   2.007
   98MYC    H2518679   0.998   3.551   1.974
   98MYC    H2618680   1.072   3.385   1.796
   98MYC    H2718681   0.922   3.310   1.795
   98MYC    H2818682   0.947   3.610   1.743
   98MYC    H2918683   0.945   3.496   1.615
   98MYC    H3018684   0.713   3.424   1.696
   98MYC    H3118685   0.734   3.719   1.816
   98MYC    H3218686   0.608   3.583   1.574
   98MYC    H3318687   0.755   3.700   1.583
   98MYC    H3418688   0.922   3.325   3.364
   98MYC    H3518689   1.071   3.307   3.451
   98MYC    H3618690   1.040   3.559   3.532
   98MYC    H3718691   0.871   3.532   3.489
   98MYC    H3818692   0.854   3.346   3.639
   98MYC    H3918693   1.020   3.338   3.671
   98MYC    H4018694   0.991   3.594   3.763
   98MYC    H4118695   0.820   3.550   3.765
   98MYC    H4218696   0.880   3.347   3.890
   98MYC    H4318697   1.045   3.401   3.905
   98MYC    H4418698   0.954   3.615   4.026
   98MYC    H4518699   0.792   3.553   4.000
   98MYC    H4618700   0.826   3.380   4.164
   98MYC    H4718701   1.005   3.406   4.164
   98MYC    H4818702   0.977   3.622   4.275
   98MYC    H4918703   0.794   3.592   4.268
   98MYC    H5018704   0.812   3.395   4.409
   98MYC    H5118705   0.981   3.412   4.422
   98MYC    H5218706   0.939   3.643   4.533
   98MYC    H5318707   0.775   3.613   4.535
   98MYC    H5418708   0.835   3.393   4.665
   98MYC    H5518709   0.993   3.468   4.689
   98MYC    H5618710   0.886   3.673   4.770
   98MYC    H5718711   0.730   3.582   4.795
   98MYC    H5818712   0.834   3.422   4.939
   98MYC    H5918713   0.991   3.498   4.928
   98MYC    H6018714   0.897   3.701   5.032
   98MYC    H6118715   0.731   3.645   5.033
   98MYC    H6218716   0.794   3.446   5.178
   98MYC    H6318717   0.956   3.506   5.177
   98MYC    H6418718   0.924   3.713   5.294
   98MYC    H6518719   0.752   3.682   5.307
   98MYC    H6618720   0.799   3.491   5.451
   98MYC    H6718721   0.974   3.501   5.429
   98MYC    H6818722   0.964   3.738   5.529
   98MYC    H6918723   0.793   3.711   5.547
   98MYC    H7018724   0.848   3.516   5.707
   98MYC    H7118725   1.018   3.543   5.655
   98MYC    H7218726   0.992   3.772   5.765
   98MYC    H7318727   0.825   3.720   5.826
   98MYC    H7418728   0.978   3.536   5.929
   98MYC    H7518729   1.104   3.664   5.930
   98MYC    H7618730   0.946   3.807   6.074
   98MYC    H7718731   0.830   3.677   6.071
   98MYC    H7818732   1.047   3.530   6.150
   98MYC    H7918733   1.092   3.684   6.217
   98MYC    H8018734   0.980   3.539   6.370
   98MYC    H8118735   0.826   3.542   6.272
   98MYC    H8218736   0.887   3.690   6.352
   98MYC    H8318737   0.474   3.642   1.759
   98MYC    H8418738   0.530   3.501   1.848
   98MYC    H8518739   0.516   3.789   1.950
   98MYC    H8618740   0.412   3.648   1.995
   98MYC    H8718741   0.609   3.536   2.091
   98MYC    H8818742   0.706   3.676   2.085
   98MYC    H8918743   0.565   3.816   2.213
   98MYC    H9018744   0.431   3.701   2.220
   98MYC    H9118745   0.572   3.555   2.362
   98MYC    H9218746   0.712   3.672   2.337
   98MYC    H9318747   0.585   3.841   2.468
   98MYC    H9418748   0.455   3.731   2.478
   98MYC    H9518749   0.648   3.565   2.600
   98MYC    H9618750   0.731   3.725   2.607
   98MYC    H9718751   0.563   3.828   2.740
   98MYC    H9818752   0.459   3.686   2.727
   98MYC    H9918753   0.637   3.550   2.857
   99MYC     C118754   0.692   4.725   3.399
   99MYC     C218755   0.720   4.596   3.320
   99MYC     O318756   0.851   4.603   3.264
   99MYC     C418757   0.626   4.568   3.202
   99MYC     C518758   0.635   4.424   3.148
   99MYC     C618759   0.717   4.405   3.019
   99MYC     C718760   0.665   4.471   2.891
   99MYC     C818761   0.727   4.426   2.757
   99MYC     C918762   0.642   4.440   2.630
   99MYC    C1018763   0.722   4.409   2.503
   99MYC    C1118764   0.668   4.473   2.374
   99MYC    C1218765   0.614   4.361   2.282
   99MYC    C1318766   0.578   4.415   2.143
   99MYC    C1418767   0.547   4.294   2.052
   99MYC    C1518768   0.481   4.327   1.917
   99MYC    C1618769   0.431   4.201   1.845
   99MYC    C1718770   0.553   4.122   1.800
   99MYC    C1818771   0.621   4.020   1.888
   99MYC    C1918772   0.548   3.976   1.763
   99MYC    C2018773   0.787   4.750   3.517
   99MYC    C2118774   0.777   4.636   3.619
   99MYC    C2218775   0.811   4.675   3.764
   99MYC    C2318776   0.793   4.553   3.856
   99MYC    C2418777   0.805   4.602   4.001
   99MYC    C2518778   0.799   4.498   4.114
   99MYC    C2618779   0.782   4.563   4.252
   99MYC    C2718780   0.804   4.479   4.379
   99MYC    C2818781   0.797   4.546   4.518
   99MYC    C2918782   0.840   4.456   4.635
   99MYC    C3018783   0.821   4.538   4.764
   99MYC    C3118784   0.894   4.476   4.884
   99MYC    C3218785   0.817   4.503   5.015
   99MYC    C3318786   0.883   4.443   5.140
   99MYC    C3418787   0.800   4.484   5.262
   99MYC    C3518788   0.870   4.442   5.392
   99MYC    C3618789   0.809   4.517   5.511
   99MYC    C3718790   0.907   4.528   5.629
   99MYC    C3818791   0.841   4.597   5.750
   99MYC    C3918792   0.946   4.620   5.860
   99MYC    C4018793   0.891   4.689   5.986
   99MYC    C4118794   1.001   4.746   6.076
   99MYC    C4218795   0.954   4.838   6.191
   99MYC    C4318796   1.064   4.906   6.274
   99MYC    C4418797   0.773   4.027   1.891
   99MYC    C4518798   0.841   3.957   2.010
   99MYC    C4618799   0.812   4.022   2.146
   99MYC    C4718800   0.897   3.957   2.256
   99MYC    C4818801   0.871   4.034   2.387
   99MYC    C4918802   0.931   3.968   2.512
   99MYC    C5018803   0.864   4.017   2.642
   99MYC    C5118804   0.911   3.945   2.770
   99MYC    C5218805   0.816   3.978   2.886
   99MYC    C5318806   0.862   3.925   3.023
   99MYC    C5418807   0.781   3.993   3.134
   99MYC    C5518808   0.806   3.937   3.275
   99MYC    C5618809   0.746   4.034   3.377
   99MYC    C5718810   0.772   3.999   3.525
   99MYC    C5818811   0.709   4.103   3.616
   99MYC    C5918812   0.785   4.218   3.677
   99MYC    C6018813   0.767   4.090   3.755
   99MYC    C6118814   0.668   4.080   3.869
   99MYC    C6218815   0.731   4.082   4.009
   99MYC    C6318816   0.627   4.083   4.122
   99MYC    C6418817   0.698   4.093   4.258
   99MYC    C6518818   0.614   4.043   4.377
   99MYC    C6618819   0.701   4.052   4.504
   99MYC    C6718820   0.620   4.008   4.627
   99MYC    C6818821   0.717   3.988   4.744
   99MYC    C6918822   0.630   3.951   4.865
   99MYC    C7018823   0.700   3.949   5.002
   99MYC    C7118824   0.602   3.950   5.121
   99MYC    C7218825   0.664   4.010   5.248
   99MYC    C7318826   0.567   4.015   5.367
   99MYC    C7418827   0.637   4.062   5.496
   99MYC    C7518828   0.542   4.110   5.607
   99MYC    C7618829   0.630   4.182   5.710
   99MYC    C7718830   0.717   4.088   5.795
   99MYC    C7818831   0.818   4.159   5.886
   99MYC    C7918832   0.749   4.211   6.013
   99MYC    C8018833   0.836   4.287   6.115
   99MYC    C8118834   0.697   4.848   3.308
   99MYC    O8218835   0.758   4.872   3.206
   99MYC    O8318836   0.599   4.937   3.335
   99MYC     H118837   0.590   4.723   3.440
   99MYC     H218838   0.715   4.511   3.390
   99MYC     H318839   0.845   4.600   3.167
   99MYC     H418840   0.523   4.583   3.235
   99MYC     H518841   0.653   4.639   3.123
   99MYC     H618842   0.675   4.359   3.226
   99MYC     H718843   0.531   4.392   3.131
   99MYC     H818844   0.826   4.411   3.033
   99MYC     H918845   0.704   4.299   2.995
   99MYC   0H1018846   0.714   3.948   2.860
   99MYC   1H1018847   0.856   3.815   3.022
   99MYC   2H1018848   0.970   3.945   3.033
   99MYC   3H1018849   0.799   4.102   3.132
   99MYC   4H1018850   0.674   3.982   3.112
   99MYC   5H1018851   0.756   3.841   3.293
   99MYC   6H1018852   0.913   3.923   3.296
   99MYC   7H1018853   0.793   4.129   3.346
   99MYC   8H1018854   0.638   4.041   3.361
   99MYC   9H1018855   0.738   3.896   3.533
   99MYC    H1018856   0.560   4.440   2.893
   99MYC   0H1118857   0.881   3.998   3.537
   99MYC   1H1118858   0.601   4.116   3.606
   99MYC   2H1118859   0.880   4.251   3.633
   99MYC   3H1118860   0.726   4.305   3.705
   99MYC   4H1118861   0.852   4.025   3.772
   99MYC   5H1118862   0.601   4.167   3.864
   99MYC   6H1118863   0.618   3.984   3.853
   99MYC   7H1118864   0.789   3.989   4.019
   99MYC   8H1118865   0.807   4.160   4.017
   99MYC   9H1118866   0.560   4.170   4.121
   99MYC    H1118867   0.668   4.581   2.896
   99MYC   0H1218868   0.571   3.990   4.112
   99MYC   1H1218869   0.782   4.022   4.257
   99MYC   2H1218870   0.734   4.196   4.267
   99MYC   3H1218871   0.524   4.106   4.382
   99MYC   4H1218872   0.585   3.939   4.359
   99MYC   5H1218873   0.788   3.986   4.493
   99MYC   6H1218874   0.738   4.154   4.520
   99MYC   7H1218875   0.549   4.087   4.654
   99MYC   8H1218876   0.562   3.919   4.601
   99MYC   9H1218877   0.796   3.913   4.729
   99MYC    H1218878   0.819   4.485   2.746
   99MYC   0H1318879   0.759   4.089   4.756
   99MYC   1H1318880   0.542   4.017   4.870
   99MYC   2H1318881   0.588   3.852   4.843
   99MYC   3H1318882   0.762   3.859   5.002
   99MYC   4H1318883   0.767   4.035   5.012
   99MYC   5H1318884   0.521   4.022   5.103
   99MYC   6H1318885   0.558   3.850   5.120
   99MYC   7H1318886   0.743   3.938   5.270
   99MYC   8H1318887   0.708   4.108   5.227
   99MYC   9H1318888   0.478   4.073   5.341
   99MYC    H1318889   0.769   4.326   2.770
   99MYC   0H1418890   0.525   3.915   5.382
   99MYC   1H1418891   0.704   3.980   5.526
   99MYC   2H1418892   0.693   4.150   5.460
   99MYC   3H1418893   0.463   4.179   5.576
   99MYC   4H1418894   0.491   4.024   5.653
   99MYC   5H1418895   0.704   4.251   5.668
   99MYC   6H1418896   0.569   4.242   5.778
   99MYC   7H1418897   0.658   4.024   5.861
   99MYC   8H1418898   0.775   4.012   5.740
   99MYC   9H1418899   0.900   4.090   5.911
   99MYC    H1418900   0.556   4.372   2.636
   99MYC   0H1518901   0.870   4.241   5.836
   99MYC   1H1518902   0.660   4.272   5.994
   99MYC   2H1518903   0.719   4.123   6.071
   99MYC   3H1518904   0.858   4.386   6.075
   99MYC   4H1518905   0.926   4.227   6.136
   99MYC   5H1518906   0.783   4.309   6.209
   99MYC   6H1518907   0.598   5.001   3.263
   99MYC    H1518908   0.597   4.540   2.627
   99MYC    H1618909   0.824   4.449   2.513
   99MYC    H1718910   0.740   4.301   2.487
   99MYC    H1818911   0.597   4.551   2.403
   99MYC    H1918912   0.756   4.513   2.322
   99MYC    H2018913   0.689   4.281   2.276
   99MYC    H2118914   0.529   4.319   2.337
   99MYC    H2218915   0.492   4.483   2.141
   99MYC    H2318916   0.651   4.477   2.091
   99MYC    H2418917   0.646   4.247   2.039
   99MYC    H2518918   0.479   4.224   2.101
   99MYC    H2618919   0.390   4.386   1.937
   99MYC    H2718920   0.545   4.390   1.854
   99MYC    H2818921   0.365   4.135   1.904
   99MYC    H2918922   0.367   4.230   1.760
   99MYC    H3018923   0.616   4.182   1.734
   99MYC    H3118924   0.580   4.001   1.987
   99MYC    H3218925   0.603   3.933   1.680
   99MYC    H3318926   0.459   3.917   1.784
   99MYC    H3418927   0.893   4.755   3.488
   99MYC    H3518928   0.766   4.849   3.560
   99MYC    H3618929   0.679   4.587   3.625
   99MYC    H3718930   0.841   4.551   3.590
   99MYC    H3818931   0.915   4.708   3.770
   99MYC    H3918932   0.745   4.757   3.795
   99MYC    H4018933   0.696   4.503   3.850
   99MYC    H4118934   0.871   4.476   3.844
   99MYC    H4218935   0.894   4.665   4.011
   99MYC    H4318936   0.726   4.674   4.023
   99MYC    H4418937   0.714   4.434   4.090
   99MYC    H4518938   0.887   4.432   4.116
   99MYC    H4618939   0.852   4.647   4.262
   99MYC    H4718940   0.681   4.605   4.261
   99MYC    H4818941   0.731   4.398   4.368
   99MYC    H4918942   0.903   4.433   4.373
   99MYC    H5018943   0.864   4.633   4.515
   99MYC    H5118944   0.696   4.583   4.536
   99MYC    H5218945   0.772   4.370   4.634
   99MYC    H5318946   0.942   4.417   4.626
   99MYC    H5418947   0.842   4.645   4.757
   99MYC    H5518948   0.715   4.548   4.787
   99MYC    H5618949   0.888   4.366   4.876
   99MYC    H5718950   0.996   4.515   4.895
   99MYC    H5818951   0.803   4.610   5.035
   99MYC    H5918952   0.713   4.470   5.011
   99MYC    H6018953   0.886   4.333   5.132
   99MYC    H6118954   0.988   4.473   5.154
   99MYC    H6218955   0.793   4.594   5.262
   99MYC    H6318956   0.694   4.455   5.263
   99MYC    H6418957   0.854   4.334   5.403
   99MYC    H6518958   0.976   4.471   5.389
   99MYC    H6618959   0.770   4.615   5.483
   99MYC    H6718960   0.728   4.451   5.544
   99MYC    H6818961   0.943   4.426   5.648
   99MYC    H6918962   0.993   4.592   5.606
   99MYC    H7018963   0.800   4.695   5.721
   99MYC    H7118964   0.760   4.534   5.789
   99MYC    H7218965   0.998   4.530   5.896
   99MYC    H7318966   1.028   4.685   5.827
   99MYC    H7418967   0.828   4.776   5.965
   99MYC    H7518968   0.830   4.625   6.052
   99MYC    H7618969   1.064   4.669   6.123
   99MYC    H7718970   1.059   4.802   6.002
   99MYC    H7818971   0.896   4.917   6.142
   99MYC    H7918972   0.886   4.781   6.255
   99MYC    H8018973   1.044   5.006   6.316
   99MYC    H8118974   1.151   4.905   6.207
   99MYC    H8218975   1.083   4.843   6.361
   99MYC    H8318976   0.815   3.993   1.796
   99MYC    H8418977   0.808   4.131   1.887
   99MYC    H8518978   0.810   3.852   2.012
   99MYC    H8618979   0.947   3.961   1.982
   99MYC    H8718980   0.841   4.126   2.131
   99MYC    H8818981   0.706   4.026   2.175
   99MYC    H8918982   0.871   3.851   2.268
   99MYC    H9018983   1.002   3.972   2.228
   99MYC    H9118984   0.909   4.136   2.379
   99MYC    H9218985   0.765   4.058   2.404
   99MYC    H9318986   0.921   3.859   2.505
   99MYC    H9418987   1.037   3.996   2.518
   99MYC    H9518988   0.876   4.125   2.659
   99MYC    H9618989   0.758   4.006   2.618
   99MYC    H9718990   0.912   3.837   2.752
   99MYC    H9818991   1.018   3.964   2.782
   99MYC    H9918992   0.815   4.087   2.892
  100MYC     C118993   0.766   5.399   3.176
  100MYC     C218994   0.736   5.275   3.090
  100MYC     O318995   0.855   5.197   3.076
  100MYC     C418996   0.682   5.303   2.948
  100MYC     C518997   0.655   5.176   2.865
  100MYC     C618998   0.747   5.156   2.743
  100MYC     C718999   0.714   5.245   2.622
  100MYC     C819000   0.769   5.194   2.487
  100MYC     C919001   0.730   5.287   2.371
  100MYC    C1019002   0.833   5.281   2.258
  100MYC    C1119003   0.818   5.386   2.147
  100MYC    C1219004   0.716   5.347   2.040
  100MYC    C1319005   0.733   5.424   1.908
  100MYC    C1419006   0.641   5.366   1.799
  100MYC    C1519007   0.685   5.375   1.652
  100MYC    C1619008   0.585   5.320   1.549
  100MYC    C1719009   0.584   5.168   1.545
  100MYC    C1819010   0.489   5.091   1.633
  100MYC    C1919011   0.471   5.090   1.483
  100MYC    C2019012   0.825   5.368   3.314
  100MYC    C2119013   0.722   5.318   3.417
  100MYC    C2219014   0.797   5.287   3.548
  100MYC    C2319015   0.706   5.316   3.668
  100MYC    C2419016   0.762   5.271   3.804
  100MYC    C2519017   0.676   5.331   3.915
  100MYC    C2619018   0.733   5.287   4.051
  100MYC    C2719019   0.657   5.341   4.173
  100MYC    C2819020   0.731   5.313   4.306
  100MYC    C2919021   0.666   5.379   4.428
  100MYC    C3019022   0.755   5.359   4.552
  100MYC    C3119023   0.695   5.421   4.679
  100MYC    C3219024   0.784   5.409   4.803
  100MYC    C3319025   0.723   5.462   4.934
  100MYC    C3419026   0.806   5.424   5.058
  100MYC    C3519027   0.738   5.452   5.193
  100MYC    C3619028   0.840   5.458   5.308
  100MYC    C3719029   0.783   5.461   5.451
  100MYC    C3819030   0.895   5.515   5.541
  100MYC    C3919031   0.874   5.483   5.690
  100MYC    C4019032   0.987   5.519   5.788
  100MYC    C4119033   0.944   5.486   5.932
  100MYC    C4219034   1.050   5.533   6.033
  100MYC    C4319035   1.007   5.525   6.181
  100MYC    C4419036   0.540   4.968   1.706
  100MYC    C4519037   0.443   4.929   1.820
  100MYC    C4619038   0.456   5.016   1.947
  100MYC    C4719039   0.375   4.959   2.064
  100MYC    C4819040   0.410   5.025   2.199
  100MYC    C4919041   0.324   4.976   2.317
  100MYC    C5019042   0.375   5.037   2.449
  100MYC    C5119043   0.311   4.960   2.566
  100MYC    C5219044   0.347   5.016   2.705
  100MYC    C5319045   0.260   4.965   2.821
  100MYC    C5419046   0.289   5.018   2.962
  100MYC    C5519047   0.182   4.979   3.065
  100MYC    C5619048   0.198   5.047   3.201
  100MYC    C5719049   0.126   4.971   3.314
  100MYC    C5819050   0.138   5.044   3.447
  100MYC    C5919051   0.273   5.070   3.510
  100MYC    C6019052   0.173   4.980   3.579
  100MYC    C6119053   0.109   5.027   3.709
  100MYC    C6219054   0.201   4.994   3.827
  100MYC    C6319055   0.145   5.040   3.963
  100MYC    C6419056   0.247   5.020   4.076
  100MYC    C6519057   0.190   5.073   4.209
  100MYC    C6619058   0.276   5.011   4.321
  100MYC    C6719059   0.229   5.067   4.456
  100MYC    C6819060   0.285   4.978   4.568
  100MYC    C6919061   0.248   5.033   4.707
  100MYC    C7019062   0.289   4.943   4.825
  100MYC    C7119063   0.241   4.996   4.961
  100MYC    C7219064   0.292   4.910   5.078
  100MYC    C7319065   0.233   4.958   5.212
  100MYC    C7419066   0.313   4.907   5.333
  100MYC    C7519067   0.243   4.945   5.464
  100MYC    C7619068   0.319   4.881   5.581
  100MYC    C7719069   0.270   4.947   5.712
  100MYC    C7819070   0.313   4.877   5.842
  100MYC    C7919071   0.265   4.945   5.971
  100MYC    C8019072   0.303   4.861   6.094
  100MYC    C8119073   0.846   5.510   3.110
  100MYC    O8219074   0.961   5.543   3.135
  100MYC    O8319075   0.773   5.589   3.029
  100MYC     H119076   0.673   5.453   3.198
  100MYC     H219077   0.672   5.208   3.148
  100MYC     H319078   0.823   5.119   3.027
  100MYC     H419079   0.590   5.362   2.954
  100MYC     H519080   0.748   5.373   2.896
  100MYC     H619081   0.658   5.091   2.935
  100MYC     H719082   0.550   5.179   2.836
  100MYC     H819083   0.853   5.162   2.772
  100MYC     H919084   0.734   5.056   2.701
  100MYC   0H1019085   0.347   5.126   2.698
  100MYC   1H1019086   0.156   4.984   2.790
  100MYC   2H1019087   0.271   4.856   2.816
  100MYC   3H1019088   0.388   4.986   2.998
  100MYC   4H1019089   0.298   5.127   2.956
  100MYC   5H1019090   0.078   4.995   3.034
  100MYC   6H1019091   0.206   4.873   3.077
  100MYC   7H1019092   0.303   5.060   3.231
  100MYC   8H1019093   0.165   5.152   3.197
  100MYC   9H1019094   0.019   4.962   3.295
  100MYC    H1019095   0.605   5.256   2.614
  100MYC   0H1119096   0.163   4.869   3.331
  100MYC   1H1119097   0.059   5.119   3.456
  100MYC   2H1119098   0.361   5.024   3.465
  100MYC   3H1119099   0.277   5.168   3.557
  100MYC   4H1119100   0.208   4.877   3.577
  100MYC   5H1119101   0.087   5.133   3.691
  100MYC   6H1119102   0.012   4.981   3.732
  100MYC   7H1119103   0.226   4.887   3.829
  100MYC   8H1119104   0.295   5.046   3.806
  100MYC   9H1119105   0.112   5.144   3.955
  100MYC    H1119106   0.736   5.351   2.636
  100MYC   0H1219107   0.051   4.991   3.993
  100MYC   1H1219108   0.273   4.913   4.080
  100MYC   2H1219109   0.337   5.083   4.071
  100MYC   3H1219110   0.197   5.182   4.203
  100MYC   4H1219111   0.085   5.046   4.223
  100MYC   5H1219112   0.268   4.902   4.321
  100MYC   6H1219113   0.382   5.027   4.300
  100MYC   7H1219114   0.264   5.169   4.478
  100MYC   8H1219115   0.120   5.076   4.464
  100MYC   9H1219116   0.251   4.874   4.562
  100MYC    H1219117   0.878   5.190   2.502
  100MYC   0H1319118   0.394   4.981   4.557
  100MYC   1H1319119   0.288   5.135   4.714
  100MYC   2H1319120   0.139   5.047   4.708
  100MYC   3H1319121   0.252   4.840   4.814
  100MYC   4H1319122   0.398   4.928   4.833
  100MYC   5H1319123   0.289   5.094   4.978
  100MYC   6H1319124   0.133   5.010   4.969
  100MYC   7H1319125   0.254   4.810   5.052
  100MYC   8H1319126   0.401   4.915   5.079
  100MYC   9H1319127   0.226   5.067   5.214
  100MYC    H1319128   0.735   5.091   2.471
  100MYC   0H1419129   0.128   4.926   5.216
  100MYC   1H1419130   0.314   4.797   5.326
  100MYC   2H1419131   0.416   4.943   5.339
  100MYC   3H1419132   0.251   5.054   5.467
  100MYC   4H1419133   0.142   4.902   5.460
  100MYC   5H1419134   0.303   4.774   5.569
  100MYC   6H1419135   0.421   4.913   5.558
  100MYC   7H1419136   0.310   5.049   5.713
  100MYC   8H1419137   0.161   4.954   5.704
  100MYC   9H1419138   0.275   4.774   5.842
  100MYC    H1419139   0.638   5.251   2.324
  100MYC   0H1519140   0.423   4.872   5.838
  100MYC   1H1519141   0.295   5.050   5.985
  100MYC   2H1519142   0.155   4.943   5.974
  100MYC   3H1519143   0.412   4.860   6.108
  100MYC   4H1519144   0.257   4.761   6.101
  100MYC   5H1519145   0.267   4.914   6.182
  100MYC   6H1519146   0.828   5.669   3.017
  100MYC    H1519147   0.711   5.389   2.409
  100MYC    H1619148   0.927   5.313   2.304
  100MYC    H1719149   0.840   5.180   2.214
  100MYC    H1819150   0.783   5.484   2.182
  100MYC    H1919151   0.919   5.395   2.106
  100MYC    H2019152   0.711   5.242   2.009
  100MYC    H2119153   0.624   5.378   2.091
  100MYC    H2219154   0.727   5.532   1.923
  100MYC    H2319155   0.839   5.421   1.880
  100MYC    H2419156   0.617   5.264   1.830
  100MYC    H2519157   0.540   5.409   1.811
  100MYC    H2619158   0.701   5.480   1.623
  100MYC    H2719159   0.776   5.316   1.637
  100MYC    H2819160   0.488   5.358   1.581
  100MYC    H2919161   0.613   5.365   1.453
  100MYC    H3019162   0.680   5.119   1.529
  100MYC    H3119163   0.413   5.142   1.691
  100MYC    H3219164   0.500   4.999   1.430
  100MYC    H3319165   0.386   5.145   1.443
  100MYC    H3419166   0.907   5.295   3.306
  100MYC    H3519167   0.868   5.462   3.349
  100MYC    H3619168   0.651   5.400   3.430
  100MYC    H3719169   0.673   5.226   3.382
  100MYC    H3819170   0.820   5.180   3.556
  100MYC    H3919171   0.890   5.343   3.558
  100MYC    H4019172   0.678   5.422   3.663
  100MYC    H4119173   0.616   5.256   3.649
  100MYC    H4219174   0.760   5.161   3.811
  100MYC    H4319175   0.866   5.304   3.813
  100MYC    H4419176   0.673   5.441   3.914
  100MYC    H4519177   0.571   5.299   3.913
  100MYC    H4619178   0.731   5.178   4.067
  100MYC    H4719179   0.838   5.317   4.060
  100MYC    H4819180   0.662   5.450   4.164
  100MYC    H4919181   0.553   5.306   4.172
  100MYC    H5019182   0.734   5.204   4.321
  100MYC    H5119183   0.839   5.331   4.299
  100MYC    H5219184   0.642   5.486   4.430
  100MYC    H5319185   0.571   5.327   4.449
  100MYC    H5419186   0.777   5.255   4.578
  100MYC    H5519187   0.851   5.410   4.534
  100MYC    H5619188   0.670   5.527   4.670
  100MYC    H5719189   0.606   5.360   4.699
  100MYC    H5819190   0.808   5.302   4.811
  100MYC    H5919191   0.881   5.458   4.786
  100MYC    H6019192   0.730   5.571   4.927
  100MYC    H6119193   0.618   5.431   4.944
  100MYC    H6219194   0.837   5.319   5.046
  100MYC    H6319195   0.902   5.476   5.049
  100MYC    H6419196   0.679   5.544   5.196
  100MYC    H6519197   0.678   5.362   5.212
  100MYC    H6619198   0.921   5.384   5.301
  100MYC    H6719199   0.894   5.552   5.291
  100MYC    H6819200   0.697   5.527   5.468
  100MYC    H6919201   0.760   5.358   5.478
  100MYC    H7019202   0.989   5.468   5.509
  100MYC    H7119203   0.904   5.623   5.525
  100MYC    H7219204   0.780   5.533   5.719
  100MYC    H7319205   0.849   5.376   5.696
  100MYC    H7419206   1.078   5.464   5.762
  100MYC    H7519207   1.010   5.627   5.782
  100MYC    H7619208   0.858   5.550   5.956
  100MYC    H7719209   0.912   5.382   5.946
  100MYC    H7819210   1.136   5.466   6.022
  100MYC    H7919211   1.084   5.634   6.008
  100MYC    H8019212   1.086   5.567   6.244
  100MYC    H8119213   0.997   5.421   6.216
  100MYC    H8219214   0.911   5.576   6.186
  100MYC    H8319215   0.559   4.885   1.636
  100MYC    H8419216   0.638   5.002   1.741
  100MYC    H8519217   0.339   4.936   1.785
  100MYC    H8619218   0.461   4.822   1.832
  100MYC    H8719219   0.563   5.006   1.969
  100MYC    H8819220   0.428   5.120   1.927
  100MYC    H8919221   0.266   4.969   2.052
  100MYC    H9019222   0.391   4.851   2.071
  100MYC    H9119223   0.516   5.006   2.220
  100MYC    H9219224   0.394   5.133   2.192
  100MYC    H9319225   0.216   4.987   2.304
  100MYC    H9419226   0.341   4.868   2.310
  100MYC    H9519227   0.484   5.035   2.447
  100MYC    H9619228   0.357   5.145   2.440
  100MYC    H9719229   0.203   4.950   2.553
  100MYC    H9819230   0.349   4.857   2.570
  100MYC    H9919231   0.447   4.980   2.730
  101MYC     C119232   1.077   5.899   3.183
  101MYC     C219233   0.999   5.916   3.052
  101MYC     O319234   0.960   5.796   2.987
  101MYC     C419235   1.082   6.006   2.959
  101MYC     C519236   1.041   6.027   2.812
  101MYC     C619237   1.077   5.905   2.726
  101MYC     C719238   1.060   5.923   2.575
  101MYC     C819239   1.112   5.804   2.493
  101MYC     C919240   1.095   5.830   2.342
  101MYC    C1019241   1.131   5.704   2.262
  101MYC    C1119242   1.155   5.730   2.113
  101MYC    C1219243   1.027   5.766   2.036
  101MYC    C1319244   1.061   5.791   1.888
  101MYC    C1419245   0.927   5.819   1.819
  101MYC    C1519246   0.942   5.856   1.671
  101MYC    C1619247   0.817   5.918   1.607
  101MYC    C1719248   0.689   5.837   1.622
  101MYC    C1819249   0.558   5.905   1.652
  101MYC    C1919250   0.588   5.859   1.512
  101MYC    C2019251   0.989   5.849   3.298
  101MYC    C2119252   1.026   5.911   3.434
  101MYC    C2219253   0.973   5.833   3.555
  101MYC    C2319254   0.974   5.911   3.687
  101MYC    C2419255   0.947   5.830   3.815
  101MYC    C2519256   0.905   5.907   3.941
  101MYC    C2619257   0.879   5.827   4.070
  101MYC    C2719258   0.884   5.891   4.209
  101MYC    C2819259   0.946   5.799   4.316
  101MYC    C2919260   0.953   5.867   4.453
  101MYC    C3019261   0.997   5.781   4.572
  101MYC    C3119262   0.990   5.860   4.704
  101MYC    C3219263   1.017   5.781   4.833
  101MYC    C3319264   0.980   5.868   4.953
  101MYC    C3419265   1.051   5.816   5.079
  101MYC    C3519266   1.036   5.893   5.212
  101MYC    C3619267   1.104   5.830   5.334
  101MYC    C3719268   1.065   5.906   5.462
  101MYC    C3819269   1.124   5.850   5.593
  101MYC    C3919270   1.127   5.956   5.705
  101MYC    C4019271   1.173   5.888   5.835
  101MYC    C4119272   1.145   5.983   5.953
  101MYC    C4219273   1.227   5.939   6.075
  101MYC    C4319274   1.165   5.996   6.204
  101MYC    C4419275   0.444   5.829   1.719
  101MYC    C4519276   0.391   5.910   1.839
  101MYC    C4619277   0.481   5.898   1.963
  101MYC    C4719278   0.411   5.940   2.094
  101MYC    C4819279   0.477   5.871   2.214
  101MYC    C4919280   0.423   5.925   2.347
  101MYC    C5019281   0.474   5.857   2.476
  101MYC    C5119282   0.403   5.921   2.596
  101MYC    C5219283   0.493   5.947   2.718
  101MYC    C5319284   0.423   6.033   2.825
  101MYC    C5419285   0.510   6.066   2.948
  101MYC    C5519286   0.470   5.996   3.079
  101MYC    C5619287   0.532   6.054   3.207
  101MYC    C5719288   0.502   5.975   3.336
  101MYC    C5819289   0.509   6.071   3.454
  101MYC    C5919290   0.636   6.078   3.534
  101MYC    C6019291   0.512   6.018   3.595
  101MYC    C6119292   0.453   6.088   3.717
  101MYC    C6219293   0.508   6.027   3.847
  101MYC    C6319294   0.465   6.103   3.974
  101MYC    C6419295   0.548   6.069   4.099
  101MYC    C6519296   0.496   6.140   4.224
  101MYC    C6619297   0.547   6.075   4.353
  101MYC    C6719298   0.471   6.111   4.482
  101MYC    C6819299   0.557   6.077   4.605
  101MYC    C6919300   0.481   6.094   4.737
  101MYC    C7019301   0.559   6.054   4.864
  101MYC    C7119302   0.465   6.066   4.985
  101MYC    C7219303   0.536   6.038   5.119
  101MYC    C7319304   0.453   6.076   5.243
  101MYC    C7419305   0.522   6.034   5.373
  101MYC    C7519306   0.458   6.108   5.492
  101MYC    C7619307   0.516   6.061   5.626
  101MYC    C7719308   0.452   6.122   5.752
  101MYC    C7819309   0.516   6.084   5.887
  101MYC    C7919310   0.464   6.164   6.007
  101MYC    C8019311   0.511   6.102   6.140
  101MYC    C8119312   1.204   5.816   3.172
  101MYC    O8219313   1.215   5.730   3.086
  101MYC    O8319314   1.310   5.838   3.253
  101MYC     H119315   1.111   5.999   3.215
  101MYC     H219316   0.910   5.978   3.072
  101MYC     H319317   1.037   5.737   2.988
  101MYC     H419318   1.081   6.111   2.992
  101MYC     H519319   1.187   5.975   2.961
  101MYC     H619320   0.933   6.043   2.803
  101MYC     H719321   1.098   6.113   2.773
  101MYC     H819322   1.175   5.865   2.757
  101MYC     H919323   1.008   5.821   2.744
  101MYC   0H1019324   0.579   6.008   2.687
  101MYC   1H1019325   0.402   6.133   2.786
  101MYC   2H1019326   0.327   5.992   2.858
  101MYC   3H1019327   0.615   6.042   2.928
  101MYC   4H1019328   0.500   6.174   2.963
  101MYC   5H1019329   0.361   5.998   3.081
  101MYC   6H1019330   0.496   5.890   3.075
  101MYC   7H1019331   0.640   6.055   3.188
  101MYC   8H1019332   0.502   6.160   3.218
  101MYC   9H1019333   0.401   5.933   3.332
  101MYC    H1019334   0.954   5.947   2.556
  101MYC   0H1119335   0.574   5.893   3.345
  101MYC   1H1119336   0.451   6.162   3.437
  101MYC   2H1119337   0.716   6.010   3.505
  101MYC   3H1119338   0.656   6.174   3.580
  101MYC   4H1119339   0.516   5.910   3.605
  101MYC   5H1119340   0.470   6.196   3.713
  101MYC   6H1119341   0.343   6.081   3.711
  101MYC   7H1119342   0.472   5.924   3.854
  101MYC   8H1119343   0.617   6.021   3.845
  101MYC   9H1119344   0.462   6.212   3.959
  101MYC    H1119345   1.119   6.009   2.540
  101MYC   0H1219346   0.362   6.072   3.995
  101MYC   1H1219347   0.548   5.960   4.116
  101MYC   2H1219348   0.655   6.092   4.096
  101MYC   3H1219349   0.515   6.247   4.212
  101MYC   4H1219350   0.386   6.135   4.226
  101MYC   5H1219351   0.545   5.965   4.343
  101MYC   6H1219352   0.651   6.099   4.380
  101MYC   7H1219353   0.447   6.218   4.477
  101MYC   8H1219354   0.370   6.068   4.474
  101MYC   9H1219355   0.595   5.974   4.597
  101MYC    H1219356   1.212   5.773   2.527
  101MYC   0H1319357   0.646   6.141   4.605
  101MYC   1H1319358   0.450   6.199   4.751
  101MYC   2H1319359   0.391   6.031   4.730
  101MYC   3H1319360   0.600   5.952   4.857
  101MYC   4H1319361   0.647   6.119   4.878
  101MYC   5H1319362   0.421   6.165   5.002
  101MYC   6H1319363   0.382   5.995   4.980
  101MYC   7H1319364   0.567   5.934   5.136
  101MYC   8H1319365   0.627   6.099   5.123
  101MYC   9H1319366   0.438   6.185   5.244
  101MYC    H1319367   1.046   5.718   2.513
  101MYC   0H1419368   0.357   6.024   5.237
  101MYC   1H1419369   0.518   5.924   5.381
  101MYC   2H1419370   0.627   6.063   5.361
  101MYC   3H1419371   0.476   6.215   5.482
  101MYC   4H1419372   0.349   6.095   5.488
  101MYC   5H1419373   0.525   5.952   5.628
  101MYC   6H1419374   0.620   6.095   5.627
  101MYC   7H1419375   0.447   6.231   5.745
  101MYC   8H1419376   0.346   6.099   5.768
  101MYC   9H1419377   0.491   5.980   5.911
  101MYC    H1419378   0.994   5.867   2.319
  101MYC   0H1519379   0.625   6.093   5.882
  101MYC   1H1519380   0.488   6.270   5.991
  101MYC   2H1519381   0.354   6.158   6.005
  101MYC   3H1519382   0.617   6.107   6.167
  101MYC   4H1519383   0.488   5.999   6.169
  101MYC   5H1519384   0.471   6.164   6.221
  101MYC   6H1519385   1.369   5.765   3.226
  101MYC    H1519386   1.171   5.903   2.313
  101MYC    H1619387   1.221   5.658   2.306
  101MYC    H1719388   1.053   5.626   2.265
  101MYC    H1819389   1.224   5.816   2.107
  101MYC    H1919390   1.205   5.643   2.068
  101MYC    H2019391   0.954   5.685   2.027
  101MYC    H2119392   0.983   5.857   2.079
  101MYC    H2219393   1.133   5.871   1.872
  101MYC    H2319394   1.110   5.702   1.845
  101MYC    H2419395   0.870   5.725   1.825
  101MYC    H2519396   0.866   5.893   1.873
  101MYC    H2619397   1.024   5.926   1.653
  101MYC    H2719398   0.967   5.763   1.618
  101MYC    H2819399   0.802   6.015   1.655
  101MYC    H2919400   0.831   5.951   1.503
  101MYC    H3019401   0.707   5.736   1.656
  101MYC    H3119402   0.551   6.013   1.661
  101MYC    H3219403   0.544   5.770   1.468
  101MYC    H3319404   0.618   5.929   1.434
  101MYC    H3419405   0.885   5.878   3.276
  101MYC    H3519406   0.990   5.739   3.300
  101MYC    H3619407   1.135   5.919   3.440
  101MYC    H3719408   0.991   6.015   3.429
  101MYC    H3819409   0.869   5.807   3.534
  101MYC    H3919410   1.031   5.739   3.557
  101MYC    H4019411   1.074   5.952   3.706
  101MYC    H4119412   0.904   5.995   3.675
  101MYC    H4219413   0.881   5.746   3.791
  101MYC    H4319414   1.043   5.786   3.843
  101MYC    H4419415   0.977   5.989   3.956
  101MYC    H4519416   0.812   5.953   3.907
  101MYC    H4619417   0.788   5.768   4.055
  101MYC    H4719418   0.965   5.759   4.070
  101MYC    H4819419   0.942   5.984   4.213
  101MYC    H4919420   0.784   5.923   4.239
  101MYC    H5019421   0.891   5.704   4.318
  101MYC    H5119422   1.050   5.778   4.289
  101MYC    H5219423   1.017   5.956   4.446
  101MYC    H5319424   0.852   5.907   4.471
  101MYC    H5419425   0.945   5.685   4.572
  101MYC    H5519426   1.099   5.749   4.548
  101MYC    H5619427   1.065   5.940   4.692
  101MYC    H5719428   0.893   5.909   4.719
  101MYC    H5819429   0.961   5.687   4.844
  101MYC    H5919430   1.121   5.748   4.843
  101MYC    H6019431   1.025   5.966   4.932
  101MYC    H6119432   0.874   5.879   4.980
  101MYC    H6219433   1.014   5.714   5.093
  101MYC    H6319434   1.156   5.796   5.058
  101MYC    H6419435   1.066   5.998   5.199
  101MYC    H6519436   0.931   5.911   5.239
  101MYC    H6619437   1.075   5.726   5.353
  101MYC    H6719438   1.211   5.834   5.310
  101MYC    H6819439   1.092   6.012   5.447
  101MYC    H6919440   0.956   5.903   5.468
  101MYC    H7019441   1.062   5.765   5.623
  101MYC    H7119442   1.226   5.815   5.573
  101MYC    H7219443   1.202   6.033   5.680
  101MYC    H7319444   1.029   5.998   5.725
  101MYC    H7419445   1.111   5.801   5.858
  101MYC    H7519446   1.278   5.858   5.830
  101MYC    H7619447   1.172   6.086   5.925
  101MYC    H7719448   1.040   5.990   5.984
  101MYC    H7819449   1.228   5.830   6.086
  101MYC    H7919450   1.330   5.971   6.058
  101MYC    H8019451   1.240   5.994   6.285
  101MYC    H8119452   1.075   5.943   6.238
  101MYC    H8219453   1.132   6.099   6.182
  101MYC    H8319454   0.362   5.824   1.647
  101MYC    H8419455   0.480   5.728   1.741
  101MYC    H8519456   0.360   6.012   1.814
  101MYC    H8619457   0.293   5.866   1.863
  101MYC    H8719458   0.496   5.790   1.966
  101MYC    H8819459   0.578   5.943   1.941
  101MYC    H8919460   0.414   6.050   2.098
  101MYC    H9019461   0.305   5.913   2.091
  101MYC    H9119462   0.460   5.763   2.206
  101MYC    H9219463   0.584   5.895   2.220
  101MYC    H9319464   0.452   6.031   2.358
  101MYC    H9419465   0.315   5.914   2.334
  101MYC    H9519466   0.447   5.751   2.473
  101MYC    H9619467   0.583   5.863   2.477
  101MYC    H9719468   0.376   6.024   2.570
  101MYC    H9819469   0.311   5.870   2.627
  101MYC    H9919470   0.533   5.856   2.764
  102MYC     C119471   1.847   0.531   3.388
  102MYC     C219472   1.806   0.443   3.268
  102MYC     O319473   1.907   0.443   3.168
  102MYC     C419474   1.673   0.479   3.201
  102MYC     C519475   1.606   0.361   3.128
  102MYC     C619476   1.677   0.305   3.004
  102MYC     C719477   1.661   0.394   2.880
  102MYC     C819478   1.750   0.333   2.770
  102MYC     C919479   1.752   0.423   2.646
  102MYC    C1019480   1.867   0.386   2.550
  102MYC    C1119481   1.856   0.450   2.411
  102MYC    C1219482   1.766   0.368   2.317
  102MYC    C1319483   1.816   0.378   2.172
  102MYC    C1419484   1.717   0.325   2.067
  102MYC    C1519485   1.776   0.333   1.926
  102MYC    C1619486   1.671   0.336   1.813
  102MYC    C1719487   1.612   0.198   1.786
  102MYC    C1819488   1.466   0.184   1.751
  102MYC    C1919489   1.572   0.158   1.647
  102MYC    C2019490   1.984   0.491   3.446
  102MYC    C2119491   1.999   0.345   3.494
  102MYC    C2219492   2.081   0.323   3.622
  102MYC    C2319493   1.998   0.350   3.749
  102MYC    C2419494   2.081   0.339   3.879
  102MYC    C2519495   1.996   0.367   4.004
  102MYC    C2619496   2.060   0.336   4.140
  102MYC    C2719497   1.973   0.372   4.261
  102MYC    C2819498   2.050   0.322   4.384
  102MYC    C2919499   1.959   0.323   4.508
  102MYC    C3019500   2.029   0.259   4.629
  102MYC    C3119501   1.952   0.280   4.761
  102MYC    C3219502   2.024   0.222   4.884
  102MYC    C3319503   1.985   0.303   5.009
  102MYC    C3419504   2.028   0.234   5.139
  102MYC    C3519505   2.013   0.314   5.269
  102MYC    C3619506   2.051   0.241   5.399
  102MYC    C3719507   2.043   0.331   5.523
  102MYC    C3819508   2.098   0.264   5.650
  102MYC    C3919509   2.030   0.315   5.778
  102MYC    C4019510   2.096   0.283   5.913
  102MYC    C4119511   2.029   0.372   6.019
  102MYC    C4219512   2.102   0.360   6.154
  102MYC    C4319513   2.007   0.386   6.272
  102MYC    C4419514   1.390   0.063   1.804
  102MYC    C4519515   1.288   0.106   1.911
  102MYC    C4619516   1.358   0.144   2.042
  102MYC    C4719517   1.260   0.167   2.159
  102MYC    C4819518   1.328   0.227   2.283
  102MYC    C4919519   1.236   0.225   2.407
  102MYC    C5019520   1.289   0.313   2.521
  102MYC    C5119521   1.196   0.325   2.642
  102MYC    C5219522   1.271   0.391   2.759
  102MYC    C5319523   1.200   0.340   2.885
  102MYC    C5419524   1.215   0.410   3.021
  102MYC    C5519525   1.166   0.326   3.140
  102MYC    C5619526   1.188   0.394   3.277
  102MYC    C5719527   1.188   0.294   3.394
  102MYC    C5819528   1.236   0.349   3.527
  102MYC    C5919529   1.384   0.360   3.555
  102MYC    C6019530   1.300   0.265   3.636
  102MYC    C6119531   1.272   0.295   3.782
  102MYC    C6219532   1.369   0.232   3.885
  102MYC    C6319533   1.295   0.207   4.017
  102MYC    C6419534   1.391   0.187   4.136
  102MYC    C6519535   1.317   0.157   4.268
  102MYC    C6619536   1.402   0.173   4.395
  102MYC    C6719537   1.331   0.098   4.509
  102MYC    C6819538   1.412   0.100   4.640
  102MYC    C6919539   1.330   0.062   4.765
  102MYC    C7019540   1.405   0.081   4.898
  102MYC    C7119541   1.305   0.072   5.014
  102MYC    C7219542   1.366   0.087   5.154
  102MYC    C7319543   1.274   0.039   5.268
  102MYC    C7419544   1.331   0.088   5.402
  102MYC    C7519545   1.263   0.027   5.526
  102MYC    C7619546   1.331   0.068   5.658
  102MYC    C7719547   1.232   0.031   5.769
  102MYC    C7819548   1.298   0.056   5.906
  102MYC    C7919549   1.197   0.053   6.022
  102MYC    C8019550   1.261   0.039   6.161
  102MYC    C8119551   1.848   0.679   3.355
  102MYC    O8219552   1.783   0.760   3.419
  102MYC    O8319553   1.914   0.720   3.245
  102MYC     H119554   1.772   0.524   3.468
  102MYC     H219555   1.795   0.338   3.298
  102MYC     H319556   1.932   0.537   3.159
  102MYC     H419557   1.612   0.516   3.284
  102MYC     H519558   1.684   0.565   3.134
  102MYC     H619559   1.612   0.276   3.198
  102MYC     H719560   1.501   0.391   3.122
  102MYC     H819561   1.781   0.280   3.030
  102MYC     H919562   1.627   0.212   2.973
  102MYC   0H1019563   1.278   0.501   2.766
  102MYC   1H1019564   1.093   0.335   2.858
  102MYC   2H1019565   1.229   0.234   2.893
  102MYC   3H1019566   1.318   0.444   3.041
  102MYC   4H1019567   1.159   0.504   3.020
  102MYC   5H1019568   1.057   0.316   3.134
  102MYC   6H1019569   1.205   0.224   3.137
  102MYC   7H1019570   1.290   0.434   3.267
  102MYC   8H1019571   1.112   0.472   3.285
  102MYC   9H1019572   1.085   0.257   3.403
  102MYC    H1019573   1.555   0.411   2.854
  102MYC   0H1119574   1.242   0.205   3.361
  102MYC   1H1119575   1.183   0.441   3.552
  102MYC   2H1119576   1.456   0.319   3.485
  102MYC   3H1119577   1.435   0.440   3.609
  102MYC   4H1119578   1.322   0.160   3.620
  102MYC   5H1119579   1.269   0.403   3.798
  102MYC   6H1119580   1.174   0.251   3.803
  102MYC   7H1119581   1.411   0.139   3.844
  102MYC   8H1119582   1.451   0.304   3.900
  102MYC   9H1119583   1.240   0.298   4.041
  102MYC    H1119584   1.700   0.493   2.905
  102MYC   0H1219585   1.222   0.126   4.007
  102MYC   1H1219586   1.458   0.101   4.128
  102MYC   2H1219587   1.457   0.274   4.143
  102MYC   3H1219588   1.233   0.226   4.278
  102MYC   4H1219589   1.271   0.057   4.265
  102MYC   5H1219590   1.504   0.134   4.381
  102MYC   6H1219591   1.407   0.280   4.415
  102MYC   7H1219592   1.242   0.155   4.538
  102MYC   8H1219593   1.308  -0.008   4.492
  102MYC   9H1219594   1.504   0.044   4.623
  102MYC    H1219595   1.851   0.326   2.814
  102MYC   0H1319596   1.448   0.203   4.647
  102MYC   1H1319597   1.245   0.129   4.759
  102MYC   2H1319598   1.295  -0.042   4.765
  102MYC   3H1319599   1.487   0.010   4.914
  102MYC   4H1319600   1.453   0.180   4.892
  102MYC   5H1319601   1.224   0.144   4.997
  102MYC   6H1319602   1.257  -0.026   5.002
  102MYC   7H1319603   1.462   0.035   5.168
  102MYC   8H1319604   1.392   0.193   5.145
  102MYC   9H1319605   1.169   0.067   5.254
  102MYC    H1319606   1.723   0.233   2.737
  102MYC   0H1419607   1.259  -0.069   5.260
  102MYC   1H1419608   1.436   0.057   5.400
  102MYC   2H1419609   1.329   0.197   5.408
  102MYC   3H1419610   1.158   0.057   5.514
  102MYC   4H1419611   1.264  -0.082   5.511
  102MYC   5H1419612   1.425   0.012   5.669
  102MYC   6H1419613   1.355   0.174   5.668
  102MYC   7H1419614   1.135   0.081   5.759
  102MYC   8H1419615   1.211  -0.075   5.750
  102MYC   9H1419616   1.365  -0.029   5.922
  102MYC    H1419617   1.654   0.412   2.598
  102MYC   0H1519618   1.363   0.145   5.906
  102MYC   1H1519619   1.131   0.141   6.032
  102MYC   2H1519620   1.129  -0.032   6.014
  102MYC   3H1519621   1.313   0.132   6.187
  102MYC   4H1519622   1.337  -0.039   6.167
  102MYC   5H1519623   1.187   0.030   6.242
  102MYC   6H1519624   1.902   0.816   3.253
  102MYC    H1519625   1.775   0.525   2.681
  102MYC    H1619626   1.958   0.428   2.595
  102MYC    H1719627   1.875   0.278   2.536
  102MYC    H1819628   1.827   0.556   2.408
  102MYC    H1919629   1.959   0.443   2.373
  102MYC    H2019630   1.780   0.264   2.348
  102MYC    H2119631   1.662   0.401   2.327
  102MYC    H2219632   1.822   0.485   2.151
  102MYC    H2319633   1.916   0.334   2.157
  102MYC    H2419634   1.688   0.222   2.093
  102MYC    H2519635   1.626   0.385   2.081
  102MYC    H2619636   1.836   0.424   1.916
  102MYC    H2719637   1.840   0.244   1.919
  102MYC    H2819638   1.591   0.407   1.840
  102MYC    H2919639   1.723   0.372   1.723
  102MYC    H3019640   1.665   0.116   1.833
  102MYC    H3119641   1.420   0.281   1.736
  102MYC    H3219642   1.586   0.056   1.610
  102MYC    H3319643   1.556   0.229   1.566
  102MYC    H3419644   2.063   0.504   3.371
  102MYC    H3519645   2.010   0.556   3.530
  102MYC    H3619646   1.900   0.303   3.514
  102MYC    H3719647   2.033   0.284   3.410
  102MYC    H3819648   2.107   0.216   3.616
  102MYC    H3919649   2.169   0.388   3.622
  102MYC    H4019650   1.972   0.457   3.749
  102MYC    H4119651   1.906   0.292   3.742
  102MYC    H4219652   2.123   0.239   3.891
  102MYC    H4319653   2.163   0.412   3.872
  102MYC    H4419654   1.962   0.471   4.006
  102MYC    H4519655   1.908   0.302   3.991
  102MYC    H4619656   2.084   0.228   4.140
  102MYC    H4719657   2.148   0.401   4.140
  102MYC    H4819658   1.947   0.478   4.264
  102MYC    H4919659   1.882   0.312   4.247
  102MYC    H5019660   2.079   0.218   4.366
  102MYC    H5119661   2.142   0.377   4.406
  102MYC    H5219662   1.932   0.426   4.533
  102MYC    H5319663   1.866   0.271   4.481
  102MYC    H5419664   2.032   0.154   4.597
  102MYC    H5519665   2.133   0.289   4.641
  102MYC    H5619666   1.937   0.388   4.775
  102MYC    H5719667   1.855   0.230   4.747
  102MYC    H5819668   2.010   0.118   4.915
  102MYC    H5919669   2.132   0.241   4.869
  102MYC    H6019670   2.028   0.404   5.007
  102MYC    H6119671   1.876   0.314   5.016
  102MYC    H6219672   1.978   0.138   5.160
  102MYC    H6319673   2.133   0.205   5.121
  102MYC    H6419674   2.089   0.393   5.259
  102MYC    H6519675   1.919   0.370   5.269
  102MYC    H6619676   1.984   0.155   5.409
  102MYC    H6719677   2.152   0.201   5.393
  102MYC    H6819678   2.088   0.430   5.511
  102MYC    H6919679   1.935   0.346   5.533
  102MYC    H7019680   2.076   0.157   5.634
  102MYC    H7119681   2.208   0.270   5.647
  102MYC    H7219682   2.021   0.425   5.777
  102MYC    H7319683   1.928   0.278   5.794
  102MYC    H7419684   2.076   0.178   5.937
  102MYC    H7519685   2.204   0.297   5.900
  102MYC    H7619686   2.047   0.476   5.987
  102MYC    H7719687   1.921   0.358   6.016
  102MYC    H7819688   2.160   0.268   6.168
  102MYC    H7919689   2.178   0.439   6.148
  102MYC    H8019690   1.998   0.487   6.315
  102MYC    H8119691   2.009   0.304   6.344
  102MYC    H8219692   1.905   0.381   6.231
  102MYC    H8319693   1.333   0.021   1.721
  102MYC    H8419694   1.456  -0.014   1.847
  102MYC    H8519695   1.227   0.193   1.884
  102MYC    H8619696   1.215   0.029   1.940
  102MYC    H8719697   1.416   0.058   2.077
  102MYC    H8819698   1.427   0.229   2.038
  102MYC    H8919699   1.177   0.233   2.131
  102MYC    H9019700   1.223   0.069   2.190
  102MYC    H9119701   1.424   0.182   2.312
  102MYC    H9219702   1.359   0.330   2.258
  102MYC    H9319703   1.144   0.266   2.363
  102MYC    H9419704   1.226   0.122   2.443
  102MYC    H9519705   1.379   0.258   2.550
  102MYC    H9619706   1.325   0.410   2.484
  102MYC    H9719707   1.103   0.377   2.614
  102MYC    H9819708   1.176   0.220   2.664
  102MYC    H9919709   1.374   0.354   2.766
  103MYC     C119710   1.444   0.930   3.166
  103MYC     C219711   1.511   0.966   3.032
  103MYC     O319712   1.424   1.043   2.951
  103MYC     C419713   1.565   0.840   2.961
  103MYC     C519714   1.620   0.842   2.818
  103MYC     C619715   1.513   0.850   2.708
  103MYC     C719716   1.562   0.812   2.567
  103MYC     C819717   1.444   0.792   2.471
  103MYC     C919718   1.487   0.737   2.334
  103MYC    C1019719   1.380   0.726   2.225
  103MYC    C1119720   1.442   0.661   2.100
  103MYC    C1219721   1.515   0.766   2.014
  103MYC    C1319722   1.429   0.809   1.895
  103MYC    C1419723   1.497   0.910   1.800
  103MYC    C1519724   1.501   1.056   1.847
  103MYC    C1619725   1.591   1.146   1.760
  103MYC    C1719726   1.580   1.297   1.776
  103MYC    C1819727   1.669   1.384   1.692
  103MYC    C1919728   1.521   1.380   1.665
  103MYC    C2019729   1.424   1.048   3.263
  103MYC    C2119730   1.371   0.998   3.399
  103MYC    C2219731   1.391   1.097   3.515
  103MYC    C2319732   1.341   1.041   3.650
  103MYC    C2419733   1.369   1.136   3.767
  103MYC    C2519734   1.408   1.051   3.890
  103MYC    C2619735   1.395   1.128   4.022
  103MYC    C2719736   1.416   1.032   4.140
  103MYC    C2819737   1.411   1.103   4.277
  103MYC    C2919738   1.385   1.006   4.394
  103MYC    C3019739   1.374   1.082   4.527
  103MYC    C3119740   1.385   0.987   4.648
  103MYC    C3219741   1.403   1.054   4.785
  103MYC    C3319742   1.418   0.951   4.899
  103MYC    C3419743   1.406   1.009   5.041
  103MYC    C3519744   1.433   0.907   5.153
  103MYC    C3619745   1.393   0.973   5.286
  103MYC    C3719746   1.479   0.934   5.408
  103MYC    C3819747   1.430   1.009   5.533
  103MYC    C3919748   1.502   0.960   5.660
  103MYC    C4019749   1.420   0.999   5.784
  103MYC    C4119750   1.481   0.963   5.920
  103MYC    C4219751   1.378   1.004   6.027
  103MYC    C4319752   1.425   0.978   6.171
  103MYC    C4419753   1.719   1.513   1.756
  103MYC    C4519754   1.832   1.499   1.860
  103MYC    C4619755   1.787   1.449   1.998
  103MYC    C4719756   1.900   1.415   2.096
  103MYC    C4819757   1.855   1.403   2.242
  103MYC    C4919758   1.961   1.399   2.354
  103MYC    C5019759   1.904   1.312   2.467
  103MYC    C5119760   2.000   1.292   2.586
  103MYC    C5219761   1.919   1.226   2.699
  103MYC    C5319762   1.996   1.237   2.832
  103MYC    C5419763   1.921   1.163   2.944
  103MYC    C5519764   2.011   1.146   3.068
  103MYC    C5619765   1.934   1.092   3.190
  103MYC    C5719766   2.021   1.128   3.312
  103MYC    C5819767   1.963   1.076   3.442
  103MYC    C5919768   1.837   1.139   3.498
  103MYC    C6019769   1.969   1.157   3.569
  103MYC    C6119770   1.981   1.094   3.707
  103MYC    C6219771   1.959   1.203   3.813
  103MYC    C6319772   1.971   1.171   3.963
  103MYC    C6419773   1.975   1.286   4.065
  103MYC    C6519774   2.040   1.248   4.198
  103MYC    C6619775   1.939   1.217   4.310
  103MYC    C6719776   2.018   1.187   4.439
  103MYC    C6819777   1.930   1.134   4.555
  103MYC    C6919778   1.993   1.149   4.695
  103MYC    C7019779   1.887   1.121   4.803
  103MYC    C7119780   1.950   1.155   4.939
  103MYC    C7219781   1.864   1.105   5.057
  103MYC    C7319782   1.943   1.134   5.186
  103MYC    C7419783   1.857   1.129   5.312
  103MYC    C7519784   1.944   1.158   5.435
  103MYC    C7619785   1.866   1.135   5.566
  103MYC    C7719786   1.956   1.155   5.689
  103MYC    C7819787   1.895   1.108   5.822
  103MYC    C7919788   1.991   1.141   5.938
  103MYC    C8019789   1.924   1.128   6.075
  103MYC    C8119790   1.330   0.831   3.153
  103MYC    O8219791   1.332   0.716   3.195
  103MYC    O8319792   1.220   0.886   3.097
  103MYC     H119793   1.520   0.866   3.213
  103MYC     H219794   1.596   1.034   3.049
  103MYC     H319795   1.357   0.982   2.916
  103MYC     H419796   1.643   0.802   3.028
  103MYC     H519797   1.493   0.758   2.957
  103MYC     H619798   1.696   0.918   2.796
  103MYC     H719799   1.667   0.742   2.816
  103MYC     H819800   1.435   0.779   2.739
  103MYC     H919801   1.453   0.941   2.706
  103MYC   0H1019802   1.905   1.119   2.684
  103MYC   1H1019803   2.089   1.179   2.822
  103MYC   2H1019804   2.006   1.344   2.853
  103MYC   3H1019805   1.826   1.210   2.970
  103MYC   4H1019806   1.904   1.060   2.911
  103MYC   5H1019807   2.101   1.087   3.046
  103MYC   6H1019808   2.038   1.248   3.097
  103MYC   7H1019809   1.833   1.132   3.200
  103MYC   8H1019810   1.934   0.983   3.192
  103MYC   9H1019811   2.125   1.099   3.292
  103MYC    H1019812   1.637   0.881   2.525
  103MYC   0H1119813   2.019   1.236   3.330
  103MYC   1H1119814   1.989   0.971   3.451
  103MYC   2H1119815   1.802   1.217   3.431
  103MYC   3H1119816   1.762   1.088   3.558
  103MYC   4H1119817   2.013   1.256   3.557
  103MYC   5H1119818   1.911   1.009   3.709
  103MYC   6H1119819   2.081   1.049   3.721
  103MYC   7H1119820   2.031   1.284   3.795
  103MYC   8H1119821   1.859   1.242   3.789
  103MYC   9H1119822   1.897   1.094   3.989
  103MYC    H1119823   1.614   0.715   2.568
  103MYC   0H1219824   2.067   1.117   3.973
  103MYC   1H1219825   2.019   1.375   4.019
  103MYC   2H1219826   1.869   1.310   4.080
  103MYC   3H1219827   2.115   1.169   4.187
  103MYC   4H1219828   2.088   1.340   4.233
  103MYC   5H1219829   1.865   1.296   4.323
  103MYC   6H1219830   1.888   1.127   4.272
  103MYC   7H1219831   2.101   1.118   4.422
  103MYC   8H1219832   2.059   1.283   4.470
  103MYC   9H1219833   1.834   1.187   4.557
  103MYC    H1219834   1.375   0.718   2.515
  103MYC   0H1319835   1.904   1.030   4.534
  103MYC   1H1319836   2.079   1.085   4.719
  103MYC   2H1319837   2.037   1.250   4.698
  103MYC   3H1319838   1.792   1.170   4.779
  103MYC   4H1319839   1.870   1.013   4.791
  103MYC   5H1319840   2.048   1.109   4.949
  103MYC   6H1319841   1.963   1.262   4.961
  103MYC   7H1319842   1.772   1.164   5.065
  103MYC   8H1319843   1.846   0.997   5.059
  103MYC   9H1319844   2.031   1.068   5.198
  103MYC    H1319845   1.387   0.883   2.447
  103MYC   0H1419846   1.982   1.236   5.175
  103MYC   1H1419847   1.776   1.203   5.300
  103MYC   2H1419848   1.813   1.029   5.323
  103MYC   3H1419849   2.026   1.085   5.436
  103MYC   4H1419850   1.983   1.259   5.421
  103MYC   5H1419851   1.782   1.205   5.576
  103MYC   6H1419852   1.819   1.036   5.562
  103MYC   7H1419853   2.053   1.105   5.684
  103MYC   8H1419854   1.984   1.261   5.693
  103MYC   9H1419855   1.803   1.166   5.840
  103MYC    H1419856   1.564   0.805   2.296
  103MYC   0H1519857   1.873   1.002   5.805
  103MYC   1H1519858   2.075   1.070   5.932
  103MYC   2H1519859   2.037   1.239   5.924
  103MYC   3H1519860   1.872   1.034   6.095
  103MYC   4H1519861   1.857   1.214   6.094
  103MYC   5H1519862   2.005   1.137   6.149
  103MYC   6H1519863   1.147   0.828   3.124
  103MYC    H1519864   1.532   0.639   2.355
  103MYC    H1619865   1.303   0.659   2.266
  103MYC    H1719866   1.338   0.824   2.198
  103MYC    H1819867   1.512   0.584   2.135
  103MYC    H1919868   1.364   0.606   2.046
  103MYC    H2019869   1.545   0.854   2.072
  103MYC    H2119870   1.605   0.716   1.977
  103MYC    H2219871   1.408   0.722   1.831
  103MYC    H2319872   1.329   0.846   1.921
  103MYC    H2419873   1.601   0.877   1.785
  103MYC    H2519874   1.451   0.900   1.701
  103MYC    H2619875   1.400   1.098   1.837
  103MYC    H2719876   1.527   1.067   1.953
  103MYC    H2819877   1.693   1.117   1.789
  103MYC    H2919878   1.582   1.121   1.654
  103MYC    H3019879   1.559   1.318   1.880
  103MYC    H3119880   1.725   1.348   1.605
  103MYC    H3219881   1.451   1.451   1.708
  103MYC    H3319882   1.493   1.334   1.570
  103MYC    H3419883   1.518   1.105   3.257
  103MYC    H3519884   1.345   1.115   3.229
  103MYC    H3619885   1.266   0.969   3.387
  103MYC    H3719886   1.423   0.907   3.432
  103MYC    H3819887   1.498   1.121   3.517
  103MYC    H3919888   1.338   1.188   3.484
  103MYC    H4019889   1.233   1.023   3.646
  103MYC    H4119890   1.391   0.945   3.669
  103MYC    H4219891   1.455   1.202   3.748
  103MYC    H4319892   1.277   1.191   3.791
  103MYC    H4419893   1.345   0.963   3.907
  103MYC    H4519894   1.512   1.020   3.877
  103MYC    H4619895   1.455   1.219   4.032
  103MYC    H4719896   1.290   1.161   4.019
  103MYC    H4819897   1.339   0.954   4.133
  103MYC    H4919898   1.517   0.993   4.128
  103MYC    H5019899   1.509   1.149   4.294
  103MYC    H5119900   1.327   1.173   4.282
  103MYC    H5219901   1.291   0.954   4.372
  103MYC    H5319902   1.471   0.938   4.391
  103MYC    H5419903   1.466   1.143   4.529
  103MYC    H5519904   1.287   1.150   4.533
  103MYC    H5619905   1.291   0.933   4.658
  103MYC    H5719906   1.460   0.909   4.630
  103MYC    H5819907   1.485   1.127   4.780
  103MYC    H5919908   1.309   1.108   4.796
  103MYC    H6019909   1.342   0.873   4.888
  103MYC    H6119910   1.517   0.902   4.894
  103MYC    H6219911   1.474   1.095   5.048
  103MYC    H6319912   1.302   1.043   5.051
  103MYC    H6419913   1.364   0.826   5.127
  103MYC    H6519914   1.534   0.865   5.155
  103MYC    H6619915   1.405   1.081   5.277
  103MYC    H6719916   1.289   0.941   5.302
  103MYC    H6819917   1.480   0.825   5.424
  103MYC    H6919918   1.585   0.951   5.387
  103MYC    H7019919   1.449   1.116   5.517
  103MYC    H7119920   1.324   0.996   5.555
  103MYC    H7219921   1.505   0.851   5.657
  103MYC    H7319922   1.607   0.993   5.664
  103MYC    H7419923   1.408   1.109   5.782
  103MYC    H7519924   1.319   0.958   5.779
  103MYC    H7619925   1.498   0.856   5.906
  103MYC    H7719926   1.579   1.011   5.930
  103MYC    H7819927   1.381   1.113   6.021
  103MYC    H7919928   1.276   0.965   6.014
  103MYC    H8019929   1.351   1.006   6.246
  103MYC    H8119930   1.520   1.028   6.191
  103MYC    H8219931   1.437   0.869   6.183
  103MYC    H8319932   1.761   1.570   1.672
  103MYC    H8419933   1.637   1.569   1.802
  103MYC    H8519934   1.902   1.427   1.816
  103MYC    H8619935   1.878   1.598   1.873
  103MYC    H8719936   1.718   1.518   2.048
  103MYC    H8819937   1.733   1.354   1.987
  103MYC    H8919938   1.949   1.323   2.059
  103MYC    H9019939   1.983   1.486   2.099
  103MYC    H9119940   1.791   1.488   2.271
  103MYC    H9219941   1.790   1.314   2.244
  103MYC    H9319942   2.045   1.346   2.306
  103MYC    H9419943   2.001   1.495   2.386
  103MYC    H9519944   1.809   1.358   2.497
  103MYC    H9619945   1.885   1.211   2.428
  103MYC    H9719946   2.078   1.220   2.557
  103MYC    H9819947   2.049   1.381   2.627
  103MYC    H9919948   1.823   1.276   2.717
  104MYC     C119949   1.105   1.795   3.318
  104MYC     C219950   1.221   1.713   3.260
  104MYC     O319951   1.339   1.791   3.242
  104MYC     C419952   1.190   1.629   3.135
  104MYC     C519953   1.311   1.567   3.063
  104MYC     C619954   1.357   1.649   2.941
  104MYC     C719955   1.286   1.607   2.811
  104MYC     C819956   1.322   1.693   2.689
  104MYC     C919957   1.209   1.703   2.585
  104MYC    C1019958   1.265   1.790   2.471
  104MYC    C1119959   1.166   1.816   2.356
  104MYC    C1219960   1.209   1.934   2.267
  104MYC    C1319961   1.153   1.930   2.124
  104MYC    C1419962   1.196   2.053   2.043
  104MYC    C1519963   1.143   2.042   1.899
  104MYC    C1619964   1.225   1.948   1.809
  104MYC    C1719965   1.365   2.004   1.787
  104MYC    C1819966   1.489   1.931   1.830
  104MYC    C1919967   1.442   1.921   1.688
  104MYC    C2019968   1.139   1.841   3.461
  104MYC    C2119969   1.110   1.741   3.575
  104MYC    C2219970   1.174   1.792   3.705
  104MYC    C2319971   1.188   1.684   3.814
  104MYC    C2419972   1.253   1.743   3.940
  104MYC    C2519973   1.259   1.641   4.055
  104MYC    C2619974   1.288   1.712   4.188
  104MYC    C2719975   1.279   1.623   4.313
  104MYC    C2819976   1.253   1.707   4.440
  104MYC    C2919977   1.278   1.617   4.562
  104MYC    C3019978   1.260   1.693   4.695
  104MYC    C3119979   1.262   1.617   4.828
  104MYC    C3219980   1.272   1.717   4.944
  104MYC    C3319981   1.253   1.660   5.085
  104MYC    C3419982   1.197   1.764   5.184
  104MYC    C3519983   1.238   1.745   5.331
  104MYC    C3619984   1.140   1.824   5.419
  104MYC    C3719985   1.181   1.813   5.567
  104MYC    C3819986   1.080   1.867   5.671
  104MYC    C3919987   1.156   1.864   5.804
  104MYC    C4019988   1.092   1.941   5.921
  104MYC    C4119989   1.162   1.928   6.058
  104MYC    C4219990   1.090   1.997   6.175
  104MYC    C4319991   1.172   1.987   6.305
  104MYC    C4419992   1.614   2.013   1.862
  104MYC    C4519993   1.709   1.940   1.958
  104MYC    C4619994   1.663   1.942   2.105
  104MYC    C4719995   1.777   1.900   2.200
  104MYC    C4819996   1.725   1.883   2.344
  104MYC    C4919997   1.833   1.827   2.438
  104MYC    C5019998   1.776   1.795   2.577
  104MYC    C5119999   1.874   1.723   2.672
  104MYC    C5220000   1.802   1.709   2.808
  104MYC    C5320001   1.889   1.663   2.925
  104MYC    C5420002   1.811   1.634   3.054
  104MYC    C5520003   1.905   1.642   3.176
  104MYC    C5620004   1.825   1.618   3.305
  104MYC    C5720005   1.907   1.638   3.433
  104MYC    C5820006   1.821   1.625   3.558
  104MYC    C5920007   1.702   1.715   3.585
  104MYC    C6020008   1.828   1.728   3.668
  104MYC    C6120009   1.828   1.688   3.814
  104MYC    C6220010   1.864   1.802   3.911
  104MYC    C6320011   1.875   1.763   4.059
  104MYC    C6420012   1.865   1.884   4.154
  104MYC    C6520013   1.927   1.862   4.293
  104MYC    C6620014   1.868   1.954   4.402
  104MYC    C6720015   1.916   1.897   4.536
  104MYC    C6820016   1.844   1.957   4.659
  104MYC    C6920017   1.852   1.867   4.784
  104MYC    C7020018   1.788   1.913   4.916
  104MYC    C7120019   1.822   1.832   5.042
  104MYC    C7220020   1.762   1.887   5.173
  104MYC    C7320021   1.790   1.802   5.298
  104MYC    C7420022   1.724   1.853   5.427
  104MYC    C7520023   1.779   1.789   5.555
  104MYC    C7620024   1.722   1.853   5.683
  104MYC    C7720025   1.793   1.816   5.814
  104MYC    C7820026   1.704   1.862   5.932
  104MYC    C7920027   1.767   1.849   6.071
  104MYC    C8020028   1.696   1.939   6.173
  104MYC    C8120029   1.057   1.914   3.235
  104MYC    O8220030   1.092   1.939   3.121
  104MYC    O8320031   0.957   1.988   3.287
  104MYC     H120032   1.021   1.725   3.325
  104MYC     H220033   1.244   1.644   3.342
  104MYC     H320034   1.324   1.885   3.263
  104MYC     H420035   1.116   1.550   3.152
  104MYC     H520036   1.139   1.688   3.058
  104MYC     H620037   1.391   1.549   3.137
  104MYC     H720038   1.285   1.469   3.021
  104MYC     H820039   1.348   1.757   2.959
  104MYC     H920040   1.466   1.640   2.931
  104MYC   0H1020041   1.719   1.639   2.797
  104MYC   1H1020042   1.937   1.570   2.892
  104MYC   2H1020043   1.967   1.739   2.943
  104MYC   3H1020044   1.726   1.703   3.060
  104MYC   4H1020045   1.769   1.533   3.045
  104MYC   5H1020046   1.982   1.565   3.170
  104MYC   6H1020047   1.960   1.737   3.176
  104MYC   7H1020048   1.730   1.672   3.308
  104MYC   8H1020049   1.795   1.512   3.310
  104MYC   9H1020050   1.976   1.553   3.429
  104MYC    H1020051   1.309   1.504   2.784
  104MYC   0H1120052   1.961   1.734   3.439
  104MYC   1H1120053   1.818   1.523   3.594
  104MYC   2H1120054   1.688   1.779   3.498
  104MYC   3H1120055   1.613   1.664   3.619
  104MYC   4H1120056   1.893   1.813   3.646
  104MYC   5H1120057   1.726   1.659   3.844
  104MYC   6H1120058   1.893   1.602   3.836
  104MYC   7H1120059   1.964   1.841   3.886
  104MYC   8H1120060   1.788   1.880   3.898
  104MYC   9H1120061   1.791   1.695   4.078
  104MYC    H1120062   1.178   1.611   2.830
  104MYC   0H1220063   1.966   1.704   4.075
  104MYC   1H1220064   1.914   1.970   4.105
  104MYC   2H1220065   1.760   1.911   4.172
  104MYC   3H1220066   1.914   1.757   4.321
  104MYC   4H1220067   2.036   1.869   4.295
  104MYC   5H1220068   1.890   2.061   4.388
  104MYC   6H1220069   1.759   1.951   4.397
  104MYC   7H1220070   1.902   1.788   4.538
  104MYC   8H1220071   2.024   1.911   4.545
  104MYC   9H1220072   1.881   2.058   4.679
  104MYC    H1220073   1.340   1.792   2.733
  104MYC   0H1320074   1.739   1.954   4.629
  104MYC   1H1320075   1.812   1.767   4.764
  104MYC   2H1320076   1.956   1.852   4.813
  104MYC   3H1320077   1.819   2.017   4.932
  104MYC   4H1320078   1.680   1.892   4.911
  104MYC   5H1320079   1.798   1.726   5.033
  104MYC   6H1320080   1.932   1.832   5.041
  104MYC   7H1320081   1.792   1.992   5.184
  104MYC   8H1320082   1.652   1.894   5.166
  104MYC   9H1320083   1.759   1.700   5.273
  104MYC    H1320084   1.418   1.666   2.645
  104MYC   0H1420085   1.898   1.807   5.320
  104MYC   1H1420086   1.755   1.958   5.436
  104MYC   2H1420087   1.615   1.849   5.423
  104MYC   3H1420088   1.760   1.681   5.554
  104MYC   4H1420089   1.888   1.802   5.552
  104MYC   5H1420090   1.724   1.962   5.666
  104MYC   6H1420091   1.615   1.832   5.684
  104MYC   7H1420092   1.811   1.709   5.828
  104MYC   8H1420093   1.891   1.865   5.812
  104MYC   9H1420094   1.657   1.960   5.913
  104MYC    H1420095   1.191   1.603   2.544
  104MYC   0H1520096   1.619   1.793   5.939
  104MYC   1H1520097   1.763   1.741   6.092
  104MYC   2H1520098   1.872   1.883   6.069
  104MYC   3H1520099   1.590   1.912   6.174
  104MYC   4H1520100   1.717   2.045   6.155
  104MYC   5H1520101   1.737   1.915   6.272
  104MYC   6H1520102   0.932   2.059   3.226
  104MYC    H1520103   1.107   1.723   2.621
  104MYC    H1620104   1.292   1.888   2.514
  104MYC    H1720105   1.360   1.749   2.434
  104MYC    H1820106   1.163   1.725   2.294
  104MYC    H1920107   1.064   1.835   2.391
  104MYC    H2020108   1.187   2.028   2.320
  104MYC    H2120109   1.319   1.938   2.260
  104MYC    H2220110   1.195   1.843   2.074
  104MYC    H2320111   1.044   1.917   2.119
  104MYC    H2420112   1.157   2.143   2.093
  104MYC    H2520113   1.305   2.063   2.034
  104MYC    H2620114   1.039   2.007   1.894
  104MYC    H2720115   1.144   2.144   1.858
  104MYC    H2820116   1.227   1.844   1.843
  104MYC    H2920117   1.175   1.947   1.711
  104MYC    H3020118   1.370   2.110   1.763
  104MYC    H3120119   1.482   1.840   1.888
  104MYC    H3220120   1.492   1.980   1.611
  104MYC    H3320121   1.406   1.824   1.656
  104MYC    H3420122   1.244   1.870   3.461
  104MYC    H3520123   1.074   1.928   3.477
  104MYC    H3620124   1.001   1.735   3.588
  104MYC    H3720125   1.136   1.637   3.552
  104MYC    H3820126   1.274   1.831   3.683
  104MYC    H3920127   1.110   1.869   3.751
  104MYC    H4020128   1.088   1.646   3.839
  104MYC    H4120129   1.243   1.593   3.788
  104MYC    H4220130   1.353   1.782   3.916
  104MYC    H4320131   1.198   1.835   3.966
  104MYC    H4420132   1.160   1.599   4.070
  104MYC    H4520133   1.332   1.560   4.042
  104MYC    H4620134   1.387   1.759   4.182
  104MYC    H4720135   1.209   1.788   4.199
  104MYC    H4820136   1.190   1.560   4.303
  104MYC    H4920137   1.370   1.563   4.319
  104MYC    H5020138   1.324   1.790   4.438
  104MYC    H5120139   1.158   1.761   4.432
  104MYC    H5220140   1.213   1.528   4.560
  104MYC    H5320141   1.381   1.580   4.564
  104MYC    H5420142   1.338   1.769   4.695
  104MYC    H5520143   1.170   1.755   4.687
  104MYC    H5620144   1.169   1.562   4.845
  104MYC    H5720145   1.350   1.551   4.831
  104MYC    H5820146   1.366   1.774   4.939
  104MYC    H5920147   1.184   1.778   4.921
  104MYC    H6020148   1.182   1.576   5.085
  104MYC    H6120149   1.348   1.631   5.130
  104MYC    H6220150   1.230   1.864   5.152
  104MYC    H6320151   1.089   1.768   5.168
  104MYC    H6420152   1.230   1.640   5.360
  104MYC    H6520153   1.345   1.765   5.346
  104MYC    H6620154   1.141   1.930   5.389
  104MYC    H6720155   1.042   1.777   5.404
  104MYC    H6820156   1.190   1.705   5.583
  104MYC    H6920157   1.285   1.845   5.578
  104MYC    H7020158   1.049   1.964   5.631
  104MYC    H7120159   0.996   1.797   5.672
  104MYC    H7220160   1.183   1.761   5.827
  104MYC    H7320161   1.253   1.915   5.798
  104MYC    H7420162   1.080   2.043   5.882
  104MYC    H7520163   0.987   1.911   5.933
  104MYC    H7620164   1.170   1.823   6.088
  104MYC    H7720165   1.266   1.958   6.041
  104MYC    H7820166   1.060   2.102   6.162
  104MYC    H7920167   0.995   1.946   6.191
  104MYC    H8020168   1.106   2.004   6.391
  104MYC    H8120169   1.246   2.067   6.318
  104MYC    H8220170   1.225   1.892   6.322
  104MYC    H8320171   1.674   2.032   1.772
  104MYC    H8420172   1.589   2.110   1.905
  104MYC    H8520173   1.711   1.835   1.927
  104MYC    H8620174   1.812   1.976   1.951
  104MYC    H8720175   1.641   2.048   2.122
  104MYC    H8820176   1.577   1.875   2.122
  104MYC    H8920177   1.810   1.800   2.173
  104MYC    H9020178   1.861   1.971   2.195
  104MYC    H9120179   1.686   1.980   2.380
  104MYC    H9220180   1.646   1.807   2.347
  104MYC    H9320181   1.867   1.730   2.398
  104MYC    H9420182   1.915   1.898   2.446
  104MYC    H9520183   1.755   1.893   2.622
  104MYC    H9620184   1.688   1.733   2.561
  104MYC    H9720185   1.896   1.624   2.631
  104MYC    H9820186   1.961   1.790   2.677
  104MYC    H9920187   1.755   1.806   2.828
  105MYC     C120188   1.492   2.254   3.309
  105MYC     C220189   1.510   2.317   3.170
  105MYC     O320190   1.389   2.307   3.095
  105MYC     C420191   1.629   2.259   3.093
  105MYC     C520192   1.663   2.340   2.966
  105MYC     C620193   1.601   2.275   2.842
  105MYC     C720194   1.594   2.377   2.727
  105MYC     C820195   1.569   2.293   2.600
  105MYC     C920196   1.558   2.366   2.465
  105MYC    C1020197   1.575   2.278   2.341
  105MYC    C1120198   1.709   2.304   2.271
  105MYC    C1220199   1.693   2.411   2.162
  105MYC    C1320200   1.693   2.367   2.014
  105MYC    C1420201   1.723   2.472   1.907
  105MYC    C1520202   1.781   2.413   1.777
  105MYC    C1620203   1.803   2.516   1.664
  105MYC    C1720204   1.681   2.597   1.624
  105MYC    C1820205   1.670   2.747   1.633
  105MYC    C1920206   1.690   2.681   1.499
  105MYC    C2020207   1.389   2.331   3.393
  105MYC    C2120208   1.417   2.333   3.545
  105MYC    C2220209   1.382   2.209   3.629
  105MYC    C2320210   1.480   2.172   3.741
  105MYC    C2420211   1.415   2.107   3.864
  105MYC    C2520212   1.508   2.124   3.986
  105MYC    C2620213   1.444   2.093   4.122
  105MYC    C2720214   1.526   2.119   4.249
  105MYC    C2820215   1.444   2.079   4.373
  105MYC    C2920216   1.495   2.135   4.507
  105MYC    C3020217   1.427   2.084   4.635
  105MYC    C3120218   1.485   2.144   4.765
  105MYC    C3220219   1.438   2.085   4.898
  105MYC    C3320220   1.489   2.168   5.017
  105MYC    C3420221   1.428   2.120   5.149
  105MYC    C3520222   1.503   2.175   5.272
  105MYC    C3620223   1.443   2.119   5.402
  105MYC    C3720224   1.497   2.176   5.534
  105MYC    C3820225   1.408   2.173   5.659
  105MYC    C3920226   1.487   2.224   5.781
  105MYC    C4020227   1.417   2.207   5.917
  105MYC    C4120228   1.482   2.304   6.017
  105MYC    C4220229   1.432   2.285   6.161
  105MYC    C4320230   1.541   2.324   6.262
  105MYC    C4420231   1.535   2.813   1.656
  105MYC    C4520232   1.537   2.909   1.776
  105MYC    C4620233   1.539   2.830   1.908
  105MYC    C4720234   1.549   2.921   2.031
  105MYC    C4820235   1.519   2.848   2.163
  105MYC    C4920236   1.568   2.924   2.288
  105MYC    C5020237   1.511   2.866   2.418
  105MYC    C5120238   1.538   2.963   2.535
  105MYC    C5220239   1.477   2.910   2.666
  105MYC    C5320240   1.512   3.002   2.784
  105MYC    C5420241   1.426   2.982   2.909
  105MYC    C5520242   1.485   3.042   3.037
  105MYC    C5620243   1.431   2.976   3.166
  105MYC    C5720244   1.469   3.054   3.293
  105MYC    C5820245   1.459   2.961   3.412
  105MYC    C5920246   1.331   2.937   3.489
  105MYC    C6020247   1.443   3.017   3.551
  105MYC    C6120248   1.532   2.967   3.664
  105MYC    C6220249   1.458   2.984   3.799
  105MYC    C6320250   1.547   2.944   3.918
  105MYC    C6420251   1.457   2.916   4.040
  105MYC    C6520252   1.545   2.878   4.161
  105MYC    C6620253   1.468   2.854   4.291
  105MYC    C6720254   1.554   2.795   4.404
  105MYC    C6820255   1.488   2.779   4.542
  105MYC    C6920256   1.587   2.767   4.659
  105MYC    C7020257   1.515   2.728   4.789
  105MYC    C7120258   1.603   2.750   4.913
  105MYC    C7220259   1.526   2.734   5.045
  105MYC    C7320260   1.607   2.780   5.169
  105MYC    C7420261   1.543   2.738   5.302
  105MYC    C7520262   1.609   2.804   5.424
  105MYC    C7620263   1.589   2.712   5.546
  105MYC    C7720264   1.650   2.762   5.678
  105MYC    C7820265   1.582   2.698   5.800
  105MYC    C7920266   1.655   2.729   5.932
  105MYC    C8020267   1.591   2.648   6.046
  105MYC    C8120268   1.471   2.103   3.299
  105MYC    O8220269   1.378   2.051   3.239
  105MYC    O8320270   1.545   2.033   3.387
  105MYC     H120271   1.592   2.266   3.354
  105MYC     H220272   1.542   2.422   3.181
  105MYC     H320273   1.363   2.214   3.102
  105MYC     H420274   1.723   2.268   3.150
  105MYC     H520275   1.619   2.153   3.065
  105MYC     H620276   1.635   2.445   2.980
  105MYC     H720277   1.772   2.348   2.959
  105MYC     H820278   1.659   2.185   2.815
  105MYC     H920279   1.499   2.242   2.864
  105MYC   0H1020280   1.504   2.807   2.694
  105MYC   1H1020281   1.619   2.989   2.805
  105MYC   2H1020282   1.489   3.105   2.756
  105MYC   3H1020283   1.320   3.011   2.899
  105MYC   4H1020284   1.414   2.875   2.931
  105MYC   5H1020285   1.594   3.031   3.046
  105MYC   6H1020286   1.460   3.147   3.053
  105MYC   7H1020287   1.324   2.959   3.155
  105MYC   8H1020288   1.480   2.879   3.181
  105MYC   9H1020289   1.576   3.078   3.283
  105MYC    H1020290   1.519   2.455   2.744
  105MYC   0H1120291   1.412   3.147   3.303
  105MYC   1H1120292   1.531   2.879   3.410
  105MYC   2H1120293   1.243   2.992   3.457
  105MYC   3H1120294   1.308   2.834   3.512
  105MYC   4H1120295   1.427   3.124   3.560
  105MYC   5H1120296   1.546   2.859   3.650
  105MYC   6H1120297   1.628   3.019   3.668
  105MYC   7H1120298   1.433   3.090   3.810
  105MYC   8H1120299   1.362   2.932   3.794
  105MYC   9H1120300   1.606   2.853   3.899
  105MYC    H1120301   1.691   2.426   2.710
  105MYC   0H1220302   1.617   3.021   3.949
  105MYC   1H1220303   1.415   3.013   4.068
  105MYC   2H1220304   1.377   2.842   4.032
  105MYC   3H1220305   1.607   2.790   4.137
  105MYC   4H1220306   1.612   2.960   4.188
  105MYC   5H1220307   1.421   2.949   4.320
  105MYC   6H1220308   1.387   2.782   4.275
  105MYC   7H1220309   1.584   2.695   4.369
  105MYC   8H1220310   1.650   2.846   4.414
  105MYC   9H1220311   1.430   2.871   4.559
  105MYC    H1220312   1.656   2.228   2.588
  105MYC   0H1320313   1.409   2.702   4.541
  105MYC   1H1320314   1.657   2.685   4.637
  105MYC   2H1320315   1.641   2.861   4.671
  105MYC   3H1320316   1.412   2.765   4.803
  105MYC   4H1320317   1.501   2.619   4.795
  105MYC   5H1320318   1.690   2.682   4.914
  105MYC   6H1320319   1.654   2.846   4.913
  105MYC   7H1320320   1.441   2.803   5.044
  105MYC   8H1320321   1.486   2.634   5.065
  105MYC   9H1320322   1.710   2.744   5.161
  105MYC    H1320323   1.481   2.228   2.607
  105MYC   0H1420324   1.609   2.889   5.171
  105MYC   1H1420325   1.435   2.757   5.305
  105MYC   2H1420326   1.551   2.628   5.306
  105MYC   3H1420327   1.718   2.818   5.413
  105MYC   4H1420328   1.569   2.902   5.449
  105MYC   5H1420329   1.482   2.691   5.557
  105MYC   6H1420330   1.637   2.616   5.524
  105MYC   7H1420331   1.757   2.737   5.672
  105MYC   8H1420332   1.637   2.868   5.706
  105MYC   9H1420333   1.475   2.723   5.808
  105MYC    H1420334   1.455   2.406   2.469
  105MYC   0H1520335   1.591   2.591   5.775
  105MYC   1H1520336   1.758   2.693   5.923
  105MYC   2H1520337   1.663   2.836   5.954
  105MYC   3H1520338   1.636   2.548   6.046
  105MYC   4H1520339   1.483   2.630   6.037
  105MYC   5H1520340   1.610   2.693   6.145
  105MYC   6H1520341   1.511   1.942   3.384
  105MYC    H1520342   1.624   2.454   2.463
  105MYC    H1620343   1.553   2.174   2.366
  105MYC    H1720344   1.498   2.305   2.266
  105MYC    H1820345   1.781   2.340   2.346
  105MYC    H1920346   1.744   2.210   2.227
  105MYC    H2020347   1.616   2.483   2.190
  105MYC    H2120348   1.784   2.469   2.178
  105MYC    H2220349   1.761   2.282   1.998
  105MYC    H2320350   1.591   2.330   2.001
  105MYC    H2420351   1.629   2.521   1.880
  105MYC    H2520352   1.788   2.552   1.944
  105MYC    H2620353   1.879   2.368   1.798
  105MYC    H2720354   1.714   2.331   1.750
  105MYC    H2820355   1.888   2.577   1.697
  105MYC    H2920356   1.845   2.461   1.580
  105MYC    H3020357   1.589   2.540   1.634
  105MYC    H3120358   1.750   2.809   1.674
  105MYC    H3220359   1.605   2.676   1.432
  105MYC    H3320360   1.787   2.697   1.453
  105MYC    H3420361   1.386   2.435   3.357
  105MYC    H3520362   1.290   2.286   3.385
  105MYC    H3620363   1.521   2.367   3.558
  105MYC    H3720364   1.361   2.414   3.592
  105MYC    H3820365   1.280   2.213   3.668
  105MYC    H3920366   1.375   2.122   3.562
  105MYC    H4020367   1.554   2.103   3.697
  105MYC    H4120368   1.535   2.265   3.761
  105MYC    H4220369   1.320   2.161   3.876
  105MYC    H4320370   1.392   2.003   3.841
  105MYC    H4420371   1.596   2.062   3.966
  105MYC    H4520372   1.538   2.229   3.989
  105MYC    H4620373   1.346   2.138   4.144
  105MYC    H4720374   1.425   1.985   4.133
  105MYC    H4820375   1.623   2.069   4.243
  105MYC    H4920376   1.549   2.225   4.263
  105MYC    H5020377   1.338   2.105   4.360
  105MYC    H5120378   1.439   1.971   4.390
  105MYC    H5220379   1.600   2.108   4.522
  105MYC    H5320380   1.487   2.245   4.514
  105MYC    H5420381   1.319   2.101   4.628
  105MYC    H5520382   1.448   1.977   4.638
  105MYC    H5620383   1.594   2.126   4.762
  105MYC    H5720384   1.467   2.251   4.772
  105MYC    H5820385   1.328   2.075   4.896
  105MYC    H5920386   1.479   1.984   4.914
  105MYC    H6020387   1.598   2.156   5.013
  105MYC    H6120388   1.477   2.277   5.013
  105MYC    H6220389   1.326   2.158   5.160
  105MYC    H6320390   1.433   2.010   5.146
  105MYC    H6420391   1.607   2.141   5.262
  105MYC    H6520392   1.509   2.284   5.276
  105MYC    H6620393   1.333   2.123   5.408
  105MYC    H6720394   1.466   2.012   5.406
  105MYC    H6820395   1.591   2.126   5.562
  105MYC    H6920396   1.536   2.278   5.519
  105MYC    H7020397   1.323   2.241   5.654
  105MYC    H7120398   1.372   2.070   5.669
  105MYC    H7220399   1.582   2.170   5.788
  105MYC    H7320400   1.525   2.325   5.762
  105MYC    H7420401   1.312   2.239   5.918
  105MYC    H7520402   1.415   2.103   5.950
  105MYC    H7620403   1.589   2.282   6.028
  105MYC    H7720404   1.463   2.409   5.990
  105MYC    H7820405   1.339   2.339   6.181
  105MYC    H7920406   1.401   2.181   6.180
  105MYC    H8020407   1.502   2.322   6.365
  105MYC    H8120408   1.564   2.430   6.245
  105MYC    H8220409   1.630   2.261   6.251
  105MYC    H8320410   1.522   2.884   1.574
  105MYC    H8420411   1.453   2.743   1.678
  105MYC    H8520412   1.628   2.970   1.771
  105MYC    H8620413   1.450   2.976   1.779
  105MYC    H8720414   1.446   2.772   1.912
  105MYC    H8820415   1.631   2.771   1.898
  105MYC    H8920416   1.656   2.947   2.036
  105MYC    H9020417   1.499   3.018   2.017
  105MYC    H9120418   1.411   2.838   2.176
  105MYC    H9220419   1.568   2.750   2.156
  105MYC    H9320420   1.677   2.917   2.293
  105MYC    H9420421   1.532   3.028   2.284
  105MYC    H9520422   1.405   2.841   2.408
  105MYC    H9620423   1.565   2.775   2.448
  105MYC    H9720424   1.648   2.968   2.539
  105MYC    H9820425   1.506   3.066   2.516
  105MYC    H9920426   1.368   2.895   2.661
  106MYC     C120427   1.193   4.045   3.277
  106MYC     C220428   1.317   3.985   3.208
  106MYC     O320429   1.432   4.041   3.269
  106MYC     C420430   1.313   4.006   3.056
  106MYC     C520431   1.420   3.929   2.977
  106MYC     C620432   1.450   3.987   2.838
  106MYC     C720433   1.589   3.942   2.790
  106MYC     C820434   1.615   3.951   2.639
  106MYC     C920435   1.530   3.861   2.547
  106MYC    C1020436   1.596   3.855   2.409
  106MYC    C1120437   1.502   3.785   2.310
  106MYC    C1220438   1.554   3.785   2.165
  106MYC    C1320439   1.443   3.744   2.067
  106MYC    C1420440   1.462   3.599   2.020
  106MYC    C1520441   1.369   3.561   1.904
  106MYC    C1620442   1.395   3.422   1.844
  106MYC    C1720443   1.540   3.384   1.819
  106MYC    C1820444   1.601   3.267   1.892
  106MYC    C1920445   1.574   3.257   1.744
  106MYC    C2020446   1.196   4.078   3.427
  106MYC    C2120447   1.212   3.964   3.529
  106MYC    C2220448   1.183   4.021   3.669
  106MYC    C2320449   1.181   3.923   3.788
  106MYC    C2420450   1.151   3.999   3.918
  106MYC    C2520451   1.151   3.915   4.046
  106MYC    C2620452   1.130   3.995   4.176
  106MYC    C2720453   1.157   3.893   4.288
  106MYC    C2820454   1.119   3.963   4.420
  106MYC    C2920455   1.166   3.871   4.534
  106MYC    C3020456   1.129   3.932   4.670
  106MYC    C3120457   1.209   3.859   4.779
  106MYC    C3220458   1.159   3.900   4.918
  106MYC    C3320459   1.230   3.838   5.040
  106MYC    C3420460   1.211   3.919   5.169
  106MYC    C3520461   1.288   3.858   5.287
  106MYC    C3620462   1.252   3.936   5.415
  106MYC    C3720463   1.325   3.887   5.542
  106MYC    C3820464   1.301   3.973   5.667
  106MYC    C3920465   1.334   3.891   5.793
  106MYC    C4020466   1.351   3.982   5.915
  106MYC    C4120467   1.391   3.899   6.038
  106MYC    C4220468   1.391   3.968   6.176
  106MYC    C4320469   1.428   3.864   6.283
  106MYC    C4420470   1.742   3.263   1.949
  106MYC    C4520471   1.745   3.235   2.100
  106MYC    C4620472   1.667   3.341   2.179
  106MYC    C4720473   1.681   3.311   2.329
  106MYC    C4820474   1.621   3.411   2.430
  106MYC    C4920475   1.661   3.378   2.575
  106MYC    C5020476   1.601   3.468   2.685
  106MYC    C5120477   1.677   3.451   2.818
  106MYC    C5220478   1.637   3.544   2.933
  106MYC    C5320479   1.685   3.494   3.070
  106MYC    C5420480   1.671   3.596   3.184
  106MYC    C5520481   1.734   3.538   3.312
  106MYC    C5620482   1.699   3.619   3.438
  106MYC    C5720483   1.749   3.558   3.570
  106MYC    C5820484   1.660   3.595   3.688
  106MYC    C5920485   1.685   3.725   3.760
  106MYC    C6020486   1.720   3.594   3.826
  106MYC    C6120487   1.642   3.544   3.947
  106MYC    C6220488   1.741   3.493   4.052
  106MYC    C6320489   1.664   3.432   4.170
  106MYC    C6420490   1.761   3.413   4.288
  106MYC    C6520491   1.703   3.337   4.408
  106MYC    C6620492   1.764   3.383   4.542
  106MYC    C6720493   1.682   3.336   4.663
  106MYC    C6820494   1.762   3.358   4.792
  106MYC    C6920495   1.683   3.295   4.908
  106MYC    C7020496   1.692   3.374   5.040
  106MYC    C7120497   1.625   3.294   5.154
  106MYC    C7220498   1.653   3.365   5.287
  106MYC    C7320499   1.588   3.298   5.410
  106MYC    C7420500   1.565   3.394   5.528
  106MYC    C7520501   1.701   3.409   5.598
  106MYC    C7620502   1.688   3.494   5.726
  106MYC    C7720503   1.823   3.520   5.795
  106MYC    C7820504   1.804   3.536   5.947
  106MYC    C7920505   1.937   3.576   6.014
  106MYC    C8020506   1.935   3.549   6.165
  106MYC    C8120507   1.142   4.172   3.211
  106MYC    O8220508   1.068   4.169   3.114
  106MYC    O8320509   1.192   4.290   3.256
  106MYC     H120510   1.107   3.977   3.265
  106MYC     H220511   1.324   3.876   3.215
  106MYC     H320512   1.494   4.054   3.194
  106MYC     H420513   1.216   3.967   3.023
  106MYC     H520514   1.317   4.111   3.025
  106MYC     H620515   1.516   3.937   3.030
  106MYC     H720516   1.392   3.823   2.969
  106MYC     H820517   1.365   3.951   2.778
  106MYC     H920518   1.440   4.096   2.843
  106MYC   0H1020519   1.528   3.555   2.940
  106MYC   1H1020520   1.654   3.393   3.101
  106MYC   2H1020521   1.793   3.476   3.060
  106MYC   3H1020522   1.727   3.686   3.155
  106MYC   4H1020523   1.563   3.611   3.196
  106MYC   5H1020524   1.707   3.434   3.331
  106MYC   6H1020525   1.843   3.543   3.299
  106MYC   7H1020526   1.737   3.721   3.423
  106MYC   8H1020527   1.590   3.622   3.443
  106MYC   9H1020528   1.735   3.451   3.550
  106MYC    H1020529   1.673   3.996   2.837
  106MYC   0H1120530   1.855   3.571   3.591
  106MYC   1H1120531   1.556   3.569   3.674
  106MYC   2H1120532   1.769   3.789   3.737
  106MYC   3H1120533   1.598   3.779   3.798
  106MYC   4H1120534   1.825   3.572   3.842
  106MYC   5H1120535   1.568   3.616   3.985
  106MYC   6H1120536   1.584   3.463   3.902
  106MYC   7H1120537   1.805   3.418   4.004
  106MYC   8H1120538   1.813   3.567   4.089
  106MYC   9H1120539   1.585   3.502   4.202
  106MYC    H1120540   1.601   3.835   2.811
  106MYC   0H1220541   1.619   3.340   4.132
  106MYC   1H1220542   1.847   3.351   4.261
  106MYC   2H1220543   1.799   3.514   4.309
  106MYC   3H1220544   1.594   3.348   4.418
  106MYC   4H1220545   1.723   3.229   4.410
  106MYC   5H1220546   1.867   3.344   4.545
  106MYC   6H1220547   1.767   3.493   4.543
  106MYC   7H1220548   1.591   3.397   4.664
  106MYC   8H1220549   1.655   3.231   4.647
  106MYC   9H1220550   1.862   3.313   4.786
  106MYC    H1220551   1.629   4.054   2.604
  106MYC   0H1320552   1.778   3.465   4.810
  106MYC   1H1320553   1.577   3.286   4.884
  106MYC   2H1320554   1.721   3.192   4.910
  106MYC   3H1320555   1.798   3.396   5.060
  106MYC   4H1320556   1.649   3.473   5.025
  106MYC   5H1320557   1.519   3.277   5.131
  106MYC   6H1320558   1.667   3.193   5.146
  106MYC   7H1320559   1.762   3.373   5.302
  106MYC   8H1320560   1.610   3.465   5.277
  106MYC   9H1320561   1.491   3.257   5.379
  106MYC    H1320562   1.715   3.907   2.629
  106MYC   0H1420563   1.648   3.217   5.453
  106MYC   1H1420564   1.522   3.489   5.494
  106MYC   2H1420565   1.487   3.348   5.589
  106MYC   3H1420566   1.742   3.310   5.619
  106MYC   4H1420567   1.774   3.458   5.532
  106MYC   5H1420568   1.646   3.594   5.709
  106MYC   6H1420569   1.613   3.443   5.787
  106MYC   7H1420570   1.902   3.450   5.767
  106MYC   8H1420571   1.865   3.616   5.762
  106MYC   9H1420572   1.733   3.618   5.959
  106MYC    H1420573   1.511   3.756   2.573
  106MYC   0H1520574   1.760   3.446   5.993
  106MYC   1H1520575   2.023   3.524   5.968
  106MYC   2H1520576   1.948   3.684   6.002
  106MYC   3H1520577   1.897   3.450   6.192
  106MYC   4H1520578   1.869   3.620   6.215
  106MYC   5H1520579   2.033   3.560   6.213
  106MYC   6H1520580   1.142   4.354   3.203
  106MYC    H1520581   1.431   3.907   2.549
  106MYC    H1620582   1.616   3.958   2.375
  106MYC    H1720583   1.696   3.810   2.414
  106MYC    H1820584   1.474   3.681   2.330
  106MYC    H1920585   1.403   3.832   2.310
  106MYC    H2020586   1.591   3.886   2.141
  106MYC    H2120587   1.644   3.723   2.160
  106MYC    H2220588   1.339   3.763   2.094
  106MYC    H2320589   1.458   3.814   1.983
  106MYC    H2420590   1.566   3.574   1.996
  106MYC    H2520591   1.432   3.530   2.100
  106MYC    H2620592   1.266   3.575   1.941
  106MYC    H2720593   1.385   3.638   1.827
  106MYC    H2820594   1.362   3.362   1.930
  106MYC    H2920595   1.335   3.397   1.755
  106MYC    H3020596   1.602   3.472   1.806
  106MYC    H3120597   1.528   3.220   1.958
  106MYC    H3220598   1.666   3.267   1.686
  106MYC    H3320599   1.492   3.202   1.698
  106MYC    H3420600   1.280   4.147   3.445
  106MYC    H3520601   1.104   4.131   3.453
  106MYC    H3620602   1.134   3.887   3.519
  106MYC    H3720603   1.313   3.922   3.522
  106MYC    H3820604   1.255   4.100   3.694
  106MYC    H3920605   1.087   4.074   3.671
  106MYC    H4020606   1.102   3.849   3.773
  106MYC    H4120607   1.276   3.870   3.803
  106MYC    H4220608   1.208   4.092   3.929
  106MYC    H4320609   1.046   4.025   3.900
  106MYC    H4420610   1.076   3.834   4.044
  106MYC    H4520611   1.251   3.871   4.041
  106MYC    H4620612   1.196   4.083   4.178
  106MYC    H4720613   1.023   4.021   4.175
  106MYC    H4820614   1.098   3.800   4.285
  106MYC    H4920615   1.259   3.853   4.291
  106MYC    H5020616   1.168   4.060   4.437
  106MYC    H5120617   1.010   3.969   4.427
  106MYC    H5220618   1.124   3.769   4.529
  106MYC    H5320619   1.275   3.861   4.538
  106MYC    H5420620   1.153   4.039   4.675
  106MYC    H5520621   1.024   3.906   4.690
  106MYC    H5620622   1.188   3.755   4.752
  106MYC    H5720623   1.318   3.870   4.775
  106MYC    H5820624   1.175   4.008   4.929
  106MYC    H5920625   1.052   3.877   4.923
  106MYC    H6020626   1.184   3.743   5.069
  106MYC    H6120627   1.334   3.809   5.022
  106MYC    H6220628   1.242   4.022   5.148
  106MYC    H6320629   1.103   3.928   5.188
  106MYC    H6420630   1.269   3.751   5.303
  106MYC    H6520631   1.395   3.865   5.267
  106MYC    H6620632   1.267   4.043   5.402
  106MYC    H6720633   1.144   3.922   5.429
  106MYC    H6820634   1.302   3.781   5.559
  106MYC    H6920635   1.433   3.888   5.524
  106MYC    H7020636   1.361   4.064   5.668
  106MYC    H7120637   1.196   4.007   5.666
  106MYC    H7220638   1.246   3.827   5.811
  106MYC    H7320639   1.417   3.820   5.780
  106MYC    H7420640   1.433   4.048   5.887
  106MYC    H7520641   1.262   4.045   5.929
  106MYC    H7620642   1.324   3.813   6.046
  106MYC    H7720643   1.493   3.864   6.017
  106MYC    H7820644   1.461   4.053   6.176
  106MYC    H7920645   1.291   4.009   6.196
  106MYC    H8020646   1.433   3.923   6.375
  106MYC    H8120647   1.525   3.820   6.257
  106MYC    H8220648   1.352   3.786   6.294
  106MYC    H8320649   1.805   3.192   1.894
  106MYC    H8420650   1.791   3.360   1.938
  106MYC    H8520651   1.685   3.144   2.119
  106MYC    H8620652   1.845   3.220   2.142
  106MYC    H8720653   1.700   3.442   2.152
  106MYC    H8820654   1.561   3.334   2.152
  106MYC    H8920655   1.642   3.213   2.360
  106MYC    H9020656   1.789   3.300   2.345
  106MYC    H9120657   1.654   3.512   2.404
  106MYC    H9220658   1.512   3.411   2.434
  106MYC    H9320659   1.643   3.272   2.593
  106MYC    H9420660   1.770   3.387   2.577
  106MYC    H9520661   1.624   3.566   2.642
  106MYC    H9620662   1.493   3.455   2.694
  106MYC    H9720663   1.657   3.346   2.843
  106MYC    H9820664   1.786   3.458   2.808
  106MYC    H9920665   1.678   3.644   2.915
  107MYC     C120666   1.761   4.277   3.352
  107MYC     C220667   1.699   4.260   3.212
  107MYC     O320668   1.736   4.135   3.155
  107MYC     C420669   1.745   4.374   3.120
  107MYC     C520670   1.703   4.366   2.972
  107MYC     C620671   1.823   4.342   2.878
  107MYC     C720672   1.773   4.304   2.738
  107MYC     C820673   1.882   4.285   2.631
  107MYC     C920674   1.829   4.350   2.502
  107MYC    C1020675   1.912   4.314   2.378
  107MYC    C1120676   1.862   4.400   2.261
  107MYC    C1220677   1.729   4.355   2.197
  107MYC    C1320678   1.756   4.276   2.068
  107MYC    C1420679   1.630   4.242   1.986
  107MYC    C1520680   1.660   4.197   1.842
  107MYC    C1620681   1.543   4.217   1.745
  107MYC    C1720682   1.421   4.138   1.787
  107MYC    C1820683   1.284   4.200   1.795
  107MYC    C1920684   1.320   4.112   1.678
  107MYC    C2020685   1.700   4.177   3.452
  107MYC    C2120686   1.661   4.230   3.590
  107MYC    C2220687   1.611   4.118   3.684
  107MYC    C2320688   1.607   4.154   3.833
  107MYC    C2420689   1.558   4.045   3.931
  107MYC    C2520690   1.550   4.103   4.073
  107MYC    C2620691   1.582   4.005   4.187
  107MYC    C2720692   1.556   4.065   4.327
  107MYC    C2820693   1.639   4.000   4.439
  107MYC    C2920694   1.650   4.098   4.557
  107MYC    C3020695   1.720   4.039   4.681
  107MYC    C3120696   1.699   4.122   4.808
  107MYC    C3220697   1.788   4.085   4.927
  107MYC    C3320698   1.773   4.188   5.041
  107MYC    C3420699   1.829   4.146   5.178
  107MYC    C3520700   1.816   4.244   5.295
  107MYC    C3620701   1.846   4.196   5.438
  107MYC    C3720702   1.804   4.307   5.536
  107MYC    C3820703   1.820   4.250   5.678
  107MYC    C3920704   1.792   4.358   5.784
  107MYC    C4020705   1.808   4.293   5.922
  107MYC    C4120706   1.774   4.393   6.034
  107MYC    C4220707   1.752   4.323   6.169
  107MYC    C4320708   1.730   4.419   6.287
  107MYC    C4420709   1.185   4.148   1.897
  107MYC    C4520710   1.143   4.248   2.006
  107MYC    C4620711   1.230   4.252   2.132
  107MYC    C4720712   1.169   4.321   2.256
  107MYC    C4820713   1.243   4.312   2.391
  107MYC    C4920714   1.164   4.388   2.499
  107MYC    C5020715   1.256   4.433   2.614
  107MYC    C5120716   1.181   4.486   2.737
  107MYC    C5220717   1.281   4.525   2.846
  107MYC    C5320718   1.210   4.552   2.980
  107MYC    C5420719   1.285   4.614   3.099
  107MYC    C5520720   1.185   4.651   3.209
  107MYC    C5620721   1.254   4.688   3.342
  107MYC    C5720722   1.167   4.672   3.467
  107MYC    C5820723   1.245   4.643   3.595
  107MYC    C5920724   1.290   4.500   3.611
  107MYC    C6020725   1.195   4.561   3.711
  107MYC    C6120726   1.240   4.605   3.849
  107MYC    C6220727   1.210   4.495   3.953
  107MYC    C6320728   1.280   4.520   4.087
  107MYC    C6420729   1.244   4.419   4.197
  107MYC    C6520730   1.311   4.462   4.328
  107MYC    C6620731   1.285   4.358   4.438
  107MYC    C6720732   1.340   4.401   4.575
  107MYC    C6820733   1.301   4.317   4.697
  107MYC    C6920734   1.320   4.389   4.831
  107MYC    C7020735   1.304   4.295   4.952
  107MYC    C7120736   1.315   4.375   5.083
  107MYC    C7220737   1.273   4.307   5.214
  107MYC    C7320738   1.293   4.391   5.341
  107MYC    C7420739   1.273   4.320   5.476
  107MYC    C7520740   1.295   4.416   5.594
  107MYC    C7620741   1.271   4.357   5.734
  107MYC    C7720742   1.325   4.449   5.845
  107MYC    C7820743   1.306   4.378   5.980
  107MYC    C7920744   1.350   4.463   6.100
  107MYC    C8020745   1.310   4.400   6.235
  107MYC    C8120746   1.913   4.276   3.360
  107MYC    O8220747   1.990   4.237   3.274
  107MYC    O8320748   1.953   4.351   3.464
  107MYC     H120749   1.726   4.377   3.378
  107MYC     H220750   1.591   4.275   3.221
  107MYC     H320751   1.824   4.153   3.119
  107MYC     H420752   1.691   4.464   3.152
  107MYC     H520753   1.852   4.397   3.131
  107MYC     H620754   1.630   4.285   2.958
  107MYC     H720755   1.644   4.455   2.946
  107MYC     H820756   1.884   4.432   2.866
  107MYC     H920757   1.886   4.259   2.912
  107MYC   0H1020758   1.321   4.622   2.812
  107MYC   1H1020759   1.124   4.618   2.961
  107MYC   2H1020760   1.173   4.454   3.011
  107MYC   3H1020761   1.357   4.542   3.141
  107MYC   4H1020762   1.346   4.697   3.061
  107MYC   5H1020763   1.117   4.732   3.181
  107MYC   6H1020764   1.123   4.563   3.231
  107MYC   7H1020765   1.330   4.609   3.348
  107MYC   8H1020766   1.305   4.785   3.337
  107MYC   9H1020767   1.114   4.767   3.487
  107MYC    H1020768   1.708   4.216   2.744
  107MYC   0H1120769   1.092   4.593   3.457
  107MYC   1H1120770   1.324   4.715   3.608
  107MYC   2H1120771   1.251   4.419   3.549
  107MYC   3H1120772   1.391   4.481   3.647
  107MYC   4H1120773   1.090   4.532   3.704
  107MYC   5H1120774   1.349   4.618   3.848
  107MYC   6H1120775   1.189   4.698   3.877
  107MYC   7H1120776   1.103   4.512   3.968
  107MYC   8H1120777   1.221   4.390   3.923
  107MYC   9H1120778   1.388   4.524   4.068
  107MYC    H1120779   1.706   4.384   2.705
  107MYC   0H1220780   1.250   4.617   4.128
  107MYC   1H1220781   1.136   4.420   4.217
  107MYC   2H1220782   1.278   4.317   4.175
  107MYC   3H1220783   1.419   4.474   4.312
  107MYC   4H1220784   1.277   4.564   4.351
  107MYC   5H1220785   1.178   4.337   4.452
  107MYC   6H1220786   1.337   4.266   4.408
  107MYC   7H1220787   1.450   4.394   4.571
  107MYC   8H1220788   1.321   4.508   4.594
  107MYC   9H1220789   1.196   4.283   4.696
  107MYC    H1220790   1.983   4.323   2.652
  107MYC   0H1320791   1.372   4.233   4.697
  107MYC   1H1320792   1.422   4.430   4.834
  107MYC   2H1320793   1.250   4.473   4.834
  107MYC   3H1320794   1.205   4.249   4.939
  107MYC   4H1320795   1.381   4.217   4.962
  107MYC   5H1320796   1.415   4.418   5.088
  107MYC   6H1320797   1.253   4.464   5.065
  107MYC   7H1320798   1.164   4.294   5.204
  107MYC   8H1320799   1.333   4.216   5.229
  107MYC   9H1320800   1.395   4.432   5.342
  107MYC    H1320801   1.888   4.176   2.618
  107MYC   0H1420802   1.238   4.485   5.342
  107MYC   1H1420803   1.171   4.278   5.472
  107MYC   2H1420804   1.346   4.240   5.496
  107MYC   3H1420805   1.398   4.456   5.589
  107MYC   4H1420806   1.238   4.509   5.583
  107MYC   5H1420807   1.164   4.339   5.746
  107MYC   6H1420808   1.328   4.264   5.745
  107MYC   7H1420809   1.434   4.452   5.835
  107MYC   8H1420810   1.268   4.542   5.845
  107MYC   9H1420811   1.199   4.355   5.986
  107MYC    H1420812   1.724   4.325   2.484
  107MYC   0H1520813   1.370   4.289   5.978
  107MYC   1H1520814   1.458   4.481   6.092
  107MYC   2H1520815   1.303   4.562   6.093
  107MYC   3H1520816   1.326   4.292   6.235
  107MYC   4H1520817   1.204   4.420   6.255
  107MYC   5H1520818   1.352   4.444   6.326
  107MYC   6H1520819   2.047   4.326   3.472
  107MYC    H1520820   1.826   4.460   2.511
  107MYC    H1620821   2.018   4.335   2.398
  107MYC    H1720822   1.902   4.206   2.360
  107MYC    H1820823   1.851   4.501   2.302
  107MYC    H1920824   1.934   4.412   2.179
  107MYC    H2020825   1.664   4.308   2.272
  107MYC    H2120826   1.672   4.445   2.168
  107MYC    H2220827   1.817   4.343   2.008
  107MYC    H2320828   1.805   4.181   2.093
  107MYC    H2420829   1.578   4.159   2.037
  107MYC    H2520830   1.558   4.325   1.988
  107MYC    H2620831   1.747   4.252   1.803
  107MYC    H2720832   1.699   4.094   1.834
  107MYC    H2820833   1.525   4.324   1.727
  107MYC    H2920834   1.575   4.182   1.646
  107MYC    H3020835   1.450   4.045   1.836
  107MYC    H3120836   1.276   4.308   1.780
  107MYC    H3220837   1.286   4.010   1.666
  107MYC    H3320838   1.333   4.162   1.582
  107MYC    H3420839   1.608   4.135   3.409
  107MYC    H3520840   1.773   4.096   3.465
  107MYC    H3620841   1.740   4.293   3.632
  107MYC    H3720842   1.579   4.302   3.576
  107MYC    H3820843   1.515   4.086   3.642
  107MYC    H3920844   1.672   4.027   3.685
  107MYC    H4020845   1.709   4.188   3.856
  107MYC    H4120846   1.538   4.239   3.840
  107MYC    H4220847   1.455   4.018   3.905
  107MYC    H4320848   1.627   3.960   3.933
  107MYC    H4420849   1.617   4.189   4.079
  107MYC    H4520850   1.453   4.151   4.090
  107MYC    H4620851   1.521   3.915   4.179
  107MYC    H4720852   1.686   3.971   4.176
  107MYC    H4820853   1.567   4.174   4.323
  107MYC    H4920854   1.448   4.045   4.337
  107MYC    H5020855   1.583   3.910   4.468
  107MYC    H5120856   1.735   3.983   4.389
  107MYC    H5220857   1.697   4.194   4.531
  107MYC    H5320858   1.547   4.124   4.584
  107MYC    H5420859   1.689   3.936   4.702
  107MYC    H5520860   1.827   4.045   4.658
  107MYC    H5620861   1.712   4.229   4.787
  107MYC    H5720862   1.591   4.125   4.829
  107MYC    H5820863   1.773   3.981   4.959
  107MYC    H5920864   1.890   4.094   4.889
  107MYC    H6020865   1.819   4.280   5.003
  107MYC    H6120866   1.666   4.210   5.049
  107MYC    H6220867   1.783   4.050   5.207
  107MYC    H6320868   1.935   4.126   5.161
  107MYC    H6420869   1.885   4.325   5.270
  107MYC    H6520870   1.719   4.295   5.296
  107MYC    H6620871   1.794   4.100   5.446
  107MYC    H6720872   1.955   4.182   5.450
  107MYC    H6820873   1.860   4.399   5.514
  107MYC    H6920874   1.698   4.330   5.521
  107MYC    H7020875   1.751   4.166   5.692
  107MYC    H7120876   1.922   4.214   5.697
  107MYC    H7220877   1.871   4.435   5.775
  107MYC    H7320878   1.693   4.403   5.772
  107MYC    H7420879   1.740   4.207   5.918
  107MYC    H7520880   1.912   4.260   5.931
  107MYC    H7620881   1.860   4.459   6.046
  107MYC    H7720882   1.681   4.446   6.007
  107MYC    H7820883   1.664   4.259   6.158
  107MYC    H7920884   1.838   4.260   6.195
  107MYC    H8020885   1.644   4.482   6.263
  107MYC    H8120886   1.812   4.490   6.305
  107MYC    H8220887   1.707   4.365   6.380
  107MYC    H8320888   1.093   4.137   1.838
  107MYC    H8420889   1.207   4.046   1.933
  107MYC    H8520890   1.130   4.349   1.965
  107MYC    H8620891   1.039   4.221   2.027
  107MYC    H8720892   1.256   4.149   2.160
  107MYC    H8820893   1.323   4.304   2.105
  107MYC    H8920894   1.153   4.423   2.220
  107MYC    H9020895   1.071   4.278   2.278
  107MYC    H9120896   1.249   4.206   2.416
  107MYC    H9220897   1.346   4.350   2.391
  107MYC    H9320898   1.112   4.475   2.457
  107MYC    H9420899   1.080   4.330   2.538
  107MYC    H9520900   1.318   4.347   2.645
  107MYC    H9620901   1.320   4.510   2.569
  107MYC    H9720902   1.097   4.552   2.709
  107MYC    H9820903   1.134   4.396   2.777
  107MYC    H9920904   1.368   4.459   2.844
  108MYC     C120905   1.879   4.874   3.354
  108MYC     C220906   1.758   4.922   3.271
  108MYC     O320907   1.636   4.852   3.291
  108MYC     C420908   1.773   4.927   3.118
  108MYC     C520909   1.747   4.795   3.044
  108MYC     C620910   1.829   4.782   2.915
  108MYC     C720911   1.790   4.890   2.811
  108MYC     C820912   1.848   4.847   2.675
  108MYC     C920913   1.827   4.968   2.582
  108MYC    C1020914   1.900   4.958   2.447
  108MYC    C1120915   1.899   5.089   2.367
  108MYC    C1220916   1.924   5.071   2.217
  108MYC    C1320917   1.895   5.200   2.138
  108MYC    C1420918   1.745   5.235   2.127
  108MYC    C1520919   1.721   5.353   2.031
  108MYC    C1620920   1.573   5.392   2.022
  108MYC    C1720921   1.502   5.330   1.902
  108MYC    C1820922   1.351   5.330   1.902
  108MYC    C1920923   1.426   5.423   1.810
  108MYC    C2020924   1.844   4.886   3.503
  108MYC    C2120925   1.798   5.022   3.557
  108MYC    C2220926   1.822   5.051   3.706
  108MYC    C2320927   1.768   5.186   3.758
  108MYC    C2420928   1.839   5.219   3.890
  108MYC    C2520929   1.749   5.213   4.015
  108MYC    C2620930   1.825   5.247   4.144
  108MYC    C2720931   1.747   5.234   4.277
  108MYC    C2820932   1.840   5.281   4.390
  108MYC    C2920933   1.798   5.216   4.522
  108MYC    C3020934   1.878   5.255   4.648
  108MYC    C3120935   1.822   5.192   4.777
  108MYC    C3220936   1.914   5.229   4.894
  108MYC    C3320937   1.841   5.210   5.028
  108MYC    C3420938   1.926   5.250   5.150
  108MYC    C3520939   1.858   5.245   5.288
  108MYC    C3620940   1.958   5.258   5.405
  108MYC    C3720941   1.885   5.284   5.537
  108MYC    C3820942   1.975   5.256   5.659
  108MYC    C3920943   1.913   5.291   5.795
  108MYC    C4020944   1.995   5.228   5.909
  108MYC    C4120945   1.916   5.238   6.040
  108MYC    C4220946   1.999   5.193   6.162
  108MYC    C4320947   1.929   5.238   6.291
  108MYC    C4420948   1.275   5.211   1.844
  108MYC    C4520949   1.166   5.157   1.937
  108MYC    C4620950   1.214   5.072   2.056
  108MYC    C4720951   1.109   5.041   2.164
  108MYC    C4820952   1.165   4.955   2.279
  108MYC    C4920953   1.090   4.981   2.411
  108MYC    C5020954   1.176   4.933   2.529
  108MYC    C5120955   1.105   4.943   2.665
  108MYC    C5220956   1.204   4.962   2.782
  108MYC    C5320957   1.144   4.968   2.923
  108MYC    C5420958   1.225   5.054   3.022
  108MYC    C5520959   1.167   5.058   3.164
  108MYC    C5620960   1.251   5.137   3.266
  108MYC    C5720961   1.191   5.134   3.407
  108MYC    C5820962   1.257   5.232   3.503
  108MYC    C5920963   1.376   5.184   3.583
  108MYC    C6020964   1.242   5.203   3.650
  108MYC    C6120965   1.224   5.310   3.756
  108MYC    C6220966   1.272   5.254   3.891
  108MYC    C6320967   1.225   5.338   4.012
  108MYC    C6420968   1.282   5.299   4.149
  108MYC    C6520969   1.229   5.385   4.265
  108MYC    C6620970   1.294   5.351   4.400
  108MYC    C6720971   1.236   5.426   4.521
  108MYC    C6820972   1.317   5.398   4.649
  108MYC    C6920973   1.259   5.446   4.783
  108MYC    C7020974   1.351   5.431   4.905
  108MYC    C7120975   1.282   5.461   5.040
  108MYC    C7220976   1.377   5.443   5.159
  108MYC    C7320977   1.319   5.453   5.302
  108MYC    C7420978   1.424   5.418   5.409
  108MYC    C7520979   1.381   5.459   5.550
  108MYC    C7620980   1.469   5.395   5.659
  108MYC    C7720981   1.416   5.439   5.797
  108MYC    C7820982   1.495   5.378   5.913
  108MYC    C7920983   1.445   5.402   6.056
  108MYC    C8020984   1.548   5.342   6.153
  108MYC    C8120985   1.944   4.742   3.313
  108MYC    O8220986   1.954   4.648   3.390
  108MYC    O8320987   2.017   4.746   3.199
  108MYC     H120988   1.964   4.939   3.333
  108MYC     H220989   1.744   5.025   3.303
  108MYC     H320990   1.618   4.831   3.384
  108MYC     H420991   1.699   4.996   3.076
  108MYC     H520992   1.873   4.969   3.099
  108MYC     H620993   1.783   4.715   3.109
  108MYC     H720994   1.639   4.780   3.030
  108MYC     H820995   1.938   4.775   2.924
  108MYC     H920996   1.810   4.684   2.870
  108MYC   0H1020997   1.254   5.057   2.758
  108MYC   1H1020998   1.050   5.023   2.921
  108MYC   2H1020999   1.130   4.867   2.963
  108MYC   3H1021000   1.324   5.008   3.029
  108MYC   4H1021001   1.247   5.156   2.990
  108MYC   5H1021002   1.068   5.105   3.172
  108MYC   6H1021003   1.157   4.953   3.196
  108MYC   7H1021004   1.349   5.088   3.264
  108MYC   8H1021005   1.265   5.241   3.232
  108MYC   9H1021006   1.083   5.151   3.399
  108MYC    H1021007   1.685   4.921   2.810
  108MYC   0H1121008   1.205   5.031   3.442
  108MYC   1H1121009   1.262   5.336   3.472
  108MYC   2H1121010   1.402   5.079   3.572
  108MYC   3H1121011   1.453   5.257   3.602
  108MYC   4H1121012   1.185   5.112   3.669
  108MYC   5H1121013   1.278   5.399   3.720
  108MYC   6H1121014   1.117   5.330   3.769
  108MYC   7H1121015   1.239   5.150   3.889
  108MYC   8H1121016   1.382   5.257   3.884
  108MYC   9H1121017   1.241   5.442   3.983
  108MYC    H1121018   1.851   4.974   2.846
  108MYC   0H1221019   1.116   5.331   4.021
  108MYC   1H1221020   1.249   5.195   4.161
  108MYC   2H1221021   1.391   5.306   4.141
  108MYC   3H1221022   1.234   5.494   4.254
  108MYC   4H1221023   1.123   5.356   4.269
  108MYC   5H1221024   1.270   5.248   4.427
  108MYC   6H1221025   1.403   5.364   4.399
  108MYC   7H1221026   1.233   5.534   4.501
  108MYC   8H1221027   1.134   5.395   4.544
  108MYC   9H1221028   1.345   5.292   4.654
  108MYC    H1221029   1.957   4.836   2.686
  108MYC   0H1321030   1.407   5.460   4.649
  108MYC   1H1321031   1.235   5.553   4.776
  108MYC   2H1321032   1.170   5.386   4.805
  108MYC   3H1321033   1.409   5.339   4.894
  108MYC   4H1321034   1.434   5.500   4.886
  108MYC   5H1321035   1.245   5.564   5.042
  108MYC   6H1321036   1.192   5.401   5.057
  108MYC   7H1321037   1.416   5.341   5.151
  108MYC   8H1321038   1.467   5.507   5.156
  108MYC   9H1321039   1.295   5.557   5.325
  108MYC    H1321040   1.801   4.755   2.640
  108MYC   0H1421041   1.231   5.388   5.313
  108MYC   1H1421042   1.444   5.310   5.404
  108MYC   2H1421043   1.520   5.464   5.383
  108MYC   3H1421044   1.371   5.568   5.548
  108MYC   4H1421045   1.277   5.430   5.570
  108MYC   5H1421046   1.455   5.287   5.648
  108MYC   6H1421047   1.575   5.404   5.634
  108MYC   7H1421048   1.424   5.549   5.793
  108MYC   8H1421049   1.310   5.417   5.813
  108MYC   9H1421050   1.496   5.269   5.896
  108MYC    H1421051   1.718   4.976   2.575
  108MYC   0H1521052   1.596   5.420   5.898
  108MYC   1H1521053   1.434   5.509   6.079
  108MYC   2H1521054   1.345   5.357   6.066
  108MYC   3H1521055   1.651   5.371   6.132
  108MYC   4H1521056   1.539   5.233   6.160
  108MYC   5H1521057   1.537   5.375   6.257
  108MYC   6H1521058   2.060   4.659   3.198
  108MYC    H1521059   1.867   5.057   2.633
  108MYC    H1621060   2.005   4.927   2.457
  108MYC    H1721061   1.839   4.880   2.399
  108MYC    H1821062   1.800   5.133   2.382
  108MYC    H1921063   1.971   5.153   2.420
  108MYC    H2021064   2.027   5.037   2.200
  108MYC    H2121065   1.853   4.994   2.185
  108MYC    H2221066   1.942   5.283   2.190
  108MYC    H2321067   1.945   5.192   2.040
  108MYC    H2421068   1.695   5.145   2.089
  108MYC    H2521069   1.716   5.258   2.230
  108MYC    H2621070   1.772   5.441   2.073
  108MYC    H2721071   1.765   5.332   1.933
  108MYC    H2821072   1.528   5.360   2.117
  108MYC    H2921073   1.561   5.501   2.022
  108MYC    H3021074   1.554   5.248   1.854
  108MYC    H3121075   1.289   5.376   1.979
  108MYC    H3221076   1.418   5.416   1.702
  108MYC    H3321077   1.426   5.529   1.834
  108MYC    H3421078   1.767   4.813   3.527
  108MYC    H3521079   1.926   4.846   3.565
  108MYC    H3621080   1.834   5.109   3.501
  108MYC    H3721081   1.690   5.022   3.535
  108MYC    H3821082   1.796   4.975   3.780
  108MYC    H3921083   1.931   5.062   3.715
  108MYC    H4021084   1.806   5.245   3.673
  108MYC    H4121085   1.659   5.179   3.769
  108MYC    H4221086   1.926   5.153   3.904
  108MYC    H4321087   1.885   5.318   3.884
  108MYC    H4421088   1.653   5.266   4.013
  108MYC    H4521089   1.711   5.111   4.030
  108MYC    H4621090   1.921   5.195   4.154
  108MYC    H4721091   1.853   5.352   4.137
  108MYC    H4821092   1.657   5.296   4.267
  108MYC    H4921093   1.718   5.133   4.309
  108MYC    H5021094   1.942   5.246   4.372
  108MYC    H5121095   1.850   5.390   4.397
  108MYC    H5221096   1.694   5.246   4.539
  108MYC    H5321097   1.797   5.107   4.511
  108MYC    H5421098   1.978   5.213   4.631
  108MYC    H5521099   1.881   5.364   4.645
  108MYC    H5621100   1.730   5.247   4.801
  108MYC    H5721101   1.809   5.084   4.767
  108MYC    H5821102   2.006   5.169   4.888
  108MYC    H5921103   1.940   5.336   4.889
  108MYC    H6021104   1.741   5.255   5.027
  108MYC    H6121105   1.819   5.103   5.040
  108MYC    H6221106   2.019   5.192   5.149
  108MYC    H6321107   1.963   5.352   5.134
  108MYC    H6421108   1.783   5.323   5.303
  108MYC    H6521109   1.797   5.158   5.314
  108MYC    H6621110   2.029   5.174   5.408
  108MYC    H6721111   2.017   5.348   5.384
  108MYC    H6821112   1.850   5.388   5.535
  108MYC    H6921113   1.796   5.219   5.538
  108MYC    H7021114   2.008   5.152   5.662
  108MYC    H7121115   2.061   5.322   5.643
  108MYC    H7221116   1.912   5.400   5.811
  108MYC    H7321117   1.810   5.253   5.801
  108MYC    H7421118   2.015   5.122   5.887
  108MYC    H7521119   2.090   5.280   5.925
  108MYC    H7621120   1.888   5.341   6.067
  108MYC    H7721121   1.822   5.182   6.032
  108MYC    H7821122   2.014   5.084   6.161
  108MYC    H7921123   2.098   5.240   6.154
  108MYC    H8021124   1.990   5.221   6.380
  108MYC    H8121125   1.843   5.175   6.317
  108MYC    H8221126   1.889   5.340   6.283
  108MYC    H8321127   1.234   5.239   1.746
  108MYC    H8421128   1.339   5.127   1.817
  108MYC    H8521129   1.107   5.237   1.985
  108MYC    H8621130   1.092   5.094   1.887
  108MYC    H8721131   1.254   4.979   2.015
  108MYC    H8821132   1.295   5.133   2.098
  108MYC    H8921133   1.074   5.139   2.199
  108MYC    H9021134   1.026   4.987   2.116
  108MYC    H9121135   1.173   4.849   2.255
  108MYC    H9221136   1.266   4.997   2.292
  108MYC    H9321137   1.067   5.087   2.418
  108MYC    H9421138   0.996   4.925   2.401
  108MYC    H9521139   1.198   4.825   2.527
  108MYC    H9621140   1.274   4.983   2.526
  108MYC    H9721141   1.020   5.011   2.662
  108MYC    H9821142   1.063   4.843   2.685
  108MYC    H9921143   1.283   4.886   2.773
  109MYC     C121144   1.728   5.477   3.312
  109MYC     C221145   1.624   5.578   3.261
  109MYC     O321146   1.492   5.527   3.267
  109MYC     C421147   1.653   5.643   3.125
  109MYC     C521148   1.624   5.557   3.000
  109MYC     C621149   1.609   5.634   2.868
  109MYC     C721150   1.611   5.544   2.744
  109MYC     C821151   1.581   5.630   2.621
  109MYC     C921152   1.524   5.550   2.502
  109MYC    C1021153   1.624   5.450   2.442
  109MYC    C1121154   1.759   5.506   2.394
  109MYC    C1221155   1.744   5.623   2.296
  109MYC    C1321156   1.872   5.647   2.214
  109MYC    C1421157   1.845   5.715   2.078
  109MYC    C1521158   1.947   5.702   1.964
  109MYC    C1621159   1.961   5.820   1.866
  109MYC    C1721160   1.834   5.864   1.795
  109MYC    C1821161   1.759   5.995   1.802
  109MYC    C1921162   1.835   5.958   1.677
  109MYC    C2021163   1.694   5.442   3.458
  109MYC    C2121164   1.640   5.551   3.552
  109MYC    C2221165   1.658   5.509   3.699
  109MYC    C2321166   1.590   5.610   3.794
  109MYC    C2421167   1.608   5.563   3.939
  109MYC    C2521168   1.620   5.673   4.045
  109MYC    C2621169   1.649   5.612   4.183
  109MYC    C2721170   1.659   5.715   4.296
  109MYC    C2821171   1.652   5.651   4.436
  109MYC    C2921172   1.737   5.730   4.536
  109MYC    C3021173   1.709   5.677   4.677
  109MYC    C3121174   1.802   5.740   4.782
  109MYC    C3221175   1.774   5.687   4.924
  109MYC    C3321176   1.832   5.768   5.041
  109MYC    C3421177   1.786   5.704   5.173
  109MYC    C3521178   1.839   5.770   5.301
  109MYC    C3621179   1.772   5.707   5.424
  109MYC    C3721180   1.816   5.776   5.555
  109MYC    C3821181   1.749   5.711   5.677
  109MYC    C3921182   1.803   5.771   5.808
  109MYC    C4021183   1.721   5.743   5.935
  109MYC    C4121184   1.812   5.738   6.060
  109MYC    C4221185   1.731   5.736   6.191
  109MYC    C4321186   1.819   5.776   6.310
  109MYC    C4421187   1.608   5.977   1.797
  109MYC    C4521188   1.516   6.075   1.872
  109MYC    C4621189   1.559   6.091   2.019
  109MYC    C4721190   1.469   6.192   2.094
  109MYC    C4821191   1.528   6.245   2.226
  109MYC    C4921192   1.436   6.258   2.349
  109MYC    C5021193   1.504   6.228   2.484
  109MYC    C5121194   1.404   6.231   2.601
  109MYC    C5221195   1.478   6.233   2.736
  109MYC    C5321196   1.386   6.250   2.858
  109MYC    C5421197   1.466   6.257   2.989
  109MYC    C5521198   1.375   6.262   3.113
  109MYC    C5621199   1.447   6.250   3.249
  109MYC    C5721200   1.351   6.255   3.369
  109MYC    C5821201   1.427   6.260   3.501
  109MYC    C5921202   1.515   6.151   3.556
  109MYC    C6021203   1.387   6.188   3.627
  109MYC    C6121204   1.411   6.253   3.763
  109MYC    C6221205   1.403   6.146   3.873
  109MYC    C6321206   1.406   6.209   4.014
  109MYC    C6421207   1.378   6.102   4.120
  109MYC    C6521208   1.379   6.153   4.265
  109MYC    C6621209   1.318   6.056   4.367
  109MYC    C6721210   1.303   6.117   4.508
  109MYC    C6821211   1.335   6.018   4.621
  109MYC    C6921212   1.327   6.082   4.760
  109MYC    C7021213   1.390   6.001   4.875
  109MYC    C7121214   1.387   6.075   5.010
  109MYC    C7221215   1.435   5.996   5.133
  109MYC    C7321216   1.402   6.070   5.263
  109MYC    C7421217   1.493   6.031   5.380
  109MYC    C7521218   1.454   6.108   5.507
  109MYC    C7621219   1.537   6.056   5.625
  109MYC    C7721220   1.529   6.149   5.747
  109MYC    C7821221   1.583   6.090   5.878
  109MYC    C7921222   1.607   6.193   5.990
  109MYC    C8021223   1.622   6.135   6.131
  109MYC    C8121224   1.748   5.349   3.232
  109MYC    O8221225   1.672   5.309   3.146
  109MYC    O8321226   1.868   5.290   3.253
  109MYC     H121227   1.826   5.527   3.321
  109MYC     H221228   1.630   5.666   3.328
  109MYC     H321229   1.486   5.435   3.237
  109MYC     H421230   1.582   5.725   3.112
  109MYC     H521231   1.756   5.680   3.117
  109MYC     H621232   1.697   5.478   2.983
  109MYC     H721233   1.527   5.510   3.023
  109MYC     H821234   1.521   5.700   2.867
  109MYC     H921235   1.688   5.711   2.861
  109MYC   0H1021236   1.548   6.318   2.735
  109MYC   1H1021237   1.321   6.337   2.845
  109MYC   2H1021238   1.327   6.159   2.877
  109MYC   3H1021239   1.548   6.184   2.996
  109MYC   4H1021240   1.526   6.349   2.983
  109MYC   5H1021241   1.317   6.355   3.113
  109MYC   6H1021242   1.306   6.178   3.103
  109MYC   7H1021243   1.506   6.157   3.254
  109MYC   8H1021244   1.521   6.330   3.249
  109MYC   9H1021245   1.287   6.343   3.359
  109MYC    H1021246   1.711   5.500   2.731
  109MYC   0H1121247   1.285   6.167   3.371
  109MYC   1H1121248   1.445   6.366   3.519
  109MYC   2H1121249   1.531   6.064   3.492
  109MYC   3H1121250   1.606   6.192   3.599
  109MYC   4H1121251   1.308   6.113   3.629
  109MYC   5H1121252   1.509   6.301   3.771
  109MYC   6H1121253   1.340   6.335   3.778
  109MYC   7H1121254   1.306   6.094   3.874
  109MYC   8H1121255   1.485   6.074   3.868
  109MYC   9H1121256   1.504   6.257   4.023
  109MYC    H1121257   1.542   5.458   2.749
  109MYC   0H1221258   1.321   6.277   4.028
  109MYC   1H1221259   1.283   6.052   4.099
  109MYC   2H1221260   1.443   6.013   4.113
  109MYC   3H1221261   1.485   6.173   4.286
  109MYC   4H1221262   1.324   6.248   4.273
  109MYC   5H1221263   1.216   6.030   4.335
  109MYC   6H1221264   1.376   5.963   4.359
  109MYC   7H1221265   1.377   6.196   4.527
  109MYC   8H1221266   1.204   6.161   4.524
  109MYC   9H1221267   1.267   5.932   4.613
  109MYC    H1221268   1.522   5.717   2.653
  109MYC   0H1321269   1.438   5.981   4.613
  109MYC   1H1321270   1.377   6.179   4.760
  109MYC   2H1321271   1.222   6.108   4.780
  109MYC   3H1321272   1.334   5.908   4.890
  109MYC   4H1321273   1.494   5.971   4.857
  109MYC   5H1321274   1.433   6.174   5.003
  109MYC   6H1321275   1.282   6.088   5.039
  109MYC   7H1321276   1.398   5.893   5.140
  109MYC   8H1321277   1.544   5.994   5.127
  109MYC   9H1321278   1.409   6.178   5.245
  109MYC    H1321279   1.677   5.675   2.590
  109MYC   0H1421280   1.300   6.042   5.291
  109MYC   1H1421281   1.486   5.924   5.405
  109MYC   2H1421282   1.598   6.045   5.351
  109MYC   3H1421283   1.465   6.216   5.493
  109MYC   4H1421284   1.347   6.096   5.531
  109MYC   5H1421285   1.507   5.953   5.646
  109MYC   6H1421286   1.642   6.044   5.597
  109MYC   7H1421287   1.582   6.243   5.724
  109MYC   8H1421288   1.427   6.186   5.764
  109MYC   9H1421289   1.517   6.009   5.912
  109MYC    H1421290   1.442   5.487   2.539
  109MYC   0H1521291   1.680   6.046   5.853
  109MYC   1H1521292   1.699   6.245   5.962
  109MYC   2H1521293   1.532   6.273   5.993
  109MYC   3H1521294   1.712   6.074   6.145
  109MYC   4H1521295   1.538   6.068   6.149
  109MYC   5H1521296   1.629   6.215   6.206
  109MYC   6H1521297   1.887   5.235   3.176
  109MYC    H1521298   1.488   5.617   2.423
  109MYC    H1621299   1.645   5.382   2.525
  109MYC    H1721300   1.577   5.393   2.361
  109MYC    H1821301   1.815   5.541   2.482
  109MYC    H1921302   1.819   5.420   2.360
  109MYC    H2021303   1.652   5.616   2.237
  109MYC    H2121304   1.726   5.708   2.363
  109MYC    H2221305   1.934   5.717   2.270
  109MYC    H2321306   1.939   5.561   2.198
  109MYC    H2421307   1.753   5.671   2.039
  109MYC    H2521308   1.817   5.819   2.101
  109MYC    H2621309   2.040   5.696   2.022
  109MYC    H2721310   1.952   5.601   1.920
  109MYC    H2821311   2.008   5.902   1.921
  109MYC    H2921312   2.040   5.799   1.792
  109MYC    H3021313   1.784   5.772   1.766
  109MYC    H3121314   1.803   6.082   1.850
  109MYC    H3221315   1.770   5.928   1.595
  109MYC    H3321316   1.928   6.006   1.649
  109MYC    H3421317   1.623   5.360   3.450
  109MYC    H3521318   1.789   5.403   3.498
  109MYC    H3621319   1.671   5.654   3.531
  109MYC    H3721320   1.532   5.564   3.541
  109MYC    H3821321   1.608   5.413   3.713
  109MYC    H3921322   1.764   5.499   3.726
  109MYC    H4021323   1.640   5.706   3.777
  109MYC    H4121324   1.484   5.615   3.768
  109MYC    H4221325   1.524   5.497   3.966
  109MYC    H4321326   1.706   5.514   3.947
  109MYC    H4421327   1.699   5.741   4.010
  109MYC    H4521328   1.527   5.731   4.054
  109MYC    H4621329   1.564   5.548   4.209
  109MYC    H4721330   1.736   5.545   4.187
  109MYC    H4821331   1.752   5.768   4.274
  109MYC    H4921332   1.574   5.785   4.294
  109MYC    H5021333   1.547   5.658   4.466
  109MYC    H5121334   1.678   5.545   4.431
  109MYC    H5221335   1.843   5.717   4.511
  109MYC    H5321336   1.709   5.836   4.537
  109MYC    H5421337   1.604   5.690   4.706
  109MYC    H5521338   1.711   5.567   4.673
  109MYC    H5621339   1.902   5.699   4.761
  109MYC    H5721340   1.815   5.849   4.773
  109MYC    H5821341   1.665   5.680   4.935
  109MYC    H5921342   1.810   5.583   4.926
  109MYC    H6021343   1.941   5.756   5.040
  109MYC    H6121344   1.811   5.875   5.035
  109MYC    H6221345   1.677   5.701   5.179
  109MYC    H6321346   1.820   5.600   5.180
  109MYC    H6421347   1.948   5.769   5.311
  109MYC    H6521348   1.818   5.878   5.293
  109MYC    H6621349   1.663   5.715   5.412
  109MYC    H6721350   1.791   5.600   5.435
  109MYC    H6821351   1.925   5.768   5.566
  109MYC    H6921352   1.802   5.885   5.553
  109MYC    H7021353   1.639   5.707   5.670
  109MYC    H7121354   1.783   5.607   5.672
  109MYC    H7221355   1.903   5.732   5.832
  109MYC    H7321356   1.819   5.878   5.796
  109MYC    H7421357   1.648   5.823   5.948
  109MYC    H7521358   1.668   5.647   5.929
  109MYC    H7621359   1.885   5.657   6.060
  109MYC    H7721360   1.873   5.829   6.055
  109MYC    H7821361   1.639   5.795   6.196
  109MYC    H7921362   1.700   5.632   6.209
  109MYC    H8021363   1.762   5.788   6.403
  109MYC    H8121364   1.842   5.882   6.293
  109MYC    H8221365   1.903   5.710   6.331
  109MYC    H8321366   1.577   5.985   1.692
  109MYC    H8421367   1.576   5.880   1.838
  109MYC    H8521368   1.525   6.174   1.827
  109MYC    H8621369   1.410   6.050   1.859
  109MYC    H8721370   1.553   5.996   2.073
  109MYC    H8821371   1.664   6.119   2.028
  109MYC    H8921372   1.450   6.277   2.028
  109MYC    H9021373   1.373   6.142   2.109
  109MYC    H9121374   1.618   6.189   2.252
  109MYC    H9221375   1.575   6.343   2.208
  109MYC    H9321376   1.386   6.355   2.350
  109MYC    H9421377   1.353   6.187   2.340
  109MYC    H9521378   1.560   6.136   2.464
  109MYC    H9621379   1.580   6.304   2.506
  109MYC    H9721380   1.340   6.319   2.586
  109MYC    H9821381   1.336   6.146   2.583
  109MYC    H9921382   1.543   6.146   2.751
  110MYC     C121383   2.351   0.134   3.208
  110MYC     C221384   2.495   0.137   3.153
  110MYC     O321385   2.520   0.267   3.103
  110MYC     C421386   2.522   0.024   3.052
  110MYC     C521387   2.554   0.064   2.907
  110MYC     C621388   2.431   0.099   2.821
  110MYC     C721389   2.467   0.143   2.678
  110MYC     C821390   2.348   0.221   2.619
  110MYC     C921391   2.325   0.213   2.468
  110MYC    C1021392   2.182   0.254   2.429
  110MYC    C1121393   2.129   0.168   2.313
  110MYC    C1221394   2.197   0.208   2.181
  110MYC    C1321395   2.158   0.117   2.063
  110MYC    C1421396   2.263   0.144   1.953
  110MYC    C1521397   2.228   0.061   1.828
  110MYC    C1621398   2.334   0.072   1.717
  110MYC    C1721399   2.382   0.210   1.672
  110MYC    C1821400   2.516   0.270   1.706
  110MYC    C1921401   2.490   0.216   1.567
  110MYC    C2021402   2.346   0.164   3.358
  110MYC    C2121403   2.415   0.051   3.437
  110MYC    C2221404   2.390   0.062   3.588
  110MYC    C2321405   2.427  -0.069   3.660
  110MYC    C2421406   2.371  -0.077   3.803
  110MYC    C2521407   2.429   0.019   3.909
  110MYC    C2621408   2.356  -0.001   4.042
  110MYC    C2721409   2.390   0.099   4.154
  110MYC    C2821410   2.329   0.040   4.282
  110MYC    C2921411   2.391   0.096   4.411
  110MYC    C3021412   2.321   0.021   4.525
  110MYC    C3121413   2.377   0.063   4.662
  110MYC    C3221414   2.311  -0.015   4.777
  110MYC    C3321415   2.363   0.027   4.915
  110MYC    C3421416   2.300  -0.050   5.032
  110MYC    C3521417   2.350   0.015   5.162
  110MYC    C3621418   2.323  -0.065   5.290
  110MYC    C3721419   2.396  -0.013   5.416
  110MYC    C3821420   2.344  -0.073   5.548
  110MYC    C3921421   2.390   0.002   5.674
  110MYC    C4021422   2.341  -0.056   5.808
  110MYC    C4121423   2.405   0.013   5.931
  110MYC    C4221424   2.382  -0.072   6.057
  110MYC    C4321425   2.421   0.001   6.187
  110MYC    C4421426   2.525   0.422   1.717
  110MYC    C4521427   2.613   0.482   1.827
  110MYC    C4621428   2.588   0.420   1.966
  110MYC    C4721429   2.641   0.505   2.082
  110MYC    C4821430   2.640   0.430   2.216
  110MYC    C4921431   2.695   0.525   2.324
  110MYC    C5021432   2.666   0.486   2.470
  110MYC    C5121433   2.726   0.582   2.574
  110MYC    C5221434   2.693   0.548   2.721
  110MYC    C5321435   2.764   0.641   2.821
  110MYC    C5421436   2.769   0.572   2.958
  110MYC    C5521437   2.830   0.658   3.070
  110MYC    C5621438   2.835   0.588   3.207
  110MYC    C5721439   2.800   0.673   3.330
  110MYC    C5821440   2.797   0.595   3.460
  110MYC    C5921441   2.668   0.524   3.494
  110MYC    C6021442   2.713   0.643   3.576
  110MYC    C6121443   2.740   0.605   3.721
  110MYC    C6221444   2.620   0.640   3.810
  110MYC    C6321445   2.636   0.560   3.941
  110MYC    C6421446   2.545   0.586   4.062
  110MYC    C6521447   2.614   0.538   4.191
  110MYC    C6621448   2.537   0.564   4.321
  110MYC    C6721449   2.583   0.468   4.432
  110MYC    C6821450   2.499   0.492   4.558
  110MYC    C6921451   2.561   0.432   4.686
  110MYC    C7021452   2.486   0.468   4.815
  110MYC    C7121453   2.550   0.399   4.936
  110MYC    C7221454   2.495   0.440   5.074
  110MYC    C7321455   2.596   0.408   5.186
  110MYC    C7421456   2.528   0.407   5.324
  110MYC    C7521457   2.627   0.388   5.440
  110MYC    C7621458   2.557   0.393   5.576
  110MYC    C7721459   2.642   0.357   5.699
  110MYC    C7821460   2.571   0.388   5.832
  110MYC    C7921461   2.663   0.386   5.956
  110MYC    C8021462   2.600   0.462   6.074
  110MYC    C8121463   2.244   0.210   3.131
  110MYC    O8221464   2.199   0.317   3.169
  110MYC    O8321465   2.186   0.142   3.030
  110MYC     H121466   2.312   0.032   3.207
  110MYC     H221467   2.571   0.127   3.232
  110MYC     H321468   2.453   0.330   3.135
  110MYC     H421469   2.614  -0.028   3.082
  110MYC     H521470   2.441  -0.049   3.058
  110MYC     H621471   2.622   0.149   2.898
  110MYC     H721472   2.611  -0.017   2.862
  110MYC     H821473   2.368   0.009   2.821
  110MYC     H921474   2.376   0.179   2.872
  110MYC   0H1021475   2.735   0.448   2.735
  110MYC   1H1021476   2.864   0.652   2.777
  110MYC   2H1021477   2.718   0.741   2.822
  110MYC   3H1021478   2.665   0.550   2.983
  110MYC   4H1021479   2.820   0.476   2.943
  110MYC   5H1021480   2.935   0.677   3.044
  110MYC   6H1021481   2.773   0.752   3.073
  110MYC   7H1021482   2.761   0.508   3.194
  110MYC   8H1021483   2.931   0.538   3.221
  110MYC   9H1021484   2.873   0.755   3.332
  110MYC    H1021485   2.553   0.211   2.683
  110MYC   0H1121486   2.702   0.721   3.314
  110MYC   1H1121487   2.889   0.544   3.489
  110MYC   2H1121488   2.578   0.532   3.433
  110MYC   3H1121489   2.685   0.426   3.538
  110MYC   4H1121490   2.656   0.734   3.562
  110MYC   5H1121491   2.773   0.500   3.726
  110MYC   6H1121492   2.825   0.658   3.765
  110MYC   7H1121493   2.610   0.748   3.830
  110MYC   8H1121494   2.529   0.608   3.758
  110MYC   9H1121495   2.633   0.453   3.918
  110MYC    H1121496   2.494   0.059   2.611
  110MYC   0H1221497   2.737   0.590   3.971
  110MYC   1H1221498   2.523   0.693   4.063
  110MYC   2H1221499   2.448   0.537   4.046
  110MYC   3H1221500   2.635   0.432   4.170
  110MYC   4H1221501   2.715   0.580   4.205
  110MYC   5H1221502   2.558   0.668   4.350
  110MYC   6H1221503   2.429   0.549   4.306
  110MYC   7H1221504   2.578   0.360   4.409
  110MYC   8H1221505   2.687   0.489   4.458
  110MYC   9H1221506   2.494   0.601   4.569
  110MYC    H1221507   2.263   0.169   2.666
  110MYC   0H1321508   2.395   0.458   4.544
  110MYC   1H1321509   2.576   0.324   4.678
  110MYC   2H1321510   2.658   0.482   4.689
  110MYC   3H1321511   2.485   0.577   4.831
  110MYC   4H1321512   2.380   0.438   4.806
  110MYC   5H1321513   2.541   0.289   4.932
  110MYC   6H1321514   2.658   0.420   4.926
  110MYC   7H1321515   2.468   0.545   5.087
  110MYC   8H1321516   2.403   0.381   5.087
  110MYC   9H1321517   2.637   0.307   5.169
  110MYC    H1321518   2.346   0.325   2.652
  110MYC   0H1421519   2.676   0.482   5.189
  110MYC   1H1421520   2.457   0.488   5.343
  110MYC   2H1421521   2.455   0.325   5.328
  110MYC   3H1421522   2.679   0.292   5.431
  110MYC   4H1421523   2.707   0.464   5.437
  110MYC   5H1421524   2.515   0.493   5.591
  110MYC   6H1421525   2.466   0.331   5.578
  110MYC   7H1421526   2.652   0.248   5.703
  110MYC   8H1421527   2.740   0.407   5.697
  110MYC   9H1421528   2.522   0.486   5.820
  110MYC    H1421529   2.390   0.281   2.411
  110MYC   0H1521530   2.488   0.318   5.843
  110MYC   1H1521531   2.673   0.283   5.990
  110MYC   2H1521532   2.763   0.430   5.944
  110MYC   3H1521533   2.502   0.425   6.104
  110MYC   4H1521534   2.601   0.569   6.048
  110MYC   5H1521535   2.666   0.451   6.161
  110MYC   6H1521536   2.097   0.181   3.024
  110MYC    H1521537   2.353   0.112   2.435
  110MYC    H1621538   2.115   0.231   2.513
  110MYC    H1721539   2.179   0.363   2.411
  110MYC    H1821540   2.130   0.059   2.328
  110MYC    H1921541   2.024   0.199   2.310
  110MYC    H2021542   2.173   0.311   2.153
  110MYC    H2121543   2.303   0.197   2.206
  110MYC    H2221544   2.156   0.011   2.088
  110MYC    H2321545   2.058   0.137   2.023
  110MYC    H2421546   2.269   0.250   1.927
  110MYC    H2521547   2.360   0.110   1.991
  110MYC    H2621548   2.209  -0.044   1.853
  110MYC    H2721549   2.135   0.108   1.795
  110MYC    H2821550   2.422   0.011   1.741
  110MYC    H2921551   2.282   0.037   1.627
  110MYC    H3021552   2.304   0.280   1.645
  110MYC    H3121553   2.582   0.216   1.773
  110MYC    H3221554   2.472   0.286   1.486
  110MYC    H3321555   2.533   0.123   1.531
  110MYC    H3421556   2.392   0.262   3.373
  110MYC    H3521557   2.242   0.176   3.388
  110MYC    H3621558   2.376  -0.045   3.401
  110MYC    H3721559   2.524   0.044   3.424
  110MYC    H3821560   2.447   0.151   3.620
  110MYC    H3921561   2.283   0.078   3.603
  110MYC    H4021562   2.397  -0.157   3.602
  110MYC    H4121563   2.536  -0.074   3.669
  110MYC    H4221564   2.265  -0.052   3.794
  110MYC    H4321565   2.386  -0.180   3.838
  110MYC    H4421566   2.538   0.008   3.914
  110MYC    H4521567   2.406   0.119   3.869
  110MYC    H4621568   2.250   0.013   4.015
  110MYC    H4721569   2.378  -0.104   4.071
  110MYC    H4821570   2.498   0.110   4.167
  110MYC    H4921571   2.346   0.196   4.125
  110MYC    H5021572   2.221   0.060   4.284
  110MYC    H5121573   2.334  -0.070   4.277
  110MYC    H5221574   2.499   0.077   4.416
  110MYC    H5321575   2.382   0.205   4.423
  110MYC    H5421576   2.213   0.038   4.514
  110MYC    H5521577   2.345  -0.086   4.526
  110MYC    H5621578   2.486   0.051   4.669
  110MYC    H5721579   2.351   0.168   4.679
  110MYC    H5821580   2.202  -0.009   4.769
  110MYC    H5921581   2.336  -0.121   4.766
  110MYC    H6021582   2.470   0.004   4.907
  110MYC    H6121583   2.351   0.136   4.919
  110MYC    H6221584   2.194  -0.024   5.024
  110MYC    H6321585   2.302  -0.160   5.034
  110MYC    H6421586   2.459   0.014   5.151
  110MYC    H6521587   2.326   0.122   5.166
  110MYC    H6621588   2.215  -0.045   5.302
  110MYC    H6721589   2.346  -0.171   5.279
  110MYC    H6821590   2.502  -0.039   5.407
  110MYC    H6921591   2.391   0.095   5.430
  110MYC    H7021592   2.235  -0.066   5.538
  110MYC    H7121593   2.380  -0.176   5.552
  110MYC    H7221594   2.500  -0.005   5.668
  110MYC    H7321595   2.365   0.108   5.668
  110MYC    H7421596   2.234  -0.035   5.814
  110MYC    H7521597   2.357  -0.164   5.811
  110MYC    H7621598   2.510   0.037   5.913
  110MYC    H7721599   2.355   0.110   5.943
  110MYC    H7821600   2.277  -0.101   6.073
  110MYC    H7921601   2.441  -0.164   6.053
  110MYC    H8021602   2.420  -0.063   6.276
  110MYC    H8121603   2.354   0.086   6.202
  110MYC    H8221604   2.521   0.045   6.182
  110MYC    H8321605   2.558   0.464   1.621
  110MYC    H8421606   2.424   0.463   1.734
  110MYC    H8521607   2.720   0.470   1.807
  110MYC    H8621608   2.596   0.590   1.837
  110MYC    H8721609   2.479   0.413   1.977
  110MYC    H8821610   2.627   0.318   1.958
  110MYC    H8921611   2.741   0.542   2.054
  110MYC    H9021612   2.575   0.592   2.096
  110MYC    H9121613   2.536   0.406   2.240
  110MYC    H9221614   2.699   0.338   2.221
  110MYC    H9321615   2.804   0.532   2.313
  110MYC    H9421616   2.662   0.627   2.303
  110MYC    H9521617   2.558   0.485   2.488
  110MYC    H9621618   2.707   0.386   2.488
  110MYC    H9721619   2.835   0.577   2.560
  110MYC    H9821620   2.701   0.685   2.546
  110MYC    H9921621   2.585   0.555   2.740
  111MYC     C121622   2.383   0.785   3.211
  111MYC     C221623   2.352   0.863   3.082
  111MYC     O321624   2.218   0.831   3.043
  111MYC     C421625   2.458   0.849   2.971
  111MYC     C521626   2.418   0.924   2.842
  111MYC     C621627   2.342   0.833   2.744
  111MYC     C721628   2.365   0.863   2.595
  111MYC     C821629   2.281   0.778   2.498
  111MYC     C921630   2.339   0.756   2.357
  111MYC    C1021631   2.241   0.679   2.267
  111MYC    C1121632   2.300   0.653   2.127
  111MYC    C1221633   2.366   0.773   2.057
  111MYC    C1321634   2.269   0.884   2.014
  111MYC    C1421635   2.330   0.987   1.918
  111MYC    C1521636   2.230   1.101   1.891
  111MYC    C1621637   2.244   1.171   1.754
  111MYC    C1721638   2.323   1.299   1.770
  111MYC    C1821639   2.468   1.314   1.729
  111MYC    C1921640   2.360   1.379   1.647
  111MYC    C2021641   2.284   0.826   3.321
  111MYC    C2121642   2.300   0.747   3.453
  111MYC    C2221643   2.214   0.805   3.566
  111MYC    C2321644   2.255   0.737   3.697
  111MYC    C2421645   2.161   0.773   3.813
  111MYC    C2521646   2.238   0.756   3.946
  111MYC    C2621647   2.149   0.754   4.071
  111MYC    C2721648   2.238   0.769   4.196
  111MYC    C2821649   2.173   0.730   4.330
  111MYC    C2921650   2.243   0.773   4.460
  111MYC    C3021651   2.166   0.721   4.582
  111MYC    C3121652   2.239   0.756   4.713
  111MYC    C3221653   2.163   0.717   4.840
  111MYC    C3321654   2.239   0.762   4.966
  111MYC    C3421655   2.205   0.680   5.091
  111MYC    C3521656   2.251   0.741   5.225
  111MYC    C3621657   2.198   0.678   5.355
  111MYC    C3721658   2.240   0.760   5.477
  111MYC    C3821659   2.190   0.709   5.613
  111MYC    C3921660   2.251   0.771   5.740
  111MYC    C4021661   2.180   0.742   5.873
  111MYC    C4121662   2.269   0.742   5.998
  111MYC    C4221663   2.199   0.773   6.131
  111MYC    C4321664   2.292   0.821   6.243
  111MYC    C4421665   2.566   1.405   1.802
  111MYC    C4521666   2.668   1.331   1.889
  111MYC    C4621667   2.602   1.252   2.003
  111MYC    C4721668   2.553   1.343   2.118
  111MYC    C4821669   2.510   1.258   2.239
  111MYC    C4921670   2.483   1.345   2.363
  111MYC    C5021671   2.450   1.263   2.489
  111MYC    C5121672   2.457   1.355   2.611
  111MYC    C5221673   2.409   1.297   2.746
  111MYC    C5321674   2.438   1.386   2.868
  111MYC    C5421675   2.408   1.299   2.991
  111MYC    C5521676   2.423   1.371   3.126
  111MYC    C5621677   2.430   1.269   3.241
  111MYC    C5721678   2.405   1.336   3.377
  111MYC    C5821679   2.477   1.267   3.492
  111MYC    C5921680   2.459   1.121   3.521
  111MYC    C6021681   2.397   1.223   3.612
  111MYC    C6121682   2.464   1.264   3.742
  111MYC    C6221683   2.381   1.241   3.869
  111MYC    C6321684   2.474   1.240   3.991
  111MYC    C6421685   2.396   1.220   4.123
  111MYC    C6521686   2.488   1.227   4.246
  111MYC    C6621687   2.403   1.223   4.375
  111MYC    C6721688   2.503   1.204   4.489
  111MYC    C6821689   2.446   1.184   4.631
  111MYC    C6921690   2.538   1.228   4.747
  111MYC    C7021691   2.459   1.207   4.877
  111MYC    C7121692   2.544   1.213   5.005
  111MYC    C7221693   2.467   1.174   5.133
  111MYC    C7321694   2.558   1.154   5.256
  111MYC    C7421695   2.465   1.141   5.378
  111MYC    C7521696   2.535   1.109   5.510
  111MYC    C7621697   2.454   1.161   5.630
  111MYC    C7721698   2.524   1.166   5.767
  111MYC    C7821699   2.431   1.236   5.867
  111MYC    C7921700   2.510   1.293   5.986
  111MYC    C8021701   2.426   1.366   6.093
  111MYC    C8121702   2.400   0.637   3.181
  111MYC    O8221703   2.494   0.567   3.215
  111MYC    O8321704   2.293   0.580   3.121
  111MYC     H121705   2.481   0.822   3.242
  111MYC     H221706   2.346   0.968   3.113
  111MYC     H321707   2.198   0.744   3.081
  111MYC     H421708   2.546   0.900   3.012
  111MYC     H521709   2.493   0.746   2.963
  111MYC     H621710   2.349   1.003   2.875
  111MYC     H721711   2.496   0.977   2.788
  111MYC     H821712   2.377   0.731   2.767
  111MYC     H921713   2.237   0.839   2.773
  111MYC   0H1021714   2.464   1.206   2.771
  111MYC   1H1021715   2.545   1.410   2.866
  111MYC   2H1021716   2.386   1.482   2.861
  111MYC   3H1021717   2.308   1.255   2.982
  111MYC   4H1021718   2.482   1.219   2.995
  111MYC   5H1021719   2.515   1.430   3.120
  111MYC   6H1021720   2.334   1.435   3.134
  111MYC   7H1021721   2.356   1.190   3.223
  111MYC   8H1021722   2.528   1.220   3.239
  111MYC   9H1021723   2.445   1.438   3.376
  111MYC    H1021724   2.346   0.970   2.579
  111MYC   0H1121725   2.297   1.330   3.391
  111MYC   1H1121726   2.580   1.301   3.507
  111MYC   2H1121727   2.398   1.061   3.453
  111MYC   3H1121728   2.542   1.066   3.564
  111MYC   4H1121729   2.289   1.230   3.618
  111MYC   5H1121730   2.561   1.213   3.744
  111MYC   6H1121731   2.496   1.369   3.733
  111MYC   7H1121732   2.315   1.327   3.884
  111MYC   8H1121733   2.319   1.150   3.860
  111MYC   9H1121734   2.555   1.166   3.990
  111MYC    H1121735   2.471   0.846   2.573
  111MYC   0H1221736   2.527   1.335   4.001
  111MYC   1H1221737   2.317   1.295   4.129
  111MYC   2H1221738   2.359   1.117   4.122
  111MYC   3H1221739   2.559   1.144   4.244
  111MYC   4H1221740   2.554   1.314   4.247
  111MYC   5H1221741   2.358   1.323   4.374
  111MYC   6H1221742   2.324   1.147   4.367
  111MYC   7H1221743   2.570   1.120   4.466
  111MYC   8H1221744   2.554   1.301   4.487
  111MYC   9H1221745   2.350   1.236   4.631
  111MYC    H1221746   2.271   0.683   2.550
  111MYC   0H1321747   2.419   1.079   4.647
  111MYC   1H1321748   2.627   1.164   4.750
  111MYC   2H1321749   2.554   1.336   4.739
  111MYC   3H1321750   2.370   1.270   4.887
  111MYC   4H1321751   2.418   1.106   4.870
  111MYC   5H1321752   2.627   1.144   4.987
  111MYC   6H1321753   2.581   1.316   5.018
  111MYC   7H1321754   2.388   1.249   5.149
  111MYC   8H1321755   2.414   1.079   5.123
  111MYC   9H1321756   2.615   1.062   5.244
  111MYC    H1321757   2.182   0.824   2.486
  111MYC   0H1421758   2.622   1.243   5.253
  111MYC   1H1421759   2.393   1.223   5.390
  111MYC   2H1421760   2.402   1.054   5.354
  111MYC   3H1421761   2.551   1.000   5.519
  111MYC   4H1421762   2.630   1.165   5.508
  111MYC   5H1421763   2.420   1.263   5.607
  111MYC   6H1421764   2.360   1.105   5.636
  111MYC   7H1421765   2.549   1.062   5.792
  111MYC   8H1421766   2.613   1.227   5.751
  111MYC   9H1421767   2.369   1.312   5.819
  111MYC    H1421768   2.357   0.858   2.321
  111MYC   0H1521769   2.352   1.170   5.905
  111MYC   1H1521770   2.558   1.207   6.034
  111MYC   2H1521771   2.592   1.354   5.947
  111MYC   3H1521772   2.371   1.288   6.147
  111MYC   4H1521773   2.362   1.441   6.045
  111MYC   5H1521774   2.490   1.407   6.172
  111MYC   6H1521775   2.316   0.486   3.121
  111MYC    H1521776   2.435   0.704   2.365
  111MYC    H1621777   2.221   0.583   2.316
  111MYC    H1721778   2.153   0.745   2.265
  111MYC    H1821779   2.375   0.576   2.147
  111MYC    H1921780   2.224   0.600   2.068
  111MYC    H2021781   2.445   0.813   2.122
  111MYC    H2121782   2.408   0.733   1.964
  111MYC    H2221783   2.191   0.821   1.970
  111MYC    H2321784   2.237   0.923   2.112
  111MYC    H2421785   2.420   1.029   1.965
  111MYC    H2521786   2.361   0.936   1.826
  111MYC    H2621787   2.129   1.061   1.878
  111MYC    H2721788   2.218   1.177   1.969
  111MYC    H2821789   2.300   1.102   1.690
  111MYC    H2921790   2.154   1.189   1.693
  111MYC    H3021791   2.287   1.356   1.855
  111MYC    H3121792   2.515   1.226   1.686
  111MYC    H3221793   2.364   1.487   1.647
  111MYC    H3321794   2.333   1.332   1.553
  111MYC    H3421795   2.274   0.933   3.343
  111MYC    H3521796   2.186   0.798   3.281
  111MYC    H3621797   2.257   0.648   3.437
  111MYC    H3721798   2.404   0.741   3.489
  111MYC    H3821799   2.229   0.913   3.583
  111MYC    H3921800   2.110   0.779   3.542
  111MYC    H4021801   2.261   0.628   3.682
  111MYC    H4121802   2.357   0.771   3.722
  111MYC    H4221803   2.127   0.876   3.825
  111MYC    H4321804   2.066   0.718   3.815
  111MYC    H4421805   2.303   0.669   3.946
  111MYC    H4521806   2.312   0.836   3.960
  111MYC    H4621807   2.088   0.845   4.077
  111MYC    H4721808   2.078   0.671   4.081
  111MYC    H4821809   2.334   0.719   4.177
  111MYC    H4921810   2.266   0.874   4.206
  111MYC    H5021811   2.073   0.775   4.332
  111MYC    H5121812   2.143   0.624   4.333
  111MYC    H5221813   2.343   0.728   4.449
  111MYC    H5321814   2.255   0.882   4.465
  111MYC    H5421815   2.066   0.767   4.587
  111MYC    H5521816   2.161   0.612   4.575
  111MYC    H5621817   2.327   0.691   4.721
  111MYC    H5721818   2.251   0.865   4.714
  111MYC    H5821819   2.068   0.772   4.844
  111MYC    H5921820   2.143   0.609   4.845
  111MYC    H6021821   2.347   0.762   4.951
  111MYC    H6121822   2.211   0.866   4.988
  111MYC    H6221823   2.096   0.676   5.100
  111MYC    H6321824   2.243   0.578   5.077
  111MYC    H6421825   2.360   0.741   5.235
  111MYC    H6521826   2.216   0.844   5.213
  111MYC    H6621827   2.090   0.660   5.350
  111MYC    H6721828   2.239   0.576   5.362
  111MYC    H6821829   2.350   0.760   5.477
  111MYC    H6921830   2.204   0.861   5.453
  111MYC    H7021831   2.081   0.719   5.613
  111MYC    H7121832   2.214   0.602   5.613
  111MYC    H7221833   2.358   0.748   5.739
  111MYC    H7321834   2.258   0.881   5.732
  111MYC    H7421835   2.101   0.817   5.884
  111MYC    H7521836   2.129   0.645   5.865
  111MYC    H7621837   2.325   0.649   6.015
  111MYC    H7721838   2.340   0.825   5.984
  111MYC    H7821839   2.116   0.843   6.116
  111MYC    H7921840   2.149   0.684   6.172
  111MYC    H8021841   2.236   0.859   6.329
  111MYC    H8121842   2.350   0.906   6.205
  111MYC    H8221843   2.357   0.736   6.268
  111MYC    H8321844   2.623   1.468   1.732
  111MYC    H8421845   2.501   1.468   1.864
  111MYC    H8521846   2.723   1.262   1.823
  111MYC    H8621847   2.745   1.403   1.920
  111MYC    H8721848   2.514   1.199   1.964
  111MYC    H8821849   2.673   1.177   2.041
  111MYC    H8921850   2.635   1.411   2.143
  111MYC    H9021851   2.476   1.412   2.082
  111MYC    H9121852   2.423   1.201   2.204
  111MYC    H9221853   2.583   1.182   2.269
  111MYC    H9321854   2.572   1.407   2.374
  111MYC    H9421855   2.404   1.419   2.343
  111MYC    H9521856   2.352   1.213   2.487
  111MYC    H9621857   2.530   1.189   2.496
  111MYC    H9721858   2.565   1.366   2.624
  111MYC    H9821859   2.413   1.454   2.598
  111MYC    H9921860   2.305   1.263   2.734
  112MYC     C121861   2.061   2.101   3.324
  112MYC     C221862   2.093   2.134   3.177
  112MYC     O321863   2.048   2.264   3.140
  112MYC     C421864   2.014   2.040   3.085
  112MYC     C521865   2.064   2.028   2.940
  112MYC     C621866   2.095   2.155   2.859
  112MYC     C721867   2.102   2.118   2.710
  112MYC     C821868   2.112   2.238   2.615
  112MYC     C921869   2.076   2.221   2.466
  112MYC    C1021870   2.146   2.318   2.369
  112MYC    C1121871   2.123   2.302   2.218
  112MYC    C1221872   2.203   2.182   2.164
  112MYC    C1321873   2.155   2.138   2.024
  112MYC    C1421874   2.218   2.013   1.960
  112MYC    C1521875   2.143   1.992   1.828
  112MYC    C1621876   2.185   1.869   1.744
  112MYC    C1721877   2.329   1.878   1.697
  112MYC    C1821878   2.435   1.799   1.770
  112MYC    C1921879   2.402   1.767   1.626
  112MYC    C2021880   2.134   2.189   3.428
  112MYC    C2121881   2.131   2.135   3.572
  112MYC    C2221882   2.225   2.210   3.668
  112MYC    C2321883   2.242   2.134   3.801
  112MYC    C2421884   2.273   2.220   3.924
  112MYC    C2521885   2.327   2.132   4.038
  112MYC    C2621886   2.308   2.194   4.178
  112MYC    C2721887   2.356   2.111   4.298
  112MYC    C2821888   2.291   2.159   4.428
  112MYC    C2921889   2.325   2.074   4.551
  112MYC    C3021890   2.258   2.117   4.682
  112MYC    C3121891   2.306   2.035   4.803
  112MYC    C3221892   2.241   2.087   4.932
  112MYC    C3321893   2.291   2.026   5.064
  112MYC    C3421894   2.199   2.047   5.186
  112MYC    C3521895   2.251   1.967   5.307
  112MYC    C3621896   2.182   2.009   5.438
  112MYC    C3721897   2.236   1.953   5.570
  112MYC    C3821898   2.155   1.998   5.692
  112MYC    C3921899   2.206   1.922   5.815
  112MYC    C4021900   2.156   1.981   5.948
  112MYC    C4121901   2.201   1.907   6.076
  112MYC    C4221902   2.174   1.974   6.212
  112MYC    C4321903   2.245   1.903   6.328
  112MYC    C4421904   2.560   1.876   1.809
  112MYC    C4521905   2.650   1.836   1.927
  112MYC    C4621906   2.576   1.797   2.056
  112MYC    C4721907   2.562   1.906   2.164
  112MYC    C4821908   2.488   1.852   2.287
  112MYC    C4921909   2.524   1.906   2.427
  112MYC    C5021910   2.480   1.813   2.541
  112MYC    C5121911   2.481   1.887   2.676
  112MYC    C5221912   2.381   1.824   2.774
  112MYC    C5321913   2.417   1.872   2.915
  112MYC    C5421914   2.367   1.790   3.036
  112MYC    C5521915   2.374   1.855   3.175
  112MYC    C5621916   2.364   1.757   3.293
  112MYC    C5721917   2.376   1.816   3.434
  112MYC    C5821918   2.376   1.703   3.535
  112MYC    C5921919   2.245   1.634   3.567
  112MYC    C6021920   2.315   1.716   3.673
  112MYC    C6121921   2.380   1.636   3.784
  112MYC    C6221922   2.373   1.707   3.920
  112MYC    C6321923   2.468   1.654   4.029
  112MYC    C6421924   2.464   1.739   4.156
  112MYC    C6521925   2.548   1.687   4.274
  112MYC    C6621926   2.533   1.769   4.403
  112MYC    C6721927   2.570   1.688   4.529
  112MYC    C6821928   2.542   1.756   4.664
  112MYC    C6921929   2.581   1.671   4.786
  112MYC    C7021930   2.544   1.742   4.918
  112MYC    C7121931   2.582   1.665   5.046
  112MYC    C7221932   2.545   1.745   5.173
  112MYC    C7321933   2.577   1.660   5.297
  112MYC    C7421934   2.540   1.729   5.429
  112MYC    C7521935   2.572   1.655   5.560
  112MYC    C7621936   2.559   1.748   5.682
  112MYC    C7721937   2.572   1.675   5.817
  112MYC    C7821938   2.571   1.777   5.931
  112MYC    C7921939   2.573   1.714   6.072
  112MYC    C8021940   2.608   1.818   6.180
  112MYC    C8121941   1.912   2.098   3.352
  112MYC    O8221942   1.848   2.193   3.394
  112MYC    O8321943   1.861   1.973   3.351
  112MYC     H121944   2.102   1.999   3.334
  112MYC     H221945   2.199   2.122   3.152
  112MYC     H321946   1.956   2.268   3.172
  112MYC     H421947   2.006   1.942   3.132
  112MYC     H521948   1.909   2.071   3.081
  112MYC     H621949   2.147   1.956   2.936
  112MYC     H721950   1.991   1.966   2.887
  112MYC     H821951   2.011   2.224   2.876
  112MYC     H921952   2.182   2.208   2.902
  112MYC   0H1021953   2.395   1.715   2.773
  112MYC   1H1021954   2.526   1.873   2.924
  112MYC   2H1021955   2.383   1.976   2.927
  112MYC   3H1021956   2.265   1.752   3.020
  112MYC   4H1021957   2.428   1.699   3.034
  112MYC   5H1021958   2.473   1.901   3.183
  112MYC   6H1021959   2.308   1.940   3.198
  112MYC   7H1021960   2.271   1.699   3.281
  112MYC   8H1021961   2.439   1.680   3.272
  112MYC   9H1021962   2.468   1.875   3.434
  112MYC    H1021963   2.180   2.044   2.689
  112MYC   0H1121964   2.291   1.881   3.460
  112MYC   1H1121965   2.463   1.638   3.530
  112MYC   2H1121966   2.157   1.685   3.532
  112MYC   3H1121967   2.245   1.525   3.575
  112MYC   4H1121968   2.252   1.799   3.705
  112MYC   5H1121969   2.329   1.540   3.800
  112MYC   6H1121970   2.482   1.601   3.761
  112MYC   7H1121971   2.407   1.809   3.900
  112MYC   8H1121972   2.267   1.698   3.944
  112MYC   9H1121973   2.447   1.552   4.065
  112MYC    H1121974   2.005   2.072   2.687
  112MYC   0H1221975   2.574   1.659   4.003
  112MYC   1H1221976   2.498   1.842   4.135
  112MYC   2H1221977   2.358   1.741   4.182
  112MYC   3H1221978   2.518   1.583   4.291
  112MYC   4H1221979   2.657   1.689   4.256
  112MYC   5H1221980   2.607   1.850   4.393
  112MYC   6H1221981   2.435   1.819   4.407
  112MYC   7H1221982   2.511   1.596   4.525
  112MYC   8H1221983   2.676   1.660   4.523
  112MYC   9H1221984   2.611   1.840   4.658
  112MYC    H1221985   2.064   2.324   2.664
  112MYC   0H1321986   2.437   1.789   4.671
  112MYC   1H1321987   2.537   1.571   4.775
  112MYC   2H1321988   2.689   1.651   4.781
  112MYC   3H1321989   2.606   1.832   4.921
  112MYC   4H1321990   2.439   1.774   4.919
  112MYC   5H1321991   2.541   1.564   5.047
  112MYC   6H1321992   2.692   1.661   5.046
  112MYC   7H1321993   2.597   1.841   5.174
  112MYC   8H1321994   2.437   1.760   5.174
  112MYC   9H1321995   2.514   1.570   5.296
  112MYC    H1321996   2.221   2.252   2.612
  112MYC   0H1421997   2.683   1.631   5.296
  112MYC   1H1421998   2.583   1.830   5.435
  112MYC   2H1421999   2.431   1.744   5.431
  112MYC   3H1422000   2.501   1.572   5.566
  112MYC   4H1422001   2.671   1.608   5.559
  112MYC   5H1422002   2.628   1.833   5.675
  112MYC   6H1422003   2.457   1.790   5.678
  112MYC   7H1422004   2.490   1.605   5.839
  112MYC   8H1422005   2.668   1.623   5.809
  112MYC   9H1422006   2.661   1.840   5.922
  112MYC    H1422007   2.111   2.123   2.433
  112MYC   0H1522008   2.490   1.849   5.914
  112MYC   1H1522009   2.467   1.689   6.084
  112MYC   2H1522010   2.634   1.624   6.080
  112MYC   3H1522011   2.540   1.904   6.185
  112MYC   4H1522012   2.714   1.848   6.173
  112MYC   5H1522013   2.588   1.774   6.279
  112MYC   6H1522014   1.766   1.985   3.371
  112MYC    H1522015   1.966   2.224   2.459
  112MYC    H1622016   2.135   2.423   2.397
  112MYC    H1722017   2.252   2.298   2.388
  112MYC    H1822018   2.016   2.303   2.195
  112MYC    H1922019   2.157   2.393   2.167
  112MYC    H2022020   2.306   2.218   2.161
  112MYC    H2122021   2.192   2.099   2.235
  112MYC    H2222022   2.046   2.139   2.017
  112MYC    H2322023   2.184   2.222   1.960
  112MYC    H2422024   2.321   2.034   1.927
  112MYC    H2522025   2.206   1.928   2.028
  112MYC    H2622026   2.040   1.982   1.863
  112MYC    H2722027   2.150   2.084   1.769
  112MYC    H2822028   2.157   1.774   1.792
  112MYC    H2922029   2.125   1.869   1.653
  112MYC    H3022030   2.353   1.975   1.654
  112MYC    H3122031   2.406   1.723   1.841
  112MYC    H3222032   2.472   1.795   1.547
  112MYC    H3322033   2.337   1.684   1.601
  112MYC    H3422034   2.235   2.178   3.387
  112MYC    H3522035   2.096   2.291   3.421
  112MYC    H3622036   2.031   2.157   3.612
  112MYC    H3722037   2.136   2.025   3.571
  112MYC    H3822038   2.321   2.211   3.615
  112MYC    H3922039   2.192   2.314   3.672
  112MYC    H4022040   2.154   2.074   3.826
  112MYC    H4122041   2.322   2.058   3.800
  112MYC    H4222042   2.336   2.308   3.906
  112MYC    H4322043   2.183   2.268   3.964
  112MYC    H4422044   2.285   2.031   4.047
  112MYC    H4522045   2.435   2.123   4.026
  112MYC    H4622046   2.356   2.292   4.181
  112MYC    H4722047   2.200   2.211   4.187
  112MYC    H4822048   2.331   2.007   4.273
  112MYC    H4922049   2.464   2.121   4.314
  112MYC    H5022050   2.310   2.265   4.452
  112MYC    H5122051   2.182   2.158   4.414
  112MYC    H5222052   2.286   1.973   4.531
  112MYC    H5322053   2.434   2.076   4.570
  112MYC    H5422054   2.281   2.222   4.704
  112MYC    H5522055   2.150   2.096   4.673
  112MYC    H5622056   2.264   1.935   4.784
  112MYC    H5722057   2.413   2.029   4.823
  112MYC    H5822058   2.262   2.194   4.941
  112MYC    H5922059   2.133   2.064   4.930
  112MYC    H6022060   2.313   1.920   5.049
  112MYC    H6122061   2.389   2.074   5.080
  112MYC    H6222062   2.207   2.151   5.219
  112MYC    H6322063   2.094   2.029   5.161
  112MYC    H6422064   2.248   1.860   5.286
  112MYC    H6522065   2.357   1.994   5.312
  112MYC    H6622066   2.192   2.118   5.446
  112MYC    H6722067   2.075   1.986   5.440
  112MYC    H6822068   2.234   1.843   5.559
  112MYC    H6922069   2.344   1.972   5.583
  112MYC    H7022070   2.165   2.106   5.707
  112MYC    H7122071   2.049   1.973   5.675
  112MYC    H7222072   2.185   1.816   5.795
  112MYC    H7322073   2.315   1.912   5.812
  112MYC    H7422074   2.186   2.086   5.964
  112MYC    H7522075   2.047   1.983   5.945
  112MYC    H7622076   2.157   1.807   6.084
  112MYC    H7722077   2.309   1.891   6.068
  112MYC    H7822078   2.219   2.073   6.206
  112MYC    H7922079   2.068   1.985   6.237
  112MYC    H8022080   2.246   1.965   6.418
  112MYC    H8122081   2.346   1.871   6.301
  112MYC    H8222082   2.197   1.808   6.354
  112MYC    H8322083   2.624   1.885   1.720
  112MYC    H8422084   2.527   1.979   1.827
  112MYC    H8522085   2.714   1.751   1.901
  112MYC    H8622086   2.719   1.920   1.945
  112MYC    H8722087   2.477   1.754   2.042
  112MYC    H8822088   2.623   1.708   2.099
  112MYC    H8922089   2.663   1.930   2.199
  112MYC    H9022090   2.505   1.994   2.132
  112MYC    H9122091   2.383   1.873   2.262
  112MYC    H9222092   2.498   1.742   2.288
  112MYC    H9322093   2.632   1.919   2.431
  112MYC    H9422094   2.493   2.011   2.438
  112MYC    H9522095   2.377   1.779   2.523
  112MYC    H9622096   2.540   1.722   2.549
  112MYC    H9722097   2.585   1.893   2.713
  112MYC    H9822098   2.452   1.993   2.667
  112MYC    H9922099   2.278   1.849   2.746
  113MYC     C122100   2.027   2.864   3.175
  113MYC     C222101   2.074   2.721   3.144
  113MYC     O322102   2.211   2.722   3.105
  113MYC     C422103   1.986   2.640   3.047
  113MYC     C522104   2.049   2.597   2.914
  113MYC     C622105   2.051   2.706   2.806
  113MYC     C722106   2.049   2.652   2.662
  113MYC     C822107   2.075   2.776   2.575
  113MYC     C922108   2.066   2.747   2.424
  113MYC    C1022109   2.150   2.848   2.344
  113MYC    C1122110   2.142   2.854   2.191
  113MYC    C1222111   2.192   2.720   2.133
  113MYC    C1322112   2.212   2.713   1.981
  113MYC    C1422113   2.260   2.580   1.922
  113MYC    C1522114   2.255   2.600   1.769
  113MYC    C1622115   2.260   2.468   1.690
  113MYC    C1722116   2.405   2.435   1.654
  113MYC    C1822117   2.461   2.303   1.701
  113MYC    C1922118   2.418   2.320   1.558
  113MYC    C2022119   2.076   2.933   3.304
  113MYC    C2122120   2.032   2.873   3.438
  113MYC    C2222121   2.060   2.967   3.556
  113MYC    C2322122   2.008   2.904   3.687
  113MYC    C2422123   2.027   2.984   3.817
  113MYC    C2522124   1.938   2.931   3.931
  113MYC    C2622125   1.926   3.023   4.053
  113MYC    C2722126   2.010   2.959   4.165
  113MYC    C2822127   2.002   3.047   4.291
  113MYC    C2922128   2.040   2.973   4.420
  113MYC    C3022129   1.991   3.034   4.552
  113MYC    C3122130   2.000   2.941   4.675
  113MYC    C3222131   1.955   3.007   4.807
  113MYC    C3322132   2.002   2.934   4.933
  113MYC    C3422133   1.969   3.022   5.055
  113MYC    C3522134   2.030   2.975   5.189
  113MYC    C3622135   1.958   3.034   5.311
  113MYC    C3722136   2.031   3.005   5.443
  113MYC    C3822137   1.972   3.083   5.562
  113MYC    C3922138   2.042   3.035   5.691
  113MYC    C4022139   1.998   3.114   5.815
  113MYC    C4122140   2.040   3.054   5.951
  113MYC    C4222141   2.000   3.148   6.066
  113MYC    C4322142   2.036   3.100   6.207
  113MYC    C4422143   2.608   2.306   1.737
  113MYC    C4522144   2.639   2.279   1.886
  113MYC    C4622145   2.574   2.373   1.989
  113MYC    C4722146   2.620   2.339   2.132
  113MYC    C4822147   2.536   2.416   2.235
  113MYC    C4922148   2.572   2.372   2.378
  113MYC    C5022149   2.504   2.455   2.488
  113MYC    C5122150   2.553   2.406   2.626
  113MYC    C5222151   2.497   2.486   2.744
  113MYC    C5322152   2.572   2.472   2.878
  113MYC    C5422153   2.495   2.508   3.006
  113MYC    C5522154   2.578   2.484   3.134
  113MYC    C5622155   2.518   2.530   3.268
  113MYC    C5722156   2.628   2.545   3.374
  113MYC    C5822157   2.589   2.500   3.514
  113MYC    C5922158   2.516   2.585   3.615
  113MYC    C6022159   2.662   2.553   3.635
  113MYC    C6122160   2.695   2.459   3.750
  113MYC    C6222161   2.701   2.530   3.886
  113MYC    C6322162   2.720   2.436   4.005
  113MYC    C6422163   2.690   2.505   4.139
  113MYC    C6522164   2.714   2.410   4.258
  113MYC    C6622165   2.640   2.459   4.384
  113MYC    C6722166   2.664   2.370   4.507
  113MYC    C6822167   2.618   2.444   4.633
  113MYC    C6922168   2.578   2.357   4.754
  113MYC    C7022169   2.474   2.417   4.850
  113MYC    C7122170   2.521   2.426   4.996
  113MYC    C7222171   2.411   2.485   5.086
  113MYC    C7322172   2.453   2.516   5.231
  113MYC    C7422173   2.343   2.581   5.316
  113MYC    C7522174   2.406   2.616   5.452
  113MYC    C7622175   2.311   2.645   5.569
  113MYC    C7722176   2.387   2.708   5.687
  113MYC    C7822177   2.294   2.724   5.809
  113MYC    C7922178   2.363   2.763   5.941
  113MYC    C8022179   2.283   2.779   6.072
  113MYC    C8122180   2.041   2.955   3.054
  113MYC    O8222181   2.146   3.012   3.027
  113MYC    O8322182   1.931   2.979   2.980
  113MYC     H122183   1.920   2.853   3.192
  113MYC     H222184   2.063   2.673   3.242
  113MYC     H322185   2.209   2.662   3.028
  113MYC     H422186   1.971   2.541   3.093
  113MYC     H522187   1.892   2.695   3.034
  113MYC     H622188   2.152   2.565   2.933
  113MYC     H722189   2.002   2.503   2.881
  113MYC     H822190   1.965   2.772   2.818
  113MYC     H922191   2.142   2.765   2.825
  113MYC   0H1022192   2.390   2.472   2.760
  113MYC   1H1022193   2.610   2.370   2.889
  113MYC   2H1022194   2.664   2.533   2.878
  113MYC   3H1022195   2.472   2.614   2.988
  113MYC   4H1022196   2.398   2.458   3.016
  113MYC   5H1022197   2.601   2.378   3.143
  113MYC   6H1022198   2.678   2.524   3.115
  113MYC   7H1022199   2.481   2.631   3.246
  113MYC   8H1022200   2.432   2.467   3.293
  113MYC   9H1022201   2.722   2.492   3.354
  113MYC    H1022202   2.122   2.571   2.643
  113MYC   0H1122203   2.650   2.652   3.384
  113MYC   1H1122204   2.557   2.396   3.523
  113MYC   2H1122205   2.490   2.684   3.579
  113MYC   3H1122206   2.444   2.535   3.679
  113MYC   4H1122207   2.734   2.632   3.614
  113MYC   5H1122208   2.617   2.382   3.761
  113MYC   6H1122209   2.788   2.403   3.731
  113MYC   7H1122210   2.785   2.600   3.890
  113MYC   8H1122211   2.612   2.594   3.898
  113MYC   9H1122212   2.660   2.346   3.985
  113MYC    H1122213   1.953   2.606   2.638
  113MYC   0H1222214   2.823   2.398   4.009
  113MYC   1H1222215   2.750   2.597   4.145
  113MYC   2H1222216   2.581   2.514   4.135
  113MYC   3H1222217   2.700   2.304   4.237
  113MYC   4H1222218   2.820   2.417   4.285
  113MYC   5H1222219   2.692   2.554   4.398
  113MYC   6H1222220   2.534   2.482   4.370
  113MYC   7H1222221   2.596   2.285   4.494
  113MYC   8H1222222   2.769   2.339   4.505
  113MYC   9H1222223   2.692   2.516   4.671
  113MYC    H1222224   2.008   2.860   2.595
  113MYC   0H1322225   2.528   2.500   4.605
  113MYC   1H1322226   2.545   2.260   4.715
  113MYC   2H1322227   2.667   2.330   4.812
  113MYC   3H1322228   2.458   2.520   4.818
  113MYC   4H1322229   2.378   2.365   4.840
  113MYC   5H1322230   2.550   2.323   5.024
  113MYC   6H1322231   2.616   2.476   5.018
  113MYC   7H1322232   2.386   2.581   5.039
  113MYC   8H1322233   2.322   2.421   5.082
  113MYC   9H1322234   2.471   2.421   5.282
  113MYC    H1322235   2.178   2.808   2.595
  113MYC   0H1422236   2.551   2.564   5.234
  113MYC   1H1422237   2.307   2.674   5.271
  113MYC   2H1422238   2.255   2.515   5.325
  113MYC   3H1422239   2.468   2.534   5.490
  113MYC   4H1422240   2.459   2.711   5.443
  113MYC   5H1422241   2.227   2.705   5.531
  113MYC   6H1422242   2.268   2.550   5.604
  113MYC   7H1422243   2.470   2.641   5.711
  113MYC   8H1422244   2.417   2.812   5.673
  113MYC   9H1422245   2.222   2.804   5.790
  113MYC    H1422246   2.097   2.644   2.402
  113MYC   0H1522247   2.236   2.634   5.834
  113MYC   1H1522248   2.429   2.681   5.971
  113MYC   2H1522249   2.427   2.852   5.933
  113MYC   3H1522250   2.357   2.780   6.153
  113MYC   4H1522251   2.221   2.690   6.090
  113MYC   5H1522252   2.218   2.866   6.064
  113MYC   6H1522253   1.964   3.046   2.918
  113MYC    H1522254   1.958   2.754   2.403
  113MYC    H1622255   2.123   2.948   2.380
  113MYC    H1722256   2.256   2.830   2.367
  113MYC    H1822257   2.041   2.885   2.162
  113MYC    H1922258   2.213   2.930   2.156
  113MYC    H2022259   2.288   2.694   2.179
  113MYC    H2122260   2.121   2.642   2.164
  113MYC    H2222261   2.112   2.738   1.943
  113MYC    H2322262   2.273   2.800   1.952
  113MYC    H2422263   2.362   2.576   1.960
  113MYC    H2522264   2.196   2.499   1.960
  113MYC    H2622265   2.160   2.649   1.746
  113MYC    H2722266   2.329   2.672   1.733
  113MYC    H2822267   2.217   2.394   1.758
  113MYC    H2922268   2.199   2.484   1.601
  113MYC    H3022269   2.470   2.520   1.634
  113MYC    H3122270   2.401   2.234   1.760
  113MYC    H3222271   2.495   2.326   1.481
  113MYC    H3322272   2.326   2.276   1.519
  113MYC    H3422273   2.185   2.946   3.299
  113MYC    H3522274   2.034   3.034   3.298
  113MYC    H3622275   1.926   2.852   3.420
  113MYC    H3722276   2.069   2.772   3.458
  113MYC    H3822277   2.169   2.978   3.559
  113MYC    H3922278   2.011   3.063   3.537
  113MYC    H4022279   1.903   2.875   3.678
  113MYC    H4122280   2.057   2.807   3.705
  113MYC    H4222281   2.132   2.989   3.846
  113MYC    H4322282   1.997   3.086   3.791
  113MYC    H4422283   1.837   2.924   3.887
  113MYC    H4522284   1.977   2.831   3.952
  113MYC    H4622285   1.958   3.127   4.035
  113MYC    H4722286   1.821   3.026   4.085
  113MYC    H4822287   1.986   2.853   4.183
  113MYC    H4922288   2.115   2.963   4.133
  113MYC    H5022289   2.069   3.133   4.290
  113MYC    H5122290   1.903   3.095   4.299
  113MYC    H5222291   1.993   2.874   4.414
  113MYC    H5322292   2.150   2.968   4.425
  113MYC    H5422293   2.045   3.127   4.571
  113MYC    H5522294   1.887   3.067   4.541
  113MYC    H5622295   1.934   2.856   4.651
  113MYC    H5722296   2.099   2.896   4.682
  113MYC    H5822297   1.996   3.109   4.806
  113MYC    H5922298   1.846   3.018   4.807
  113MYC    H6022299   1.954   2.835   4.927
  113MYC    H6122300   2.110   2.919   4.923
  113MYC    H6222301   2.004   3.125   5.040
  113MYC    H6322302   1.861   3.024   5.069
  113MYC    H6422303   2.020   2.867   5.202
  113MYC    H6522304   2.136   3.000   5.200
  113MYC    H6622305   1.945   3.143   5.304
  113MYC    H6722306   1.858   2.994   5.328
  113MYC    H6822307   2.023   2.897   5.462
  113MYC    H6922308   2.137   3.033   5.433
  113MYC    H7022309   1.990   3.191   5.554
  113MYC    H7122310   1.863   3.070   5.567
  113MYC    H7222311   2.023   2.927   5.696
  113MYC    H7322312   2.150   3.050   5.684
  113MYC    H7422313   2.028   3.218   5.798
  113MYC    H7522314   1.889   3.106   5.808
  113MYC    H7622315   1.991   2.956   5.962
  113MYC    H7722316   2.147   3.032   5.944
  113MYC    H7822317   2.048   3.244   6.040
  113MYC    H7922318   1.895   3.179   6.070
  113MYC    H8022319   2.013   3.168   6.290
  113MYC    H8122320   2.145   3.087   6.203
  113MYC    H8222321   2.002   2.996   6.211
  113MYC    H8322322   2.659   2.224   1.684
  113MYC    H8422323   2.656   2.401   1.709
  113MYC    H8522324   2.600   2.182   1.915
  113MYC    H8622325   2.747   2.276   1.908
  113MYC    H8722326   2.609   2.475   1.967
  113MYC    H8822327   2.465   2.366   1.987
  113MYC    H8922328   2.604   2.231   2.147
  113MYC    H9022329   2.727   2.360   2.142
  113MYC    H9122330   2.563   2.522   2.230
  113MYC    H9222331   2.430   2.404   2.208
  113MYC    H9322332   2.540   2.267   2.386
  113MYC    H9422333   2.680   2.367   2.394
  113MYC    H9522334   2.542   2.558   2.485
  113MYC    H9622335   2.395   2.459   2.479
  113MYC    H9722336   2.512   2.305   2.637
  113MYC    H9822337   2.662   2.401   2.639
  113MYC    H9922338   2.518   2.590   2.716
  114MYC     C122339   2.696   3.814   3.132
  114MYC     C222340   2.625   3.698   3.060
  114MYC     O322341   2.689   3.570   3.066
  114MYC     C422342   2.593   3.738   2.915
  114MYC     C522343   2.688   3.675   2.811
  114MYC     C622344   2.654   3.713   2.666
  114MYC     C722345   2.693   3.856   2.625
  114MYC     C822346   2.599   3.909   2.516
  114MYC     C922347   2.621   3.849   2.376
  114MYC    C1022348   2.752   3.895   2.309
  114MYC    C1122349   2.754   3.926   2.159
  114MYC    C1222350   2.701   3.821   2.059
  114MYC    C1322351   2.769   3.812   1.921
  114MYC    C1422352   2.710   3.692   1.844
  114MYC    C1522353   2.738   3.704   1.693
  114MYC    C1622354   2.664   3.600   1.607
  114MYC    C1722355   2.686   3.455   1.647
  114MYC    C1822356   2.597   3.346   1.593
  114MYC    C1922357   2.736   3.363   1.539
  114MYC    C2022358   2.740   3.778   3.275
  114MYC    C2122359   2.633   3.809   3.382
  114MYC    C2222360   2.658   3.724   3.507
  114MYC    C2322361   2.576   3.772   3.628
  114MYC    C2422362   2.647   3.759   3.764
  114MYC    C2522363   2.562   3.827   3.872
  114MYC    C2622364   2.624   3.792   4.008
  114MYC    C2722365   2.538   3.826   4.131
  114MYC    C2822366   2.613   3.783   4.258
  114MYC    C2922367   2.535   3.805   4.389
  114MYC    C3022368   2.627   3.799   4.512
  114MYC    C3122369   2.544   3.848   4.632
  114MYC    C3222370   2.635   3.846   4.757
  114MYC    C3322371   2.574   3.895   4.889
  114MYC    C3422372   2.684   3.901   4.997
  114MYC    C3522373   2.620   3.906   5.137
  114MYC    C3622374   2.729   3.927   5.244
  114MYC    C3722375   2.666   3.914   5.384
  114MYC    C3822376   2.772   3.900   5.494
  114MYC    C3922377   2.711   3.890   5.635
  114MYC    C4022378   2.809   3.927   5.747
  114MYC    C4122379   2.760   3.891   5.889
  114MYC    C4222380   2.847   3.969   5.989
  114MYC    C4322381   2.825   3.950   6.140
  114MYC    C4422382   2.572   3.218   1.673
  114MYC    C4522383   2.481   3.242   1.794
  114MYC    C4622384   2.566   3.264   1.920
  114MYC    C4722385   2.473   3.266   2.042
  114MYC    C4822386   2.551   3.267   2.175
  114MYC    C4922387   2.458   3.251   2.297
  114MYC    C5022388   2.526   3.277   2.433
  114MYC    C5122389   2.428   3.267   2.551
  114MYC    C5222390   2.498   3.316   2.679
  114MYC    C5322391   2.402   3.303   2.799
  114MYC    C5422392   2.445   3.373   2.929
  114MYC    C5522393   2.339   3.355   3.039
  114MYC    C5622394   2.362   3.410   3.181
  114MYC    C5722395   2.317   3.306   3.285
  114MYC    C5822396   2.271   3.384   3.407
  114MYC    C5922397   2.364   3.469   3.489
  114MYC    C6022398   2.310   3.341   3.547
  114MYC    C6122399   2.212   3.351   3.662
  114MYC    C6222400   2.291   3.381   3.791
  114MYC    C6322401   2.206   3.340   3.913
  114MYC    C6422402   2.289   3.383   4.035
  114MYC    C6522403   2.196   3.393   4.157
  114MYC    C6622404   2.271   3.428   4.286
  114MYC    C6722405   2.169   3.425   4.401
  114MYC    C6822406   2.224   3.506   4.519
  114MYC    C6922407   2.172   3.455   4.654
  114MYC    C7022408   2.218   3.533   4.778
  114MYC    C7122409   2.133   3.504   4.904
  114MYC    C7222410   2.198   3.564   5.030
  114MYC    C7322411   2.142   3.518   5.165
  114MYC    C7422412   2.242   3.554   5.276
  114MYC    C7522413   2.194   3.486   5.405
  114MYC    C7622414   2.265   3.544   5.529
  114MYC    C7722415   2.238   3.456   5.653
  114MYC    C7822416   2.315   3.515   5.773
  114MYC    C7922417   2.307   3.429   5.900
  114MYC    C8022418   2.363   3.507   6.020
  114MYC    C8122419   2.811   3.872   3.050
  114MYC    O8222420   2.801   3.969   2.977
  114MYC    O8322421   2.929   3.807   3.055
  114MYC     H122422   2.623   3.894   3.144
  114MYC     H222423   2.528   3.681   3.107
  114MYC     H322424   2.750   3.565   3.141
  114MYC     H422425   2.492   3.703   2.891
  114MYC     H522426   2.582   3.846   2.904
  114MYC     H622427   2.789   3.715   2.830
  114MYC     H722428   2.692   3.566   2.824
  114MYC     H822429   2.694   3.640   2.595
  114MYC     H922430   2.545   3.700   2.665
  114MYC   0H1022431   2.529   3.420   2.662
  114MYC   1H1022432   2.302   3.334   2.766
  114MYC   2H1022433   2.391   3.197   2.822
  114MYC   3H1022434   2.536   3.332   2.973
  114MYC   4H1022435   2.442   3.480   2.906
  114MYC   5H1022436   2.238   3.379   3.004
  114MYC   6H1022437   2.340   3.246   3.051
  114MYC   7H1022438   2.469   3.429   3.195
  114MYC   8H1022439   2.295   3.495   3.192
  114MYC   9H1022440   2.239   3.235   3.257
  114MYC    H1022441   2.688   3.925   2.710
  114MYC   0H1122442   2.407   3.250   3.314
  114MYC   1H1122443   2.164   3.404   3.401
  114MYC   2H1122444   2.471   3.483   3.474
  114MYC   3H1122445   2.322   3.558   3.536
  114MYC   4H1122446   2.364   3.247   3.560
  114MYC   5H1122447   2.149   3.439   3.642
  114MYC   6H1122448   2.157   3.256   3.659
  114MYC   7H1122449   2.389   3.332   3.786
  114MYC   8H1122450   2.312   3.489   3.796
  114MYC   9H1122451   2.111   3.394   3.904
  114MYC    H1122452   2.799   3.863   2.596
  114MYC   0H1222453   2.189   3.232   3.926
  114MYC   1H1222454   2.369   3.314   4.065
  114MYC   2H1222455   2.342   3.476   4.009
  114MYC   3H1222456   2.131   3.479   4.135
  114MYC   4H1222457   2.142   3.297   4.160
  114MYC   5H1222458   2.351   3.355   4.299
  114MYC   6H1222459   2.324   3.524   4.279
  114MYC   7H1222460   2.075   3.471   4.366
  114MYC   8H1222461   2.144   3.320   4.421
  114MYC   9H1222462   2.333   3.494   4.518
  114MYC    H1222463   2.494   3.893   2.542
  114MYC   0H1322464   2.201   3.613   4.514
  114MYC   1H1322465   2.062   3.455   4.651
  114MYC   2H1322466   2.206   3.351   4.667
  114MYC   3H1322467   2.320   3.510   4.810
  114MYC   4H1322468   2.229   3.641   4.763
  114MYC   5H1322469   2.029   3.536   4.898
  114MYC   6H1322470   2.113   3.397   4.904
  114MYC   7H1322471   2.305   3.544   5.017
  114MYC   8H1322472   2.197   3.674   5.028
  114MYC   9H1322473   2.044   3.559   5.193
  114MYC    H1322474   2.616   4.016   2.498
  114MYC   0H1422475   2.136   3.409   5.152
  114MYC   1H1422476   2.340   3.516   5.245
  114MYC   2H1422477   2.246   3.663   5.287
  114MYC   3H1422478   2.086   3.474   5.414
  114MYC   4H1422479   2.235   3.384   5.398
  114MYC   5H1422480   2.372   3.541   5.507
  114MYC   6H1422481   2.237   3.648   5.547
  114MYC   7H1422482   2.130   3.445   5.668
  114MYC   8H1422483   2.265   3.350   5.645
  114MYC   9H1422484   2.419   3.507   5.738
  114MYC    H1422485   2.619   3.740   2.388
  114MYC   0H1522486   2.285   3.618   5.798
  114MYC   1H1522487   2.203   3.401   5.918
  114MYC   2H1522488   2.370   3.340   5.889
  114MYC   3H1522489   2.297   3.584   6.060
  114MYC   4H1522490   2.456   3.557   5.991
  114MYC   5H1522491   2.381   3.434   6.100
  114MYC   6H1522492   2.991   3.854   2.997
  114MYC    H1522493   2.535   3.874   2.313
  114MYC    H1622494   2.796   3.981   2.361
  114MYC    H1722495   2.819   3.810   2.326
  114MYC    H1822496   2.700   4.019   2.138
  114MYC    H1922497   2.853   3.959   2.126
  114MYC    H2022498   2.716   3.723   2.104
  114MYC    H2122499   2.594   3.838   2.041
  114MYC    H2222500   2.756   3.905   1.863
  114MYC    H2322501   2.876   3.790   1.927
  114MYC    H2422502   2.743   3.596   1.886
  114MYC    H2522503   2.602   3.692   1.864
  114MYC    H2622504   2.710   3.804   1.660
  114MYC    H2722505   2.846   3.698   1.679
  114MYC    H2822506   2.557   3.617   1.623
  114MYC    H2922507   2.693   3.612   1.501
  114MYC    H3022508   2.725   3.428   1.744
  114MYC    H3122509   2.514   3.367   1.526
  114MYC    H3222510   2.823   3.303   1.567
  114MYC    H3322511   2.755   3.409   1.442
  114MYC    H3422512   2.786   3.680   3.291
  114MYC    H3522513   2.813   3.854   3.303
  114MYC    H3622514   2.638   3.915   3.411
  114MYC    H3722515   2.532   3.796   3.341
  114MYC    H3822516   2.641   3.617   3.487
  114MYC    H3922517   2.764   3.727   3.533
  114MYC    H4022518   2.548   3.877   3.616
  114MYC    H4122519   2.482   3.715   3.630
  114MYC    H4222520   2.654   3.651   3.778
  114MYC    H4322521   2.750   3.797   3.768
  114MYC    H4422522   2.548   3.935   3.859
  114MYC    H4522523   2.458   3.792   3.865
  114MYC    H4622524   2.659   3.688   4.007
  114MYC    H4722525   2.717   3.851   4.020
  114MYC    H4822526   2.527   3.935   4.140
  114MYC    H4922527   2.437   3.782   4.127
  114MYC    H5022528   2.640   3.677   4.250
  114MYC    H5122529   2.703   3.846   4.262
  114MYC    H5222530   2.469   3.892   4.390
  114MYC    H5322531   2.455   3.731   4.402
  114MYC    H5422532   2.660   3.694   4.514
  114MYC    H5522533   2.720   3.850   4.488
  114MYC    H5622534   2.495   3.945   4.620
  114MYC    H5722535   2.463   3.775   4.646
  114MYC    H5822536   2.693   3.753   4.759
  114MYC    H5922537   2.713   3.919   4.733
  114MYC    H6022538   2.524   3.991   4.872
  114MYC    H6122539   2.487   3.832   4.913
  114MYC    H6222540   2.745   3.810   4.988
  114MYC    H6322541   2.749   3.987   4.976
  114MYC    H6422542   2.547   3.988   5.140
  114MYC    H6522543   2.564   3.813   5.152
  114MYC    H6622544   2.818   3.865   5.231
  114MYC    H6722545   2.760   4.032   5.229
  114MYC    H6822546   2.595   3.992   5.414
  114MYC    H6922547   2.612   3.819   5.382
  114MYC    H7022548   2.830   3.810   5.473
  114MYC    H7122549   2.840   3.987   5.502
  114MYC    H7222550   2.621   3.951   5.647
  114MYC    H7322551   2.678   3.786   5.648
  114MYC    H7422552   2.896   3.863   5.729
  114MYC    H7522553   2.829   4.035   5.741
  114MYC    H7622554   2.655   3.920   5.895
  114MYC    H7722555   2.765   3.783   5.906
  114MYC    H7822556   2.954   3.962   5.962
  114MYC    H7922557   2.830   4.075   5.970
  114MYC    H8022558   2.860   4.033   6.203
  114MYC    H8122559   2.877   3.861   6.175
  114MYC    H8222560   2.718   3.941   6.165
  114MYC    H8322561   2.525   3.147   1.604
  114MYC    H8422562   2.666   3.170   1.704
  114MYC    H8522563   2.403   3.317   1.779
  114MYC    H8622564   2.427   3.149   1.816
  114MYC    H8722565   2.624   3.171   1.931
  114MYC    H8822566   2.626   3.356   1.923
  114MYC    H8922567   2.404   3.350   2.030
  114MYC    H9022568   2.405   3.180   2.038
  114MYC    H9122569   2.627   3.188   2.167
  114MYC    H9222570   2.596   3.365   2.194
  114MYC    H9322571   2.372   3.318   2.286
  114MYC    H9422572   2.421   3.149   2.307
  114MYC    H9522573   2.607   3.203   2.435
  114MYC    H9622574   2.561   3.381   2.436
  114MYC    H9722575   2.343   3.335   2.537
  114MYC    H9822576   2.371   3.174   2.564
  114MYC    H9922577   2.592   3.263   2.697
  115MYC     C122578   2.529   4.450   3.304
  115MYC     C222579   2.423   4.369   3.228
  115MYC     O322580   2.467   4.241   3.185
  115MYC     C422581   2.370   4.459   3.114
  115MYC     C522582   2.246   4.401   3.045
  115MYC     C622583   2.277   4.322   2.917
  115MYC     C722584   2.308   4.409   2.794
  115MYC     C822585   2.397   4.333   2.695
  115MYC     C922586   2.427   4.403   2.562
  115MYC    C1022587   2.544   4.346   2.480
  115MYC    C1122588   2.555   4.402   2.337
  115MYC    C1222589   2.444   4.361   2.237
  115MYC    C1322590   2.481   4.424   2.102
  115MYC    C1422591   2.360   4.415   2.006
  115MYC    C1522592   2.383   4.458   1.861
  115MYC    C1622593   2.256   4.502   1.787
  115MYC    C1722594   2.178   4.385   1.727
  115MYC    C1822595   2.106   4.283   1.811
  115MYC    C1922596   2.028   4.380   1.726
  115MYC    C2022597   2.582   4.380   3.430
  115MYC    C2122598   2.467   4.358   3.530
  115MYC    C2222599   2.498   4.359   3.681
  115MYC    C2322600   2.523   4.500   3.737
  115MYC    C2422601   2.598   4.504   3.871
  115MYC    C2522602   2.530   4.409   3.970
  115MYC    C2622603   2.573   4.438   4.115
  115MYC    C2722604   2.493   4.359   4.220
  115MYC    C2822605   2.492   4.440   4.351
  115MYC    C2922606   2.427   4.375   4.474
  115MYC    C3022607   2.455   4.447   4.607
  115MYC    C3122608   2.390   4.375   4.726
  115MYC    C3222609   2.395   4.466   4.851
  115MYC    C3322610   2.362   4.396   4.984
  115MYC    C3422611   2.363   4.492   5.104
  115MYC    C3522612   2.297   4.434   5.230
  115MYC    C3622613   2.325   4.523   5.352
  115MYC    C3722614   2.295   4.439   5.478
  115MYC    C3822615   2.311   4.527   5.603
  115MYC    C3922616   2.269   4.463   5.736
  115MYC    C4022617   2.269   4.565   5.851
  115MYC    C4122618   2.233   4.496   5.984
  115MYC    C4222619   2.208   4.594   6.100
  115MYC    C4322620   2.173   4.509   6.223
  115MYC    C4422621   2.138   4.141   1.766
  115MYC    C4522622   2.095   4.029   1.861
  115MYC    C4622623   2.176   4.036   1.991
  115MYC    C4722624   2.135   3.941   2.105
  115MYC    C4822625   2.186   3.985   2.243
  115MYC    C4922626   2.164   3.900   2.368
  115MYC    C5022627   2.225   3.964   2.494
  115MYC    C5122628   2.196   3.883   2.621
  115MYC    C5222629   2.260   3.943   2.748
  115MYC    C5322630   2.202   3.876   2.874
  115MYC    C5422631   2.243   3.952   3.001
  115MYC    C5522632   2.216   3.872   3.130
  115MYC    C5622633   2.208   3.956   3.259
  115MYC    C5722634   2.198   3.868   3.385
  115MYC    C5822635   2.160   3.952   3.506
  115MYC    C5922636   2.272   3.989   3.599
  115MYC    C6022637   2.160   3.900   3.647
  115MYC    C6122638   2.055   3.949   3.745
  115MYC    C6222639   2.104   4.030   3.867
  115MYC    C6322640   2.071   3.962   4.001
  115MYC    C6422641   2.139   4.035   4.118
  115MYC    C6522642   2.113   3.970   4.255
  115MYC    C6622643   2.139   4.069   4.370
  115MYC    C6722644   2.163   3.989   4.499
  115MYC    C6822645   2.188   4.071   4.626
  115MYC    C6922646   2.195   3.971   4.743
  115MYC    C7022647   2.219   4.052   4.871
  115MYC    C7122648   2.219   3.967   4.999
  115MYC    C7222649   2.251   4.052   5.123
  115MYC    C7322650   2.260   3.966   5.250
  115MYC    C7422651   2.274   4.058   5.373
  115MYC    C7522652   2.296   3.980   5.504
  115MYC    C7622653   2.319   4.077   5.621
  115MYC    C7722654   2.309   3.994   5.750
  115MYC    C7822655   2.298   4.077   5.879
  115MYC    C7922656   2.304   3.984   6.002
  115MYC    C8022657   2.280   4.058   6.134
  115MYC    C8122658   2.644   4.484   3.210
  115MYC    O8222659   2.687   4.595   3.185
  115MYC    O8322660   2.709   4.376   3.161
  115MYC     H122661   2.488   4.543   3.345
  115MYC     H222662   2.341   4.350   3.298
  115MYC     H322663   2.555   4.247   3.143
  115MYC     H422664   2.345   4.554   3.163
  115MYC     H522665   2.446   4.487   3.040
  115MYC     H622666   2.200   4.330   3.115
  115MYC     H722667   2.177   4.484   3.025
  115MYC     H822668   2.356   4.250   2.941
  115MYC     H922669   2.190   4.262   2.887
  115MYC   0H1022670   2.232   4.049   2.754
  115MYC   1H1022671   2.094   3.862   2.865
  115MYC   2H1022672   2.239   3.773   2.876
  115MYC   3H1022673   2.348   3.984   2.999
  115MYC   4H1022674   2.190   4.048   3.005
  115MYC   5H1022675   2.131   3.804   3.128
  115MYC   6H1022676   2.303   3.808   3.145
  115MYC   7H1022677   2.298   4.019   3.268
  115MYC   8H1022678   2.127   4.028   3.241
  115MYC   9H1022679   2.126   3.789   3.358
  115MYC    H1022680   2.209   4.435   2.753
  115MYC   0H1122681   2.290   3.812   3.406
  115MYC   1H1122682   2.075   4.019   3.493
  115MYC   2H1122683   2.366   3.939   3.573
  115MYC   3H1122684   2.280   4.092   3.633
  115MYC   4H1122685   2.185   3.796   3.670
  115MYC   5H1122686   1.995   4.025   3.694
  115MYC   6H1122687   1.990   3.873   3.788
  115MYC   7H1122688   2.212   4.048   3.863
  115MYC   8H1122689   2.056   4.129   3.866
  115MYC   9H1122690   1.962   3.968   4.014
  115MYC    H1122691   2.350   4.503   2.833
  115MYC   0H1222692   2.098   3.856   3.999
  115MYC   1H1222693   2.247   4.037   4.099
  115MYC   2H1222694   2.098   4.137   4.123
  115MYC   3H1222695   2.011   3.930   4.264
  115MYC   4H1222696   2.172   3.878   4.255
  115MYC   5H1222697   2.216   4.145   4.353
  115MYC   6H1222698   2.044   4.120   4.390
  115MYC   7H1222699   2.074   3.927   4.514
  115MYC   8H1222700   2.253   3.927   4.487
  115MYC   9H1222701   2.279   4.131   4.614
  115MYC    H1222702   2.489   4.325   2.755
  115MYC   0H1322703   2.102   4.139   4.639
  115MYC   1H1322704   2.100   3.917   4.751
  115MYC   2H1322705   2.281   3.903   4.734
  115MYC   3H1322706   2.313   4.109   4.870
  115MYC   4H1322707   2.139   4.125   4.892
  115MYC   5H1322708   2.124   3.913   5.007
  115MYC   6H1322709   2.291   3.885   4.988
  115MYC   7H1322710   2.344   4.110   5.114
  115MYC   8H1322711   2.168   4.122   5.138
  115MYC   9H1322712   2.167   3.911   5.269
  115MYC    H1322713   2.364   4.230   2.677
  115MYC   0H1422714   2.346   3.898   5.247
  115MYC   1H1422715   2.356   4.129   5.359
  115MYC   2H1422716   2.182   4.118   5.380
  115MYC   3H1422717   2.210   3.913   5.515
  115MYC   4H1422718   2.382   3.914   5.490
  115MYC   5H1422719   2.416   4.129   5.624
  115MYC   6H1422720   2.259   4.168   5.622
  115MYC   7H1422721   2.216   3.935   5.740
  115MYC   8H1422722   2.391   3.921   5.748
  115MYC   9H1422723   2.378   4.150   5.892
  115MYC    H1422724   2.332   4.400   2.507
  115MYC   0H1522725   2.199   4.123   5.871
  115MYC   1H1522726   2.234   3.901   5.990
  115MYC   2H1522727   2.401   3.935   6.018
  115MYC   3H1522728   2.290   4.167   6.133
  115MYC   4H1522729   2.345   4.008   6.208
  115MYC   5H1522730   2.180   4.027   6.167
  115MYC   6H1522731   2.789   4.418   3.127
  115MYC    H1522732   2.448   4.509   2.583
  115MYC    H1622733   2.642   4.355   2.528
  115MYC    H1722734   2.534   4.237   2.487
  115MYC    H1822735   2.556   4.510   2.355
  115MYC    H1922736   2.651   4.368   2.297
  115MYC    H2022737   2.423   4.254   2.229
  115MYC    H2122738   2.346   4.397   2.271
  115MYC    H2222739   2.516   4.527   2.112
  115MYC    H2322740   2.569   4.373   2.062
  115MYC    H2422741   2.310   4.318   2.020
  115MYC    H2522742   2.276   4.471   2.048
  115MYC    H2622743   2.443   4.550   1.854
  115MYC    H2722744   2.439   4.379   1.810
  115MYC    H2822745   2.196   4.572   1.846
  115MYC    H2922746   2.289   4.567   1.704
  115MYC    H3022747   2.214   4.368   1.626
  115MYC    H3122748   2.111   4.311   1.916
  115MYC    H3222749   1.983   4.351   1.632
  115MYC    H3322750   1.963   4.453   1.774
  115MYC    H3422751   2.637   4.287   3.410
  115MYC    H3522752   2.654   4.443   3.484
  115MYC    H3622753   2.394   4.438   3.514
  115MYC    H3722754   2.431   4.259   3.501
  115MYC    H3822755   2.413   4.318   3.737
  115MYC    H3922756   2.585   4.293   3.690
  115MYC    H4022757   2.582   4.559   3.667
  115MYC    H4122758   2.426   4.548   3.756
  115MYC    H4222759   2.697   4.464   3.845
  115MYC    H4322760   2.609   4.604   3.915
  115MYC    H4422761   2.426   4.444   3.977
  115MYC    H4522762   2.537   4.303   3.940
  115MYC    H4622763   2.679   4.414   4.133
  115MYC    H4722764   2.559   4.546   4.129
  115MYC    H4822765   2.386   4.348   4.198
  115MYC    H4922766   2.531   4.257   4.229
  115MYC    H5022767   2.600   4.448   4.369
  115MYC    H5122768   2.441   4.536   4.333
  115MYC    H5222769   2.318   4.368   4.468
  115MYC    H5322770   2.470   4.276   4.493
  115MYC    H5422771   2.563   4.452   4.625
  115MYC    H5522772   2.423   4.552   4.600
  115MYC    H5622773   2.286   4.345   4.707
  115MYC    H5722774   2.452   4.289   4.752
  115MYC    H5822775   2.501   4.494   4.857
  115MYC    H5922776   2.335   4.557   4.845
  115MYC    H6022777   2.259   4.358   4.985
  115MYC    H6122778   2.434   4.315   4.998
  115MYC    H6222779   2.466   4.519   5.128
  115MYC    H6322780   2.310   4.584   5.074
  115MYC    H6422781   2.188   4.429   5.217
  115MYC    H6522782   2.340   4.334   5.249
  115MYC    H6622783   2.429   4.555   5.368
  115MYC    H6722784   2.255   4.607   5.350
  115MYC    H6822785   2.194   4.397   5.483
  115MYC    H6922786   2.370   4.360   5.490
  115MYC    H7022787   2.418   4.547   5.616
  115MYC    H7122788   2.258   4.621   5.582
  115MYC    H7222789   2.172   4.412   5.737
  115MYC    H7322790   2.330   4.377   5.767
  115MYC    H7422791   2.377   4.583   5.858
  115MYC    H7522792   2.212   4.657   5.835
  115MYC    H7622793   2.131   4.456   5.977
  115MYC    H7722794   2.303   4.416   6.009
  115MYC    H7822795   2.296   4.655   6.120
  115MYC    H7922796   2.126   4.666   6.085
  115MYC    H8022797   2.094   4.546   6.290
  115MYC    H8122798   2.257   4.502   6.294
  115MYC    H8222799   2.156   4.404   6.195
  115MYC    H8322800   2.089   4.129   1.669
  115MYC    H8422801   2.245   4.125   1.746
  115MYC    H8522802   1.989   4.037   1.890
  115MYC    H8622803   2.097   3.933   1.807
  115MYC    H8722804   2.283   4.018   1.973
  115MYC    H8822805   2.168   4.138   2.032
  115MYC    H8922806   2.026   3.931   2.116
  115MYC    H9022807   2.183   3.845   2.081
  115MYC    H9122808   2.293   4.009   2.236
  115MYC    H9222809   2.136   4.080   2.268
  115MYC    H9322810   2.058   3.874   2.381
  115MYC    H9422811   2.215   3.804   2.350
  115MYC    H9522812   2.332   3.975   2.473
  115MYC    H9622813   2.196   4.070   2.500
  115MYC    H9722814   2.088   3.865   2.632
  115MYC    H9822815   2.234   3.782   2.602
  115MYC    H9922816   2.369   3.950   2.748
  116MYC     C122817   2.145   5.553   3.246
  116MYC     C222818   2.236   5.435   3.209
  116MYC     O322819   2.372   5.480   3.207
  116MYC     C422820   2.208   5.352   3.083
  116MYC     C522821   2.328   5.326   2.990
  116MYC     C622822   2.343   5.417   2.866
  116MYC     C722823   2.358   5.348   2.730
  116MYC     C822824   2.332   5.444   2.611
  116MYC     C922825   2.351   5.387   2.470
  116MYC    C1022826   2.335   5.498   2.364
  116MYC    C1122827   2.253   5.451   2.242
  116MYC    C1222828   2.304   5.336   2.154
  116MYC    C1322829   2.255   5.351   2.009
  116MYC    C1422830   2.281   5.229   1.920
  116MYC    C1522831   2.213   5.244   1.783
  116MYC    C1622832   2.234   5.129   1.683
  116MYC    C1722833   2.380   5.094   1.657
  116MYC    C1822834   2.431   4.953   1.640
  116MYC    C1922835   2.427   5.047   1.522
  116MYC    C2022836   2.187   5.625   3.376
  116MYC    C2122837   2.158   5.541   3.502
  116MYC    C2222838   2.172   5.617   3.635
  116MYC    C2322839   2.116   5.539   3.755
  116MYC    C2422840   2.127   5.627   3.881
  116MYC    C2522841   2.064   5.567   4.008
  116MYC    C2622842   2.075   5.659   4.131
  116MYC    C2722843   2.061   5.592   4.269
  116MYC    C2822844   2.129   5.655   4.391
  116MYC    C2922845   2.110   5.583   4.525
  116MYC    C3022846   2.162   5.655   4.651
  116MYC    C3122847   2.154   5.560   4.771
  116MYC    C3222848   2.201   5.630   4.900
  116MYC    C3322849   2.183   5.549   5.030
  116MYC    C3422850   2.228   5.632   5.151
  116MYC    C3522851   2.251   5.549   5.278
  116MYC    C3622852   2.192   5.617   5.403
  116MYC    C3722853   2.254   5.559   5.531
  116MYC    C3822854   2.180   5.586   5.663
  116MYC    C3922855   2.266   5.540   5.782
  116MYC    C4022856   2.204   5.563   5.921
  116MYC    C4122857   2.278   5.487   6.032
  116MYC    C4222858   2.209   5.521   6.165
  116MYC    C4322859   2.299   5.475   6.282
  116MYC    C4422860   2.567   4.914   1.699
  116MYC    C4522861   2.540   4.828   1.823
  116MYC    C4622862   2.463   4.904   1.932
  116MYC    C4722863   2.459   4.822   2.063
  116MYC    C4822864   2.402   4.904   2.180
  116MYC    C4922865   2.348   4.817   2.295
  116MYC    C5022866   2.353   4.902   2.423
  116MYC    C5122867   2.313   4.829   2.552
  116MYC    C5222868   2.344   4.911   2.678
  116MYC    C5322869   2.315   4.836   2.809
  116MYC    C5422870   2.358   4.914   2.935
  116MYC    C5522871   2.340   4.831   3.063
  116MYC    C5622872   2.353   4.921   3.187
  116MYC    C5722873   2.378   4.835   3.312
  116MYC    C5822874   2.417   4.918   3.434
  116MYC    C5922875   2.536   4.889   3.521
  116MYC    C6022876   2.398   4.849   3.567
  116MYC    C6122877   2.341   4.926   3.685
  116MYC    C6222878   2.405   4.881   3.817
  116MYC    C6322879   2.365   4.972   3.934
  116MYC    C6422880   2.423   4.917   4.066
  116MYC    C6522881   2.331   4.937   4.187
  116MYC    C6622882   2.406   4.922   4.321
  116MYC    C6722883   2.323   4.965   4.443
  116MYC    C6822884   2.391   4.947   4.579
  116MYC    C6922885   2.305   4.999   4.696
  116MYC    C7022886   2.373   4.975   4.832
  116MYC    C7122887   2.273   4.973   4.948
  116MYC    C7222888   2.343   4.960   5.084
  116MYC    C7322889   2.253   4.954   5.209
  116MYC    C7422890   2.347   4.972   5.330
  116MYC    C7522891   2.281   4.926   5.461
  116MYC    C7622892   2.380   4.932   5.578
  116MYC    C7722893   2.300   4.961   5.706
  116MYC    C7822894   2.386   4.969   5.834
  116MYC    C7922895   2.308   4.964   5.966
  116MYC    C8022896   2.388   4.974   6.097
  116MYC    C8122897   2.138   5.654   3.132
  116MYC    O8222898   2.179   5.768   3.150
  116MYC    O8322899   2.034   5.633   3.049
  116MYC     H122900   2.044   5.513   3.262
  116MYC     H222901   2.223   5.361   3.289
  116MYC     H322902   2.368   5.568   3.166
  116MYC     H422903   2.198   5.248   3.117
  116MYC     H522904   2.119   5.375   3.024
  116MYC     H622905   2.428   5.313   3.034
  116MYC     H722906   2.300   5.227   2.950
  116MYC     H822907   2.252   5.477   2.864
  116MYC     H922908   2.424   5.488   2.888
  116MYC   0H1022909   2.275   4.997   2.675
  116MYC   1H1022910   2.207   4.814   2.813
  116MYC   2H1022911   2.362   4.737   2.808
  116MYC   3H1022912   2.460   4.953   2.928
  116MYC   4H1022913   2.286   4.997   2.939
  116MYC   5H1022914   2.242   4.782   3.065
  116MYC   6H1022915   2.416   4.752   3.068
  116MYC   7H1022916   2.434   4.992   3.168
  116MYC   8H1022917   2.275   4.997   3.201
  116MYC   9H1022918   2.291   4.772   3.337
  116MYC    H1022919   2.463   5.317   2.731
  116MYC   0H1122920   2.465   4.769   3.303
  116MYC   1H1122921   2.371   5.017   3.428
  116MYC   2H1122922   2.598   4.805   3.491
  116MYC   3H1122923   2.584   4.973   3.570
  116MYC   4H1122924   2.381   4.742   3.572
  116MYC   5H1122925   2.359   5.034   3.677
  116MYC   6H1122926   2.232   4.918   3.696
  116MYC   7H1122927   2.377   4.778   3.843
  116MYC   8H1122928   2.514   4.896   3.809
  116MYC   9H1122929   2.401   5.074   3.914
  116MYC    H1122930   2.312   5.250   2.713
  116MYC   0H1222931   2.255   4.978   3.934
  116MYC   1H1222932   2.437   4.809   4.053
  116MYC   2H1222933   2.525   4.951   4.086
  116MYC   3H1222934   2.279   5.034   4.182
  116MYC   4H1222935   2.251   4.862   4.184
  116MYC   5H1222936   2.452   4.823   4.330
  116MYC   6H1222937   2.500   4.979   4.320
  116MYC   7H1222938   2.295   5.071   4.434
  116MYC   8H1222939   2.232   4.904   4.445
  116MYC   9H1222940   2.411   4.841   4.599
  116MYC    H1222941   2.234   5.490   2.622
  116MYC   0H1322942   2.488   4.998   4.573
  116MYC   1H1322943   2.265   5.100   4.683
  116MYC   2H1322944   2.225   4.924   4.687
  116MYC   3H1322945   2.431   4.881   4.825
  116MYC   4H1322946   2.450   5.051   4.849
  116MYC   5H1322947   2.229   5.074   4.950
  116MYC   6H1322948   2.196   4.897   4.938
  116MYC   7H1322949   2.402   4.867   5.086
  116MYC   8H1322950   2.412   5.044   5.102
  116MYC   9H1322951   2.183   5.038   5.212
  116MYC    H1322952   2.406   5.524   2.623
  116MYC   0H1422953   2.195   4.861   5.214
  116MYC   1H1422954   2.442   4.918   5.323
  116MYC   2H1422955   2.364   5.080   5.335
  116MYC   3H1422956   2.187   4.982   5.478
  116MYC   4H1422957   2.248   4.822   5.450
  116MYC   5H1422958   2.434   4.837   5.590
  116MYC   6H1422959   2.462   5.002   5.559
  116MYC   7H1422960   2.241   5.053   5.695
  116MYC   8H1422961   2.223   4.884   5.713
  116MYC   9H1422962   2.461   4.888   5.834
  116MYC    H1422963   2.451   5.345   2.460
  116MYC   0H1522964   2.440   5.064   5.828
  116MYC   1H1522965   2.240   5.050   5.965
  116MYC   2H1522966   2.242   4.876   5.964
  116MYC   3H1522967   2.450   5.064   6.096
  116MYC   4H1522968   2.453   4.887   6.108
  116MYC   5H1522969   2.319   4.977   6.183
  116MYC   6H1522970   2.033   5.719   3.003
  116MYC    H1522971   2.280   5.306   2.450
  116MYC    H1622972   2.295   5.593   2.402
  116MYC    H1722973   2.437   5.524   2.333
  116MYC    H1822974   2.146   5.435   2.257
  116MYC    H1922975   2.256   5.537   2.174
  116MYC    H2022976   2.413   5.336   2.148
  116MYC    H2122977   2.282   5.240   2.203
  116MYC    H2222978   2.146   5.366   2.012
  116MYC    H2322979   2.303   5.438   1.962
  116MYC    H2422980   2.390   5.222   1.905
  116MYC    H2522981   2.248   5.136   1.966
  116MYC    H2622982   2.104   5.253   1.795
  116MYC    H2722983   2.239   5.339   1.734
  116MYC    H2822984   2.180   5.039   1.714
  116MYC    H2922985   2.182   5.164   1.594
  116MYC    H3022986   2.450   5.164   1.704
  116MYC    H3122987   2.354   4.877   1.640
  116MYC    H3222988   2.525   5.080   1.489
  116MYC    H3322989   2.358   5.023   1.442
  116MYC    H3422990   2.292   5.657   3.379
  116MYC    H3522991   2.138   5.722   3.392
  116MYC    H3622992   2.053   5.513   3.498
  116MYC    H3722993   2.231   5.459   3.498
  116MYC    H3822994   2.276   5.650   3.646
  116MYC    H3922995   2.106   5.703   3.620
  116MYC    H4022996   2.015   5.501   3.736
  116MYC    H4122997   2.175   5.448   3.770
  116MYC    H4222998   2.231   5.654   3.905
  116MYC    H4322999   2.082   5.724   3.858
  116MYC    H4423000   1.958   5.547   3.990
  116MYC    H4523001   2.111   5.470   4.029
  116MYC    H4623002   2.174   5.705   4.119
  116MYC    H4723003   2.002   5.741   4.131
  116MYC    H4823004   1.955   5.582   4.297
  116MYC    H4923005   2.101   5.491   4.259
  116MYC    H5023006   2.236   5.674   4.373
  116MYC    H5123007   2.083   5.755   4.395
  116MYC    H5223008   2.001   5.573   4.537
  116MYC    H5323009   2.148   5.480   4.520
  116MYC    H5423010   2.261   5.697   4.629
  116MYC    H5523011   2.103   5.746   4.670
  116MYC    H5623012   2.049   5.532   4.783
  116MYC    H5723013   2.216   5.475   4.739
  116MYC    H5823014   2.303   5.667   4.885
  116MYC    H5923015   2.136   5.717   4.912
  116MYC    H6023016   2.076   5.526   5.039
  116MYC    H6123017   2.235   5.453   5.025
  116MYC    H6223018   2.301   5.706   5.117
  116MYC    H6323019   2.144   5.698   5.177
  116MYC    H6423020   2.215   5.446   5.264
  116MYC    H6523021   2.360   5.537   5.283
  116MYC    H6623022   2.221   5.722   5.388
  116MYC    H6723023   2.083   5.606   5.411
  116MYC    H6823024   2.261   5.449   5.536
  116MYC    H6923025   2.361   5.582   5.532
  116MYC    H7023026   2.160   5.694   5.672
  116MYC    H7123027   2.079   5.542   5.667
  116MYC    H7223028   2.295   5.435   5.768
  116MYC    H7323029   2.361   5.594   5.775
  116MYC    H7423030   2.205   5.669   5.952
  116MYC    H7523031   2.102   5.525   5.925
  116MYC    H7623032   2.291   5.378   6.020
  116MYC    H7723033   2.381   5.522   6.039
  116MYC    H7823034   2.195   5.629   6.170
  116MYC    H7923035   2.112   5.469   6.174
  116MYC    H8023036   2.237   5.487   6.372
  116MYC    H8123037   2.389   5.536   6.295
  116MYC    H8223038   2.320   5.369   6.268
  116MYC    H8323039   2.621   4.862   1.619
  116MYC    H8423040   2.627   5.006   1.709
  116MYC    H8523041   2.476   4.748   1.785
  116MYC    H8623042   2.635   4.790   1.864
  116MYC    H8723043   2.518   4.997   1.951
  116MYC    H8823044   2.363   4.930   1.897
  116MYC    H8923045   2.391   4.737   2.049
  116MYC    H9023046   2.559   4.790   2.095
  116MYC    H9123047   2.474   4.974   2.224
  116MYC    H9223048   2.313   4.959   2.148
  116MYC    H9323049   2.245   4.785   2.277
  116MYC    H9423050   2.418   4.734   2.310
  116MYC    H9523051   2.454   4.939   2.442
  116MYC    H9623052   2.290   4.990   2.408
  116MYC    H9723053   2.206   4.806   2.557
  116MYC    H9823054   2.366   4.733   2.561
  116MYC    H9923055   2.445   4.953   2.670
  117MYC     C123056   1.994   6.076   3.280
  117MYC     C223057   2.104   6.175   3.239
  117MYC     O323058   2.042   6.303   3.231
  117MYC     C423059   2.182   6.140   3.111
  117MYC     C523060   2.129   6.191   2.975
  117MYC     C623061   2.208   6.125   2.861
  117MYC     C723062   2.176   6.164   2.716
  117MYC     C823063   2.041   6.109   2.665
  117MYC     C923064   2.048   6.070   2.517
  117MYC    C1023065   2.067   6.193   2.426
  117MYC    C1123066   2.073   6.152   2.278
  117MYC    C1223067   2.209   6.093   2.236
  117MYC    C1323068   2.211   6.066   2.084
  117MYC    C1423069   2.348   6.023   2.029
  117MYC    C1523070   2.352   5.985   1.880
  117MYC    C1623071   2.499   5.982   1.835
  117MYC    C1723072   2.549   6.120   1.795
  117MYC    C1823073   2.696   6.149   1.775
  117MYC    C1923074   2.603   6.148   1.657
  117MYC    C2023075   1.942   6.096   3.423
  117MYC    C2123076   2.051   6.071   3.529
  117MYC    C2223077   1.988   6.087   3.669
  117MYC    C2323078   2.087   6.086   3.786
  117MYC    C2423079   2.018   6.100   3.923
  117MYC    C2523080   2.116   6.106   4.040
  117MYC    C2623081   2.046   6.096   4.177
  117MYC    C2723082   2.145   6.072   4.292
  117MYC    C2823083   2.070   6.063   4.425
  117MYC    C2923084   2.155   6.065   4.553
  117MYC    C3023085   2.079   6.091   4.685
  117MYC    C3123086   2.151   6.044   4.813
  117MYC    C3223087   2.074   6.089   4.938
  117MYC    C3323088   2.138   6.035   5.067
  117MYC    C3423089   2.066   6.074   5.197
  117MYC    C3523090   2.144   6.034   5.323
  117MYC    C3623091   2.054   6.061   5.445
  117MYC    C3723092   2.136   6.036   5.573
  117MYC    C3823093   2.071   6.097   5.699
  117MYC    C3923094   2.137   6.050   5.830
  117MYC    C4023095   2.067   6.113   5.952
  117MYC    C4123096   2.134   6.085   6.087
  117MYC    C4223097   2.040   6.110   6.206
  117MYC    C4323098   2.103   6.131   6.344
  117MYC    C4423099   2.760   6.279   1.821
  117MYC    C4523100   2.838   6.266   1.953
  117MYC    C4623101   2.757   6.262   2.084
  117MYC    C4723102   2.834   6.225   2.212
  117MYC    C4823103   2.767   6.281   2.339
  117MYC    C4923104   2.631   6.212   2.363
  117MYC    C5023105   2.580   6.224   2.508
  117MYC    C5123106   2.672   6.156   2.610
  117MYC    C5223107   2.601   6.156   2.746
  117MYC    C5323108   2.702   6.142   2.861
  117MYC    C5423109   2.634   6.122   2.998
  117MYC    C5523110   2.735   6.146   3.111
  117MYC    C5623111   2.680   6.083   3.240
  117MYC    C5723112   2.770   6.110   3.361
  117MYC    C5823113   2.722   6.036   3.486
  117MYC    C5923114   2.581   6.051   3.536
  117MYC    C6023115   2.694   6.127   3.602
  117MYC    C6123116   2.743   6.081   3.739
  117MYC    C6223117   2.645   6.124   3.850
  117MYC    C6323118   2.704   6.079   3.984
  117MYC    C6423119   2.606   6.094   4.101
  117MYC    C6523120   2.670   6.061   4.237
  117MYC    C6623121   2.580   6.092   4.358
  117MYC    C6723122   2.643   6.057   4.494
  117MYC    C6823123   2.564   6.110   4.615
  117MYC    C6923124   2.655   6.091   4.738
  117MYC    C7023125   2.573   6.095   4.868
  117MYC    C7123126   2.656   6.088   4.997
  117MYC    C7223127   2.577   6.121   5.125
  117MYC    C7323128   2.681   6.166   5.229
  117MYC    C7423129   2.645   6.111   5.368
  117MYC    C7523130   2.712   6.186   5.484
  117MYC    C7623131   2.685   6.113   5.616
  117MYC    C7723132   2.742   6.199   5.730
  117MYC    C7823133   2.718   6.122   5.861
  117MYC    C7923134   2.766   6.192   5.989
  117MYC    C8023135   2.741   6.099   6.108
  117MYC    C8123136   1.885   6.060   3.174
  117MYC    O8223137   1.776   6.113   3.171
  117MYC    O8323138   1.924   5.977   3.074
  117MYC     H123139   2.042   5.978   3.295
  117MYC     H223140   2.183   6.176   3.315
  117MYC     H323141   1.987   6.304   3.152
  117MYC     H423142   2.283   6.180   3.123
  117MYC     H523143   2.189   6.031   3.102
  117MYC     H623144   2.020   6.187   2.966
  117MYC     H723145   2.146   6.299   2.969
  117MYC     H823146   2.314   6.149   2.875
  117MYC     H923147   2.196   6.016   2.864
  117MYC   0H1023148   2.532   6.070   2.751
  117MYC   1H1023149   2.755   6.047   2.844
  117MYC   2H1023150   2.776   6.221   2.871
  117MYC   3H1023151   2.544   6.185   3.004
  117MYC   4H1023152   2.603   6.017   2.998
  117MYC   5H1023153   2.828   6.096   3.082
  117MYC   6H1023154   2.754   6.254   3.121
  117MYC   7H1023155   2.576   6.118   3.251
  117MYC   8H1023156   2.681   5.974   3.227
  117MYC   9H1023157   2.873   6.078   3.344
  117MYC    H1023158   2.177   6.274   2.718
  117MYC   0H1123159   2.786   6.217   3.378
  117MYC   1H1123160   2.776   5.943   3.506
  117MYC   2H1123161   2.515   6.112   3.474
  117MYC   3H1123162   2.533   5.976   3.598
  117MYC   4H1123163   2.701   6.235   3.594
  117MYC   5H1123164   2.757   5.972   3.736
  117MYC   6H1123165   2.837   6.136   3.751
  117MYC   7H1123166   2.632   6.233   3.847
  117MYC   8H1123167   2.549   6.072   3.840
  117MYC   9H1123168   2.743   5.976   3.982
  117MYC    H1123169   2.257   6.132   2.650
  117MYC   0H1223170   2.794   6.136   4.011
  117MYC   1H1223171   2.558   6.192   4.106
  117MYC   2H1223172   2.529   6.016   4.087
  117MYC   3H1223173   2.683   5.952   4.236
  117MYC   4H1223174   2.766   6.114   4.243
  117MYC   5H1223175   2.552   6.199   4.357
  117MYC   6H1223176   2.482   6.044   4.352
  117MYC   7H1223177   2.662   5.949   4.499
  117MYC   8H1223178   2.739   6.109   4.493
  117MYC   9H1223179   2.534   6.214   4.599
  117MYC    H1223180   2.007   6.021   2.722
  117MYC   0H1323181   2.475   6.046   4.620
  117MYC   1H1323182   2.709   5.996   4.731
  117MYC   2H1323183   2.728   6.171   4.754
  117MYC   3H1323184   2.508   6.183   4.864
  117MYC   4H1323185   2.498   6.014   4.870
  117MYC   5H1323186   2.706   5.992   5.017
  117MYC   6H1323187   2.740   6.158   4.987
  117MYC   7H1323188   2.491   6.187   5.105
  117MYC   8H1323189   2.534   6.025   5.154
  117MYC   9H1323190   2.787   6.146   5.211
  117MYC    H1323191   1.957   6.176   2.683
  117MYC   0H1423192   2.676   6.275   5.240
  117MYC   1H1423193   2.537   6.096   5.382
  117MYC   2H1423194   2.684   6.009   5.373
  117MYC   3H1423195   2.818   6.198   5.458
  117MYC   4H1423196   2.682   6.292   5.494
  117MYC   5H1423197   2.576   6.103   5.632
  117MYC   6H1423198   2.731   6.013   5.611
  117MYC   7H1423199   2.850   6.208   5.714
  117MYC   8H1423200   2.693   6.297   5.732
  117MYC   9H1423201   2.612   6.092   5.865
  117MYC    H1423202   2.126   5.993   2.508
  117MYC   0H1523203   2.766   6.023   5.856
  117MYC   1H1523204   2.874   6.211   5.982
  117MYC   2H1523205   2.703   6.280   6.009
  117MYC   3H1523206   2.754   5.994   6.078
  117MYC   4H1523207   2.639   6.101   6.148
  117MYC   5H1523208   2.810   6.111   6.192
  117MYC   6H1523209   1.841   5.973   3.024
  117MYC    H1523210   1.957   6.015   2.491
  117MYC    H1623211   1.979   6.258   2.436
  117MYC    H1723212   2.146   6.262   2.457
  117MYC    H1823213   1.985   6.093   2.251
  117MYC    H1923214   2.058   6.241   2.215
  117MYC    H2023215   2.282   6.168   2.268
  117MYC    H2123216   2.233   6.004   2.295
  117MYC    H2223217   2.134   5.990   2.064
  117MYC    H2323218   2.190   6.155   2.023
  117MYC    H2423219   2.417   6.108   2.036
  117MYC    H2523220   2.391   5.940   2.085
  117MYC    H2623221   2.306   5.886   1.870
  117MYC    H2723222   2.298   6.057   1.817
  117MYC    H2823223   2.565   5.941   1.912
  117MYC    H2923224   2.507   5.908   1.754
  117MYC    H3023225   2.501   6.203   1.846
  117MYC    H3123226   2.755   6.063   1.806
  117MYC    H3223227   2.587   6.243   1.607
  117MYC    H3323228   2.607   6.063   1.589
  117MYC    H3423229   1.891   6.192   3.434
  117MYC    H3523230   1.869   6.015   3.438
  117MYC    H3623231   2.093   5.970   3.518
  117MYC    H3723232   2.134   6.141   3.519
  117MYC    H3823233   1.921   6.173   3.682
  117MYC    H3923234   1.917   6.007   3.696
  117MYC    H4023235   2.128   5.984   3.775
  117MYC    H4123236   2.173   6.151   3.766
  117MYC    H4223237   1.960   6.193   3.922
  117MYC    H4323238   1.942   6.020   3.932
  117MYC    H4423239   2.186   6.022   4.035
  117MYC    H4523240   2.162   6.206   4.038
  117MYC    H4623241   1.985   6.187   4.186
  117MYC    H4723242   1.981   6.008   4.185
  117MYC    H4823243   2.201   5.978   4.279
  117MYC    H4923244   2.218   6.154   4.290
  117MYC    H5023245   2.004   6.151   4.431
  117MYC    H5123246   2.007   5.974   4.417
  117MYC    H5223247   2.212   5.972   4.556
  117MYC    H5323248   2.234   6.141   4.547
  117MYC    H5423249   2.061   6.198   4.700
  117MYC    H5523250   1.979   6.047   4.676
  117MYC    H5623251   2.160   5.935   4.817
  117MYC    H5723252   2.248   6.094   4.822
  117MYC    H5823253   2.077   6.199   4.945
  117MYC    H5923254   1.969   6.059   4.933
  117MYC    H6023255   2.145   5.925   5.074
  117MYC    H6123256   2.244   6.061   5.073
  117MYC    H6223257   2.039   6.179   5.208
  117MYC    H6323258   1.970   6.021   5.202
  117MYC    H6423259   2.160   5.926   5.325
  117MYC    H6523260   2.245   6.078   5.331
  117MYC    H6623261   2.028   6.167   5.434
  117MYC    H6723262   1.962   6.001   5.443
  117MYC    H6823263   2.140   5.928   5.592
  117MYC    H6923264   2.237   6.076   5.562
  117MYC    H7023265   2.072   6.206   5.688
  117MYC    H7123266   1.966   6.067   5.705
  117MYC    H7223267   2.112   5.944   5.841
  117MYC    H7323268   2.246   6.059   5.839
  117MYC    H7423269   2.056   6.220   5.927
  117MYC    H7523270   1.966   6.072   5.953
  117MYC    H7623271   2.167   5.980   6.092
  117MYC    H7723272   2.227   6.141   6.103
  117MYC    H7823273   1.978   6.199   6.190
  117MYC    H7923274   1.970   6.026   6.213
  117MYC    H8023275   2.089   6.038   6.401
  117MYC    H8123276   2.053   6.209   6.402
  117MYC    H8223277   2.211   6.148   6.329
  117MYC    H8323278   2.838   6.287   1.743
  117MYC    H8423279   2.691   6.364   1.812
  117MYC    H8523280   2.900   6.177   1.942
  117MYC    H8623281   2.910   6.348   1.957
  117MYC    H8723282   2.707   6.358   2.100
  117MYC    H8823283   2.671   6.195   2.066
  117MYC    H8923284   2.855   6.118   2.213
  117MYC    H9023285   2.933   6.270   2.198
  117MYC    H9123286   2.834   6.258   2.422
  117MYC    H9223287   2.753   6.390   2.346
  117MYC    H9323288   2.559   6.260   2.295
  117MYC    H9423289   2.636   6.106   2.335
  117MYC    H9523290   2.572   6.328   2.541
  117MYC    H9623291   2.478   6.182   2.508
  117MYC    H9723292   2.716   6.064   2.570
  117MYC    H9823293   2.761   6.218   2.623
  117MYC    H9923294   2.544   6.249   2.752
  118MYC     C123295   3.358   0.428   3.218
  118MYC     C223296   3.336   0.369   3.077
  118MYC     O323297   3.446   0.295   3.025
  118MYC     C423298   3.303   0.483   2.979
  118MYC     C523299   3.294   0.445   2.831
  118MYC     C623300   3.430   0.452   2.759
  118MYC     C723301   3.415   0.413   2.610
  118MYC     C823302   3.550   0.390   2.540
  118MYC     C923303   3.548   0.386   2.387
  118MYC    C1023304   3.518   0.244   2.336
  118MYC    C1123305   3.554   0.235   2.187
  118MYC    C1223306   3.437   0.276   2.096
  118MYC    C1323307   3.471   0.334   1.958
  118MYC    C1423308   3.346   0.324   1.869
  118MYC    C1523309   3.359   0.370   1.723
  118MYC    C1623310   3.234   0.427   1.654
  118MYC    C1723311   3.124   0.328   1.621
  118MYC    C1823312   2.998   0.340   1.703
  118MYC    C1923313   2.996   0.378   1.557
  118MYC    C2023314   3.365   0.309   3.315
  118MYC    C2123315   3.362   0.351   3.463
  118MYC    C2223316   3.376   0.233   3.561
  118MYC    C2323317   3.348   0.265   3.709
  118MYC    C2423318   3.382   0.157   3.813
  118MYC    C2523319   3.341   0.212   3.951
  118MYC    C2623320   3.410   0.142   4.069
  118MYC    C2723321   3.342   0.178   4.202
  118MYC    C2823322   3.429   0.169   4.328
  118MYC    C2923323   3.353   0.200   4.458
  118MYC    C3023324   3.423   0.161   4.590
  118MYC    C3123325   3.325   0.190   4.705
  118MYC    C3223326   3.396   0.205   4.840
  118MYC    C3323327   3.305   0.252   4.955
  118MYC    C3423328   3.375   0.269   5.091
  118MYC    C3523329   3.289   0.348   5.191
  118MYC    C3623330   3.356   0.387   5.324
  118MYC    C3723331   3.261   0.452   5.427
  118MYC    C3823332   3.332   0.486   5.559
  118MYC    C3923333   3.239   0.501   5.680
  118MYC    C4023334   3.313   0.519   5.813
  118MYC    C4123335   3.216   0.540   5.931
  118MYC    C4223336   3.285   0.544   6.069
  118MYC    C4323337   3.192   0.571   6.189
  118MYC    C4423338   2.945   0.206   1.752
  118MYC    C4523339   2.906   0.208   1.901
  118MYC    C4623340   3.013   0.193   2.010
  118MYC    C4723341   2.953   0.139   2.142
  118MYC    C4823342   3.028   0.171   2.272
  118MYC    C4923343   2.947   0.137   2.399
  118MYC    C5023344   3.024   0.186   2.523
  118MYC    C5123345   2.957   0.134   2.651
  118MYC    C5223346   3.004   0.201   2.781
  118MYC    C5323347   2.915   0.165   2.902
  118MYC    C5423348   2.982   0.202   3.035
  118MYC    C5523349   2.909   0.133   3.151
  118MYC    C5623350   2.955   0.170   3.293
  118MYC    C5723351   2.887   0.082   3.399
  118MYC    C5823352   2.906   0.125   3.544
  118MYC    C5923353   3.027   0.075   3.619
  118MYC    C6023354   2.889   0.038   3.666
  118MYC    C6123355   2.842   0.095   3.799
  118MYC    C6223356   2.900   0.024   3.922
  118MYC    C6323357   2.867   0.094   4.054
  118MYC    C6423358   2.925   0.023   4.177
  118MYC    C6523359   2.857   0.079   4.304
  118MYC    C6623360   2.906   0.019   4.437
  118MYC    C6723361   2.829   0.065   4.561
  118MYC    C6823362   2.914   0.047   4.688
  118MYC    C6923363   2.841   0.084   4.817
  118MYC    C7023364   2.923   0.087   4.947
  118MYC    C7123365   2.849   0.072   5.082
  118MYC    C7223366   2.939   0.117   5.198
  118MYC    C7323367   2.905   0.043   5.329
  118MYC    C7423368   2.973   0.101   5.454
  118MYC    C7523369   2.901   0.055   5.582
  118MYC    C7623370   2.975   0.094   5.711
  118MYC    C7723371   2.902   0.056   5.841
  118MYC    C7823372   2.962   0.131   5.961
  118MYC    C7923373   2.958   0.034   6.081
  118MYC    C8023374   3.000   0.095   6.216
  118MYC    C8123375   3.482   0.516   3.223
  118MYC    O8223376   3.473   0.632   3.259
  118MYC    O8323377   3.602   0.455   3.219
  118MYC     H123378   3.272   0.490   3.247
  118MYC     H223379   3.247   0.304   3.074
  118MYC     H323380   3.520   0.307   3.087
  118MYC     H423381   3.208   0.528   3.012
  118MYC     H523382   3.370   0.571   2.981
  118MYC     H623383   3.238   0.352   2.818
  118MYC     H723384   3.231   0.519   2.781
  118MYC     H823385   3.466   0.555   2.760
  118MYC     H923386   3.505   0.383   2.799
  118MYC   0H1023387   3.007   0.310   2.766
  118MYC   1H1023388   2.820   0.218   2.895
  118MYC   2H1023389   2.884   0.060   2.903
  118MYC   3H1023390   3.088   0.173   3.030
  118MYC   4H1023391   2.978   0.310   3.053
  118MYC   5H1023392   2.800   0.144   3.142
  118MYC   6H1023393   2.943   0.029   3.142
  118MYC   7H1023394   3.064   0.158   3.300
  118MYC   8H1023395   2.928   0.274   3.316
  118MYC   9H1023396   2.778   0.084   3.386
  118MYC    H1023397   3.357   0.320   2.602
  118MYC   0H1123398   2.918  -0.023   3.391
  118MYC   1H1123399   2.870   0.226   3.558
  118MYC   2H1123400   3.086  -0.004   3.572
  118MYC   3H1123401   3.084   0.145   3.680
  118MYC   4H1123402   2.873  -0.069   3.653
  118MYC   5H1123403   2.856   0.204   3.805
  118MYC   6H1123404   2.733   0.081   3.804
  118MYC   7H1123405   2.877  -0.083   3.926
  118MYC   8H1123406   3.009   0.023   3.908
  118MYC   9H1123407   2.902   0.198   4.061
  118MYC    H1123408   3.360   0.490   2.554
  118MYC   0H1223409   2.759   0.108   4.066
  118MYC   1H1223410   2.914  -0.085   4.165
  118MYC   2H1223411   3.034   0.032   4.185
  118MYC   3H1223412   2.875   0.187   4.312
  118MYC   4H1223413   2.750   0.054   4.298
  118MYC   5H1223414   2.915  -0.090   4.429
  118MYC   6H1223415   3.008   0.059   4.446
  118MYC   7H1223416   2.784   0.164   4.551
  118MYC   8H1223417   2.742  -0.002   4.559
  118MYC   9H1223418   2.940  -0.060   4.695
  118MYC    H1223419   3.625   0.460   2.578
  118MYC   0H1323420   3.004   0.109   4.673
  118MYC   1H1323421   2.800   0.185   4.802
  118MYC   2H1323422   2.755   0.017   4.833
  118MYC   3H1323423   3.006   0.017   4.937
  118MYC   4H1323424   2.970   0.186   4.952
  118MYC   5H1323425   2.756   0.129   5.081
  118MYC   6H1323426   2.832  -0.036   5.090
  118MYC   7H1323427   3.045   0.109   5.171
  118MYC   8H1323428   2.919   0.223   5.220
  118MYC   9H1323429   2.796   0.043   5.338
  118MYC    H1323430   3.586   0.292   2.574
  118MYC   0H1423431   2.933  -0.063   5.323
  118MYC   1H1423432   3.079   0.072   5.459
  118MYC   2H1423433   2.971   0.210   5.446
  118MYC   3H1423434   2.802   0.103   5.588
  118MYC   4H1423435   2.886  -0.053   5.578
  118MYC   5H1423436   3.062   0.028   5.713
  118MYC   6H1423437   3.009   0.198   5.706
  118MYC   7H1423438   2.794   0.070   5.831
  118MYC   8H1423439   2.915  -0.052   5.850
  118MYC   9H1423440   3.060   0.178   5.942
  118MYC    H1423441   3.473   0.455   2.345
  118MYC   0H1523442   2.898   0.215   5.992
  118MYC   1H1523443   2.855   0.005   6.101
  118MYC   2H1523444   3.012  -0.059   6.056
  118MYC   3H1523445   2.932   0.176   6.246
  118MYC   4H1523446   3.102   0.134   6.218
  118MYC   5H1523447   2.993   0.013   6.288
  118MYC   6H1523448   3.666   0.528   3.227
  118MYC    H1523449   3.644   0.410   2.340
  118MYC    H1623450   3.577   0.173   2.395
  118MYC    H1723451   3.412   0.219   2.348
  118MYC    H1823452   3.648   0.291   2.175
  118MYC    H1923453   3.578   0.131   2.165
  118MYC    H2023454   3.374   0.187   2.083
  118MYC    H2123455   3.380   0.352   2.150
  118MYC    H2223456   3.519   0.432   1.972
  118MYC    H2323457   3.547   0.281   1.899
  118MYC    H2423458   3.312   0.220   1.861
  118MYC    H2523459   3.259   0.377   1.911
  118MYC    H2623460   3.447   0.435   1.716
  118MYC    H2723461   3.400   0.280   1.676
  118MYC    H2823462   3.196   0.518   1.702
  118MYC    H2923463   3.274   0.460   1.558
  118MYC    H3023464   3.163   0.230   1.596
  118MYC    H3123465   2.995   0.424   1.772
  118MYC    H3223466   2.943   0.314   1.488
  118MYC    H3323467   2.982   0.484   1.539
  118MYC    H3423468   3.277   0.245   3.299
  118MYC    H3523469   3.453   0.244   3.307
  118MYC    H3623470   3.445   0.420   3.480
  118MYC    H3723471   3.270   0.403   3.491
  118MYC    H3823472   3.301   0.160   3.528
  118MYC    H3923473   3.476   0.189   3.552
  118MYC    H4023474   3.391   0.363   3.735
  118MYC    H4123475   3.241   0.289   3.712
  118MYC    H4223476   3.326   0.064   3.807
  118MYC    H4323477   3.491   0.147   3.810
  118MYC    H4423478   3.367   0.318   3.966
  118MYC    H4523479   3.231   0.206   3.958
  118MYC    H4623480   3.421   0.034   4.052
  118MYC    H4723481   3.513   0.180   4.067
  118MYC    H4823482   3.303   0.281   4.198
  118MYC    H4923483   3.256   0.109   4.200
  118MYC    H5023484   3.464   0.065   4.331
  118MYC    H5123485   3.518   0.232   4.317
  118MYC    H5223486   3.336   0.308   4.466
  118MYC    H5323487   3.251   0.158   4.454
  118MYC    H5423488   3.447   0.054   4.589
  118MYC    H5523489   3.520   0.211   4.591
  118MYC    H5623490   3.269   0.284   4.690
  118MYC    H5723491   3.245   0.115   4.715
  118MYC    H5823492   3.450   0.113   4.866
  118MYC    H5923493   3.476   0.279   4.829
  118MYC    H6023494   3.265   0.350   4.927
  118MYC    H6123495   3.219   0.185   4.960
  118MYC    H6223496   3.406   0.169   5.125
  118MYC    H6323497   3.470   0.323   5.086
  118MYC    H6423498   3.263   0.439   5.136
  118MYC    H6523499   3.199   0.290   5.212
  118MYC    H6623500   3.408   0.299   5.361
  118MYC    H6723501   3.433   0.464   5.312
  118MYC    H6823502   3.204   0.531   5.377
  118MYC    H6923503   3.186   0.379   5.459
  118MYC    H7023504   3.406   0.408   5.581
  118MYC    H7123505   3.388   0.578   5.543
  118MYC    H7223506   3.171   0.586   5.663
  118MYC    H7323507   3.173   0.414   5.692
  118MYC    H7423508   3.376   0.430   5.826
  118MYC    H7523509   3.376   0.609   5.814
  118MYC    H7623510   3.170   0.639   5.923
  118MYC    H7723511   3.140   0.462   5.921
  118MYC    H7823512   3.339   0.448   6.066
  118MYC    H7923513   3.367   0.616   6.080
  118MYC    H8023514   3.241   0.635   6.263
  118MYC    H8123515   3.141   0.483   6.232
  118MYC    H8223516   3.104   0.631   6.163
  118MYC    H8323517   2.858   0.183   1.689
  118MYC    H8423518   3.014   0.124   1.732
  118MYC    H8523519   2.845   0.297   1.922
  118MYC    H8623520   2.841   0.120   1.903
  118MYC    H8723521   3.098   0.135   1.973
  118MYC    H8823522   3.060   0.287   2.040
  118MYC    H8923523   2.847   0.167   2.147
  118MYC    H9023524   2.955   0.030   2.143
  118MYC    H9123525   3.124   0.118   2.274
  118MYC    H9223526   3.051   0.278   2.263
  118MYC    H9323527   2.849   0.186   2.392
  118MYC    H9423528   2.928   0.030   2.416
  118MYC    H9523529   3.125   0.143   2.523
  118MYC    H9623530   3.026   0.296   2.515
  118MYC    H9723531   2.848   0.141   2.648
  118MYC    H9823532   2.969   0.025   2.660
  118MYC    H9923533   3.103   0.160   2.805
  119MYC     C123534   2.821   1.692   3.248
  119MYC     C223535   2.911   1.573   3.210
  119MYC     O323536   3.042   1.588   3.262
  119MYC     C423537   2.926   1.541   3.060
  119MYC     C523538   2.992   1.405   3.034
  119MYC     C623539   3.062   1.389   2.897
  119MYC     C723540   2.972   1.422   2.777
  119MYC     C823541   3.041   1.368   2.650
  119MYC     C923542   2.949   1.399   2.531
  119MYC    C1023543   2.993   1.321   2.406
  119MYC    C1123544   2.915   1.343   2.275
  119MYC    C1223545   2.965   1.260   2.156
  119MYC    C1323546   3.088   1.320   2.085
  119MYC    C1423547   3.091   1.259   1.944
  119MYC    C1523548   3.225   1.279   1.871
  119MYC    C1623549   3.223   1.196   1.742
  119MYC    C1723550   3.345   1.108   1.720
  119MYC    C1823551   3.328   0.960   1.699
  119MYC    C1923552   3.380   1.046   1.587
  119MYC    C2023553   2.823   1.710   3.401
  119MYC    C2123554   2.792   1.586   3.486
  119MYC    C2223555   2.796   1.623   3.635
  119MYC    C2323556   2.817   1.505   3.731
  119MYC    C2423557   2.855   1.560   3.870
  119MYC    C2523558   2.882   1.448   3.971
  119MYC    C2623559   2.850   1.496   4.113
  119MYC    C2723560   2.862   1.391   4.226
  119MYC    C2823561   2.832   1.452   4.364
  119MYC    C2923562   2.908   1.388   4.481
  119MYC    C3023563   2.864   1.440   4.619
  119MYC    C3123564   2.922   1.368   4.742
  119MYC    C3223565   2.886   1.421   4.882
  119MYC    C3323566   2.925   1.338   5.006
  119MYC    C3423567   2.885   1.407   5.137
  119MYC    C3523568   2.937   1.322   5.254
  119MYC    C3623569   2.880   1.364   5.391
  119MYC    C3723570   2.958   1.312   5.513
  119MYC    C3823571   2.916   1.375   5.647
  119MYC    C3923572   3.034   1.383   5.746
  119MYC    C4023573   2.978   1.377   5.889
  119MYC    C4123574   3.090   1.373   5.995
  119MYC    C4223575   3.034   1.385   6.138
  119MYC    C4323576   3.138   1.337   6.240
  119MYC    C4423577   3.412   0.845   1.753
  119MYC    C4523578   3.360   0.793   1.888
  119MYC    C4623579   3.362   0.893   2.005
  119MYC    C4723580   3.348   0.826   2.143
  119MYC    C4823581   3.294   0.908   2.261
  119MYC    C4923582   3.330   0.851   2.399
  119MYC    C5023583   3.261   0.916   2.521
  119MYC    C5123584   3.334   0.882   2.652
  119MYC    C5223585   3.241   0.895   2.774
  119MYC    C5323586   3.305   0.892   2.913
  119MYC    C5423587   3.212   0.859   3.032
  119MYC    C5523588   3.274   0.899   3.167
  119MYC    C5623589   3.194   0.853   3.290
  119MYC    C5723590   3.245   0.909   3.424
  119MYC    C5823591   3.150   0.858   3.532
  119MYC    C5923592   3.022   0.922   3.580
  119MYC    C6023593   3.149   0.933   3.662
  119MYC    C6123594   3.178   0.856   3.790
  119MYC    C6223595   3.106   0.913   3.914
  119MYC    C6323596   3.182   0.897   4.047
  119MYC    C6423597   3.089   0.945   4.160
  119MYC    C6523598   3.158   0.915   4.294
  119MYC    C6623599   3.066   0.961   4.408
  119MYC    C6723600   3.119   0.911   4.544
  119MYC    C6823601   3.043   0.971   4.664
  119MYC    C6923602   3.109   0.919   4.793
  119MYC    C7023603   3.073   0.992   4.923
  119MYC    C7123604   3.148   0.927   5.041
  119MYC    C7223605   3.128   1.003   5.173
  119MYC    C7323606   3.238   0.961   5.273
  119MYC    C7423607   3.220   1.035   5.407
  119MYC    C7523608   3.314   0.979   5.515
  119MYC    C7623609   3.286   1.032   5.657
  119MYC    C7723610   3.355   0.955   5.770
  119MYC    C7823611   3.321   1.010   5.909
  119MYC    C7923612   3.353   0.907   6.018
  119MYC    C8023613   3.358   0.965   6.161
  119MYC    C8123614   2.867   1.821   3.182
  119MYC    O8223615   2.982   1.838   3.144
  119MYC    O8323616   2.766   1.904   3.149
  119MYC     H123617   2.720   1.662   3.218
  119MYC     H223618   2.881   1.478   3.255
  119MYC     H323619   3.098   1.594   3.182
  119MYC     H423620   2.826   1.536   3.015
  119MYC     H523621   2.984   1.618   3.007
  119MYC     H623622   3.075   1.385   3.103
  119MYC     H723623   2.924   1.321   3.048
  119MYC     H823624   3.152   1.451   2.896
  119MYC     H923625   3.100   1.286   2.894
  119MYC   0H1023626   3.175   0.808   2.777
  119MYC   1H1023627   3.385   0.818   2.919
  119MYC   2H1023628   3.359   0.985   2.931
  119MYC   3H1023629   3.114   0.907   3.023
  119MYC   4H1023630   3.184   0.753   3.037
  119MYC   5H1023631   3.374   0.854   3.165
  119MYC   6H1023632   3.287   1.008   3.160
  119MYC   7H1023633   3.089   0.881   3.275
  119MYC   8H1023634   3.186   0.744   3.296
  119MYC   9H1023635   3.346   0.873   3.442
  119MYC    H1023636   2.869   1.386   2.790
  119MYC   0H1123637   3.237   1.019   3.422
  119MYC   1H1123638   3.148   0.749   3.532
  119MYC   2H1123639   2.995   1.011   3.525
  119MYC   3H1123640   2.943   0.854   3.610
  119MYC   4H1123641   3.199   1.029   3.663
  119MYC   5H1123642   3.153   0.752   3.767
  119MYC   6H1123643   3.286   0.850   3.807
  119MYC   7H1123644   3.086   1.020   3.902
  119MYC   8H1123645   3.008   0.865   3.929
  119MYC   9H1123646   3.212   0.792   4.062
  119MYC    H1123647   2.963   1.531   2.777
  119MYC   0H1223648   3.276   0.954   4.043
  119MYC   1H1223649   3.073   1.052   4.146
  119MYC   2H1223650   2.994   0.890   4.157
  119MYC   3H1223651   3.186   0.809   4.301
  119MYC   4H1223652   3.249   0.977   4.299
  119MYC   5H1223653   3.059   1.071   4.407
  119MYC   6H1223654   2.964   0.927   4.388
  119MYC   7H1223655   3.108   0.802   4.540
  119MYC   8H1223656   3.223   0.937   4.564
  119MYC   9H1223657   3.047   1.081   4.665
  119MYC    H1223658   3.139   1.415   2.635
  119MYC   0H1323659   2.938   0.938   4.662
  119MYC   1H1323660   3.083   0.813   4.796
  119MYC   2H1323661   3.218   0.928   4.779
  119MYC   3H1323662   3.121   1.090   4.913
  119MYC   4H1323663   2.965   0.999   4.937
  119MYC   5H1323664   3.114   0.823   5.050
  119MYC   6H1323665   3.255   0.917   5.019
  119MYC   7H1323666   3.137   1.110   5.151
  119MYC   8H1323667   3.030   0.982   5.218
  119MYC   9H1323668   3.222   0.854   5.294
  119MYC    H1323669   3.051   1.260   2.663
  119MYC   0H1423670   3.341   0.969   5.237
  119MYC   1H1423671   3.240   1.142   5.395
  119MYC   2H1423672   3.117   1.009   5.433
  119MYC   3H1423673   3.301   0.871   5.526
  119MYC   4H1423674   3.418   1.004   5.489
  119MYC   5H1423675   3.316   1.137   5.663
  119MYC   6H1423676   3.181   1.034   5.688
  119MYC   7H1423677   3.323   0.850   5.760
  119MYC   8H1423678   3.464   0.955   5.757
  119MYC   9H1423679   3.370   1.108   5.919
  119MYC    H1423680   2.847   1.374   2.562
  119MYC   0H1523681   3.213   1.027   5.918
  119MYC   1H1523682   3.278   0.827   6.020
  119MYC   2H1523683   3.451   0.861   6.000
  119MYC   3H1523684   3.264   1.007   6.199
  119MYC   4H1523685   3.442   1.035   6.162
  119MYC   5H1523686   3.370   0.873   6.220
  119MYC   6H1523687   2.803   1.961   3.079
  119MYC    H1523688   2.949   1.507   2.510
  119MYC    H1623689   3.102   1.325   2.396
  119MYC    H1723690   2.971   1.215   2.422
  119MYC    H1823691   2.812   1.309   2.294
  119MYC    H1923692   2.904   1.450   2.251
  119MYC    H2023693   2.994   1.158   2.184
  119MYC    H2123694   2.882   1.255   2.084
  119MYC    H2223695   3.075   1.427   2.067
  119MYC    H2323696   3.178   1.315   2.147
  119MYC    H2423697   3.066   1.152   1.955
  119MYC    H2523698   3.006   1.311   1.900
  119MYC    H2623699   3.254   1.385   1.861
  119MYC    H2723700   3.302   1.234   1.934
  119MYC    H2823701   3.133   1.132   1.739
  119MYC    H2923702   3.215   1.273   1.664
  119MYC    H3023703   3.430   1.139   1.780
  119MYC    H3123704   3.226   0.921   1.692
  119MYC    H3223705   3.487   1.042   1.565
  119MYC    H3323706   3.310   1.070   1.508
  119MYC    H3423707   2.915   1.761   3.433
  119MYC    H3523708   2.744   1.783   3.427
  119MYC    H3623709   2.689   1.551   3.466
  119MYC    H3723710   2.861   1.503   3.466
  119MYC    H3823711   2.880   1.692   3.650
  119MYC    H3923712   2.704   1.672   3.667
  119MYC    H4023713   2.723   1.448   3.740
  119MYC    H4123714   2.902   1.441   3.705
  119MYC    H4223715   2.948   1.619   3.866
  119MYC    H4323716   2.775   1.630   3.897
  119MYC    H4423717   2.827   1.354   3.953
  119MYC    H4523718   2.985   1.410   3.968
  119MYC    H4623719   2.921   1.576   4.135
  119MYC    H4723720   2.752   1.545   4.117
  119MYC    H4823721   2.792   1.308   4.213
  119MYC    H4923722   2.965   1.355   4.235
  119MYC    H5023723   2.853   1.560   4.372
  119MYC    H5123724   2.728   1.423   4.383
  119MYC    H5223725   2.911   1.278   4.483
  119MYC    H5323726   3.017   1.399   4.470
  119MYC    H5423727   2.910   1.539   4.618
  119MYC    H5523728   2.755   1.449   4.618
  119MYC    H5623729   2.900   1.261   4.735
  119MYC    H5723730   3.031   1.355   4.737
  119MYC    H5823731   2.931   1.521   4.889
  119MYC    H5923732   2.777   1.436   4.886
  119MYC    H6023733   2.890   1.234   5.001
  119MYC    H6123734   3.034   1.334   5.003
  119MYC    H6223735   2.926   1.508   5.145
  119MYC    H6323736   2.776   1.421   5.144
  119MYC    H6423737   2.919   1.217   5.227
  119MYC    H6523738   3.046   1.330   5.259
  119MYC    H6623739   2.872   1.473   5.389
  119MYC    H6723740   2.781   1.324   5.417
  119MYC    H6823741   2.972   1.204   5.519
  119MYC    H6923742   3.060   1.353   5.508
  119MYC    H7023743   2.880   1.478   5.637
  119MYC    H7123744   2.843   1.309   5.695
  119MYC    H7223745   3.106   1.305   5.721
  119MYC    H7323746   3.074   1.484   5.732
  119MYC    H7423747   2.910   1.454   5.928
  119MYC    H7523748   2.909   1.293   5.901
  119MYC    H7623749   3.159   1.289   5.978
  119MYC    H7723750   3.155   1.461   5.987
  119MYC    H7823751   3.001   1.489   6.150
  119MYC    H7923752   2.943   1.327   6.151
  119MYC    H8023753   3.107   1.350   6.344
  119MYC    H8123754   3.231   1.393   6.225
  119MYC    H8223755   3.164   1.231   6.223
  119MYC    H8323756   3.410   0.757   1.688
  119MYC    H8423757   3.517   0.874   1.766
  119MYC    H8523758   3.260   0.749   1.874
  119MYC    H8623759   3.419   0.703   1.912
  119MYC    H8723760   3.454   0.951   1.992
  119MYC    H8823761   3.275   0.958   1.992
  119MYC    H8923762   3.281   0.739   2.141
  119MYC    H9023763   3.447   0.785   2.167
  119MYC    H9123764   3.320   1.014   2.250
  119MYC    H9223765   3.185   0.911   2.249
  119MYC    H9323766   3.304   0.746   2.414
  119MYC    H9423767   3.439   0.860   2.407
  119MYC    H9523768   3.272   1.024   2.506
  119MYC    H9623769   3.159   0.875   2.533
  119MYC    H9723770   3.375   0.780   2.644
  119MYC    H9823771   3.415   0.955   2.656
  119MYC    H9923772   3.181   0.987   2.766
  120MYC     C123773   3.028   2.153   3.361
  120MYC     C223774   3.174   2.120   3.327
  120MYC     O323775   3.262   2.219   3.379
  120MYC     C423776   3.209   2.098   3.179
  120MYC     C523777   3.243   2.222   3.094
  120MYC     C623778   3.170   2.240   2.960
  120MYC     C723779   3.196   2.132   2.853
  120MYC     C823780   3.080   2.137   2.751
  120MYC     C923781   3.103   2.045   2.631
  120MYC    C1023782   3.010   2.068   2.511
  120MYC    C1123783   3.003   1.957   2.404
  120MYC    C1223784   3.135   1.945   2.326
  120MYC    C1323785   3.125   1.867   2.193
  120MYC    C1423786   3.252   1.843   2.110
  120MYC    C1523787   3.233   1.747   1.991
  120MYC    C1623788   3.362   1.706   1.918
  120MYC    C1723789   3.417   1.813   1.825
  120MYC    C1823790   3.558   1.797   1.776
  120MYC    C1923791   3.443   1.786   1.679
  120MYC    C2023792   3.000   2.187   3.509
  120MYC    C2123793   3.048   2.076   3.604
  120MYC    C2223794   2.979   2.087   3.741
  120MYC    C2323795   3.038   2.007   3.859
  120MYC    C2423796   2.950   2.012   3.985
  120MYC    C2523797   3.019   1.951   4.108
  120MYC    C2623798   2.956   1.974   4.246
  120MYC    C2723799   2.972   1.847   4.332
  120MYC    C2823800   2.914   1.872   4.473
  120MYC    C2923801   3.007   1.838   4.591
  120MYC    C3023802   2.941   1.873   4.725
  120MYC    C3123803   3.030   1.861   4.850
  120MYC    C3223804   2.950   1.882   4.979
  120MYC    C3323805   3.045   1.902   5.098
  120MYC    C3423806   2.995   1.943   5.237
  120MYC    C3523807   3.089   1.889   5.346
  120MYC    C3623808   3.012   1.870   5.477
  120MYC    C3723809   3.106   1.851   5.598
  120MYC    C3823810   3.033   1.828   5.731
  120MYC    C3923811   3.133   1.789   5.842
  120MYC    C4023812   3.058   1.772   5.975
  120MYC    C4123813   3.105   1.851   6.098
  120MYC    C4223814   2.999   1.886   6.204
  120MYC    C4323815   3.061   1.981   6.308
  120MYC    C4423816   3.652   1.915   1.799
  120MYC    C4523817   3.720   1.901   1.936
  120MYC    C4623818   3.637   1.925   2.064
  120MYC    C4723819   3.719   1.906   2.193
  120MYC    C4823820   3.618   1.897   2.309
  120MYC    C4923821   3.688   1.871   2.444
  120MYC    C5023822   3.608   1.912   2.569
  120MYC    C5123823   3.686   1.887   2.699
  120MYC    C5223824   3.593   1.905   2.819
  120MYC    C5323825   3.666   1.908   2.954
  120MYC    C5423826   3.597   1.960   3.082
  120MYC    C5523827   3.694   1.942   3.200
  120MYC    C5623828   3.640   1.987   3.336
  120MYC    C5723829   3.753   2.012   3.436
  120MYC    C5823830   3.702   2.000   3.579
  120MYC    C5923831   3.617   2.112   3.633
  120MYC    C6023832   3.756   2.090   3.688
  120MYC    C6123833   3.782   2.032   3.826
  120MYC    C6223834   3.752   2.134   3.937
  120MYC    C6323835   3.795   2.077   4.073
  120MYC    C6423836   3.723   2.136   4.196
  120MYC    C6523837   3.768   2.051   4.317
  120MYC    C6623838   3.718   2.108   4.451
  120MYC    C6723839   3.727   2.016   4.574
  120MYC    C6823840   3.669   2.071   4.705
  120MYC    C6923841   3.714   1.998   4.833
  120MYC    C7023842   3.614   2.023   4.947
  120MYC    C7123843   3.674   1.975   5.080
  120MYC    C7223844   3.569   1.967   5.193
  120MYC    C7323845   3.634   1.981   5.332
  120MYC    C7423846   3.532   1.974   5.447
  120MYC    C7523847   3.589   2.003   5.587
  120MYC    C7623848   3.485   2.017   5.699
  120MYC    C7723849   3.551   2.050   5.834
  120MYC    C7823850   3.457   2.069   5.954
  120MYC    C7923851   3.512   2.152   6.072
  120MYC    C8023852   3.420   2.177   6.192
  120MYC    C8123853   2.967   2.260   3.272
  120MYC    O8223854   2.945   2.374   3.309
  120MYC    O8323855   2.896   2.207   3.170
  120MYC     H123856   2.984   2.056   3.332
  120MYC     H223857   3.192   2.030   3.386
  120MYC     H323858   3.356   2.193   3.369
  120MYC     H423859   3.291   2.025   3.179
  120MYC     H523860   3.129   2.048   3.123
  120MYC     H623861   3.223   2.313   3.151
  120MYC     H723862   3.349   2.219   3.065
  120MYC     H823863   3.062   2.253   2.978
  120MYC     H923864   3.200   2.336   2.916
  120MYC   0H1023865   3.528   1.817   2.822
  120MYC   1H1023866   3.700   1.806   2.973
  120MYC   2H1023867   3.757   1.969   2.940
  120MYC   3H1023868   3.555   2.061   3.078
  120MYC   4H1023869   3.504   1.905   3.099
  120MYC   5H1023870   3.721   1.836   3.210
  120MYC   6H1023871   3.787   1.995   3.176
  120MYC   7H1023872   3.586   2.082   3.319
  120MYC   8H1023873   3.575   1.907   3.375
  120MYC   9H1023874   3.835   1.940   3.423
  120MYC    H1023875   3.290   2.156   2.804
  120MYC   0H1123876   3.802   2.109   3.418
  120MYC   1H1123877   3.674   1.898   3.606
  120MYC   2H1123878   3.600   2.204   3.579
  120MYC   3H1123879   3.539   2.083   3.703
  120MYC   4H1123880   3.833   2.157   3.651
  120MYC   5H1123881   3.724   1.941   3.841
  120MYC   6H1123882   3.890   2.012   3.830
  120MYC   7H1123883   3.810   2.224   3.911
  120MYC   8H1123884   3.644   2.155   3.938
  120MYC   9H1123885   3.773   1.970   4.069
  120MYC    H1123886   3.190   2.036   2.905
  120MYC   0H1223887   3.903   2.098   4.083
  120MYC   1H1223888   3.743   2.243   4.210
  120MYC   2H1223889   3.616   2.122   4.180
  120MYC   3H1223890   3.736   1.947   4.310
  120MYC   4H1223891   3.878   2.048   4.320
  120MYC   5H1223892   3.765   2.207   4.460
  120MYC   6H1223893   3.612   2.123   4.430
  120MYC   7H1223894   3.673   1.923   4.556
  120MYC   8H1223895   3.829   1.982   4.593
  120MYC   9H1223896   3.705   2.174   4.716
  120MYC    H1223897   2.998   2.082   2.799
  120MYC   0H1323898   3.559   2.074   4.701
  120MYC   1H1323899   3.732   1.891   4.819
  120MYC   2H1323900   3.813   2.037   4.859
  120MYC   3H1323901   3.584   2.128   4.958
  120MYC   4H1323902   3.524   1.966   4.921
  120MYC   5H1323903   3.715   1.874   5.069
  120MYC   6H1323904   3.764   2.031   5.107
  120MYC   7H1323905   3.501   2.050   5.170
  120MYC   8H1323906   3.509   1.876   5.185
  120MYC   9H1323907   3.718   1.911   5.345
  120MYC    H1323908   3.064   2.240   2.717
  120MYC   0H1423909   3.679   2.080   5.336
  120MYC   1H1423910   3.456   2.052   5.439
  120MYC   2H1423911   3.484   1.876   5.453
  120MYC   3H1423912   3.662   1.929   5.621
  120MYC   4H1423913   3.644   2.097   5.585
  120MYC   5H1423914   3.412   2.097   5.683
  120MYC   6H1423915   3.431   1.921   5.700
  120MYC   7H1423916   3.626   1.974   5.859
  120MYC   8H1423917   3.607   2.141   5.810
  120MYC   9H1423918   3.370   2.127   5.920
  120MYC    H1423919   3.206   2.056   2.596
  120MYC   0H1523920   3.417   1.979   6.002
  120MYC   1H1523921   3.609   2.112   6.103
  120MYC   2H1523922   3.551   2.245   6.029
  120MYC   3H1523923   3.409   2.077   6.234
  120MYC   4H1523924   3.325   2.215   6.150
  120MYC   5H1523925   3.460   2.251   6.262
  120MYC   6H1523926   2.859   2.283   3.122
  120MYC    H1523927   3.095   1.938   2.652
  120MYC    H1623928   2.910   2.079   2.555
  120MYC    H1723929   3.043   2.164   2.468
  120MYC    H1823930   2.971   1.863   2.452
  120MYC    H1923931   2.924   1.974   2.330
  120MYC    H2023932   3.179   2.043   2.301
  120MYC    H2123933   3.205   1.895   2.393
  120MYC    H2223934   3.078   1.770   2.212
  120MYC    H2323935   3.057   1.931   2.135
  120MYC    H2423936   3.292   1.939   2.075
  120MYC    H2523937   3.324   1.805   2.183
  120MYC    H2623938   3.185   1.654   2.023
  120MYC    H2723939   3.164   1.794   1.920
  120MYC    H2823940   3.441   1.683   1.991
  120MYC    H2923941   3.345   1.612   1.864
  120MYC    H3023942   3.385   1.916   1.842
  120MYC    H3123943   3.605   1.700   1.795
  120MYC    H3223944   3.436   1.872   1.613
  120MYC    H3323945   3.429   1.687   1.634
  120MYC    H3423946   3.045   2.280   3.546
  120MYC    H3523947   2.892   2.201   3.518
  120MYC    H3623948   3.028   1.978   3.560
  120MYC    H3723949   3.156   2.087   3.617
  120MYC    H3823950   2.974   2.194   3.763
  120MYC    H3923951   2.874   2.059   3.734
  120MYC    H4023952   3.037   1.905   3.820
  120MYC    H4123953   3.141   2.040   3.882
  120MYC    H4223954   2.926   2.117   4.003
  120MYC    H4323955   2.858   1.955   3.969
  120MYC    H4423956   3.024   1.842   4.098
  120MYC    H4523957   3.122   1.989   4.113
  120MYC    H4623958   3.006   2.061   4.291
  120MYC    H4723959   2.849   1.996   4.240
  120MYC    H4823960   2.921   1.760   4.289
  120MYC    H4923961   3.079   1.823   4.337
  120MYC    H5023962   2.905   1.980   4.492
  120MYC    H5123963   2.818   1.820   4.478
  120MYC    H5223964   3.038   1.733   4.583
  120MYC    H5323965   3.104   1.888   4.580
  120MYC    H5423966   2.896   1.973   4.718
  120MYC    H5523967   2.858   1.801   4.734
  120MYC    H5623968   3.077   1.762   4.839
  120MYC    H5723969   3.110   1.936   4.841
  120MYC    H5823970   2.881   1.965   4.959
  120MYC    H5923971   2.879   1.800   4.998
  120MYC    H6023972   3.108   1.812   5.095
  120MYC    H6123973   3.113   1.985   5.073
  120MYC    H6223974   3.002   2.053   5.236
  120MYC    H6323975   2.893   1.906   5.252
  120MYC    H6423976   3.135   1.794   5.319
  120MYC    H6523977   3.172   1.957   5.369
  120MYC    H6623978   2.943   1.954   5.491
  120MYC    H6723979   2.955   1.778   5.459
  120MYC    H6823980   3.179   1.771   5.580
  120MYC    H6923981   3.160   1.946   5.599
  120MYC    H7023982   2.971   1.913   5.760
  120MYC    H7123983   2.957   1.751   5.712
  120MYC    H7223984   3.191   1.702   5.808
  120MYC    H7323985   3.208   1.869   5.847
  120MYC    H7423986   2.956   1.810   5.966
  120MYC    H7523987   3.047   1.666   6.004
  120MYC    H7623988   3.182   1.789   6.146
  120MYC    H7723989   3.165   1.937   6.065
  120MYC    H7823990   2.911   1.932   6.158
  120MYC    H7923991   2.974   1.797   6.263
  120MYC    H8023992   2.998   1.996   6.396
  120MYC    H8123993   3.079   2.078   6.260
  120MYC    H8223994   3.161   1.945   6.338
  120MYC    H8323995   3.731   1.913   1.724
  120MYC    H8423996   3.601   2.012   1.794
  120MYC    H8523997   3.765   1.802   1.946
  120MYC    H8623998   3.809   1.965   1.928
  120MYC    H8723999   3.617   2.033   2.064
  120MYC    H8824000   3.543   1.870   2.052
  120MYC    H8924001   3.782   1.817   2.184
  120MYC    H9024002   3.787   1.991   2.199
  120MYC    H9124003   3.556   1.987   2.318
  120MYC    H9224004   3.554   1.809   2.294
  120MYC    H9324005   3.714   1.765   2.446
  120MYC    H9424006   3.779   1.933   2.448
  120MYC    H9524007   3.590   2.020   2.567
  120MYC    H9624008   3.514   1.856   2.570
  120MYC    H9724009   3.725   1.784   2.696
  120MYC    H9824010   3.767   1.958   2.717
  120MYC    H9924011   3.523   1.990   2.807
  121MYC     C124012   3.096   2.678   3.166
  121MYC     C224013   3.170   2.806   3.125
  121MYC     O324014   3.088   2.900   3.056
  121MYC     C424015   3.291   2.774   3.035
  121MYC     C524016   3.277   2.795   2.883
  121MYC     C624017   3.397   2.732   2.809
  121MYC     C724018   3.379   2.704   2.659
  121MYC     C824019   3.290   2.582   2.628
  121MYC     C924020   3.298   2.543   2.479
  121MYC    C1024021   3.199   2.427   2.457
  121MYC    C1124022   3.191   2.394   2.307
  121MYC    C1224023   3.052   2.416   2.245
  121MYC    C1324024   3.064   2.442   2.094
  121MYC    C1424025   3.148   2.562   2.049
  121MYC    C1524026   3.255   2.521   1.946
  121MYC    C1624027   3.338   2.647   1.920
  121MYC    C1724028   3.284   2.735   1.809
  121MYC    C1824029   3.379   2.850   1.786
  121MYC    C1924030   3.354   2.750   1.676
  121MYC    C2024031   3.026   2.690   3.302
  121MYC    C2124032   3.119   2.649   3.418
  121MYC    C2224033   3.061   2.670   3.559
  121MYC    C2324034   3.157   2.644   3.676
  121MYC    C2424035   3.093   2.652   3.816
  121MYC    C2524036   3.165   2.602   3.942
  121MYC    C2624037   3.093   2.644   4.071
  121MYC    C2724038   3.162   2.587   4.196
  121MYC    C2824039   3.103   2.644   4.326
  121MYC    C2924040   3.167   2.596   4.457
  121MYC    C3024041   3.123   2.677   4.580
  121MYC    C3124042   3.168   2.622   4.717
  121MYC    C3224043   3.085   2.672   4.837
  121MYC    C3324044   3.131   2.624   4.975
  121MYC    C3424045   3.031   2.643   5.091
  121MYC    C3524046   3.068   2.589   5.230
  121MYC    C3624047   2.954   2.623   5.328
  121MYC    C3724048   3.003   2.636   5.474
  121MYC    C3824049   2.886   2.675   5.566
  121MYC    C3924050   2.919   2.659   5.715
  121MYC    C4024051   2.800   2.700   5.803
  121MYC    C4124052   2.847   2.702   5.950
  121MYC    C4224053   2.735   2.690   6.054
  121MYC    C4324054   2.790   2.680   6.197
  121MYC    C4424055   3.334   2.994   1.768
  121MYC    C4524056   3.409   3.083   1.869
  121MYC    C4624057   3.371   3.047   2.014
  121MYC    C4724058   3.445   3.135   2.116
  121MYC    C4824059   3.431   3.070   2.255
  121MYC    C4924060   3.484   3.156   2.371
  121MYC    C5024061   3.444   3.098   2.507
  121MYC    C5124062   3.461   3.193   2.627
  121MYC    C5224063   3.433   3.125   2.762
  121MYC    C5324064   3.487   3.193   2.889
  121MYC    C5424065   3.475   3.101   3.012
  121MYC    C5524066   3.538   3.145   3.146
  121MYC    C5624067   3.513   3.045   3.260
  121MYC    C5724068   3.565   3.099   3.395
  121MYC    C5824069   3.526   3.007   3.510
  121MYC    C5924070   3.386   3.016   3.565
  121MYC    C6024071   3.502   3.069   3.645
  121MYC    C6124072   3.563   2.994   3.762
  121MYC    C6224073   3.513   3.052   3.896
  121MYC    C6324074   3.549   2.976   4.025
  121MYC    C6424075   3.492   3.051   4.147
  121MYC    C6524076   3.510   2.968   4.275
  121MYC    C6624077   3.469   3.043   4.402
  121MYC    C6724078   3.479   2.962   4.533
  121MYC    C6824079   3.417   3.041   4.649
  121MYC    C6924080   3.422   2.975   4.787
  121MYC    C7024081   3.367   3.056   4.906
  121MYC    C7124082   3.350   2.973   5.034
  121MYC    C7224083   3.286   3.042   5.156
  121MYC    C7324084   3.302   2.962   5.286
  121MYC    C7424085   3.272   3.053   5.407
  121MYC    C7524086   3.325   3.005   5.543
  121MYC    C7624087   3.297   3.112   5.650
  121MYC    C7724088   3.338   3.061   5.790
  121MYC    C7824089   3.356   3.185   5.878
  121MYC    C7924090   3.369   3.156   6.028
  121MYC    C8024091   3.253   3.087   6.102
  121MYC    C8124092   3.005   2.624   3.057
  121MYC    O8224093   2.927   2.686   2.986
  121MYC    O8324094   2.983   2.491   3.067
  121MYC     H124095   3.163   2.591   3.175
  121MYC     H224096   3.210   2.853   3.216
  121MYC     H324097   3.071   2.851   2.973
  121MYC     H424098   3.382   2.829   3.061
  121MYC     H524099   3.326   2.672   3.054
  121MYC     H624100   3.182   2.753   2.848
  121MYC     H724101   3.264   2.902   2.863
  121MYC     H824102   3.491   2.787   2.822
  121MYC     H924103   3.424   2.633   2.848
  121MYC   0H1024104   3.482   3.027   2.750
  121MYC   1H1024105   3.586   3.235   2.868
  121MYC   2H1024106   3.417   3.277   2.898
  121MYC   3H1024107   3.367   3.089   3.027
  121MYC   4H1024108   3.520   3.005   2.984
  121MYC   5H1024109   3.646   3.132   3.129
  121MYC   6H1024110   3.518   3.250   3.169
  121MYC   7H1024111   3.406   3.025   3.269
  121MYC   8H1024112   3.553   2.946   3.235
  121MYC   9H1024113   3.674   3.107   3.390
  121MYC    H1024114   3.337   2.797   2.619
  121MYC   0H1124115   3.530   3.199   3.422
  121MYC   1H1124116   3.578   2.912   3.513
  121MYC   2H1124117   3.321   3.089   3.517
  121MYC   3H1124118   3.340   2.920   3.586
  121MYC   4H1124119   3.514   3.177   3.649
  121MYC   5H1124120   3.531   2.889   3.759
  121MYC   6H1124121   3.672   3.006   3.759
  121MYC   7H1124122   3.555   3.151   3.914
  121MYC   8H1124123   3.403   3.058   3.888
  121MYC   9H1124124   3.493   2.882   4.022
  121MYC    H1124125   3.477   2.684   2.616
  121MYC   0H1224126   3.657   2.961   4.029
  121MYC   1H1224127   3.554   3.141   4.160
  121MYC   2H1224128   3.387   3.073   4.123
  121MYC   3H1224129   3.457   2.873   4.265
  121MYC   4H1224130   3.616   2.945   4.292
  121MYC   5H1224131   3.524   3.139   4.407
  121MYC   6H1224132   3.363   3.066   4.385
  121MYC   7H1224133   3.427   2.867   4.517
  121MYC   8H1224134   3.585   2.945   4.556
  121MYC   9H1224135   3.474   3.134   4.659
  121MYC    H1224136   3.331   2.496   2.681
  121MYC   0H1324137   3.314   3.070   4.624
  121MYC   1H1324138   3.360   2.884   4.780
  121MYC   2H1324139   3.526   2.944   4.802
  121MYC   3H1324140   3.426   3.146   4.925
  121MYC   4H1324141   3.267   3.096   4.883
  121MYC   5H1324142   3.288   2.885   5.014
  121MYC   6H1324143   3.448   2.933   5.064
  121MYC   7H1324144   3.339   3.138   5.165
  121MYC   8H1324145   3.183   3.074   5.138
  121MYC   9H1324146   3.229   2.880   5.285
  121MYC    H1324147   3.189   2.615   2.655
  121MYC   0H1424148   3.400   2.913   5.288
  121MYC   1H1424149   3.325   3.149   5.395
  121MYC   2H1424150   3.166   3.078   5.417
  121MYC   3H1424151   3.276   2.912   5.573
  121MYC   4H1424152   3.432   2.983   5.531
  121MYC   5H1424153   3.351   3.205   5.634
  121MYC   6H1424154   3.189   3.130   5.659
  121MYC   7H1424155   3.262   2.996   5.836
  121MYC   8H1424156   3.434   3.012   5.770
  121MYC   9H1424157   3.450   3.233   5.846
  121MYC    H1424158   3.278   2.636   2.424
  121MYC   0H1524159   3.281   3.262   5.855
  121MYC   1H1524160   3.460   3.098   6.045
  121MYC   2H1524161   3.380   3.252   6.082
  121MYC   3H1524162   3.241   2.983   6.070
  121MYC   4H1524163   3.158   3.136   6.077
  121MYC   5H1524164   3.263   3.087   6.211
  121MYC   6H1524165   2.895   2.470   3.032
  121MYC    H1524166   3.394   2.502   2.445
  121MYC    H1624167   3.244   2.340   2.507
  121MYC    H1724168   3.102   2.458   2.499
  121MYC    H1824169   3.269   2.443   2.248
  121MYC    H1924170   3.208   2.288   2.285
  121MYC    H2024171   2.989   2.327   2.263
  121MYC    H2124172   3.008   2.504   2.293
  121MYC    H2224173   3.092   2.350   2.041
  121MYC    H2324174   2.959   2.450   2.061
  121MYC    H2424175   3.075   2.635   2.012
  121MYC    H2524176   3.199   2.608   2.134
  121MYC    H2624177   3.317   2.437   1.980
  121MYC    H2724178   3.207   2.480   1.856
  121MYC    H2824179   3.360   2.705   2.011
  121MYC    H2924180   3.433   2.604   1.885
  121MYC    H3024181   3.181   2.764   1.828
  121MYC    H3124182   3.474   2.848   1.839
  121MYC    H3224183   3.305   2.783   1.585
  121MYC    H3324184   3.434   2.678   1.658
  121MYC    H3424185   2.995   2.794   3.317
  121MYC    H3524186   2.934   2.631   3.298
  121MYC    H3624187   3.145   2.542   3.414
  121MYC    H3724188   3.203   2.719   3.406
  121MYC    H3824189   3.007   2.765   3.569
  121MYC    H3924190   2.981   2.597   3.576
  121MYC    H4024191   3.189   2.539   3.678
  121MYC    H4124192   3.249   2.703   3.672
  121MYC    H4224193   3.070   2.759   3.821
  121MYC    H4324194   2.993   2.607   3.807
  121MYC    H4424195   3.166   2.492   3.934
  121MYC    H4524196   3.265   2.647   3.944
  121MYC    H4624197   3.078   2.753   4.074
  121MYC    H4724198   2.991   2.603   4.074
  121MYC    H4824199   3.148   2.478   4.200
  121MYC    H4924200   3.271   2.599   4.193
  121MYC    H5024201   3.107   2.753   4.321
  121MYC    H5124202   2.995   2.625   4.322
  121MYC    H5224203   3.121   2.497   4.471
  121MYC    H5324204   3.277   2.592   4.456
  121MYC    H5424205   3.145   2.783   4.565
  121MYC    H5524206   3.014   2.683   4.578
  121MYC    H5624207   3.188   2.515   4.711
  121MYC    H5724208   3.266   2.668   4.732
  121MYC    H5824209   3.077   2.781   4.838
  121MYC    H5924210   2.980   2.645   4.817
  121MYC    H6024211   3.151   2.517   4.961
  121MYC    H6124212   3.229   2.665   5.004
  121MYC    H6224213   3.010   2.750   5.105
  121MYC    H6324214   2.939   2.596   5.055
  121MYC    H6424215   3.093   2.482   5.228
  121MYC    H6524216   3.163   2.634   5.261
  121MYC    H6624217   2.913   2.720   5.298
  121MYC    H6724218   2.880   2.543   5.318
  121MYC    H6824219   3.053   2.544   5.509
  121MYC    H6924220   3.075   2.719   5.474
  121MYC    H7024221   2.858   2.773   5.527
  121MYC    H7124222   2.789   2.626   5.550
  121MYC    H7224223   2.961   2.561   5.742
  121MYC    H7324224   3.001   2.726   5.745
  121MYC    H7424225   2.760   2.799   5.777
  121MYC    H7524226   2.725   2.620   5.802
  121MYC    H7624227   2.925   2.628   5.971
  121MYC    H7724228   2.901   2.795   5.969
  121MYC    H7824229   2.658   2.769   6.048
  121MYC    H7924230   2.664   2.611   6.028
  121MYC    H8024231   2.713   2.660   6.274
  121MYC    H8124232   2.847   2.769   6.225
  121MYC    H8224233   2.859   2.595   6.201
  121MYC    H8324234   3.356   3.011   1.662
  121MYC    H8424235   3.225   3.002   1.778
  121MYC    H8524236   3.517   3.079   1.853
  121MYC    H8624237   3.377   3.187   1.853
  121MYC    H8724238   3.268   3.082   2.024
  121MYC    H8824239   3.371   2.941   2.041
  121MYC    H8924240   3.551   3.142   2.089
  121MYC    H9024241   3.400   3.235   2.121
  121MYC    H9124242   3.324   3.048   2.268
  121MYC    H9224243   3.475   2.969   2.256
  121MYC    H9324244   3.593   3.153   2.365
  121MYC    H9424245   3.449   3.260   2.359
  121MYC    H9524246   3.338   3.069   2.505
  121MYC    H9624247   3.496   3.002   2.513
  121MYC    H9724248   3.565   3.229   2.627
  121MYC    H9824249   3.390   3.276   2.618
  121MYC    H9924250   3.325   3.110   2.775
  122MYC     C124251   2.865   3.168   3.384
  122MYC     C224252   2.913   3.270   3.279
  122MYC     O324253   2.803   3.347   3.233
  122MYC     C424254   2.978   3.203   3.157
  122MYC     C524255   3.090   3.287   3.093
  122MYC     C624256   3.041   3.421   3.037
  122MYC     C724257   2.955   3.411   2.910
  122MYC     C824258   3.022   3.344   2.789
  122MYC     C924259   2.927   3.345   2.668
  122MYC    C1024260   2.997   3.271   2.553
  122MYC    C1124261   2.908   3.276   2.428
  122MYC    C1224262   2.983   3.275   2.293
  122MYC    C1324263   3.059   3.406   2.265
  122MYC    C1424264   3.102   3.401   2.117
  122MYC    C1524265   3.155   3.536   2.065
  122MYC    C1624266   3.165   3.521   1.913
  122MYC    C1724267   3.268   3.621   1.862
  122MYC    C1824268   3.393   3.568   1.797
  122MYC    C1924269   3.281   3.620   1.712
  122MYC    C2024270   2.808   3.234   3.511
  122MYC    C2124271   2.922   3.300   3.591
  122MYC    C2224272   2.875   3.367   3.722
  122MYC    C2324273   2.994   3.393   3.816
  122MYC    C2424274   2.944   3.454   3.948
  122MYC    C2524275   3.023   3.403   4.070
  122MYC    C2624276   3.012   3.499   4.190
  122MYC    C2724277   3.109   3.479   4.307
  122MYC    C2824278   3.083   3.567   4.431
  122MYC    C2924279   3.163   3.516   4.551
  122MYC    C3024280   3.201   3.613   4.664
  122MYC    C3124281   3.079   3.685   4.723
  122MYC    C3224282   3.108   3.768   4.849
  122MYC    C3324283   3.167   3.691   4.968
  122MYC    C3424284   3.182   3.784   5.090
  122MYC    C3524285   3.188   3.698   5.217
  122MYC    C3624286   3.159   3.768   5.352
  122MYC    C3724287   3.142   3.665   5.465
  122MYC    C3824288   3.159   3.721   5.607
  122MYC    C3924289   3.153   3.608   5.711
  122MYC    C4024290   3.163   3.653   5.858
  122MYC    C4124291   3.152   3.540   5.961
  122MYC    C4224292   3.141   3.598   6.103
  122MYC    C4324293   3.148   3.490   6.212
  122MYC    C4424294   3.526   3.643   1.791
  122MYC    C4524295   3.622   3.620   1.909
  122MYC    C4624296   3.551   3.640   2.044
  122MYC    C4724297   3.649   3.656   2.161
  122MYC    C4824298   3.559   3.642   2.285
  122MYC    C4924299   3.645   3.632   2.412
  122MYC    C5024300   3.561   3.601   2.537
  122MYC    C5124301   3.640   3.617   2.668
  122MYC    C5224302   3.557   3.582   2.793
  122MYC    C5324303   3.646   3.607   2.916
  122MYC    C5424304   3.577   3.547   3.040
  122MYC    C5524305   3.653   3.583   3.169
  122MYC    C5624306   3.572   3.546   3.294
  122MYC    C5724307   3.627   3.590   3.431
  122MYC    C5824308   3.549   3.519   3.541
  122MYC    C5924309   3.434   3.593   3.604
  122MYC    C6024310   3.566   3.586   3.675
  122MYC    C6124311   3.581   3.500   3.800
  122MYC    C6224312   3.597   3.592   3.922
  122MYC    C6324313   3.633   3.513   4.049
  122MYC    C6424314   3.674   3.611   4.160
  122MYC    C6524315   3.662   3.557   4.303
  122MYC    C6624316   3.685   3.658   4.416
  122MYC    C6724317   3.693   3.585   4.552
  122MYC    C6824318   3.685   3.678   4.675
  122MYC    C6924319   3.700   3.599   4.806
  122MYC    C7024320   3.695   3.690   4.931
  122MYC    C7124321   3.705   3.604   5.058
  122MYC    C7224322   3.642   3.679   5.176
  122MYC    C7324323   3.690   3.608   5.304
  122MYC    C7424324   3.648   3.682   5.433
  122MYC    C7524325   3.694   3.603   5.557
  122MYC    C7624326   3.619   3.651   5.682
  122MYC    C7724327   3.650   3.561   5.803
  122MYC    C7824328   3.586   3.620   5.930
  122MYC    C7924329   3.604   3.530   6.054
  122MYC    C8024330   3.563   3.597   6.186
  122MYC    C8124331   2.765   3.070   3.324
  122MYC    O8224332   2.644   3.068   3.344
  122MYC    O8324333   2.816   2.962   3.261
  122MYC     H124334   2.947   3.103   3.417
  122MYC     H224335   2.985   3.334   3.331
  122MYC     H324336   2.727   3.297   3.199
  122MYC     H424337   3.028   3.110   3.187
  122MYC     H524338   2.907   3.181   3.076
  122MYC     H624339   3.168   3.305   3.168
  122MYC     H724340   3.138   3.231   3.011
  122MYC     H824341   2.984   3.486   3.105
  122MYC     H924342   3.128   3.483   3.015
  122MYC   0H1024343   3.530   3.476   2.795
  122MYC   1H1024344   3.742   3.558   2.898
  122MYC   2H1024345   3.658   3.716   2.924
  122MYC   3H1024346   3.472   3.577   3.052
  122MYC   4H1024347   3.574   3.438   3.026
  122MYC   5H1024348   3.753   3.539   3.169
  122MYC   6H1024349   3.670   3.692   3.170
  122MYC   7H1024350   3.467   3.573   3.277
  122MYC   8H1024351   3.575   3.436   3.296
  122MYC   9H1024352   3.735   3.572   3.439
  122MYC    H1024353   2.851   3.381   2.927
  122MYC   0H1124354   3.626   3.699   3.438
  122MYC   1H1124355   3.532   3.412   3.541
  122MYC   2H1124356   3.409   3.683   3.548
  122MYC   3H1124357   3.353   3.542   3.657
  122MYC   4H1124358   3.639   3.667   3.671
  122MYC   5H1124359   3.498   3.430   3.818
  122MYC   6H1124360   3.674   3.442   3.792
  122MYC   7H1124361   3.683   3.656   3.901
  122MYC   8H1124362   3.509   3.656   3.939
  122MYC   9H1124363   3.540   3.459   4.068
  122MYC    H1124364   2.932   3.513   2.875
  122MYC   0H1224365   3.713   3.443   4.022
  122MYC   1H1224366   3.781   3.631   4.143
  122MYC   2H1224367   3.610   3.700   4.154
  122MYC   3H1224368   3.557   3.525   4.311
  122MYC   4H1224369   3.720   3.465   4.316
  122MYC   5H1224370   3.778   3.713   4.400
  122MYC   6H1224371   3.603   3.730   4.424
  122MYC   7H1224372   3.618   3.505   4.550
  122MYC   8H1224373   3.794   3.542   4.559
  122MYC   9H1224374   3.765   3.752   4.667
  122MYC    H1224375   3.116   3.395   2.764
  122MYC   0H1324376   3.591   3.735   4.669
  122MYC   1H1324377   3.614   3.531   4.814
  122MYC   2H1324378   3.794   3.544   4.808
  122MYC   3H1324379   3.777   3.763   4.935
  122MYC   4H1324380   3.603   3.749   4.926
  122MYC   5H1324381   3.652   3.509   5.041
  122MYC   6H1324382   3.811   3.584   5.073
  122MYC   7H1324383   3.685   3.779   5.172
  122MYC   8H1324384   3.532   3.683   5.174
  122MYC   9H1324385   3.647   3.508   5.314
  122MYC    H1324386   3.047   3.243   2.821
  122MYC   0H1424387   3.799   3.598   5.307
  122MYC   1H1424388   3.683   3.786   5.440
  122MYC   2H1424389   3.541   3.700   5.421
  122MYC   3H1424390   3.675   3.496   5.540
  122MYC   4H1424391   3.801   3.604   5.578
  122MYC   5H1424392   3.643   3.756   5.704
  122MYC   6H1424393   3.511   3.655   5.666
  122MYC   7H1424394   3.611   3.460   5.786
  122MYC   8H1424395   3.757   3.555   5.826
  122MYC   9H1424396   3.626   3.720   5.951
  122MYC    H1424397   2.838   3.288   2.696
  122MYC   0H1524398   3.478   3.632   5.911
  122MYC   1H1524399   3.548   3.439   6.030
  122MYC   2H1524400   3.712   3.508   6.058
  122MYC   3H1524401   3.455   3.608   6.176
  122MYC   4H1524402   3.620   3.690   6.202
  122MYC   5H1524403   3.574   3.537   6.276
  122MYC   6H1524404   2.745   2.910   3.220
  122MYC    H1524405   2.905   3.448   2.635
  122MYC    H1624406   3.092   3.321   2.531
  122MYC    H1724407   3.013   3.165   2.578
  122MYC    H1824408   2.831   3.198   2.432
  122MYC    H1924409   2.840   3.361   2.418
  122MYC    H2024410   3.057   3.197   2.276
  122MYC    H2124411   2.908   3.257   2.216
  122MYC    H2224412   2.998   3.494   2.286
  122MYC    H2324413   3.152   3.402   2.322
  122MYC    H2424414   3.183   3.328   2.103
  122MYC    H2524415   3.019   3.368   2.054
  122MYC    H2624416   3.095   3.621   2.102
  122MYC    H2724417   3.256   3.550   2.107
  122MYC    H2824418   3.194   3.417   1.891
  122MYC    H2924419   3.065   3.540   1.874
  122MYC    H3024420   3.259   3.721   1.905
  122MYC    H3124421   3.414   3.462   1.785
  122MYC    H3224422   3.295   3.713   1.657
  122MYC    H3324423   3.226   3.542   1.659
  122MYC    H3424424   2.732   3.310   3.491
  122MYC    H3524425   2.768   3.161   3.583
  122MYC    H3624426   2.995   3.223   3.615
  122MYC    H3724427   2.973   3.373   3.527
  122MYC    H3824428   2.824   3.461   3.697
  122MYC    H3924429   2.803   3.306   3.777
  122MYC    H4024430   3.038   3.295   3.837
  122MYC    H4124431   3.077   3.447   3.768
  122MYC    H4224432   2.952   3.563   3.937
  122MYC    H4324433   2.839   3.429   3.964
  122MYC    H4424434   2.989   3.305   4.105
  122MYC    H4524435   3.125   3.399   4.029
  122MYC    H4624436   3.029   3.599   4.148
  122MYC    H4724437   2.912   3.494   4.236
  122MYC    H4824438   3.112   3.372   4.331
  122MYC    H4924439   3.213   3.500   4.277
  122MYC    H5024440   3.113   3.669   4.404
  122MYC    H5124441   2.974   3.574   4.446
  122MYC    H5224442   3.119   3.426   4.596
  122MYC    H5324443   3.260   3.483   4.512
  122MYC    H5424444   3.257   3.560   4.743
  122MYC    H5524445   3.270   3.687   4.623
  122MYC    H5624446   3.032   3.755   4.653
  122MYC    H5724447   3.005   3.609   4.751
  122MYC    H5824448   3.173   3.853   4.822
  122MYC    H5924449   3.008   3.810   4.870
  122MYC    H6024450   3.113   3.598   4.987
  122MYC    H6124451   3.265   3.650   4.939
  122MYC    H6224452   3.276   3.836   5.069
  122MYC    H6324453   3.091   3.846   5.097
  122MYC    H6424454   3.125   3.610   5.202
  122MYC    H6524455   3.290   3.662   5.234
  122MYC    H6624456   3.244   3.831   5.379
  122MYC    H6724457   3.070   3.831   5.348
  122MYC    H6824458   3.043   3.619   5.460
  122MYC    H6924459   3.216   3.585   5.452
  122MYC    H7024460   3.258   3.767   5.618
  122MYC    H7124461   3.083   3.797   5.628
  122MYC    H7224462   3.053   3.568   5.690
  122MYC    H7324463   3.234   3.540   5.683
  122MYC    H7424464   3.260   3.704   5.868
  122MYC    H7524465   3.089   3.732   5.873
  122MYC    H7624466   3.066   3.476   5.941
  122MYC    H7724467   3.240   3.475   5.953
  122MYC    H7824468   3.225   3.666   6.123
  122MYC    H7924469   3.051   3.661   6.106
  122MYC    H8024470   3.177   3.525   6.312
  122MYC    H8124471   3.220   3.412   6.185
  122MYC    H8224472   3.045   3.450   6.211
  122MYC    H8324473   3.580   3.621   1.698
  122MYC    H8424474   3.501   3.750   1.788
  122MYC    H8524475   3.670   3.522   1.907
  122MYC    H8624476   3.698   3.697   1.898
  122MYC    H8724477   3.479   3.723   2.041
  122MYC    H8824478   3.495   3.547   2.061
  122MYC    H8924479   3.737   3.590   2.156
  122MYC    H9024480   3.687   3.759   2.159
  122MYC    H9124481   3.491   3.729   2.281
  122MYC    H9224482   3.495   3.554   2.283
  122MYC    H9324483   3.729   3.562   2.404
  122MYC    H9424484   3.695   3.727   2.433
  122MYC    H9524485   3.468   3.657   2.526
  122MYC    H9624486   3.522   3.499   2.528
  122MYC    H9724487   3.726   3.550   2.656
  122MYC    H9824488   3.674   3.720   2.680
  122MYC    H9924489   3.457   3.628   2.794
  123MYC     C124490   3.109   4.175   3.410
  123MYC     C224491   3.153   4.197   3.265
  123MYC     O324492   3.163   4.336   3.235
  123MYC     C424493   3.073   4.122   3.157
  123MYC     C524494   3.137   4.121   3.017
  123MYC     C624495   3.122   4.248   2.931
  123MYC     C724496   3.135   4.238   2.778
  123MYC     C824497   3.094   4.367   2.706
  123MYC     C924498   3.027   4.348   2.569
  123MYC    C1024499   3.101   4.256   2.469
  123MYC    C1124500   3.032   4.260   2.332
  123MYC    C1224501   3.104   4.173   2.229
  123MYC    C1324502   3.062   4.186   2.082
  123MYC    C1424503   3.141   4.086   1.997
  123MYC    C1524504   3.079   4.074   1.857
  123MYC    C1624505   3.170   4.007   1.752
  123MYC    C1724506   3.281   4.103   1.711
  123MYC    C1824507   3.424   4.055   1.716
  123MYC    C1924508   3.358   4.079   1.583
  123MYC    C2024509   3.200   4.261   3.499
  123MYC    C2124510   3.170   4.230   3.647
  123MYC    C2224511   3.259   4.324   3.731
  123MYC    C2324512   3.245   4.280   3.878
  123MYC    C2424513   3.233   4.401   3.971
  123MYC    C2524514   3.239   4.344   4.114
  123MYC    C2624515   3.174   4.441   4.214
  123MYC    C2724516   3.171   4.371   4.351
  123MYC    C2824517   3.130   4.459   4.470
  123MYC    C2924518   3.108   4.370   4.594
  123MYC    C3024519   3.078   4.453   4.720
  123MYC    C3124520   3.049   4.355   4.835
  123MYC    C3224521   2.983   4.416   4.960
  123MYC    C3324522   2.975   4.314   5.075
  123MYC    C3424523   2.853   4.347   5.162
  123MYC    C3524524   2.874   4.286   5.302
  123MYC    C3624525   2.754   4.306   5.397
  123MYC    C3724526   2.806   4.315   5.541
  123MYC    C3824527   2.684   4.333   5.633
  123MYC    C3924528   2.724   4.358   5.779
  123MYC    C4024529   2.620   4.301   5.876
  123MYC    C4124530   2.670   4.325   6.020
  123MYC    C4224531   2.552   4.323   6.118
  123MYC    C4324532   2.585   4.283   6.263
  123MYC    C4424533   3.543   4.142   1.751
  123MYC    C4524534   3.603   4.093   1.884
  123MYC    C4624535   3.525   4.105   2.016
  123MYC    C4724536   3.608   4.092   2.145
  123MYC    C4824537   3.533   4.086   2.279
  123MYC    C4924538   3.610   4.057   2.409
  123MYC    C5024539   3.526   4.033   2.536
  123MYC    C5124540   3.615   4.022   2.661
  123MYC    C5224541   3.541   3.975   2.787
  123MYC    C5324542   3.614   4.017   2.915
  123MYC    C5424543   3.547   3.971   3.046
  123MYC    C5524544   3.584   4.061   3.165
  123MYC    C5624545   3.581   3.984   3.299
  123MYC    C5724546   3.613   4.065   3.426
  123MYC    C5824547   3.581   3.987   3.553
  123MYC    C5924548   3.458   4.008   3.638
  123MYC    C6024549   3.593   4.053   3.688
  123MYC    C6124550   3.671   3.982   3.798
  123MYC    C6224551   3.638   4.054   3.930
  123MYC    C6324552   3.694   3.996   4.061
  123MYC    C6424553   3.685   4.090   4.182
  123MYC    C6524554   3.735   4.035   4.317
  123MYC    C6624555   3.693   4.130   4.431
  123MYC    C6724556   3.751   4.100   4.570
  123MYC    C6824557   3.654   4.157   4.676
  123MYC    C6924558   3.686   4.112   4.819
  123MYC    C7024559   3.570   4.143   4.915
  123MYC    C7124560   3.605   4.092   5.055
  123MYC    C7224561   3.491   4.090   5.158
  123MYC    C7324562   3.543   4.065   5.301
  123MYC    C7424563   3.444   4.114   5.408
  123MYC    C7524564   3.519   4.172   5.530
  123MYC    C7624565   3.425   4.210   5.645
  123MYC    C7724566   3.510   4.233   5.770
  123MYC    C7824567   3.427   4.245   5.899
  123MYC    C7924568   3.504   4.237   6.032
  123MYC    C8024569   3.428   4.180   6.152
  123MYC    C8124570   2.965   4.223   3.426
  123MYC    O8224571   2.866   4.152   3.431
  123MYC    O8324572   2.946   4.356   3.412
  123MYC     H124573   3.115   4.068   3.432
  123MYC     H224574   3.253   4.152   3.259
  123MYC     H324575   3.087   4.351   3.177
  123MYC     H424576   3.078   4.015   3.179
  123MYC     H524577   2.968   4.155   3.155
  123MYC     H624578   3.239   4.082   3.022
  123MYC     H724579   3.082   4.046   2.959
  123MYC     H824580   3.024   4.290   2.954
  123MYC     H924581   3.194   4.323   2.966
  123MYC   0H1024582   3.524   3.867   2.786
  123MYC   1H1024583   3.718   3.984   2.913
  123MYC   2H1024584   3.614   4.126   2.928
  123MYC   3H1024585   3.439   3.981   3.034
  123MYC   4H1024586   3.574   3.867   3.070
  123MYC   5H1024587   3.679   4.113   3.151
  123MYC   6H1024588   3.510   4.141   3.175
  123MYC   7H1024589   3.479   3.948   3.313
  123MYC   8H1024590   3.648   3.897   3.295
  123MYC   9H1024591   3.720   4.091   3.423
  123MYC    H1024592   3.242   4.219   2.763
  123MYC   0H1124593   3.558   4.159   3.412
  123MYC   1H1124594   3.627   3.889   3.549
  123MYC   2H1124595   3.395   4.094   3.620
  123MYC   3H1124596   3.416   3.918   3.682
  123MYC   4H1124597   3.604   4.161   3.688
  123MYC   5H1124598   3.652   3.875   3.806
  123MYC   6H1124599   3.780   3.992   3.785
  123MYC   7H1124600   3.687   4.151   3.916
  123MYC   8H1124601   3.532   4.071   3.950
  123MYC   9H1124602   3.646   3.901   4.088
  123MYC    H1124603   3.077   4.151   2.742
  123MYC   0H1224604   3.802   3.974   4.051
  123MYC   1H1224605   3.740   4.184   4.169
  123MYC   2H1224606   3.581   4.125   4.190
  123MYC   3H1224607   3.702   3.932   4.336
  123MYC   4H1224608   3.844   4.033   4.322
  123MYC   5H1224609   3.693   4.235   4.399
  123MYC   6H1224610   3.587   4.103   4.443
  123MYC   7H1224611   3.767   3.993   4.584
  123MYC   8H1224612   3.850   4.147   4.581
  123MYC   9H1224613   3.641   4.266   4.671
  123MYC    H1224614   3.019   4.416   2.770
  123MYC   0H1324615   3.558   4.109   4.657
  123MYC   1H1324616   3.702   4.003   4.817
  123MYC   2H1324617   3.779   4.161   4.849
  123MYC   3H1324618   3.554   4.251   4.929
  123MYC   4H1324619   3.475   4.100   4.880
  123MYC   5H1324620   3.644   3.989   5.055
  123MYC   6H1324621   3.690   4.149   5.094
  123MYC   7H1324622   3.445   4.189   5.150
  123MYC   8H1324623   3.417   4.011   5.139
  123MYC   9H1324624   3.545   3.957   5.317
  123MYC    H1324625   3.181   4.434   2.702
  123MYC   0H1424626   3.644   4.109   5.302
  123MYC   1H1424627   3.378   4.190   5.366
  123MYC   2H1424628   3.382   4.028   5.438
  123MYC   3H1424629   3.584   4.092   5.568
  123MYC   4H1424630   3.584   4.254   5.498
  123MYC   5H1424631   3.370   4.301   5.619
  123MYC   6H1424632   3.344   4.136   5.649
  123MYC   7H1424633   3.581   4.151   5.787
  123MYC   8H1424634   3.576   4.321   5.766
  123MYC   9H1424635   3.356   4.328   5.889
  123MYC    H1424636   2.921   4.319   2.575
  123MYC   0H1524637   3.354   4.164   5.905
  123MYC   1H1524638   3.595   4.176   6.018
  123MYC   2H1524639   3.534   4.337   6.066
  123MYC   3H1524640   3.380   4.082   6.137
  123MYC   4H1524641   3.352   4.252   6.184
  123MYC   5H1524642   3.494   4.152   6.235
  123MYC   6H1524643   2.857   4.375   3.447
  123MYC    H1524644   3.028   4.446   2.520
  123MYC    H1624645   3.206   4.288   2.459
  123MYC    H1724646   3.104   4.154   2.510
  123MYC    H1824647   2.925   4.234   2.337
  123MYC    H1924648   3.031   4.367   2.309
  123MYC    H2024649   3.212   4.191   2.241
  123MYC    H2124650   3.085   4.068   2.257
  123MYC    H2224651   2.954   4.166   2.076
  123MYC    H2324652   3.082   4.288   2.047
  123MYC    H2424653   3.247   4.114   1.994
  123MYC    H2524654   3.137   3.985   2.041
  123MYC    H2624655   2.990   4.011   1.870
  123MYC    H2724656   3.048   4.175   1.829
  123MYC    H2824657   3.212   3.915   1.794
  123MYC    H2924658   3.109   3.973   1.667
  123MYC    H3024659   3.260   4.207   1.731
  123MYC    H3124660   3.447   3.954   1.751
  123MYC    H3224661   3.382   4.166   1.524
  123MYC    H3324662   3.340   3.987   1.527
  123MYC    H3424663   3.304   4.255   3.465
  123MYC    H3524664   3.172   4.366   3.488
  123MYC    H3624665   3.066   4.250   3.675
  123MYC    H3724666   3.183   4.124   3.672
  123MYC    H3824667   3.364   4.319   3.698
  123MYC    H3924668   3.231   4.429   3.720
  123MYC    H4024669   3.160   4.211   3.881
  123MYC    H4124670   3.328   4.213   3.904
  123MYC    H4224671   3.310   4.477   3.955
  123MYC    H4324672   3.136   4.450   3.956
  123MYC    H4424673   3.179   4.253   4.117
  123MYC    H4524674   3.346   4.325   4.132
  123MYC    H4624675   3.233   4.533   4.210
  123MYC    H4724676   3.069   4.458   4.187
  123MYC    H4824677   3.112   4.280   4.333
  123MYC    H4924678   3.274   4.344   4.377
  123MYC    H5024679   3.197   4.545   4.483
  123MYC    H5124680   3.032   4.502   4.445
  123MYC    H5224681   3.028   4.297   4.576
  123MYC    H5324682   3.189   4.299   4.612
  123MYC    H5424683   3.168   4.507   4.750
  123MYC    H5524684   2.993   4.521   4.705
  123MYC    H5624685   2.989   4.268   4.807
  123MYC    H5724686   3.143   4.307   4.864
  123MYC    H5824687   3.025   4.510   4.999
  123MYC    H5924688   2.882   4.448   4.931
  123MYC    H6024689   2.966   4.212   5.037
  123MYC    H6124690   3.073   4.313   5.125
  123MYC    H6224691   2.855   4.456   5.177
  123MYC    H6324692   2.762   4.315   5.110
  123MYC    H6424693   2.891   4.179   5.289
  123MYC    H6524694   2.967   4.336   5.332
  123MYC    H6624695   2.703   4.399   5.370
  123MYC    H6724696   2.680   4.227   5.382
  123MYC    H6824697   2.849   4.218   5.571
  123MYC    H6924698   2.874   4.401   5.551
  123MYC    H7024699   2.620   4.414   5.595
  123MYC    H7124700   2.629   4.238   5.632
  123MYC    H7224701   2.824   4.316   5.797
  123MYC    H7324702   2.721   4.467   5.795
  123MYC    H7424703   2.519   4.341   5.858
  123MYC    H7524704   2.610   4.192   5.865
  123MYC    H7624705   2.748   4.252   6.046
  123MYC    H7724706   2.717   4.423   6.025
  123MYC    H7824707   2.501   4.420   6.116
  123MYC    H7924708   2.479   4.252   6.077
  123MYC    H8024709   2.492   4.282   6.323
  123MYC    H8124710   2.663   4.344   6.310
  123MYC    H8224711   2.627   4.182   6.270
  123MYC    H8324712   3.614   4.138   1.667
  123MYC    H8424713   3.527   4.250   1.765
  123MYC    H8524714   3.640   3.990   1.872
  123MYC    H8624715   3.690   4.157   1.906
  123MYC    H8724716   3.477   4.202   2.025
  123MYC    H8824717   3.461   4.016   2.008
  123MYC    H8924718   3.674   4.004   2.144
  123MYC    H9024719   3.664   4.186   2.144
  123MYC    H9124720   3.492   4.187   2.288
  123MYC    H9224721   3.451   4.015   2.268
  123MYC    H9324722   3.687   3.982   2.387
  123MYC    H9424723   3.668   4.146   2.435
  123MYC    H9524724   3.450   4.112   2.547
  123MYC    H9624725   3.477   3.936   2.519
  123MYC    H9724726   3.709   3.969   2.638
  123MYC    H9824727   3.657   4.120   2.688
  123MYC    H9924728   3.442   4.024   2.793
  124MYC     C124729   3.226   4.809   3.286
  124MYC     C224730   3.190   4.955   3.256
  124MYC     O324731   3.050   4.975   3.238
  124MYC     C424732   3.268   5.014   3.137
  124MYC     C524733   3.195   5.065   3.012
  124MYC     C624734   3.143   4.950   2.924
  124MYC     C724735   3.060   5.002   2.806
  124MYC     C824736   2.991   4.898   2.716
  124MYC     C924737   2.956   4.944   2.573
  124MYC    C1024738   2.887   4.824   2.504
  124MYC    C1124739   2.891   4.823   2.351
  124MYC    C1224740   2.806   4.929   2.279
  124MYC    C1324741   2.838   4.938   2.129
  124MYC    C1424742   2.957   5.030   2.095
  124MYC    C1524743   2.983   5.030   1.944
  124MYC    C1624744   3.089   5.126   1.888
  124MYC    C1724745   3.065   5.275   1.912
  124MYC    C1824746   3.147   5.370   1.827
  124MYC    C1924747   2.996   5.368   1.816
  124MYC    C2024748   3.162   4.763   3.418
  124MYC    C2124749   3.218   4.840   3.538
  124MYC    C2224750   3.169   4.783   3.672
  124MYC    C2324751   3.200   4.865   3.798
  124MYC    C2424752   3.124   4.812   3.921
  124MYC    C2524753   3.168   4.881   4.051
  124MYC    C2624754   3.070   4.839   4.162
  124MYC    C2724755   3.097   4.903   4.299
  124MYC    C2824756   3.003   4.854   4.410
  124MYC    C2924757   3.037   4.937   4.536
  124MYC    C3024758   2.947   4.892   4.652
  124MYC    C3124759   3.014   4.885   4.791
  124MYC    C3224760   2.926   4.847   4.911
  124MYC    C3324761   3.007   4.828   5.041
  124MYC    C3424762   2.923   4.769   5.155
  124MYC    C3524763   3.006   4.777   5.284
  124MYC    C3624764   2.930   4.724   5.407
  124MYC    C3724765   3.028   4.715   5.526
  124MYC    C3824766   2.966   4.676   5.661
  124MYC    C3924767   3.057   4.716   5.779
  124MYC    C4024768   2.999   4.682   5.917
  124MYC    C4124769   3.097   4.714   6.031
  124MYC    C4224770   3.060   4.651   6.166
  124MYC    C4324771   3.169   4.659   6.275
  124MYC    C4424772   3.218   5.493   1.881
  124MYC    C4524773   3.362   5.466   1.927
  124MYC    C4624774   3.370   5.379   2.054
  124MYC    C4724775   3.287   5.421   2.176
  124MYC    C4824776   3.308   5.330   2.298
  124MYC    C4924777   3.426   5.373   2.386
  124MYC    C5024778   3.428   5.308   2.525
  124MYC    C5124779   3.468   5.402   2.639
  124MYC    C5224780   3.467   5.333   2.777
  124MYC    C5324781   3.468   5.432   2.895
  124MYC    C5424782   3.456   5.364   3.032
  124MYC    C5524783   3.476   5.466   3.145
  124MYC    C5624784   3.450   5.403   3.282
  124MYC    C5724785   3.464   5.494   3.405
  124MYC    C5824786   3.455   5.422   3.539
  124MYC    C5924787   3.324   5.368   3.589
  124MYC    C6024788   3.389   5.484   3.660
  124MYC    C6124789   3.458   5.462   3.794
  124MYC    C6224790   3.353   5.491   3.903
  124MYC    C6324791   3.386   5.421   4.036
  124MYC    C6424792   3.302   5.477   4.152
  124MYC    C6524793   3.332   5.400   4.282
  124MYC    C6624794   3.251   5.467   4.394
  124MYC    C6724795   3.301   5.426   4.534
  124MYC    C6824796   3.213   5.483   4.647
  124MYC    C6924797   3.268   5.458   4.788
  124MYC    C7024798   3.161   5.467   4.899
  124MYC    C7124799   3.222   5.439   5.038
  124MYC    C7224800   3.119   5.451   5.151
  124MYC    C7324801   3.187   5.453   5.289
  124MYC    C7424802   3.084   5.450   5.403
  124MYC    C7524803   3.159   5.458   5.538
  124MYC    C7624804   3.073   5.426   5.661
  124MYC    C7724805   3.158   5.461   5.785
  124MYC    C7824806   3.073   5.455   5.913
  124MYC    C7924807   3.144   5.499   6.042
  124MYC    C8024808   3.056   5.483   6.166
  124MYC    C8124809   3.178   4.717   3.174
  124MYC    O8224810   3.070   4.661   3.179
  124MYC    O8324811   3.277   4.681   3.090
  124MYC     H124812   3.333   4.800   3.304
  124MYC     H224813   3.209   5.019   3.343
  124MYC     H324814   3.014   4.931   3.159
  124MYC     H424815   3.328   5.096   3.180
  124MYC     H524816   3.354   4.954   3.107
  124MYC     H624817   3.112   5.131   3.040
  124MYC     H724818   3.262   5.134   2.960
  124MYC     H824819   3.235   4.906   2.885
  124MYC     H924820   3.078   4.886   2.986
  124MYC   0H1024821   3.558   5.273   2.787
  124MYC   1H1024822   3.555   5.497   2.893
  124MYC   2H1024823   3.388   5.506   2.885
  124MYC   3H1024824   3.356   5.323   3.050
  124MYC   4H1024825   3.531   5.284   3.034
  124MYC   5H1024826   3.578   5.506   3.144
  124MYC   6H1024827   3.408   5.551   3.129
  124MYC   7H1024828   3.347   5.365   3.288
  124MYC   8H1024829   3.509   5.312   3.299
  124MYC   9H1024830   3.560   5.544   3.387
  124MYC    H1024831   2.986   5.077   2.837
  124MYC   0H1124832   3.392   5.577   3.414
  124MYC   1H1124833   3.540   5.357   3.559
  124MYC   2H1124834   3.233   5.373   3.530
  124MYC   3H1124835   3.322   5.274   3.643
  124MYC   4H1124836   3.344   5.583   3.658
  124MYC   5H1124837   3.501   5.362   3.803
  124MYC   6H1124838   3.532   5.539   3.818
  124MYC   7H1124839   3.361   5.598   3.923
  124MYC   8H1124840   3.247   5.480   3.875
  124MYC   9H1124841   3.367   5.314   4.026
  124MYC    H1124842   3.132   5.068   2.756
  124MYC   0H1224843   3.493   5.425   4.061
  124MYC   1H1224844   3.321   5.584   4.162
  124MYC   2H1224845   3.196   5.462   4.127
  124MYC   3H1224846   3.290   5.299   4.274
  124MYC   4H1224847   3.440   5.400   4.302
  124MYC   5H1224848   3.260   5.576   4.385
  124MYC   6H1224849   3.146   5.438   4.388
  124MYC   7H1224850   3.289   5.317   4.536
  124MYC   8H1224851   3.407   5.448   4.553
  124MYC   9H1224852   3.213   5.592   4.636
  124MYC    H1224853   3.057   4.811   2.715
  124MYC   0H1324854   3.115   5.437   4.634
  124MYC   1H1324855   3.311   5.357   4.784
  124MYC   2H1324856   3.348   5.530   4.804
  124MYC   3H1324857   3.121   5.569   4.899
  124MYC   4H1324858   3.081   5.394   4.883
  124MYC   5H1324859   3.275   5.344   5.029
  124MYC   6H1324860   3.300   5.515   5.052
  124MYC   7H1324861   3.060   5.543   5.138
  124MYC   8H1324862   3.057   5.361   5.148
  124MYC   9H1324863   3.263   5.374   5.299
  124MYC    H1324864   2.893   4.870   2.757
  124MYC   0H1424865   3.231   5.553   5.304
  124MYC   1H1424866   3.011   5.530   5.391
  124MYC   2H1424867   3.028   5.356   5.407
  124MYC   3H1424868   3.236   5.380   5.546
  124MYC   4H1424869   3.205   5.557   5.544
  124MYC   5H1424870   2.987   5.493   5.661
  124MYC   6H1424871   3.041   5.322   5.673
  124MYC   7H1424872   3.231   5.380   5.793
  124MYC   8H1424873   3.209   5.558   5.778
  124MYC   9H1424874   2.985   5.518   5.891
  124MYC    H1424875   2.892   5.033   2.573
  124MYC   0H1524876   3.036   5.353   5.929
  124MYC   1H1524877   3.238   5.444   6.060
  124MYC   2H1524878   3.178   5.604   6.037
  124MYC   3H1524879   3.029   5.382   6.199
  124MYC   4H1524880   2.959   5.533   6.148
  124MYC   5H1524881   3.101   5.538   6.249
  124MYC   6H1524882   3.259   4.601   3.038
  124MYC    H1524883   3.049   4.967   2.519
  124MYC    H1624884   2.924   4.728   2.543
  124MYC    H1724885   2.783   4.811   2.536
  124MYC    H1824886   2.997   4.831   2.322
  124MYC    H1924887   2.851   4.727   2.316
  124MYC    H2024888   2.700   4.901   2.285
  124MYC    H2124889   2.810   5.029   2.325
  124MYC    H2224890   2.848   4.839   2.082
  124MYC    H2324891   2.744   4.971   2.084
  124MYC    H2424892   2.935   5.131   2.132
  124MYC    H2524893   3.047   5.013   2.154
  124MYC    H2624894   3.004   4.926   1.913
  124MYC    H2724895   2.887   5.058   1.900
  124MYC    H2824896   3.186   5.092   1.926
  124MYC    H2924897   3.095   5.112   1.779
  124MYC    H3024898   3.038   5.298   2.015
  124MYC    H3124899   3.198   5.326   1.742
  124MYC    H3224900   2.935   5.447   1.858
  124MYC    H3324901   2.963   5.347   1.715
  124MYC    H3424902   3.053   4.777   3.411
  124MYC    H3524903   3.190   4.660   3.441
  124MYC    H3624904   3.328   4.832   3.538
  124MYC    H3724905   3.186   4.944   3.529
  124MYC    H3824906   3.060   4.768   3.667
  124MYC    H3924907   3.209   4.682   3.688
  124MYC    H4024908   3.308   4.856   3.810
  124MYC    H4124909   3.182   4.973   3.789
  124MYC    H4224910   3.015   4.820   3.906
  124MYC    H4324911   3.135   4.703   3.925
  124MYC    H4424912   3.273   4.855   4.071
  124MYC    H4524913   3.172   4.990   4.041
  124MYC    H4624914   2.972   4.871   4.122
  124MYC    H4724915   3.058   4.730   4.163
  124MYC    H4824916   3.203   4.897   4.326
  124MYC    H4924917   3.087   5.011   4.281
  124MYC    H5024918   2.900   4.869   4.376
  124MYC    H5124919   3.011   4.746   4.426
  124MYC    H5224920   3.140   4.924   4.572
  124MYC    H5324921   3.023   5.043   4.512
  124MYC    H5424922   2.862   4.960   4.659
  124MYC    H5524923   2.909   4.790   4.636
  124MYC    H5624924   3.097   4.814   4.783
  124MYC    H5724925   3.060   4.982   4.810
  124MYC    H5824926   2.870   4.939   4.930
  124MYC    H5924927   2.858   4.765   4.886
  124MYC    H6024928   3.080   4.754   5.005
  124MYC    H6124929   3.052   4.925   5.062
  124MYC    H6224930   2.835   4.835   5.168
  124MYC    H6324931   2.892   4.666   5.136
  124MYC    H6424932   3.099   4.720   5.269
  124MYC    H6524933   3.029   4.883   5.299
  124MYC    H6624934   2.845   4.788   5.433
  124MYC    H6724935   2.891   4.624   5.383
  124MYC    H6824936   3.101   4.638   5.499
  124MYC    H6924937   3.087   4.806   5.533
  124MYC    H7024938   2.875   4.736   5.674
  124MYC    H7124939   2.931   4.572   5.666
  124MYC    H7224940   3.154   4.665   5.770
  124MYC    H7324941   3.080   4.823   5.777
  124MYC    H7424942   2.916   4.753   5.929
  124MYC    H7524943   2.952   4.585   5.936
  124MYC    H7624944   3.197   4.672   6.011
  124MYC    H7724945   3.113   4.822   6.027
  124MYC    H7824946   2.972   4.700   6.208
  124MYC    H7924947   3.033   4.546   6.146
  124MYC    H8024948   3.175   4.566   6.333
  124MYC    H8124949   3.152   4.743   6.343
  124MYC    H8224950   3.270   4.680   6.236
  124MYC    H8324951   3.217   5.572   1.805
  124MYC    H8424952   3.155   5.540   1.957
  124MYC    H8524953   3.419   5.422   1.844
  124MYC    H8624954   3.409   5.564   1.945
  124MYC    H8724955   3.328   5.284   2.019
  124MYC    H8824956   3.474   5.356   2.081
  124MYC    H8924957   3.313   5.521   2.213
  124MYC    H9024958   3.181   5.423   2.148
  124MYC    H9124959   3.215   5.332   2.356
  124MYC    H9224960   3.316   5.224   2.270
  124MYC    H9324961   3.522   5.341   2.342
  124MYC    H9424962   3.424   5.482   2.401
  124MYC    H9524963   3.328   5.282   2.564
  124MYC    H9624964   3.494   5.221   2.533
  124MYC    H9724965   3.567   5.445   2.619
  124MYC    H9824966   3.397   5.485   2.650
  124MYC    H9924967   3.381   5.266   2.780
  125MYC     C124968   2.949   5.535   3.269
  125MYC     C224969   2.951   5.660   3.180
  125MYC     O324970   2.819   5.670   3.128
  125MYC     C424971   3.068   5.665   3.080
  125MYC     C524972   3.053   5.757   2.958
  125MYC     C624973   2.977   5.678   2.850
  125MYC     C724974   2.992   5.747   2.713
  125MYC     C824975   2.944   5.659   2.596
  125MYC     C924976   2.992   5.698   2.455
  125MYC    C1024977   2.923   5.616   2.345
  125MYC    C1124978   2.987   5.632   2.206
  125MYC    C1224979   2.954   5.769   2.145
  125MYC    C1324980   3.006   5.771   2.001
  125MYC    C1424981   2.978   5.908   1.938
  125MYC    C1524982   3.005   5.910   1.787
  125MYC    C1624983   3.140   5.963   1.735
  125MYC    C1724984   3.136   6.115   1.750
  125MYC    C1824985   3.256   6.193   1.705
  125MYC    C1924986   3.124   6.211   1.634
  125MYC    C2024987   2.889   5.564   3.408
  125MYC    C2124988   2.990   5.634   3.501
  125MYC    C2224989   2.931   5.652   3.642
  125MYC    C2324990   3.022   5.711   3.751
  125MYC    C2424991   2.958   5.720   3.890
  125MYC    C2524992   3.053   5.736   4.010
  125MYC    C2624993   2.970   5.750   4.139
  125MYC    C2724994   3.051   5.803   4.258
  125MYC    C2824995   2.966   5.797   4.387
  125MYC    C2924996   3.039   5.824   4.519
  125MYC    C3024997   2.955   5.811   4.647
  125MYC    C3124998   3.044   5.851   4.766
  125MYC    C3224999   2.966   5.850   4.899
  125MYC    C3325000   3.060   5.873   5.019
  125MYC    C3425001   2.991   5.842   5.152
  125MYC    C3525002   3.067   5.895   5.275
  125MYC    C3625003   3.008   5.846   5.408
  125MYC    C3725004   3.054   5.924   5.532
  125MYC    C3825005   2.992   5.866   5.661
  125MYC    C3925006   3.048   5.933   5.787
  125MYC    C4025007   3.024   5.857   5.918
  125MYC    C4125008   3.064   5.936   6.043
  125MYC    C4225009   3.039   5.854   6.171
  125MYC    C4325010   3.078   5.942   6.291
  125MYC    C4425011   3.314   6.314   1.778
  125MYC    C4525012   3.381   6.272   1.910
  125MYC    C4625013   3.289   6.259   2.032
  125MYC    C4725014   3.364   6.266   2.165
  125MYC    C4825015   3.262   6.237   2.277
  125MYC    C4925016   3.318   6.227   2.420
  125MYC    C5025017   3.207   6.211   2.525
  125MYC    C5125018   3.254   6.211   2.672
  125MYC    C5225019   3.148   6.161   2.771
  125MYC    C5325020   3.196   6.191   2.914
  125MYC    C5425021   3.081   6.172   3.016
  125MYC    C5525022   3.114   6.245   3.147
  125MYC    C5625023   3.171   6.157   3.260
  125MYC    C5725024   3.156   6.216   3.401
  125MYC    C5825025   3.218   6.123   3.504
  125MYC    C5925026   3.140   6.002   3.549
  125MYC    C6025027   3.152   6.122   3.639
  125MYC    C6125028   3.236   6.118   3.766
  125MYC    C6225029   3.178   6.189   3.889
  125MYC    C6325030   3.277   6.179   4.006
  125MYC    C6425031   3.224   6.233   4.140
  125MYC    C6525032   3.329   6.229   4.254
  125MYC    C6625033   3.258   6.256   4.388
  125MYC    C6725034   3.341   6.212   4.509
  125MYC    C6825035   3.290   6.282   4.636
  125MYC    C6925036   3.376   6.256   4.761
  125MYC    C7025037   3.296   6.311   4.881
  125MYC    C7125038   3.371   6.291   5.014
  125MYC    C7225039   3.277   6.294   5.136
  125MYC    C7325040   3.362   6.296   5.264
  125MYC    C7425041   3.280   6.262   5.389
  125MYC    C7525042   3.367   6.289   5.513
  125MYC    C7625043   3.296   6.261   5.646
  125MYC    C7725044   3.395   6.292   5.759
  125MYC    C7825045   3.330   6.273   5.897
  125MYC    C7925046   3.432   6.269   6.013
  125MYC    C8025047   3.358   6.254   6.147
  125MYC    C8125048   2.874   5.422   3.201
  125MYC    O8225049   2.763   5.387   3.236
  125MYC    O8325050   2.957   5.337   3.135
  125MYC     H125051   3.048   5.494   3.290
  125MYC     H225052   2.976   5.747   3.243
  125MYC     H325053   2.778   5.596   3.176
  125MYC     H425054   3.161   5.696   3.130
  125MYC     H525055   3.093   5.565   3.041
  125MYC     H625056   2.994   5.846   2.979
  125MYC     H725057   3.148   5.801   2.924
  125MYC     H825058   3.022   5.579   2.837
  125MYC     H925059   2.871   5.669   2.877
  125MYC   0H1025060   3.137   6.052   2.772
  125MYC   1H1025061   3.284   6.132   2.941
  125MYC   2H1025062   3.222   6.297   2.920
  125MYC   3H1025063   2.993   6.219   2.970
  125MYC   4H1025064   3.040   6.072   3.036
  125MYC   5H1025065   3.177   6.331   3.121
  125MYC   6H1025066   3.020   6.285   3.186
  125MYC   7H1025067   3.124   6.058   3.265
  125MYC   8H1025068   3.278   6.143   3.241
  125MYC   9H1025069   3.193   6.319   3.400
  125MYC    H1025070   2.940   5.844   2.710
  125MYC   0H1125071   3.049   6.210   3.425
  125MYC   1H1125072   3.327   6.121   3.502
  125MYC   2H1125073   3.044   5.980   3.504
  125MYC   3H1125074   3.204   5.914   3.560
  125MYC   4H1125075   3.063   6.184   3.652
  125MYC   5H1125076   3.264   6.017   3.797
  125MYC   6H1125077   3.336   6.160   3.749
  125MYC   7H1125078   3.157   6.290   3.852
  125MYC   8H1125079   3.083   6.148   3.924
  125MYC   9H1125080   3.303   6.074   4.019
  125MYC    H1125081   3.098   5.768   2.695
  125MYC   0H1225082   3.371   6.230   3.982
  125MYC   1H1225083   3.198   6.338   4.124
  125MYC   2H1225084   3.133   6.181   4.172
  125MYC   3H1225085   3.378   6.131   4.249
  125MYC   4H1225086   3.413   6.298   4.244
  125MYC   5H1225087   3.230   6.362   4.389
  125MYC   6H1225088   3.160   6.207   4.394
  125MYC   7H1225089   3.339   6.102   4.515
  125MYC   8H1225090   3.443   6.245   4.488
  125MYC   9H1225091   3.287   6.389   4.614
  125MYC    H1225092   2.981   5.557   2.612
  125MYC   0H1325093   3.184   6.255   4.649
  125MYC   1H1325094   3.391   6.147   4.757
  125MYC   2H1325095   3.472   6.307   4.749
  125MYC   3H1325096   3.261   6.414   4.867
  125MYC   4H1325097   3.198   6.262   4.874
  125MYC   5H1325098   3.422   6.194   5.007
  125MYC   6H1325099   3.447   6.370   5.013
  125MYC   7H1325100   3.205   6.376   5.129
  125MYC   8H1325101   3.225   6.197   5.132
  125MYC   9H1325102   3.444   6.225   5.249
  125MYC    H1325103   2.835   5.653   2.591
  125MYC   0H1425104   3.407   6.396   5.268
  125MYC   1H1425105   3.195   6.331   5.392
  125MYC   2H1425106   3.248   6.157   5.382
  125MYC   3H1425107   3.459   6.230   5.500
  125MYC   4H1425108   3.399   6.394   5.510
  125MYC   5H1425109   3.208   6.325   5.663
  125MYC   6H1425110   3.268   6.155   5.656
  125MYC   7H1425111   3.475   6.216   5.751
  125MYC   8H1425112   3.441   6.391   5.763
  125MYC   9H1425113   3.276   6.369   5.899
  125MYC    H1425114   2.976   5.806   2.445
  125MYC   0H1525115   3.259   6.190   5.898
  125MYC   1H1525116   3.498   6.182   6.008
  125MYC   2H1525117   3.492   6.360   6.004
  125MYC   3H1525118   3.295   6.165   6.144
  125MYC   4H1525119   3.297   6.343   6.170
  125MYC   5H1525120   3.429   6.240   6.229
  125MYC   6H1525121   2.908   5.257   3.110
  125MYC    H1525122   3.100   5.678   2.444
  125MYC    H1625123   2.935   5.511   2.376
  125MYC    H1725124   2.815   5.633   2.346
  125MYC    H1825125   3.096   5.630   2.212
  125MYC    H1925126   2.944   5.561   2.134
  125MYC    H2025127   2.849   5.795   2.161
  125MYC    H2125128   3.009   5.835   2.214
  125MYC    H2225129   3.114   5.754   2.001
  125MYC    H2325130   2.949   5.694   1.947
  125MYC    H2425131   2.872   5.929   1.954
  125MYC    H2525132   3.039   5.982   1.993
  125MYC    H2625133   2.997   5.805   1.756
  125MYC    H2725134   2.921   5.957   1.733
  125MYC    H2825135   3.225   5.915   1.785
  125MYC    H2925136   3.153   5.937   1.629
  125MYC    H3025137   3.099   6.148   1.847
  125MYC    H3125138   3.327   6.132   1.649
  125MYC    H3225139   3.067   6.299   1.659
  125MYC    H3325140   3.131   6.183   1.529
  125MYC    H3425141   2.796   5.622   3.399
  125MYC    H3525142   2.871   5.466   3.452
  125MYC    H3625143   3.078   5.568   3.504
  125MYC    H3725144   3.021   5.731   3.460
  125MYC    H3825145   2.846   5.721   3.633
  125MYC    H3925146   2.883   5.561   3.681
  125MYC    H4025147   3.117   5.657   3.760
  125MYC    H4125148   3.060   5.810   3.724
  125MYC    H4225149   2.883   5.800   3.893
  125MYC    H4325150   2.898   5.630   3.906
  125MYC    H4425151   3.124   5.652   4.018
  125MYC    H4525152   3.115   5.822   3.983
  125MYC    H4625153   2.879   5.810   4.134
  125MYC    H4725154   2.942   5.649   4.171
  125MYC    H4825155   3.140   5.742   4.274
  125MYC    H4925156   3.083   5.908   4.248
  125MYC    H5025157   2.877   5.858   4.371
  125MYC    H5125158   2.937   5.692   4.401
  125MYC    H5225159   3.123   5.754   4.519
  125MYC    H5325160   3.071   5.929   4.521
  125MYC    H5425161   2.859   5.863   4.649
  125MYC    H5525162   2.927   5.705   4.650
  125MYC    H5625163   3.121   5.774   4.782
  125MYC    H5725164   3.103   5.942   4.755
  125MYC    H5825165   2.882   5.921   4.897
  125MYC    H5925166   2.919   5.751   4.909
  125MYC    H6025167   3.150   5.811   5.013
  125MYC    H6125168   3.093   5.977   5.017
  125MYC    H6225169   2.890   5.884   5.153
  125MYC    H6325170   2.969   5.735   5.163
  125MYC    H6425171   3.171   5.862   5.263
  125MYC    H6525172   3.073   6.005   5.267
  125MYC    H6625173   2.899   5.857   5.399
  125MYC    H6725174   3.026   5.739   5.421
  125MYC    H6825175   3.162   5.904   5.539
  125MYC    H6925176   3.039   6.032   5.524
  125MYC    H7025177   2.884   5.875   5.644
  125MYC    H7125178   3.012   5.758   5.661
  125MYC    H7225179   3.156   5.945   5.769
  125MYC    H7325180   3.009   6.034   5.808
  125MYC    H7425181   2.919   5.827   5.930
  125MYC    H7525182   3.083   5.765   5.910
  125MYC    H7625183   3.168   5.966   6.026
  125MYC    H7725184   3.000   6.025   6.037
  125MYC    H7825185   2.933   5.826   6.175
  125MYC    H7925186   3.110   5.770   6.176
  125MYC    H8025187   3.124   5.883   6.371
  125MYC    H8125188   3.000   6.007   6.332
  125MYC    H8225189   3.153   6.018   6.264
  125MYC    H8325190   3.389   6.369   1.720
  125MYC    H8425191   3.233   6.386   1.796
  125MYC    H8525192   3.435   6.176   1.907
  125MYC    H8625193   3.463   6.341   1.934
  125MYC    H8725194   3.214   6.339   2.029
  125MYC    H8825195   3.231   6.166   2.026
  125MYC    H8925196   3.443   6.189   2.170
  125MYC    H9025197   3.405   6.366   2.183
  125MYC    H9125198   3.178   6.307   2.279
  125MYC    H9225199   3.217   6.138   2.258
  125MYC    H9325200   3.390   6.145   2.420
  125MYC    H9425201   3.371   6.321   2.443
  125MYC    H9525202   3.127   6.284   2.509
  125MYC    H9625203   3.165   6.112   2.505
  125MYC    H9725204   3.346   6.151   2.670
  125MYC    H9825205   3.281   6.311   2.707
  125MYC    H9925206   3.048   6.201   2.750
  126MYC     C125207   3.926   0.067   3.283
  126MYC     C225208   3.853   0.171   3.197
  126MYC     O325209   3.750   0.106   3.124
  126MYC     C425210   3.945   0.254   3.107
  126MYC     C525211   3.877   0.356   3.015
  126MYC     C625212   3.839   0.297   2.878
  126MYC     C725213   3.946   0.286   2.769
  126MYC     C825214   3.886   0.250   2.632
  126MYC     C925215   3.973   0.177   2.528
  126MYC    C1025216   3.896   0.166   2.396
  126MYC    C1125217   3.975   0.107   2.278
  126MYC    C1225218   3.998   0.202   2.159
  126MYC    C1325219   4.062   0.135   2.037
  126MYC    C1425220   4.094   0.233   1.923
  126MYC    C1525221   4.026   0.211   1.787
  126MYC    C1625222   4.038   0.332   1.693
  126MYC    C1725223   3.910   0.414   1.700
  126MYC    C1825224   3.898   0.534   1.790
  126MYC    C1925225   3.907   0.553   1.641
  126MYC    C2025226   3.834   0.005   3.389
  126MYC    C2125227   3.825   0.074   3.526
  126MYC    C2225228   3.939   0.055   3.628
  126MYC    C2325229   3.894   0.124   3.758
  126MYC    C2425230   4.010   0.134   3.859
  126MYC    C2525231   3.968   0.204   3.989
  126MYC    C2625232   4.070   0.183   4.102
  126MYC    C2725233   4.004   0.217   4.237
  126MYC    C2825234   4.081   0.162   4.359
  126MYC    C2925235   3.991   0.161   4.483
  126MYC    C3025236   4.066   0.112   4.608
  126MYC    C3125237   3.971   0.122   4.729
  126MYC    C3225238   4.061   0.118   4.854
  126MYC    C3325239   3.990   0.089   4.987
  126MYC    C3425240   4.064   0.123   5.117
  126MYC    C3525241   4.016   0.052   5.245
  126MYC    C3625242   4.033   0.139   5.370
  126MYC    C3725243   3.978   0.075   5.499
  126MYC    C3825244   3.990   0.182   5.609
  126MYC    C3925245   4.000   0.114   5.746
  126MYC    C4025246   4.038   0.220   5.850
  126MYC    C4125247   3.985   0.190   5.991
  126MYC    C4225248   4.038   0.277   6.106
  126MYC    C4325249   3.982   0.229   6.241
  126MYC    C4425250   3.770   0.551   1.871
  126MYC    C4525251   3.761   0.677   1.959
  126MYC    C4625252   3.886   0.716   2.039
  126MYC    C4725253   3.846   0.791   2.167
  126MYC    C4825254   3.811   0.708   2.292
  126MYC    C4925255   3.827   0.793   2.419
  126MYC    C5025256   3.786   0.719   2.547
  126MYC    C5125257   3.812   0.810   2.668
  126MYC    C5225258   3.736   0.749   2.787
  126MYC    C5325259   3.752   0.838   2.912
  126MYC    C5425260   3.717   0.756   3.037
  126MYC    C5525261   3.705   0.836   3.168
  126MYC    C5625262   3.795   0.778   3.279
  126MYC    C5725263   3.745   0.836   3.412
  126MYC    C5825264   3.838   0.775   3.516
  126MYC    C5925265   3.816   0.636   3.570
  126MYC    C6025266   3.797   0.756   3.660
  126MYC    C6125267   3.894   0.781   3.774
  126MYC    C6225268   3.861   0.688   3.892
  126MYC    C6325269   3.958   0.712   4.009
  126MYC    C6425270   3.918   0.630   4.133
  126MYC    C6525271   3.944   0.700   4.267
  126MYC    C6625272   3.923   0.600   4.382
  126MYC    C6725273   3.928   0.673   4.517
  126MYC    C6825274   3.879   0.579   4.628
  126MYC    C6925275   3.907   0.626   4.772
  126MYC    C7025276   3.865   0.530   4.884
  126MYC    C7125277   3.848   0.611   5.014
  126MYC    C7225278   3.830   0.522   5.138
  126MYC    C7325279   3.792   0.603   5.263
  126MYC    C7425280   3.784   0.507   5.383
  126MYC    C7525281   3.771   0.582   5.517
  126MYC    C7625282   3.766   0.484   5.635
  126MYC    C7725283   3.704   0.553   5.757
  126MYC    C7825284   3.699   0.458   5.878
  126MYC    C7925285   3.657   0.531   6.007
  126MYC    C8025286   3.643   0.432   6.123
  126MYC    C8125287   3.997  -0.040   3.200
  126MYC    O8225288   3.966  -0.076   3.088
  126MYC    O8325289   4.114  -0.077   3.256
  126MYC     H125290   3.998   0.126   3.341
  126MYC     H225291   3.815   0.237   3.276
  126MYC     H325292   3.671   0.135   3.174
  126MYC     H425293   3.999   0.324   3.172
  126MYC     H525294   4.012   0.187   3.050
  126MYC     H625295   3.787   0.391   3.067
  126MYC     H725296   3.946   0.441   3.008
  126MYC     H825297   3.791   0.199   2.888
  126MYC     H925298   3.763   0.360   2.831
  126MYC   0H1025299   3.776   0.649   2.810
  126MYC   1H1025300   3.859   0.860   2.915
  126MYC   2H1025301   3.695   0.928   2.884
  126MYC   3H1025302   3.625   0.697   3.024
  126MYC   4H1025303   3.792   0.679   3.060
  126MYC   5H1025304   3.738   0.938   3.148
  126MYC   6H1025305   3.605   0.849   3.211
  126MYC   7H1025306   3.802   0.669   3.289
  126MYC   8H1025307   3.900   0.803   3.259
  126MYC   9H1025308   3.746   0.945   3.414
  126MYC    H1025309   4.009   0.375   2.755
  126MYC   0H1125310   3.643   0.796   3.425
  126MYC   1H1125311   3.942   0.805   3.504
  126MYC   2H1125312   3.727   0.580   3.544
  126MYC   3H1125313   3.906   0.575   3.572
  126MYC   4H1125314   3.694   0.784   3.683
  126MYC   5H1125315   3.995   0.756   3.738
  126MYC   6H1125316   3.899   0.883   3.814
  126MYC   7H1125317   3.758   0.713   3.919
  126MYC   8H1125318   3.866   0.583   3.860
  126MYC   9H1125319   4.064   0.695   3.985
  126MYC    H1125320   4.015   0.204   2.795
  126MYC   0H1225321   3.951   0.817   4.037
  126MYC   1H1225322   3.811   0.609   4.128
  126MYC   2H1225323   3.975   0.537   4.121
  126MYC   3H1225324   4.047   0.738   4.277
  126MYC   4H1225325   3.869   0.780   4.276
  126MYC   5H1225326   3.822   0.557   4.376
  126MYC   6H1225327   3.986   0.510   4.382
  126MYC   7H1225328   4.030   0.707   4.537
  126MYC   8H1225329   3.860   0.758   4.504
  126MYC   9H1225330   3.774   0.553   4.614
  126MYC    H1225331   3.801   0.182   2.640
  126MYC   0H1325332   3.922   0.478   4.625
  126MYC   1H1325333   4.016   0.640   4.771
  126MYC   2H1325334   3.862   0.725   4.789
  126MYC   3H1325335   3.767   0.482   4.869
  126MYC   4H1325336   3.937   0.452   4.912
  126MYC   5H1325337   3.934   0.677   5.028
  126MYC   6H1325338   3.761   0.677   5.005
  126MYC   7H1325339   3.746   0.451   5.131
  126MYC   8H1325340   3.920   0.459   5.146
  126MYC   9H1325341   3.862   0.687   5.271
  126MYC    H1325342   3.859   0.348   2.590
  126MYC   0H1425343   3.695   0.654   5.256
  126MYC   1H1425344   3.696   0.443   5.370
  126MYC   2H1425345   3.873   0.444   5.396
  126MYC   3H1425346   3.856   0.650   5.531
  126MYC   4H1425347   3.680   0.643   5.515
  126MYC   5H1425348   3.692   0.406   5.610
  126MYC   6H1425349   3.861   0.434   5.659
  126MYC   7H1425350   3.763   0.641   5.789
  126MYC   8H1425351   3.605   0.596   5.736
  126MYC   9H1425352   3.634   0.371   5.862
  126MYC    H1425353   4.068   0.232   2.526
  126MYC   0H1525354   3.802   0.422   5.892
  126MYC   1H1525355   3.726   0.616   6.012
  126MYC   2H1525356   3.558   0.575   5.985
  126MYC   3H1525357   3.704   0.470   6.206
  126MYC   4H1525358   3.661   0.330   6.086
  126MYC   5H1525359   3.540   0.436   6.158
  126MYC   6H1525360   4.145  -0.143   3.191
  126MYC    H1525361   3.986   0.072   2.557
  126MYC    H1625362   3.801   0.114   2.411
  126MYC    H1725363   3.873   0.271   2.372
  126MYC    H1825364   4.071   0.074   2.320
  126MYC    H1925365   3.914   0.025   2.239
  126MYC    H2025366   3.902   0.246   2.129
  126MYC    H2125367   4.055   0.287   2.200
  126MYC    H2225368   4.158   0.103   2.080
  126MYC    H2325369   3.997   0.050   2.011
  126MYC    H2425370   4.063   0.334   1.953
  126MYC    H2525371   4.203   0.228   1.908
  126MYC    H2625372   4.064   0.121   1.737
  126MYC    H2725373   3.919   0.197   1.805
  126MYC    H2825374   4.129   0.392   1.704
  126MYC    H2925375   4.043   0.294   1.590
  126MYC    H3025376   3.819   0.362   1.671
  126MYC    H3125377   3.984   0.570   1.847
  126MYC    H3225378   3.816   0.571   1.585
  126MYC    H3325379   3.996   0.584   1.587
  126MYC    H3425380   3.732  -0.018   3.356
  126MYC    H3525381   3.883  -0.092   3.405
  126MYC    H3625382   3.800   0.180   3.515
  126MYC    H3725383   3.747   0.026   3.587
  126MYC    H3825384   3.959  -0.048   3.660
  126MYC    H3925385   4.033   0.095   3.590
  126MYC    H4025386   3.865   0.226   3.733
  126MYC    H4125387   3.809   0.069   3.800
  126MYC    H4225388   4.050   0.033   3.873
  126MYC    H4325389   4.088   0.191   3.807
  126MYC    H4425390   3.945   0.311   3.976
  126MYC    H4525391   3.877   0.160   4.030
  126MYC    H4625392   4.097   0.077   4.110
  126MYC    H4725393   4.164   0.237   4.087
  126MYC    H4825394   3.997   0.325   4.253
  126MYC    H4925395   3.903   0.174   4.245
  126MYC    H5025396   4.123   0.064   4.337
  126MYC    H5125397   4.167   0.223   4.388
  126MYC    H5225398   3.950   0.259   4.510
  126MYC    H5325399   3.898   0.103   4.473
  126MYC    H5425400   4.085   0.006   4.590
  126MYC    H5525401   4.157   0.173   4.621
  126MYC    H5625402   3.920   0.219   4.734
  126MYC    H5725403   3.890   0.047   4.731
  126MYC    H5825404   4.137   0.040   4.842
  126MYC    H5925405   4.114   0.213   4.864
  126MYC    H6025406   3.896   0.145   4.990
  126MYC    H6125407   3.971  -0.019   4.986
  126MYC    H6225408   4.171   0.104   5.101
  126MYC    H6325409   4.065   0.232   5.130
  126MYC    H6425410   3.908   0.031   5.246
  126MYC    H6525411   4.068  -0.044   5.257
  126MYC    H6625412   4.138   0.167   5.388
  126MYC    H6725413   3.977   0.231   5.351
  126MYC    H6825414   3.875   0.036   5.495
  126MYC    H6925415   4.040  -0.011   5.527
  126MYC    H7025416   4.087   0.232   5.599
  126MYC    H7125417   3.905   0.250   5.598
  126MYC    H7225418   3.902   0.073   5.775
  126MYC    H7325419   4.072   0.031   5.747
  126MYC    H7425420   4.144   0.250   5.852
  126MYC    H7525421   3.995   0.313   5.811
  126MYC    H7625422   3.876   0.188   5.998
  126MYC    H7725423   4.018   0.087   6.012
  126MYC    H7825424   4.148   0.269   6.113
  126MYC    H7925425   4.009   0.380   6.081
  126MYC    H8025426   3.996   0.302   6.322
  126MYC    H8125427   4.020   0.131   6.271
  126MYC    H8225428   3.873   0.232   6.232
  126MYC    H8325429   3.688   0.560   1.799
  126MYC    H8425430   3.756   0.457   1.927
  126MYC    H8525431   3.717   0.760   1.903
  126MYC    H8625432   3.683   0.651   2.031
  126MYC    H8725433   3.949   0.628   2.059
  126MYC    H8825434   3.943   0.780   1.970
  126MYC    H8925435   3.932   0.855   2.191
  126MYC    H9025436   3.756   0.850   2.144
  126MYC    H9125437   3.708   0.675   2.278
  126MYC    H9225438   3.877   0.620   2.296
  126MYC    H9325439   3.931   0.830   2.423
  126MYC    H9425440   3.763   0.882   2.413
  126MYC    H9525441   3.681   0.686   2.545
  126MYC    H9625442   3.851   0.632   2.563
  126MYC    H9725443   3.920   0.815   2.681
  126MYC    H9825444   3.775   0.912   2.649
  126MYC    H9925445   3.628   0.751   2.772
  127MYC     C125446   3.465   1.283   3.302
  127MYC     C225447   3.599   1.293   3.228
  127MYC     O325448   3.631   1.430   3.207
  127MYC     C425449   3.605   1.215   3.095
  127MYC     C525450   3.733   1.225   3.010
  127MYC     C625451   3.736   1.338   2.906
  127MYC     C725452   3.629   1.328   2.795
  127MYC     C825453   3.660   1.417   2.674
  127MYC     C925454   3.579   1.385   2.547
  127MYC    C1025455   3.626   1.463   2.422
  127MYC    C1125456   3.563   1.419   2.289
  127MYC    C1225457   3.628   1.289   2.238
  127MYC    C1325458   3.616   1.270   2.085
  127MYC    C1425459   3.732   1.184   2.032
  127MYC    C1525460   3.701   1.135   1.889
  127MYC    C1625461   3.821   1.067   1.821
  127MYC    C1725462   3.936   1.158   1.781
  127MYC    C1825463   4.061   1.087   1.736
  127MYC    C1925464   3.981   1.170   1.638
  127MYC    C2025465   3.465   1.348   3.442
  127MYC    C2125466   3.539   1.260   3.544
  127MYC    C2225467   3.537   1.333   3.679
  127MYC    C2325468   3.644   1.267   3.768
  127MYC    C2425469   3.640   1.325   3.911
  127MYC    C2525470   3.741   1.283   4.020
  127MYC    C2625471   3.714   1.351   4.156
  127MYC    C2725472   3.800   1.286   4.266
  127MYC    C2825473   3.793   1.359   4.401
  127MYC    C2925474   3.864   1.290   4.519
  127MYC    C3025475   3.796   1.332   4.650
  127MYC    C3125476   3.858   1.260   4.771
  127MYC    C3225477   3.783   1.278   4.903
  127MYC    C3325478   3.843   1.192   5.016
  127MYC    C3425479   3.778   1.223   5.151
  127MYC    C3525480   3.822   1.118   5.255
  127MYC    C3625481   3.760   1.160   5.389
  127MYC    C3725482   3.811   1.072   5.504
  127MYC    C3825483   3.740   1.097   5.638
  127MYC    C3925484   3.817   1.041   5.759
  127MYC    C4025485   3.730   1.007   5.882
  127MYC    C4125486   3.812   0.971   6.007
  127MYC    C4225487   3.739   0.946   6.140
  127MYC    C4325488   3.825   0.910   6.262
  127MYC    C4425489   4.202   1.122   1.780
  127MYC    C4525490   4.247   1.055   1.911
  127MYC    C4625491   4.185   1.109   2.041
  127MYC    C4725492   4.236   1.039   2.168
  127MYC    C4825493   4.155   1.081   2.292
  127MYC    C4925494   4.225   1.082   2.429
  127MYC    C5025495   4.136   1.107   2.552
  127MYC    C5125496   4.204   1.086   2.689
  127MYC    C5225497   4.113   1.097   2.813
  127MYC    C5325498   4.192   1.066   2.941
  127MYC    C5425499   4.113   1.092   3.071
  127MYC    C5525500   4.192   1.048   3.195
  127MYC    C5625501   4.135   1.098   3.329
  127MYC    C5725502   4.228   1.058   3.446
  127MYC    C5825503   4.155   1.057   3.579
  127MYC    C5925504   4.104   1.185   3.640
  127MYC    C6025505   4.230   1.122   3.693
  127MYC    C6125506   4.230   1.043   3.823
  127MYC    C6225507   4.215   1.132   3.947
  127MYC    C6325508   4.237   1.037   4.066
  127MYC    C6425509   4.229   1.107   4.203
  127MYC    C6525510   4.265   1.013   4.320
  127MYC    C6625511   4.194   1.052   4.450
  127MYC    C6725512   4.247   0.966   4.567
  127MYC    C6825513   4.170   0.984   4.699
  127MYC    C6925514   4.248   0.943   4.825
  127MYC    C7025515   4.172   0.958   4.958
  127MYC    C7125516   4.265   0.937   5.079
  127MYC    C7225517   4.194   0.946   5.215
  127MYC    C7325518   4.295   0.935   5.330
  127MYC    C7425519   4.233   0.963   5.468
  127MYC    C7525520   4.333   0.962   5.585
  127MYC    C7625521   4.269   1.026   5.710
  127MYC    C7725522   4.359   1.029   5.835
  127MYC    C7825523   4.272   1.078   5.952
  127MYC    C7925524   4.343   1.096   6.087
  127MYC    C8025525   4.238   1.117   6.197
  127MYC    C8125526   3.341   1.336   3.231
  127MYC    O8225527   3.343   1.421   3.144
  127MYC    O8325528   3.227   1.266   3.254
  127MYC     H125529   3.453   1.175   3.322
  127MYC     H225530   3.670   1.247   3.298
  127MYC     H325531   3.553   1.450   3.152
  127MYC     H425532   3.594   1.112   3.129
  127MYC     H525533   3.512   1.231   3.039
  127MYC     H625534   3.816   1.243   3.080
  127MYC     H725535   3.753   1.133   2.953
  127MYC     H825536   3.715   1.437   2.950
  127MYC     H925537   3.835   1.345   2.859
  127MYC   0H1025538   4.034   1.022   2.805
  127MYC   1H1025539   4.208   0.958   2.932
  127MYC   2H1025540   4.287   1.119   2.944
  127MYC   3H1025541   4.107   1.200   3.087
  127MYC   4H1025542   4.011   1.053   3.057
  127MYC   5H1025543   4.204   0.939   3.188
  127MYC   6H1025544   4.292   1.092   3.187
  127MYC   7H1025545   4.116   1.206   3.336
  127MYC   8H1025546   4.036   1.053   3.337
  127MYC   9H1025547   4.274   0.960   3.429
  127MYC    H1025548   3.626   1.222   2.767
  127MYC   0H1125549   4.311   1.130   3.446
  127MYC   1H1125550   4.090   0.973   3.602
  127MYC   2H1125551   4.106   1.278   3.583
  127MYC   3H1125552   4.009   1.182   3.693
  127MYC   4H1125553   4.324   1.173   3.672
  127MYC   5H1125554   4.154   0.965   3.815
  127MYC   6H1125555   4.334   1.008   3.822
  127MYC   7H1125556   4.290   1.211   3.951
  127MYC   8H1125557   4.114   1.174   3.946
  127MYC   9H1125558   4.161   0.958   4.062
  127MYC    H1125559   3.531   1.344   2.842
  127MYC   0H1225560   4.335   0.989   4.054
  127MYC   1H1225561   4.276   1.206   4.213
  127MYC   2H1225562   4.123   1.130   4.218
  127MYC   3H1225563   4.248   0.906   4.302
  127MYC   4H1225564   4.371   1.029   4.342
  127MYC   5H1225565   4.208   1.156   4.482
  127MYC   6H1225566   4.086   1.043   4.430
  127MYC   7H1225567   4.250   0.861   4.536
  127MYC   8H1225568   4.350   0.996   4.589
  127MYC   9H1225569   4.147   1.090   4.716
  127MYC    H1225570   3.656   1.524   2.698
  127MYC   0H1325571   4.076   0.930   4.684
  127MYC   1H1325572   4.280   0.838   4.817
  127MYC   2H1325573   4.338   1.003   4.837
  127MYC   3H1325574   4.127   1.058   4.961
  127MYC   4H1325575   4.086   0.891   4.965
  127MYC   5H1325576   4.320   0.842   5.071
  127MYC   6H1325577   4.336   1.020   5.078
  127MYC   7H1325578   4.145   1.045   5.216
  127MYC   8H1325579   4.114   0.872   5.228
  127MYC   9H1325580   4.336   0.833   5.340
  127MYC    H1325581   3.764   1.402   2.643
  127MYC   0H1425582   4.373   1.011   5.313
  127MYC   1H1425583   4.192   1.064   5.459
  127MYC   2H1425584   4.155   0.887   5.484
  127MYC   3H1425585   4.349   0.859   5.616
  127MYC   4H1425586   4.425   1.012   5.554
  127MYC   5H1425587   4.249   1.130   5.683
  127MYC   6H1425588   4.172   0.980   5.732
  127MYC   7H1425589   4.395   0.929   5.862
  127MYC   8H1425590   4.447   1.093   5.822
  127MYC   9H1425591   4.248   1.180   5.919
  127MYC    H1425592   3.603   1.280   2.525
  127MYC   0H1525593   4.180   1.020   5.965
  127MYC   1H1525594   4.406   1.010   6.112
  127MYC   2H1525595   4.408   1.181   6.062
  127MYC   3H1525596   4.188   1.022   6.219
  127MYC   4H1525597   4.163   1.193   6.172
  127MYC   5H1525598   4.285   1.141   6.294
  127MYC   6H1525599   3.169   1.304   3.186
  127MYC    H1525600   3.472   1.382   2.572
  127MYC    H1625601   3.610   1.569   2.444
  127MYC    H1725602   3.735   1.453   2.415
  127MYC    H1825603   3.457   1.395   2.301
  127MYC    H1925604   3.591   1.502   2.223
  127MYC    H2025605   3.736   1.290   2.253
  127MYC    H2125606   3.587   1.204   2.295
  127MYC    H2225607   3.517   1.235   2.054
  127MYC    H2325608   3.623   1.371   2.043
  127MYC    H2425609   3.825   1.242   2.037
  127MYC    H2525610   3.749   1.096   2.095
  127MYC    H2625611   3.618   1.064   1.897
  127MYC    H2725612   3.662   1.222   1.835
  127MYC    H2825613   3.854   0.982   1.883
  127MYC    H2925614   3.781   1.024   1.728
  127MYC    H3025615   3.952   1.242   1.849
  127MYC    H3125616   4.051   0.979   1.727
  127MYC    H3225617   4.022   1.264   1.601
  127MYC    H3325618   3.909   1.123   1.572
  127MYC    H3425619   3.500   1.452   3.442
  127MYC    H3525620   3.363   1.371   3.474
  127MYC    H3625621   3.498   1.159   3.553
  127MYC    H3725622   3.646   1.252   3.520
  127MYC    H3825623   3.560   1.440   3.670
  127MYC    H3925624   3.437   1.324   3.722
  127MYC    H4025625   3.633   1.158   3.770
  127MYC    H4125626   3.742   1.285   3.722
  127MYC    H4225627   3.656   1.433   3.902
  127MYC    H4325628   3.537   1.316   3.946
  127MYC    H4425629   3.734   1.175   4.032
  127MYC    H4525630   3.845   1.294   3.986
  127MYC    H4625631   3.732   1.459   4.154
  127MYC    H4725632   3.609   1.336   4.186
  127MYC    H4825633   3.763   1.183   4.278
  127MYC    H4925634   3.905   1.282   4.236
  127MYC    H5025635   3.836   1.458   4.383
  127MYC    H5125636   3.685   1.368   4.416
  127MYC    H5225637   3.853   1.182   4.508
  127MYC    H5325638   3.971   1.311   4.508
  127MYC    H5425639   3.803   1.441   4.662
  127MYC    H5525640   3.688   1.310   4.645
  127MYC    H5625641   3.867   1.153   4.750
  127MYC    H5725642   3.962   1.292   4.785
  127MYC    H5825643   3.791   1.383   4.932
  127MYC    H5925644   3.678   1.251   4.887
  127MYC    H6025645   3.822   1.087   4.992
  127MYC    H6125646   3.951   1.213   5.016
  127MYC    H6225647   3.811   1.324   5.177
  127MYC    H6325648   3.669   1.232   5.139
  127MYC    H6425649   3.786   1.019   5.223
  127MYC    H6525650   3.931   1.118   5.264
  127MYC    H6625651   3.787   1.265   5.406
  127MYC    H6725652   3.653   1.146   5.369
  127MYC    H6825653   3.799   0.972   5.459
  127MYC    H6925654   3.920   1.083   5.500
  127MYC    H7025655   3.722   1.205   5.640
  127MYC    H7125656   3.640   1.054   5.630
  127MYC    H7225657   3.854   0.945   5.721
  127MYC    H7325658   3.900   1.107   5.788
  127MYC    H7425659   3.655   1.080   5.916
  127MYC    H7525660   3.666   0.924   5.852
  127MYC    H7625661   3.878   0.886   5.983
  127MYC    H7725662   3.879   1.056   6.025
  127MYC    H7825663   3.679   1.035   6.161
  127MYC    H7925664   3.672   0.861   6.122
  127MYC    H8025665   3.766   0.907   6.354
  127MYC    H8125666   3.903   0.986   6.277
  127MYC    H8225667   3.864   0.808   6.261
  127MYC    H8325668   4.271   1.075   1.708
  127MYC    H8425669   4.223   1.229   1.778
  127MYC    H8525670   4.219   0.949   1.905
  127MYC    H8625671   4.356   1.064   1.909
  127MYC    H8725672   4.195   1.218   2.046
  127MYC    H8825673   4.076   1.098   2.037
  127MYC    H8925674   4.235   0.930   2.151
  127MYC    H9025675   4.344   1.055   2.179
  127MYC    H9125676   4.129   1.187   2.276
  127MYC    H9225677   4.060   1.029   2.306
  127MYC    H9325678   4.268   0.981   2.442
  127MYC    H9425679   4.312   1.148   2.424
  127MYC    H9525680   4.093   1.207   2.546
  127MYC    H9625681   4.053   1.037   2.541
  127MYC    H9725682   4.242   0.983   2.687
  127MYC    H9825683   4.275   1.166   2.710
  127MYC    H9925684   4.072   1.199   2.816
  128MYC     C125685   4.010   2.231   3.219
  128MYC     C225686   4.131   2.177   3.140
  128MYC     O325687   4.202   2.284   3.079
  128MYC     C425688   4.098   2.076   3.029
  128MYC     C525689   4.222   2.018   2.957
  128MYC     C625690   4.264   2.109   2.841
  128MYC     C725691   4.237   2.059   2.698
  128MYC     C825692   4.321   2.134   2.593
  128MYC     C925693   4.287   2.090   2.450
  128MYC    C1025694   4.272   2.219   2.368
  128MYC    C1125695   4.192   2.204   2.238
  128MYC    C1225696   4.253   2.105   2.137
  128MYC    C1325697   4.173   2.110   2.006
  128MYC    C1425698   4.200   1.989   1.914
  128MYC    C1525699   4.156   2.018   1.770
  128MYC    C1625700   4.070   1.907   1.706
  128MYC    C1725701   4.146   1.775   1.696
  128MYC    C1825702   4.074   1.646   1.724
  128MYC    C1925703   4.120   1.678   1.584
  128MYC    C2025704   4.055   2.312   3.342
  128MYC    C2125705   4.100   2.217   3.453
  128MYC    C2225706   4.155   2.291   3.576
  128MYC    C2325707   4.164   2.201   3.700
  128MYC    C2425708   4.219   2.270   3.826
  128MYC    C2525709   4.212   2.181   3.951
  128MYC    C2625710   4.242   2.254   4.083
  128MYC    C2725711   4.132   2.241   4.190
  128MYC    C2825712   4.184   2.287   4.328
  128MYC    C2925713   4.096   2.229   4.440
  128MYC    C3025714   4.134   2.273   4.582
  128MYC    C3125715   4.020   2.273   4.685
  128MYC    C3225716   4.073   2.288   4.828
  128MYC    C3325717   3.975   2.257   4.943
  128MYC    C3425718   4.031   2.318   5.073
  128MYC    C3525719   3.940   2.283   5.192
  128MYC    C3625720   3.978   2.356   5.322
  128MYC    C3725721   3.877   2.319   5.432
  128MYC    C3825722   3.926   2.386   5.561
  128MYC    C3925723   3.851   2.337   5.686
  128MYC    C4025724   3.903   2.397   5.818
  128MYC    C4125725   3.855   2.320   5.943
  128MYC    C4225726   3.917   2.371   6.074
  128MYC    C4325727   3.895   2.268   6.186
  128MYC    C4425728   4.126   1.528   1.806
  128MYC    C4525729   4.064   1.497   1.943
  128MYC    C4625730   4.071   1.615   2.042
  128MYC    C4725731   4.015   1.574   2.179
  128MYC    C4825732   4.057   1.667   2.294
  128MYC    C4925733   4.008   1.607   2.427
  128MYC    C5025734   4.046   1.687   2.553
  128MYC    C5125735   4.037   1.602   2.680
  128MYC    C5225736   4.043   1.684   2.810
  128MYC    C5325737   4.017   1.604   2.938
  128MYC    C5425738   4.038   1.696   3.060
  128MYC    C5525739   4.022   1.620   3.193
  128MYC    C5625740   4.013   1.706   3.320
  128MYC    C5725741   4.050   1.617   3.439
  128MYC    C5825742   4.025   1.676   3.577
  128MYC    C5925743   4.119   1.783   3.629
  128MYC    C6025744   4.113   1.648   3.696
  128MYC    C6125745   4.042   1.632   3.830
  128MYC    C6225746   4.110   1.691   3.955
  128MYC    C6325747   4.037   1.652   4.085
  128MYC    C6425748   4.069   1.748   4.200
  128MYC    C6525749   4.009   1.701   4.334
  128MYC    C6625750   4.048   1.792   4.451
  128MYC    C6725751   4.002   1.734   4.586
  128MYC    C6825752   4.057   1.799   4.714
  128MYC    C6925753   3.993   1.738   4.840
  128MYC    C7025754   4.015   1.813   4.972
  128MYC    C7125755   3.978   1.722   5.090
  128MYC    C7225756   3.974   1.792   5.227
  128MYC    C7325757   3.959   1.689   5.340
  128MYC    C7425758   3.969   1.749   5.481
  128MYC    C7525759   3.929   1.649   5.590
  128MYC    C7625760   3.875   1.709   5.721
  128MYC    C7725761   3.813   1.603   5.812
  128MYC    C7825762   3.760   1.661   5.945
  128MYC    C7925763   3.669   1.566   6.024
  128MYC    C8025764   3.589   1.627   6.140
  128MYC    C8125765   3.915   2.310   3.130
  128MYC    O8225766   3.906   2.431   3.137
  128MYC    O8325767   3.825   2.237   3.061
  128MYC     H125768   3.949   2.148   3.259
  128MYC     H225769   4.197   2.121   3.207
  128MYC     H325770   4.189   2.363   3.134
  128MYC     H425771   4.035   1.997   3.070
  128MYC     H525772   4.034   2.122   2.953
  128MYC     H625773   4.303   2.015   3.032
  128MYC     H725774   4.208   1.916   2.920
  128MYC     H825775   4.215   2.207   2.851
  128MYC     H925776   4.370   2.136   2.851
  128MYC   0H1025777   3.974   1.767   2.793
  128MYC   1H1025778   3.919   1.555   2.928
  128MYC   2H1025779   4.084   1.518   2.953
  128MYC   3H1025780   4.137   1.744   3.055
  128MYC   4H1025781   3.960   1.772   3.054
  128MYC   5H1025782   3.939   1.549   3.191
  128MYC   6H1025783   4.105   1.549   3.203
  128MYC   7H1025784   4.084   1.788   3.304
  128MYC   8H1025785   3.911   1.744   3.330
  128MYC   9H1025786   3.993   1.524   3.424
  128MYC    H1025787   4.261   1.952   2.695
  128MYC   0H1125788   4.155   1.591   3.422
  128MYC   1H1125789   3.918   1.684   3.594
  128MYC   2H1125790   4.207   1.805   3.570
  128MYC   3H1125791   4.072   1.869   3.675
  128MYC   4H1125792   4.191   1.572   3.690
  128MYC   5H1125793   3.947   1.686   3.819
  128MYC   6H1125794   4.027   1.526   3.852
  128MYC   7H1125795   4.216   1.660   3.955
  128MYC   8H1125796   4.118   1.800   3.953
  128MYC   9H1125797   3.929   1.653   4.065
  128MYC    H1125798   4.129   2.060   2.675
  128MYC   0H1225799   4.073   1.554   4.118
  128MYC   1H1225800   4.177   1.759   4.208
  128MYC   2H1225801   4.022   1.844   4.172
  128MYC   3H1225802   3.900   1.703   4.333
  128MYC   4H1225803   4.047   1.601   4.360
  128MYC   5H1225804   4.157   1.807   4.447
  128MYC   6H1225805   4.017   1.897   4.440
  128MYC   7H1225806   3.892   1.743   4.588
  128MYC   8H1225807   4.010   1.625   4.591
  128MYC   9H1225808   4.167   1.799   4.716
  128MYC    H1225809   4.319   2.243   2.607
  128MYC   0H1325810   4.044   1.908   4.709
  128MYC   1H1325811   3.884   1.727   4.831
  128MYC   2H1325812   4.040   1.639   4.850
  128MYC   3H1325813   4.121   1.842   4.975
  128MYC   4H1325814   3.951   1.902   4.975
  128MYC   5H1325815   3.881   1.676   5.069
  128MYC   6H1325816   4.051   1.641   5.095
  128MYC   7H1325817   4.056   1.858   5.260
  128MYC   8H1325818   3.880   1.849   5.228
  128MYC   9H1325819   3.864   1.637   5.326
  128MYC    H1325820   4.428   2.114   2.606
  128MYC   0H1425821   4.032   1.608   5.325
  128MYC   1H1425822   4.070   1.786   5.502
  128MYC   2H1425823   3.910   1.842   5.489
  128MYC   3H1425824   3.853   1.578   5.555
  128MYC   4H1425825   4.016   1.585   5.609
  128MYC   5H1425826   3.960   1.763   5.765
  128MYC   6H1425827   3.803   1.786   5.690
  128MYC   7H1425828   3.727   1.564   5.756
  128MYC   8H1425829   3.881   1.521   5.837
  128MYC   9H1425830   3.844   1.702   6.001
  128MYC    H1425831   4.356   2.014   2.411
  128MYC   0H1525832   3.694   1.745   5.921
  128MYC   1H1525833   3.602   1.517   5.952
  128MYC   2H1525834   3.734   1.485   6.061
  128MYC   3H1525835   3.515   1.699   6.103
  128MYC   4H1525836   3.654   1.680   6.210
  128MYC   5H1525837   3.541   1.550   6.201
  128MYC   6H1525838   3.758   2.304   3.038
  128MYC    H1525839   4.196   2.030   2.444
  128MYC    H1625840   4.225   2.293   2.434
  128MYC    H1725841   4.373   2.256   2.347
  128MYC    H1825842   4.088   2.175   2.258
  128MYC    H1925843   4.181   2.306   2.199
  128MYC    H2025844   4.359   2.128   2.118
  128MYC    H2125845   4.247   2.006   2.184
  128MYC    H2225846   4.069   2.119   2.038
  128MYC    H2325847   4.189   2.200   1.946
  128MYC    H2425848   4.301   1.952   1.935
  128MYC    H2525849   4.131   1.915   1.956
  128MYC    H2625850   4.099   2.111   1.768
  128MYC    H2725851   4.249   2.034   1.713
  128MYC    H2825852   3.977   1.895   1.763
  128MYC    H2925853   4.042   1.934   1.603
  128MYC    H3025854   4.252   1.779   1.719
  128MYC    H3125855   3.968   1.661   1.740
  128MYC    H3225856   4.207   1.633   1.537
  128MYC    H3325857   4.037   1.701   1.517
  128MYC    H3425858   4.132   2.383   3.308
  128MYC    H3525859   3.967   2.364   3.381
  128MYC    H3625860   4.017   2.151   3.483
  128MYC    H3725861   4.176   2.146   3.419
  128MYC    H3825862   4.251   2.337   3.548
  128MYC    H3925863   4.088   2.376   3.595
  128MYC    H4025864   4.064   2.156   3.707
  128MYC    H4125865   4.226   2.115   3.673
  128MYC    H4225866   4.324   2.298   3.811
  128MYC    H4325867   4.156   2.358   3.840
  128MYC    H4425868   4.107   2.151   3.954
  128MYC    H4525869   4.270   2.089   3.937
  128MYC    H4625870   4.340   2.216   4.112
  128MYC    H4725871   4.262   2.360   4.067
  128MYC    H4825872   4.051   2.308   4.162
  128MYC    H4925873   4.095   2.138   4.197
  128MYC    H5025874   4.288   2.264   4.352
  128MYC    H5125875   4.180   2.396   4.325
  128MYC    H5225876   3.993   2.263   4.422
  128MYC    H5325877   4.102   2.119   4.438
  128MYC    H5425878   4.216   2.217   4.628
  128MYC    H5525879   4.171   2.375   4.565
  128MYC    H5625880   3.955   2.360   4.671
  128MYC    H5725881   3.955   2.184   4.684
  128MYC    H5825882   4.164   2.230   4.846
  128MYC    H5925883   4.106   2.392   4.839
  128MYC    H6025884   3.875   2.299   4.926
  128MYC    H6125885   3.961   2.150   4.959
  128MYC    H6225886   4.132   2.276   5.084
  128MYC    H6325887   4.032   2.427   5.069
  128MYC    H6425888   3.837   2.315   5.175
  128MYC    H6525889   3.941   2.175   5.211
  128MYC    H6625890   4.076   2.322   5.357
  128MYC    H6725891   3.982   2.465   5.314
  128MYC    H6825892   3.776   2.345   5.400
  128MYC    H6925893   3.892   2.212   5.452
  128MYC    H7025894   4.032   2.360   5.573
  128MYC    H7125895   3.933   2.495   5.554
  128MYC    H7225896   3.744   2.360   5.683
  128MYC    H7325897   3.856   2.228   5.692
  128MYC    H7425898   4.013   2.403   5.817
  128MYC    H7525899   3.864   2.499   5.817
  128MYC    H7625900   3.747   2.334   5.953
  128MYC    H7725901   3.874   2.213   5.929
  128MYC    H7825902   4.025   2.392   6.066
  128MYC    H7925903   3.873   2.465   6.108
  128MYC    H8025904   3.909   2.313   6.285
  128MYC    H8125905   3.958   2.181   6.163
  128MYC    H8225906   3.792   2.231   6.189
  128MYC    H8325907   4.125   1.437   1.745
  128MYC    H8425908   4.232   1.538   1.830
  128MYC    H8525909   3.956   1.483   1.928
  128MYC    H8625910   4.100   1.407   1.994
  128MYC    H8725911   4.173   1.655   2.051
  128MYC    H8825912   4.010   1.696   2.001
  128MYC    H8925913   3.905   1.569   2.169
  128MYC    H9025914   4.037   1.470   2.204
  128MYC    H9125915   4.166   1.669   2.295
  128MYC    H9225916   4.029   1.773   2.285
  128MYC    H9325917   3.899   1.596   2.431
  128MYC    H9425918   4.036   1.501   2.434
  128MYC    H9525919   4.146   1.733   2.555
  128MYC    H9625920   3.978   1.772   2.567
  128MYC    H9725921   3.938   1.554   2.678
  128MYC    H9825922   4.117   1.527   2.678
  128MYC    H9925923   4.145   1.725   2.818
  129MYC     C125924   4.109   2.830   3.144
  129MYC     C225925   4.067   2.756   3.016
  129MYC     O325926   4.164   2.656   2.985
  129MYC     C425927   4.044   2.852   2.898
  129MYC     C525928   3.967   2.788   2.782
  129MYC     C625929   3.942   2.904   2.684
  129MYC     C725930   3.915   2.859   2.540
  129MYC     C825931   4.036   2.819   2.455
  129MYC     C925932   3.999   2.793   2.308
  129MYC    C1025933   4.114   2.721   2.236
  129MYC    C1125934   4.150   2.776   2.097
  129MYC    C1225935   4.057   2.724   1.985
  129MYC    C1325936   4.105   2.765   1.845
  129MYC    C1425937   4.000   2.739   1.735
  129MYC    C1525938   4.068   2.737   1.597
  129MYC    C1625939   3.992   2.657   1.490
  129MYC    C1725940   3.980   2.507   1.511
  129MYC    C1825941   3.876   2.433   1.591
  129MYC    C1925942   3.875   2.425   1.441
  129MYC    C2025943   4.129   2.733   3.261
  129MYC    C2125944   4.168   2.800   3.393
  129MYC    C2225945   4.171   2.710   3.517
  129MYC    C2325946   4.122   2.764   3.653
  129MYC    C2425947   4.163   2.687   3.780
  129MYC    C2525948   4.106   2.759   3.904
  129MYC    C2625949   4.145   2.690   4.035
  129MYC    C2725950   4.110   2.768   4.163
  129MYC    C2825951   4.170   2.712   4.293
  129MYC    C2925952   4.104   2.757   4.424
  129MYC    C3025953   4.165   2.693   4.549
  129MYC    C3125954   4.077   2.707   4.675
  129MYC    C3225955   4.168   2.703   4.798
  129MYC    C3325956   4.079   2.718   4.923
  129MYC    C3425957   4.160   2.705   5.053
  129MYC    C3525958   4.073   2.757   5.168
  129MYC    C3625959   4.158   2.777   5.295
  129MYC    C3725960   4.074   2.758   5.423
  129MYC    C3825961   4.159   2.719   5.545
  129MYC    C3925962   4.096   2.760   5.680
  129MYC    C4025963   4.189   2.711   5.792
  129MYC    C4125964   4.153   2.759   5.933
  129MYC    C4225965   4.224   2.671   6.037
  129MYC    C4325966   4.158   2.674   6.176
  129MYC    C4425967   3.907   2.313   1.681
  129MYC    C4525968   3.817   2.298   1.805
  129MYC    C4625969   3.863   2.382   1.925
  129MYC    C4725970   3.792   2.345   2.056
  129MYC    C4825971   3.813   2.429   2.183
  129MYC    C4925972   3.745   2.367   2.306
  129MYC    C5025973   3.753   2.460   2.428
  129MYC    C5125974   3.696   2.393   2.555
  129MYC    C5225975   3.724   2.480   2.678
  129MYC    C5325976   3.656   2.425   2.805
  129MYC    C5425977   3.668   2.522   2.923
  129MYC    C5525978   3.601   2.471   3.052
  129MYC    C5625979   3.629   2.577   3.160
  129MYC    C5725980   3.634   2.511   3.298
  129MYC    C5825981   3.665   2.608   3.411
  129MYC    C5925982   3.800   2.637   3.472
  129MYC    C6025983   3.703   2.546   3.543
  129MYC    C6125984   3.640   2.589   3.675
  129MYC    C6225985   3.712   2.526   3.796
  129MYC    C6325986   3.648   2.585   3.923
  129MYC    C6425987   3.708   2.512   4.044
  129MYC    C6525988   3.642   2.566   4.173
  129MYC    C6625989   3.702   2.508   4.302
  129MYC    C6725990   3.655   2.590   4.424
  129MYC    C6825991   3.730   2.561   4.555
  129MYC    C6925992   3.643   2.613   4.672
  129MYC    C7025993   3.710   2.580   4.806
  129MYC    C7125994   3.618   2.620   4.923
  129MYC    C7225995   3.686   2.601   5.059
  129MYC    C7325996   3.591   2.638   5.174
  129MYC    C7425997   3.676   2.667   5.299
  129MYC    C7525998   3.590   2.668   5.427
  129MYC    C7625999   3.662   2.724   5.550
  129MYC    C7726000   3.588   2.701   5.683
  129MYC    C7826001   3.648   2.777   5.803
  129MYC    C7926002   3.627   2.707   5.939
  129MYC    C8026003   3.696   2.792   6.047
  129MYC    C8126004   4.223   2.930   3.129
  129MYC    O8226005   4.211   3.050   3.144
  129MYC    O8326006   4.345   2.884   3.092
  129MYC     H126007   4.020   2.888   3.170
  129MYC     H226008   3.969   2.707   3.023
  129MYC     H326009   4.241   2.711   2.960
  129MYC     H426010   3.996   2.945   2.932
  129MYC     H526011   4.142   2.881   2.859
  129MYC     H626012   4.027   2.708   2.737
  129MYC     H726013   3.870   2.746   2.813
  129MYC     H826014   3.851   2.955   2.719
  129MYC     H926015   4.024   2.978   2.688
  129MYC   0H1026016   3.683   2.577   2.650
  129MYC   1H1026017   3.550   2.426   2.774
  129MYC   2H1026018   3.686   2.322   2.827
  129MYC   3H1026019   3.774   2.534   2.950
  129MYC   4H1026020   3.644   2.627   2.900
  129MYC   5H1026021   3.492   2.464   3.041
  129MYC   6H1026022   3.635   2.377   3.096
  129MYC   7H1026023   3.727   2.616   3.132
  129MYC   8H1026024   3.551   2.654   3.162
  129MYC   9H1026025   3.537   2.465   3.322
  129MYC    H1026026   3.842   2.777   2.534
  129MYC   0H1126027   3.708   2.430   3.293
  129MYC   1H1126028   3.605   2.699   3.412
  129MYC   2H1126029   3.882   2.601   3.410
  129MYC   3H1126030   3.816   2.738   3.506
  129MYC   4H1126031   3.731   2.441   3.545
  129MYC   5H1126032   3.634   2.697   3.690
  129MYC   6H1126033   3.540   2.545   3.674
  129MYC   7H1126034   3.697   2.417   3.801
  129MYC   8H1126035   3.820   2.543   3.797
  129MYC   9H1126036   3.671   2.691   3.938
  129MYC    H1126037   3.860   2.940   2.490
  129MYC   0H1226038   3.539   2.574   3.915
  129MYC   1H1226039   3.680   2.407   4.039
  129MYC   2H1226040   3.817   2.522   4.044
  129MYC   3H1226041   3.657   2.674   4.180
  129MYC   4H1226042   3.533   2.550   4.178
  129MYC   5H1226043   3.685   2.402   4.320
  129MYC   6H1226044   3.809   2.522   4.282
  129MYC   7H1226045   3.655   2.695   4.391
  129MYC   8H1226046   3.549   2.565   4.436
  129MYC   9H1226047   3.748   2.454   4.568
  129MYC    H1226048   4.112   2.898   2.457
  129MYC   0H1326049   3.826   2.614   4.556
  129MYC   1H1326050   3.609   2.717   4.665
  129MYC   2H1326051   3.549   2.557   4.671
  129MYC   3H1326052   3.749   2.477   4.810
  129MYC   4H1326053   3.801   2.641   4.809
  129MYC   5H1326054   3.583   2.723   4.906
  129MYC   6H1326055   3.532   2.552   4.919
  129MYC   7H1326056   3.728   2.503   5.088
  129MYC   8H1326057   3.774   2.665   5.050
  129MYC   9H1326058   3.538   2.731   5.150
  129MYC    H1326059   4.090   2.734   2.499
  129MYC   0H1426060   3.519   2.557   5.192
  129MYC   1H1426061   3.752   2.590   5.318
  129MYC   2H1426062   3.726   2.764   5.289
  129MYC   3H1426063   3.497   2.724   5.409
  129MYC   4H1426064   3.559   2.566   5.451
  129MYC   5H1426065   3.766   2.688   5.553
  129MYC   6H1426066   3.660   2.832   5.532
  129MYC   7H1426067   3.483   2.728   5.666
  129MYC   8H1426068   3.592   2.593   5.703
  129MYC   9H1426069   3.755   2.792   5.785
  129MYC    H1426070   3.915   2.722   2.307
  129MYC   0H1526071   3.609   2.879   5.807
  129MYC   1H1526072   3.525   2.682   5.969
  129MYC   2H1526073   3.685   2.614   5.935
  129MYC   3H1526074   3.642   2.886   6.063
  129MYC   4H1526075   3.802   2.809   6.024
  129MYC   5H1526076   3.692   2.732   6.139
  129MYC   6H1526077   4.400   2.964   3.084
  129MYC    H1526078   3.970   2.887   2.260
  129MYC    H1626079   4.204   2.723   2.298
  129MYC    H1726080   4.102   2.612   2.229
  129MYC    H1826081   4.153   2.885   2.099
  129MYC    H1926082   4.255   2.747   2.080
  129MYC    H2026083   4.061   2.615   1.991
  129MYC    H2126084   3.958   2.764   2.011
  129MYC    H2226085   4.117   2.874   1.847
  129MYC    H2326086   4.202   2.718   1.827
  129MYC    H2426087   3.948   2.645   1.757
  129MYC    H2526088   3.918   2.811   1.746
  129MYC    H2626089   4.090   2.840   1.567
  129MYC    H2726090   4.168   2.692   1.598
  129MYC    H2826091   3.894   2.702   1.472
  129MYC    H2926092   4.054   2.674   1.401
  129MYC    H3026093   4.070   2.449   1.495
  129MYC    H3126094   3.803   2.495   1.643
  129MYC    H3226095   3.900   2.330   1.393
  129MYC    H3326096   3.798   2.482   1.389
  129MYC    H3426097   4.032   2.684   3.275
  129MYC    H3526098   4.210   2.662   3.240
  129MYC    H3626099   4.267   2.845   3.376
  129MYC    H3726100   4.111   2.891   3.415
  129MYC    H3826101   4.114   2.617   3.503
  129MYC    H3926102   4.273   2.678   3.540
  129MYC    H4026103   4.168   2.864   3.654
  129MYC    H4126104   4.014   2.780   3.646
  129MYC    H4226105   4.131   2.582   3.779
  129MYC    H4326106   4.272   2.681   3.790
  129MYC    H4426107   4.135   2.865   3.904
  129MYC    H4526108   3.997   2.757   3.908
  129MYC    H4626109   4.099   2.591   4.046
  129MYC    H4726110   4.254   2.676   4.036
  129MYC    H4826111   4.134   2.874   4.154
  129MYC    H4926112   4.001   2.761   4.175
  129MYC    H5026113   4.173   2.603   4.282
  129MYC    H5126114   4.277   2.737   4.282
  129MYC    H5226115   4.114   2.866   4.429
  129MYC    H5326116   3.998   2.732   4.409
  129MYC    H5426117   4.183   2.586   4.535
  129MYC    H5526118   4.261   2.742   4.568
  129MYC    H5626119   4.012   2.795   4.673
  129MYC    H5726120   4.008   2.622   4.666
  129MYC    H5826121   4.229   2.613   4.810
  129MYC    H5926122   4.238   2.788   4.804
  129MYC    H6026123   4.040   2.820   4.913
  129MYC    H6126124   4.002   2.640   4.930
  129MYC    H6226125   4.189   2.600   5.070
  129MYC    H6326126   4.254   2.762   5.049
  129MYC    H6426127   4.011   2.844   5.144
  129MYC    H6526128   4.000   2.676   5.178
  129MYC    H6626129   4.243   2.708   5.286
  129MYC    H6726130   4.197   2.879   5.300
  129MYC    H6826131   4.026   2.854   5.444
  129MYC    H6926132   3.989   2.691   5.405
  129MYC    H7026133   4.188   2.614   5.545
  129MYC    H7126134   4.258   2.766   5.543
  129MYC    H7226135   4.096   2.869   5.676
  129MYC    H7326136   3.989   2.736   5.690
  129MYC    H7426137   4.194   2.602   5.784
  129MYC    H7526138   4.289   2.746   5.764
  129MYC    H7626139   4.183   2.863   5.951
  129MYC    H7726140   4.044   2.765   5.949
  129MYC    H7826141   4.230   2.570   5.995
  129MYC    H7926142   4.333   2.682   6.035
  129MYC    H8026143   4.195   2.581   6.221
  129MYC    H8126144   4.049   2.664   6.166
  129MYC    H8226145   4.184   2.756   6.245
  129MYC    H8326146   3.902   2.218   1.627
  129MYC    H8426147   4.012   2.319   1.711
  129MYC    H8526148   3.711   2.319   1.786
  129MYC    H8626149   3.814   2.193   1.836
  129MYC    H8726150   3.972   2.375   1.932
  129MYC    H8826151   3.840   2.488   1.909
  129MYC    H8926152   3.687   2.320   2.035
  129MYC    H9026153   3.842   2.251   2.082
  129MYC    H9126154   3.921   2.442   2.198
  129MYC    H9226155   3.771   2.529   2.163
  129MYC    H9326156   3.638   2.360   2.282
  129MYC    H9426157   3.779   2.265   2.329
  129MYC    H9526158   3.854   2.495   2.449
  129MYC    H9626159   3.698   2.552   2.406
  129MYC    H9726160   3.588   2.380   2.545
  129MYC    H9826161   3.736   2.290   2.562
  129MYC    H9926162   3.831   2.488   2.700
  130MYC     C126163   4.078   3.898   3.289
  130MYC     C226164   4.121   3.841   3.153
  130MYC     O326165   4.235   3.910   3.102
  130MYC     C426166   4.002   3.830   3.057
  130MYC     C526167   4.017   3.752   2.925
  130MYC     C626168   4.096   3.825   2.815
  130MYC     C726169   4.015   3.824   2.684
  130MYC     C826170   4.088   3.895   2.568
  130MYC     C926171   3.999   3.936   2.450
  130MYC    C1026172   4.093   3.955   2.330
  130MYC    C1126173   4.015   3.984   2.201
  130MYC    C1226174   4.072   3.952   2.062
  130MYC    C1326175   3.973   3.987   1.950
  130MYC    C1426176   3.964   3.870   1.850
  130MYC    C1526177   3.903   3.912   1.715
  130MYC    C1626178   3.855   3.789   1.636
  130MYC    C1726179   3.960   3.683   1.605
  130MYC    C1826180   3.974   3.572   1.706
  130MYC    C1926181   3.920   3.542   1.568
  130MYC    C2026182   4.182   3.874   3.400
  130MYC    C2126183   4.130   3.927   3.535
  130MYC    C2226184   4.217   3.878   3.652
  130MYC    C2326185   4.177   3.944   3.785
  130MYC    C2426186   4.243   3.888   3.912
  130MYC    C2526187   4.185   3.939   4.045
  130MYC    C2626188   4.263   3.887   4.167
  130MYC    C2726189   4.178   3.891   4.294
  130MYC    C2826190   4.253   3.853   4.423
  130MYC    C2926191   4.168   3.869   4.550
  130MYC    C3026192   4.243   3.818   4.674
  130MYC    C3126193   4.168   3.830   4.808
  130MYC    C3226194   4.261   3.812   4.929
  130MYC    C3326195   4.170   3.791   5.051
  130MYC    C3426196   4.233   3.828   5.187
  130MYC    C3526197   4.123   3.860   5.289
  130MYC    C3626198   4.178   3.841   5.431
  130MYC    C3726199   4.088   3.900   5.541
  130MYC    C3826200   4.152   3.863   5.675
  130MYC    C3926201   4.059   3.905   5.791
  130MYC    C4026202   4.115   3.873   5.930
  130MYC    C4126203   4.038   3.949   6.040
  130MYC    C4226204   4.075   3.906   6.183
  130MYC    C4326205   3.981   3.977   6.282
  130MYC    C4426206   4.107   3.513   1.748
  130MYC    C4526207   4.094   3.417   1.868
  130MYC    C4626208   4.086   3.491   2.002
  130MYC    C4726209   4.078   3.388   2.116
  130MYC    C4826210   4.071   3.455   2.255
  130MYC    C4926211   4.050   3.356   2.370
  130MYC    C5026212   4.018   3.415   2.509
  130MYC    C5126213   4.042   3.318   2.625
  130MYC    C5226214   3.970   3.365   2.752
  130MYC    C5326215   4.012   3.287   2.878
  130MYC    C5426216   3.940   3.327   3.007
  130MYC    C5526217   3.993   3.253   3.131
  130MYC    C5626218   3.957   3.313   3.267
  130MYC    C5726219   3.961   3.213   3.384
  130MYC    C5826220   3.907   3.264   3.517
  130MYC    C5926221   3.964   3.380   3.595
  130MYC    C6026222   3.981   3.239   3.647
  130MYC    C6126223   3.900   3.184   3.763
  130MYC    C6226224   3.951   3.230   3.901
  130MYC    C6326225   3.884   3.155   4.018
  130MYC    C6426226   3.915   3.227   4.150
  130MYC    C6526227   3.861   3.148   4.270
  130MYC    C6626228   3.921   3.196   4.404
  130MYC    C6726229   3.842   3.157   4.530
  130MYC    C6826230   3.909   3.216   4.655
  130MYC    C6926231   3.862   3.170   4.794
  130MYC    C7026232   3.970   3.197   4.900
  130MYC    C7126233   3.935   3.173   5.047
  130MYC    C7226234   4.027   3.248   5.145
  130MYC    C7326235   3.980   3.228   5.290
  130MYC    C7426236   4.065   3.316   5.384
  130MYC    C7526237   4.025   3.299   5.532
  130MYC    C7626238   4.131   3.362   5.623
  130MYC    C7726239   4.090   3.385   5.770
  130MYC    C7826240   4.210   3.381   5.867
  130MYC    C7926241   4.171   3.399   6.014
  130MYC    C8026242   4.285   3.378   6.115
  130MYC    C8126243   4.066   4.048   3.266
  130MYC    O8226244   4.152   4.132   3.284
  130MYC    O8326245   3.938   4.089   3.256
  130MYC     H126246   3.979   3.863   3.324
  130MYC     H226247   4.139   3.734   3.161
  130MYC     H326248   4.260   3.978   3.166
  130MYC     H426249   3.918   3.779   3.107
  130MYC     H526250   3.975   3.934   3.034
  130MYC     H626251   4.070   3.661   2.956
  130MYC     H726252   3.918   3.727   2.885
  130MYC     H826253   4.097   3.930   2.848
  130MYC     H926254   4.198   3.790   2.793
  130MYC   0H1026255   3.861   3.359   2.741
  130MYC   1H1026256   4.000   3.179   2.864
  130MYC   2H1026257   4.121   3.294   2.890
  130MYC   3H1026258   3.956   3.435   3.017
  130MYC   4H1026259   3.832   3.311   2.997
  130MYC   5H1026260   3.965   3.148   3.115
  130MYC   6H1026261   4.101   3.271   3.127
  130MYC   7H1026262   4.024   3.396   3.293
  130MYC   8H1026263   3.857   3.358   3.261
  130MYC   9H1026264   3.900   3.126   3.355
  130MYC    H1026265   4.003   3.721   2.649
  130MYC   0H1126266   4.064   3.175   3.388
  130MYC   1H1126267   3.799   3.257   3.515
  130MYC   2H1126268   4.063   3.418   3.569
  130MYC   3H1126269   3.891   3.447   3.640
  130MYC   4H1126270   4.086   3.213   3.643
  130MYC   5H1126271   3.793   3.210   3.765
  130MYC   6H1126272   3.912   3.076   3.753
  130MYC   7H1126273   4.059   3.217   3.916
  130MYC   8H1126274   3.924   3.335   3.918
  130MYC   9H1126275   3.775   3.159   4.009
  130MYC    H1126276   3.918   3.872   2.697
  130MYC   0H1226277   3.924   3.053   4.017
  130MYC   1H1226278   4.022   3.246   4.164
  130MYC   2H1226279   3.872   3.328   4.143
  130MYC   3H1226280   3.753   3.164   4.285
  130MYC   4H1226281   3.890   3.043   4.261
  130MYC   5H1226282   4.024   3.160   4.416
  130MYC   6H1226283   3.941   3.303   4.391
  130MYC   7H1226284   3.737   3.190   4.525
  130MYC   8H1226285   3.849   3.048   4.536
  130MYC   9H1226286   4.017   3.195   4.646
  130MYC    H1226287   4.137   3.985   2.605
  130MYC   0H1326288   3.914   3.325   4.653
  130MYC   1H1326289   3.771   3.228   4.817
  130MYC   2H1326290   3.842   3.062   4.795
  130MYC   3H1326291   4.066   3.147   4.881
  130MYC   4H1326292   4.003   3.302   4.891
  130MYC   5H1326293   3.831   3.207   5.059
  130MYC   6H1326294   3.946   3.066   5.066
  130MYC   7H1326295   4.131   3.216   5.133
  130MYC   8H1326296   4.015   3.354   5.123
  130MYC   9H1326297   3.879   3.271   5.297
  130MYC    H1326298   4.166   3.827   2.530
  130MYC   0H1426299   3.982   3.121   5.315
  130MYC   1H1426300   4.169   3.287   5.365
  130MYC   2H1426301   4.063   3.424   5.364
  130MYC   3H1426302   3.927   3.345   5.551
  130MYC   4H1426303   4.010   3.193   5.554
  130MYC   5H1426304   4.223   3.303   5.627
  130MYC   6H1426305   4.166   3.453   5.572
  130MYC   7H1426306   4.043   3.484   5.774
  130MYC   8H1426307   4.021   3.307   5.802
  130MYC   9H1426308   4.276   3.294   5.854
  130MYC    H1426309   3.925   3.858   2.426
  130MYC   0H1526310   4.266   3.470   5.836
  130MYC   1H1526311   4.148   3.505   6.025
  130MYC   2H1526312   4.074   3.353   6.039
  130MYC   3H1526313   4.330   3.475   6.143
  130MYC   4H1526314   4.359   3.309   6.073
  130MYC   5H1526315   4.248   3.330   6.206
  130MYC   6H1526316   3.944   4.185   3.237
  130MYC    H1526317   3.943   4.025   2.479
  130MYC    H1626318   4.153   4.044   2.354
  130MYC    H1726319   4.149   3.865   2.304
  130MYC    H1826320   3.920   3.930   2.209
  130MYC    H1926321   3.997   4.093   2.202
  130MYC    H2026322   4.161   4.015   2.049
  130MYC    H2126323   4.103   3.847   2.053
  130MYC    H2226324   3.876   4.028   1.979
  130MYC    H2326325   4.011   4.074   1.895
  130MYC    H2426326   4.060   3.820   1.836
  130MYC    H2526327   3.904   3.789   1.894
  130MYC    H2626328   3.819   3.979   1.737
  130MYC    H2726329   3.978   3.973   1.665
  130MYC    H2826330   3.765   3.746   1.683
  130MYC    H2926331   3.817   3.826   1.539
  130MYC    H3026332   4.043   3.728   1.550
  130MYC    H3126333   3.899   3.577   1.784
  130MYC    H3226334   3.977   3.494   1.489
  130MYC    H3326335   3.813   3.544   1.554
  130MYC    H3426336   4.201   3.767   3.412
  130MYC    H3526337   4.280   3.917   3.377
  130MYC    H3626338   4.129   4.037   3.533
  130MYC    H3726339   4.025   3.909   3.563
  130MYC    H3826340   4.219   3.769   3.657
  130MYC    H3926341   4.325   3.898   3.640
  130MYC    H4026342   4.188   4.052   3.771
  130MYC    H4126343   4.071   3.915   3.786
  130MYC    H4226344   4.250   3.779   3.906
  130MYC    H4326345   4.349   3.919   3.912
  130MYC    H4426346   4.191   4.048   4.044
  130MYC    H4526347   4.078   3.915   4.050
  130MYC    H4626348   4.302   3.784   4.158
  130MYC    H4726349   4.354   3.947   4.176
  130MYC    H4826350   4.148   3.997   4.301
  130MYC    H4926351   4.096   3.819   4.285
  130MYC    H5026352   4.289   3.749   4.420
  130MYC    H5126353   4.348   3.907   4.433
  130MYC    H5226354   4.131   3.972   4.560
  130MYC    H5326355   4.081   3.804   4.542
  130MYC    H5426356   4.256   3.710   4.661
  130MYC    H5526357   4.341   3.865   4.689
  130MYC    H5626358   4.124   3.930   4.818
  130MYC    H5726359   4.094   3.750   4.817
  130MYC    H5826360   4.315   3.717   4.922
  130MYC    H5926361   4.323   3.901   4.945
  130MYC    H6026362   4.083   3.857   5.037
  130MYC    H6126363   4.135   3.687   5.053
  130MYC    H6226364   4.297   3.750   5.230
  130MYC    H6326365   4.299   3.915   5.178
  130MYC    H6426366   4.088   3.961   5.266
  130MYC    H6526367   4.041   3.788   5.273
  130MYC    H6626368   4.202   3.735   5.448
  130MYC    H6726369   4.271   3.899   5.437
  130MYC    H6826370   4.073   4.008   5.526
  130MYC    H6926371   3.993   3.846   5.545
  130MYC    H7026372   4.174   3.756   5.676
  130MYC    H7126373   4.249   3.909   5.698
  130MYC    H7226374   4.041   4.013   5.793
  130MYC    H7326375   3.957   3.864   5.783
  130MYC    H7426376   4.103   3.765   5.942
  130MYC    H7526377   4.221   3.903   5.928
  130MYC    H7626378   4.038   4.057   6.022
  130MYC    H7726379   3.931   3.932   6.025
  130MYC    H7826380   4.064   3.796   6.184
  130MYC    H7926381   4.179   3.933   6.203
  130MYC    H8026382   3.940   3.910   6.360
  130MYC    H8126383   3.893   4.024   6.236
  130MYC    H8226384   4.035   4.053   6.339
  130MYC    H8326385   4.153   3.448   1.672
  130MYC    H8426386   4.182   3.589   1.771
  130MYC    H8526387   4.004   3.355   1.862
  130MYC    H8626388   4.179   3.348   1.865
  130MYC    H8726389   4.176   3.551   2.023
  130MYC    H8826390   3.994   3.551   2.001
  130MYC    H8926391   3.986   3.329   2.105
  130MYC    H9026392   4.168   3.326   2.109
  130MYC    H9126393   4.166   3.506   2.271
  130MYC    H9226394   3.994   3.533   2.245
  130MYC    H9326395   3.966   3.289   2.344
  130MYC    H9426396   4.143   3.297   2.377
  130MYC    H9526397   4.078   3.504   2.530
  130MYC    H9626398   3.914   3.450   2.510
  130MYC    H9726399   4.003   3.220   2.594
  130MYC    H9826400   4.151   3.312   2.640
  130MYC    H9926401   3.991   3.472   2.766
  131MYC     C126402   3.821   4.464   3.196
  131MYC     C226403   3.923   4.513   3.092
  131MYC     O326404   3.868   4.600   2.994
  131MYC     C426405   4.009   4.407   3.023
  131MYC     C526406   3.921   4.300   2.955
  131MYC     C626407   4.003   4.208   2.863
  131MYC     C726408   4.073   4.276   2.744
  131MYC     C826409   3.975   4.349   2.651
  131MYC     C926410   4.053   4.388   2.524
  131MYC    C1026411   3.983   4.503   2.450
  131MYC    C1126412   3.844   4.473   2.394
  131MYC    C1226413   3.854   4.402   2.257
  131MYC    C1326414   3.808   4.484   2.135
  131MYC    C1426415   3.836   4.425   1.996
  131MYC    C1526416   3.984   4.406   1.959
  131MYC    C1626417   4.020   4.390   1.811
  131MYC    C1726418   4.167   4.372   1.778
  131MYC    C1826419   4.235   4.253   1.714
  131MYC    C1926420   4.194   4.372   1.630
  131MYC    C2026421   3.839   4.544   3.326
  131MYC    C2126422   3.909   4.458   3.433
  131MYC    C2226423   3.936   4.526   3.569
  131MYC    C2326424   3.951   4.419   3.678
  131MYC    C2426425   3.980   4.482   3.816
  131MYC    C2526426   4.007   4.383   3.931
  131MYC    C2626427   3.990   4.442   4.072
  131MYC    C2726428   4.038   4.357   4.191
  131MYC    C2826429   4.023   4.439   4.321
  131MYC    C2926430   4.083   4.385   4.451
  131MYC    C3026431   4.067   4.478   4.573
  131MYC    C3126432   4.067   4.405   4.709
  131MYC    C3226433   4.022   4.491   4.827
  131MYC    C3326434   4.048   4.422   4.962
  131MYC    C3426435   4.012   4.505   5.087
  131MYC    C3526436   4.001   4.416   5.212
  131MYC    C3626437   3.971   4.484   5.346
  131MYC    C3726438   3.966   4.377   5.457
  131MYC    C3826439   3.941   4.451   5.590
  131MYC    C3926440   3.929   4.362   5.715
  131MYC    C4026441   3.913   4.440   5.846
  131MYC    C4126442   3.933   4.357   5.974
  131MYC    C4226443   3.892   4.424   6.106
  131MYC    C4326444   3.882   4.328   6.225
  131MYC    C4426445   4.381   4.212   1.712
  131MYC    C4526446   4.423   4.142   1.842
  131MYC    C4626447   4.410   4.228   1.969
  131MYC    C4726448   4.490   4.166   2.085
  131MYC    C4826449   4.466   4.253   2.209
  131MYC    C4926450   4.545   4.196   2.328
  131MYC    C5026451   4.491   4.272   2.451
  131MYC    C5126452   4.572   4.236   2.576
  131MYC    C5226453   4.482   4.218   2.699
  131MYC    C5326454   4.574   4.205   2.822
  131MYC    C5426455   4.492   4.159   2.945
  131MYC    C5526456   4.578   4.182   3.070
  131MYC    C5626457   4.514   4.140   3.204
  131MYC    C5726458   4.604   4.185   3.320
  131MYC    C5826459   4.541   4.148   3.454
  131MYC    C5926460   4.432   4.232   3.516
  131MYC    C6026461   4.565   4.218   3.585
  131MYC    C6126462   4.566   4.142   3.717
  131MYC    C6226463   4.495   4.209   3.836
  131MYC    C6326464   4.550   4.160   3.971
  131MYC    C6426465   4.471   4.223   4.087
  131MYC    C6526466   4.539   4.185   4.220
  131MYC    C6626467   4.442   4.203   4.338
  131MYC    C6726468   4.515   4.176   4.471
  131MYC    C6826469   4.444   4.238   4.592
  131MYC    C6926470   4.501   4.214   4.733
  131MYC    C7026471   4.418   4.256   4.855
  131MYC    C7126472   4.485   4.218   4.989
  131MYC    C7226473   4.409   4.254   5.118
  131MYC    C7326474   4.482   4.222   5.250
  131MYC    C7426475   4.392   4.263   5.367
  131MYC    C7526476   4.462   4.246   5.503
  131MYC    C7626477   4.364   4.273   5.618
  131MYC    C7726478   4.421   4.234   5.755
  131MYC    C7826479   4.324   4.249   5.873
  131MYC    C7926480   4.394   4.195   5.999
  131MYC    C8026481   4.305   4.218   6.123
  131MYC    C8126482   3.677   4.449   3.147
  131MYC    O8226483   3.637   4.462   3.033
  131MYC    O8326484   3.597   4.390   3.238
  131MYC     H126485   3.852   4.361   3.218
  131MYC     H226486   3.999   4.571   3.147
  131MYC     H326487   3.773   4.580   2.989
  131MYC     H426488   4.073   4.457   2.949
  131MYC     H526489   4.073   4.364   3.101
  131MYC     H626490   3.880   4.230   3.029
  131MYC     H726491   3.844   4.358   2.903
  131MYC     H826492   4.078   4.160   2.926
  131MYC     H926493   3.929   4.133   2.835
  131MYC   0H1026494   4.427   4.125   2.680
  131MYC   1H1026495   4.655   4.133   2.804
  131MYC   2H1026496   4.614   4.305   2.838
  131MYC   3H1026497   4.393   4.205   2.939
  131MYC   4H1026498   4.473   4.052   2.932
  131MYC   5H1026499   4.671   4.124   3.067
  131MYC   6H1026500   4.610   4.286   3.088
  131MYC   7H1026501   4.422   4.199   3.214
  131MYC   8H1026502   4.487   4.034   3.208
  131MYC   9H1026503   4.706   4.145   3.311
  131MYC    H1026504   4.158   4.334   2.782
  131MYC   0H1126505   4.619   4.294   3.317
  131MYC   1H1126506   4.522   4.041   3.455
  131MYC   2H1126507   4.401   4.320   3.460
  131MYC   3H1126508   4.351   4.183   3.569
  131MYC   4H1126509   4.623   4.309   3.580
  131MYC   5H1126510   4.522   4.042   3.720
  131MYC   6H1126511   4.672   4.134   3.746
  131MYC   7H1126512   4.504   4.319   3.833
  131MYC   8H1126513   4.386   4.197   3.827
  131MYC   9H1126514   4.545   4.051   3.973
  131MYC    H1126515   4.126   4.202   2.683
  131MYC   0H1226516   4.651   4.197   3.989
  131MYC   1H1226517   4.468   4.332   4.076
  131MYC   2H1226518   4.362   4.210   4.083
  131MYC   3H1226519   4.578   4.082   4.223
  131MYC   4H1226520   4.625   4.253   4.231
  131MYC   5H1226521   4.402   4.305   4.340
  131MYC   6H1226522   4.353   4.139   4.334
  131MYC   7H1226523   4.523   4.068   4.488
  131MYC   8H1226524   4.620   4.207   4.467
  131MYC   9H1226525   4.452   4.346   4.576
  131MYC    H1226526   3.885   4.292   2.622
  131MYC   0H1326527   4.335   4.224   4.589
  131MYC   1H1326528   4.517   4.105   4.731
  131MYC   2H1326529   4.599   4.263   4.736
  131MYC   3H1326530   4.401   4.364   4.863
  131MYC   4H1326531   4.320   4.205   4.854
  131MYC   5H1326532   4.492   4.108   4.985
  131MYC   6H1326533   4.588   4.253   4.992
  131MYC   7H1326534   4.392   4.362   5.114
  131MYC   8H1326535   4.314   4.199   5.118
  131MYC   9H1326536   4.500   4.114   5.249
  131MYC    H1326537   3.939   4.443   2.696
  131MYC   0H1426538   4.579   4.274   5.243
  131MYC   1H1426539   4.359   4.367   5.360
  131MYC   2H1426540   4.304   4.197   5.369
  131MYC   3H1426541   4.507   4.146   5.510
  131MYC   4H1426542   4.542   4.320   5.501
  131MYC   5H1426543   4.346   4.381   5.620
  131MYC   6H1426544   4.269   4.220   5.603
  131MYC   7H1426545   4.470   4.135   5.754
  131MYC   8H1426546   4.501   4.308   5.772
  131MYC   9H1426547   4.291   4.354   5.872
  131MYC    H1426548   4.151   4.430   2.548
  131MYC   0H1526549   4.244   4.182   5.839
  131MYC   1H1526550   4.410   4.087   5.987
  131MYC   2H1526551   4.496   4.231   6.015
  131MYC   3H1526552   4.281   4.325   6.131
  131MYC   4H1526553   4.371   4.190   6.206
  131MYC   5H1526554   4.220   4.148   6.117
  131MYC   6H1526555   3.517   4.371   3.187
  131MYC    H1526556   4.087   4.298   2.470
  131MYC    H1626557   3.981   4.596   2.507
  131MYC    H1726558   4.053   4.530   2.369
  131MYC    H1826559   3.778   4.422   2.465
  131MYC    H1926560   3.785   4.565   2.381
  131MYC    H2026561   3.953   4.356   2.243
  131MYC    H2126562   3.789   4.314   2.252
  131MYC    H2226563   3.699   4.489   2.139
  131MYC    H2326564   3.837   4.589   2.149
  131MYC    H2426565   3.798   4.322   1.992
  131MYC    H2526566   3.773   4.482   1.926
  131MYC    H2626567   4.034   4.498   1.993
  131MYC    H2726568   4.030   4.328   2.021
  131MYC    H2826569   3.964   4.303   1.774
  131MYC    H2926570   3.987   4.475   1.750
  131MYC    H3026571   4.229   4.428   1.848
  131MYC    H3126572   4.169   4.166   1.719
  131MYC    H3226573   4.267   4.447   1.601
  131MYC    H3326574   4.116   4.371   1.554
  131MYC    H3426575   3.895   4.638   3.318
  131MYC    H3526576   3.738   4.566   3.362
  131MYC    H3626577   3.850   4.368   3.454
  131MYC    H3726578   4.007   4.419   3.401
  131MYC    H3826579   4.028   4.586   3.562
  131MYC    H3926580   3.849   4.590   3.588
  131MYC    H4026581   3.863   4.355   3.684
  131MYC    H4126582   4.033   4.355   3.644
  131MYC    H4226583   4.074   4.539   3.814
  131MYC    H4326584   3.905   4.558   3.841
  131MYC    H4426585   3.943   4.295   3.916
  131MYC    H4526586   4.110   4.347   3.924
  131MYC    H4626587   4.045   4.536   4.086
  131MYC    H4726588   3.883   4.457   4.093
  131MYC    H4826589   3.974   4.268   4.188
  131MYC    H4926590   4.141   4.325   4.175
  131MYC    H5026591   4.071   4.535   4.298
  131MYC    H5126592   3.921   4.474   4.339
  131MYC    H5226593   4.024   4.295   4.471
  131MYC    H5326594   4.186   4.352   4.435
  131MYC    H5426595   4.153   4.547   4.580
  131MYC    H5526596   3.976   4.537   4.557
  131MYC    H5626597   4.021   4.305   4.706
  131MYC    H5726598   4.171   4.378   4.729
  131MYC    H5826599   4.080   4.584   4.817
  131MYC    H5926600   3.915   4.519   4.824
  131MYC    H6026601   3.998   4.325   4.967
  131MYC    H6126602   4.156   4.401   4.957
  131MYC    H6226603   4.083   4.588   5.089
  131MYC    H6326604   3.915   4.550   5.064
  131MYC    H6426605   3.922   4.340   5.200
  131MYC    H6526606   4.088   4.350   5.222
  131MYC    H6626607   4.051   4.556   5.365
  131MYC    H6726608   3.880   4.544   5.330
  131MYC    H6826609   3.888   4.302   5.442
  131MYC    H6926610   4.063   4.325   5.458
  131MYC    H7026611   4.018   4.527   5.609
  131MYC    H7126612   3.844   4.501   5.584
  131MYC    H7226613   3.844   4.294   5.699
  131MYC    H7326614   4.023   4.307   5.724
  131MYC    H7426615   3.981   4.525   5.840
  131MYC    H7526616   3.813   4.485   5.838
  131MYC    H7626617   3.881   4.261   5.965
  131MYC    H7726618   4.037   4.321   5.974
  131MYC    H7826619   3.970   4.495   6.137
  131MYC    H7926620   3.794   4.473   6.100
  131MYC    H8026621   3.913   4.388   6.312
  131MYC    H8126622   3.954   4.246   6.207
  131MYC    H8226623   3.786   4.282   6.249
  131MYC    H8326624   4.390   4.143   1.627
  131MYC    H8426625   4.444   4.297   1.684
  131MYC    H8526626   4.359   4.056   1.864
  131MYC    H8626627   4.525   4.101   1.836
  131MYC    H8726628   4.442   4.330   1.944
  131MYC    H8826629   4.306   4.239   2.005
  131MYC    H8926630   4.459   4.064   2.109
  131MYC    H9026631   4.597   4.161   2.062
  131MYC    H9126632   4.501   4.354   2.184
  131MYC    H9226633   4.359   4.260   2.232
  131MYC    H9326634   4.533   4.089   2.346
  131MYC    H9426635   4.651   4.224   2.318
  131MYC    H9526636   4.499   4.380   2.432
  131MYC    H9626637   4.384   4.248   2.457
  131MYC    H9726638   4.643   4.153   2.564
  131MYC    H9826639   4.640   4.322   2.589
  131MYC    H9926640   4.411   4.301   2.709
  132MYC     C126641   4.180   5.580   3.106
  132MYC     C226642   4.046   5.506   3.103
  132MYC     O326643   4.049   5.373   3.152
  132MYC     C426644   3.958   5.523   2.977
  132MYC     C526645   3.999   5.433   2.860
  132MYC     C626646   4.016   5.500   2.722
  132MYC     C726647   3.975   5.419   2.599
  132MYC     C826648   4.073   5.457   2.487
  132MYC     C926649   4.004   5.459   2.350
  132MYC    C1026650   4.107   5.464   2.236
  132MYC    C1126651   4.048   5.508   2.100
  132MYC    C1226652   3.937   5.414   2.053
  132MYC    C1326653   3.887   5.447   1.912
  132MYC    C1426654   3.799   5.341   1.842
  132MYC    C1526655   3.804   5.355   1.689
  132MYC    C1626656   3.740   5.231   1.623
  132MYC    C1726657   3.842   5.119   1.610
  132MYC    C1826658   3.821   4.976   1.655
  132MYC    C1926659   3.816   5.011   1.508
  132MYC    C2026660   4.255   5.550   3.237
  132MYC    C2126661   4.184   5.584   3.369
  132MYC    C2226662   4.281   5.599   3.488
  132MYC    C2326663   4.199   5.624   3.616
  132MYC    C2426664   4.279   5.600   3.745
  132MYC    C2526665   4.212   5.576   3.881
  132MYC    C2626666   4.296   5.554   4.008
  132MYC    C2726667   4.219   5.530   4.139
  132MYC    C2826668   4.311   5.535   4.262
  132MYC    C2926669   4.249   5.482   4.393
  132MYC    C3026670   4.318   5.508   4.528
  132MYC    C3126671   4.226   5.472   4.646
  132MYC    C3226672   4.296   5.481   4.782
  132MYC    C3326673   4.207   5.454   4.905
  132MYC    C3426674   4.269   5.495   5.040
  132MYC    C3526675   4.188   5.463   5.167
  132MYC    C3626676   4.261   5.465   5.302
  132MYC    C3726677   4.173   5.434   5.424
  132MYC    C3826678   4.226   5.499   5.553
  132MYC    C3926679   4.132   5.461   5.668
  132MYC    C4026680   4.183   5.515   5.803
  132MYC    C4126681   4.087   5.482   5.918
  132MYC    C4226682   4.143   5.525   6.055
  132MYC    C4326683   4.077   5.449   6.171
  132MYC    C4426684   3.934   4.886   1.703
  132MYC    C4526685   3.907   4.818   1.838
  132MYC    C4626686   3.879   4.920   1.950
  132MYC    C4726687   3.866   4.864   2.093
  132MYC    C4826688   3.814   4.960   2.202
  132MYC    C4926689   3.838   4.906   2.344
  132MYC    C5026690   3.793   4.992   2.464
  132MYC    C5126691   3.814   4.921   2.599
  132MYC    C5226692   3.763   5.016   2.709
  132MYC    C5326693   3.784   4.952   2.847
  132MYC    C5426694   3.740   5.038   2.967
  132MYC    C5526695   3.752   4.966   3.102
  132MYC    C5626696   3.721   5.060   3.219
  132MYC    C5726697   3.775   5.025   3.359
  132MYC    C5826698   3.738   5.116   3.475
  132MYC    C5926699   3.824   5.227   3.529
  132MYC    C6026700   3.814   5.096   3.603
  132MYC    C6126701   3.735   5.071   3.731
  132MYC    C6226702   3.831   5.061   3.852
  132MYC    C6326703   3.763   5.077   3.989
  132MYC    C6426704   3.874   5.076   4.096
  132MYC    C6526705   3.807   5.086   4.234
  132MYC    C6626706   3.909   5.092   4.349
  132MYC    C6726707   3.845   5.059   4.485
  132MYC    C6826708   3.945   5.051   4.602
  132MYC    C6926709   3.885   4.997   4.733
  132MYC    C7026710   3.999   4.964   4.830
  132MYC    C7126711   3.954   4.919   4.970
  132MYC    C7226712   4.065   4.919   5.076
  132MYC    C7326713   3.996   4.908   5.213
  132MYC    C7426714   4.095   4.903   5.331
  132MYC    C7526715   4.017   4.887   5.463
  132MYC    C7626716   4.103   4.883   5.590
  132MYC    C7726717   4.013   4.858   5.712
  132MYC    C7826718   4.087   4.873   5.846
  132MYC    C7926719   4.006   4.813   5.962
  132MYC    C8026720   4.020   4.883   6.098
  132MYC    C8126721   4.267   5.567   2.981
  132MYC    O8226722   4.349   5.480   2.959
  132MYC    O8326723   4.251   5.673   2.898
  132MYC     H126724   4.166   5.688   3.114
  132MYC     H226725   3.987   5.557   3.180
  132MYC     H326726   4.033   5.314   3.076
  132MYC     H426727   3.853   5.503   3.002
  132MYC     H526728   3.964   5.630   2.954
  132MYC     H626729   4.087   5.371   2.879
  132MYC     H726730   3.923   5.355   2.844
  132MYC     H826731   3.956   5.591   2.732
  132MYC     H926732   4.119   5.538   2.720
  132MYC   0H1026733   3.656   5.032   2.691
  132MYC   1H1026734   3.736   4.854   2.846
  132MYC   2H1026735   3.890   4.932   2.865
  132MYC   3H1026736   3.794   5.134   2.967
  132MYC   4H1026737   3.634   5.061   2.952
  132MYC   5H1026738   3.695   4.873   3.110
  132MYC   6H1026739   3.857   4.933   3.110
  132MYC   7H1026740   3.766   5.158   3.201
  132MYC   8H1026741   3.611   5.064   3.227
  132MYC   9H1026742   3.735   4.927   3.386
  132MYC    H1026743   3.984   5.311   2.619
  132MYC   0H1126744   3.884   5.010   3.354
  132MYC   1H1126745   3.632   5.132   3.495
  132MYC   2H1126746   3.925   5.243   3.492
  132MYC   3H1126747   3.777   5.311   3.581
  132MYC   4H1126748   3.903   5.034   3.599
  132MYC   5H1126749   3.664   5.153   3.740
  132MYC   6H1126750   3.673   4.981   3.725
  132MYC   7H1126751   3.874   4.961   3.842
  132MYC   8H1126752   3.922   5.122   3.846
  132MYC   9H1126753   3.704   5.169   3.998
  132MYC    H1126754   3.872   5.444   2.571
  132MYC   0H1226755   3.684   5.007   4.018
  132MYC   1H1226756   3.923   4.980   4.077
  132MYC   2H1226757   3.944   5.159   4.080
  132MYC   3H1226758   3.735   5.168   4.236
  132MYC   4H1226759   3.751   4.992   4.236
  132MYC   5H1226760   3.984   5.014   4.331
  132MYC   6H1226761   3.954   5.192   4.357
  132MYC   7H1226762   3.773   5.138   4.513
  132MYC   8H1226763   3.783   4.969   4.477
  132MYC   9H1226764   4.033   4.993   4.572
  132MYC    H1226765   4.112   5.559   2.498
  132MYC   0H1326766   3.972   5.154   4.626
  132MYC   1H1326767   3.803   5.057   4.774
  132MYC   2H1326768   3.836   4.900   4.714
  132MYC   3H1326769   4.064   4.884   4.791
  132MYC   4H1326770   4.057   5.057   4.841
  132MYC   5H1326771   3.881   4.996   5.000
  132MYC   6H1326772   3.914   4.817   4.966
  132MYC   7H1326773   4.136   4.836   5.063
  132MYC   8H1326774   4.119   5.014   5.068
  132MYC   9H1326775   3.933   4.994   5.242
  132MYC    H1326776   4.155   5.386   2.476
  132MYC   0H1426777   3.929   4.822   5.206
  132MYC   1H1426778   4.169   4.822   5.325
  132MYC   2H1426779   4.160   4.991   5.333
  132MYC   3H1426780   3.946   4.970   5.462
  132MYC   4H1426781   3.952   4.799   5.460
  132MYC   5H1426782   4.172   4.798   5.588
  132MYC   6H1426783   4.163   4.974   5.604
  132MYC   7H1426784   3.925   4.922   5.697
  132MYC   8H1426785   3.989   4.751   5.708
  132MYC   9H1426786   4.184   4.822   5.838
  132MYC    H1426787   3.941   5.370   2.343
  132MYC   0H1526788   4.121   4.975   5.870
  132MYC   1H1526789   3.899   4.810   5.939
  132MYC   2H1526790   4.036   4.708   5.965
  132MYC   3H1526791   3.984   4.987   6.092
  132MYC   4H1526792   4.127   4.898   6.118
  132MYC   5H1526793   3.965   4.830   6.177
  132MYC   6H1526794   4.303   5.660   2.817
  132MYC    H1526795   3.943   5.550   2.344
  132MYC    H1626796   4.191   5.530   2.260
  132MYC    H1726797   4.140   5.360   2.223
  132MYC    H1826798   4.011   5.611   2.107
  132MYC    H1926799   4.130   5.508   2.027
  132MYC    H2026800   3.985   5.315   2.056
  132MYC    H2126801   3.850   5.409   2.120
  132MYC    H2226802   3.817   5.531   1.912
  132MYC    H2326803   3.966   5.475   1.841
  132MYC    H2426804   3.847   5.245   1.867
  132MYC    H2526805   3.701   5.338   1.890
  132MYC    H2626806   3.751   5.446   1.658
  132MYC    H2726807   3.907   5.362   1.651
  132MYC    H2826808   3.651   5.197   1.677
  132MYC    H2926809   3.707   5.256   1.522
  132MYC    H3026810   3.947   5.147   1.604
  132MYC    H3126811   3.720   4.949   1.683
  132MYC    H3226812   3.895   4.964   1.450
  132MYC    H3326813   3.724   5.026   1.452
  132MYC    H3426814   4.291   5.447   3.245
  132MYC    H3526815   4.344   5.614   3.227
  132MYC    H3626816   4.124   5.676   3.361
  132MYC    H3726817   4.117   5.500   3.388
  132MYC    H3826818   4.336   5.505   3.492
  132MYC    H3926819   4.343   5.688   3.471
  132MYC    H4026820   4.162   5.727   3.615
  132MYC    H4126821   4.106   5.566   3.620
  132MYC    H4226822   4.335   5.508   3.727
  132MYC    H4326823   4.352   5.682   3.755
  132MYC    H4426824   4.134   5.650   3.901
  132MYC    H4526825   4.149   5.487   3.865
  132MYC    H4626826   4.368   5.474   3.987
  132MYC    H4726827   4.365   5.639   4.014
  132MYC    H4826828   4.157   5.620   4.149
  132MYC    H4926829   4.163   5.438   4.123
  132MYC    H5026830   4.403   5.477   4.243
  132MYC    H5126831   4.347   5.638   4.272
  132MYC    H5226832   4.148   5.522   4.406
  132MYC    H5326833   4.242   5.373   4.384
  132MYC    H5426834   4.407   5.445   4.539
  132MYC    H5526835   4.359   5.609   4.535
  132MYC    H5626836   4.142   5.542   4.653
  132MYC    H5726837   4.190   5.369   4.631
  132MYC    H5826838   4.381   5.411   4.785
  132MYC    H5926839   4.343   5.580   4.796
  132MYC    H6026840   4.107   5.498   4.903
  132MYC    H6126841   4.196   5.346   4.919
  132MYC    H6226842   4.368   5.449   5.043
  132MYC    H6326843   4.278   5.604   5.044
  132MYC    H6426844   4.094   5.521   5.164
  132MYC    H6526845   4.166   5.358   5.145
  132MYC    H6626846   4.339   5.389   5.287
  132MYC    H6726847   4.319   5.557   5.319
  132MYC    H6826848   4.068   5.462   5.412
  132MYC    H6926849   4.183   5.326   5.441
  132MYC    H7026850   4.326   5.455   5.564
  132MYC    H7126851   4.224   5.608   5.538
  132MYC    H7226852   4.027   5.490   5.655
  132MYC    H7326853   4.131   5.352   5.676
  132MYC    H7426854   4.277   5.465   5.827
  132MYC    H7526855   4.204   5.621   5.787
  132MYC    H7626856   3.982   5.509   5.902
  132MYC    H7726857   4.091   5.373   5.926
  132MYC    H7826858   4.250   5.500   6.060
  132MYC    H7926859   4.130   5.633   6.065
  132MYC    H8026860   4.109   5.490   6.268
  132MYC    H8126861   4.103   5.342   6.182
  132MYC    H8226862   3.968   5.453   6.174
  132MYC    H8326863   3.933   4.800   1.635
  132MYC    H8426864   4.038   4.921   1.691
  132MYC    H8526865   3.828   4.742   1.829
  132MYC    H8626866   4.000   4.770   1.870
  132MYC    H8726867   3.963   4.991   1.955
  132MYC    H8826868   3.788   4.977   1.932
  132MYC    H8926869   3.790   4.786   2.081
  132MYC    H9026870   3.964   4.820   2.116
  132MYC    H9126871   3.857   5.060   2.194
  132MYC    H9226872   3.705   4.962   2.199
  132MYC    H9326873   3.793   4.806   2.351
  132MYC    H9426874   3.941   4.878   2.368
  132MYC    H9526875   3.838   5.092   2.465
  132MYC    H9626876   3.687   5.012   2.446
  132MYC    H9726877   3.758   4.827   2.605
  132MYC    H9826878   3.922   4.904   2.612
  132MYC    H9926879   3.814   5.113   2.707
  133MYC     C126880   3.584   5.844   3.297
  133MYC     C226881   3.728   5.890   3.268
  133MYC     O326882   3.737   6.032   3.263
  133MYC     C426883   3.782   5.824   3.140
  133MYC     C526884   3.738   5.886   3.006
  133MYC     C626885   3.678   5.785   2.906
  133MYC     C726886   3.689   5.837   2.762
  133MYC     C826887   3.558   5.817   2.684
  133MYC     C926888   3.562   5.833   2.531
  133MYC    C1026889   3.420   5.853   2.474
  133MYC    C1126890   3.398   5.836   2.322
  133MYC    C1226891   3.514   5.879   2.231
  133MYC    C1326892   3.476   5.867   2.083
  133MYC    C1426893   3.594   5.846   1.986
  133MYC    C1526894   3.552   5.835   1.838
  133MYC    C1626895   3.667   5.791   1.746
  133MYC    C1726896   3.764   5.905   1.720
  133MYC    C1826897   3.912   5.886   1.693
  133MYC    C1926898   3.816   5.908   1.578
  133MYC    C2026899   3.536   5.865   3.442
  133MYC    C2126900   3.640   5.837   3.551
  133MYC    C2226901   3.574   5.853   3.690
  133MYC    C2326902   3.671   5.833   3.808
  133MYC    C2426903   3.586   5.839   3.936
  133MYC    C2526904   3.657   5.855   4.071
  133MYC    C2626905   3.565   5.828   4.191
  133MYC    C2726906   3.637   5.833   4.327
  133MYC    C2826907   3.536   5.823   4.442
  133MYC    C2926908   3.594   5.855   4.580
  133MYC    C3026909   3.509   5.836   4.707
  133MYC    C3126910   3.577   5.861   4.843
  133MYC    C3226911   3.485   5.835   4.963
  133MYC    C3326912   3.554   5.862   5.098
  133MYC    C3426913   3.467   5.829   5.221
  133MYC    C3526914   3.541   5.861   5.353
  133MYC    C3626915   3.471   5.794   5.472
  133MYC    C3726916   3.529   5.848   5.604
  133MYC    C3826917   3.463   5.770   5.720
  133MYC    C3926918   3.526   5.815   5.853
  133MYC    C4026919   3.461   5.746   5.974
  133MYC    C4126920   3.514   5.807   6.104
  133MYC    C4226921   3.421   5.777   6.222
  133MYC    C4326922   3.455   5.863   6.345
  133MYC    C4426923   4.021   5.986   1.728
  133MYC    C4526924   4.118   5.934   1.836
  133MYC    C4626925   4.042   5.920   1.969
  133MYC    C4726926   4.128   5.884   2.091
  133MYC    C4826927   4.060   5.916   2.225
  133MYC    C4926928   4.158   5.917   2.343
  133MYC    C5026929   4.091   5.895   2.480
  133MYC    C5126930   4.184   5.950   2.589
  133MYC    C5226931   4.109   5.952   2.723
  133MYC    C5326932   4.200   5.988   2.842
  133MYC    C5426933   4.122   5.963   2.972
  133MYC    C5526934   4.201   5.978   3.103
  133MYC    C5626935   4.109   5.983   3.226
  133MYC    C5726936   4.186   6.009   3.357
  133MYC    C5826937   4.098   5.997   3.481
  133MYC    C5926938   3.991   6.101   3.505
  133MYC    C6026939   4.108   6.089   3.600
  133MYC    C6126940   4.098   6.021   3.736
  133MYC    C6226941   4.085   6.125   3.850
  133MYC    C6326942   4.083   6.051   3.985
  133MYC    C6426943   4.020   6.141   4.093
  133MYC    C6526944   3.999   6.071   4.228
  133MYC    C6626945   3.906   6.153   4.319
  133MYC    C6726946   3.914   6.117   4.468
  133MYC    C6826947   3.831   6.214   4.555
  133MYC    C6926948   3.869   6.189   4.702
  133MYC    C7026949   3.770   6.239   4.809
  133MYC    C7126950   3.825   6.190   4.944
  133MYC    C7226951   3.756   6.244   5.070
  133MYC    C7326952   3.820   6.166   5.186
  133MYC    C7426953   3.759   6.204   5.322
  133MYC    C7526954   3.829   6.129   5.436
  133MYC    C7626955   3.763   6.167   5.570
  133MYC    C7726956   3.822   6.088   5.689
  133MYC    C7826957   3.787   6.135   5.831
  133MYC    C7926958   3.859   6.055   5.941
  133MYC    C8026959   3.832   6.097   6.086
  133MYC    C8126960   3.479   5.903   3.203
  133MYC    O8226961   3.477   6.017   3.160
  133MYC    O8326962   3.375   5.820   3.181
  133MYC     H126963   3.586   5.736   3.279
  133MYC     H226964   3.793   5.848   3.345
  133MYC     H326965   3.651   6.071   3.237
  133MYC     H426966   3.892   5.824   3.145
  133MYC     H526967   3.775   5.716   3.126
  133MYC     H626968   3.670   5.970   3.027
  133MYC     H726969   3.835   5.924   2.973
  133MYC     H826970   3.729   5.688   2.913
  133MYC     H926971   3.572   5.765   2.927
  133MYC   0H1026972   4.060   5.855   2.735
  133MYC   1H1026973   4.284   5.918   2.842
  133MYC   2H1026974   4.237   6.092   2.839
  133MYC   3H1026975   4.045   6.041   2.980
  133MYC   4H1026976   4.071   5.866   2.972
  133MYC   5H1026977   4.277   5.901   3.119
  133MYC   6H1026978   4.247   6.078   3.104
  133MYC   7H1026979   4.028   6.056   3.215
  133MYC   8H1026980   4.058   5.886   3.238
  133MYC   9H1026981   4.261   5.930   3.368
  133MYC    H1026982   3.711   5.944   2.768
  133MYC   0H1126983   4.249   6.098   3.362
  133MYC   1H1126984   4.071   5.893   3.496
  133MYC   2H1126985   3.997   6.198   3.456
  133MYC   3H1126986   3.894   6.071   3.543
  133MYC   4H1126987   4.195   6.153   3.593
  133MYC   5H1126988   4.019   5.945   3.738
  133MYC   6H1126989   4.186   5.958   3.750
  133MYC   7H1126990   4.174   6.189   3.846
  133MYC   8H1126991   3.990   6.177   3.830
  133MYC   9H1126992   4.018   5.963   3.984
  133MYC    H1126993   3.774   5.784   2.716
  133MYC   0H1226994   4.184   6.017   4.009
  133MYC   1H1226995   4.091   6.223   4.108
  133MYC   2H1226996   3.922   6.182   4.063
  133MYC   3H1226997   3.974   5.967   4.207
  133MYC   4H1226998   4.101   6.062   4.269
  133MYC   5H1226999   3.928   6.261   4.316
  133MYC   6H1227000   3.802   6.131   4.292
  133MYC   7H1227001   3.894   6.010   4.484
  133MYC   8H1227002   4.018   6.120   4.501
  133MYC   9H1227003   3.860   6.317   4.534
  133MYC    H1227004   3.517   5.719   2.712
  133MYC   0H1327005   3.725   6.198   4.531
  133MYC   1H1327006   3.883   6.082   4.720
  133MYC   2H1327007   3.959   6.247   4.724
  133MYC   3H1327008   3.760   6.348   4.798
  133MYC   4H1327009   3.673   6.189   4.802
  133MYC   5H1327010   3.820   6.081   4.931
  133MYC   6H1327011   3.932   6.211   4.948
  133MYC   7H1327012   3.764   6.351   5.091
  133MYC   8H1327013   3.650   6.216   5.062
  133MYC   9H1327014   3.807   6.059   5.165
  133MYC    H1327015   3.482   5.881   2.731
  133MYC   0H1427016   3.928   6.184   5.193
  133MYC   1H1427017   3.767   6.312   5.340
  133MYC   2H1427018   3.655   6.171   5.319
  133MYC   3H1427019   3.817   6.020   5.423
  133MYC   4H1427020   3.936   6.151   5.439
  133MYC   5H1427021   3.779   6.270   5.603
  133MYC   6H1427022   3.654   6.156   5.567
  133MYC   7H1427023   3.783   5.987   5.676
  133MYC   8H1427024   3.931   6.081   5.681
  133MYC   9H1427025   3.806   6.242   5.847
  133MYC    H1427026   3.619   5.917   2.490
  133MYC   0H1527027   3.680   6.120   5.852
  133MYC   1H1527028   3.828   5.950   5.930
  133MYC   2H1527029   3.968   6.062   5.926
  133MYC   3H1527030   3.737   6.055   6.122
  133MYC   4H1527031   3.835   6.206   6.097
  133MYC   5H1527032   3.915   6.064   6.149
  133MYC   6H1527033   3.301   5.878   3.157
  133MYC    H1527034   3.605   5.741   2.488
  133MYC    H1627035   3.343   5.797   2.528
  133MYC    H1727036   3.383   5.953   2.498
  133MYC    H1827037   3.389   5.727   2.312
  133MYC    H1927038   3.302   5.882   2.296
  133MYC    H2027039   3.538   5.985   2.245
  133MYC    H2127040   3.608   5.825   2.248
  133MYC    H2227041   3.414   5.779   2.060
  133MYC    H2327042   3.421   5.955   2.047
  133MYC    H2427043   3.663   5.929   2.005
  133MYC    H2527044   3.654   5.759   2.015
  133MYC    H2627045   3.470   5.763   1.830
  133MYC    H2727046   3.509   5.932   1.812
  133MYC    H2827047   3.709   5.698   1.787
  133MYC    H2927048   3.632   5.762   1.646
  133MYC    H3027049   3.734   5.996   1.771
  133MYC    H3127050   3.948   5.784   1.692
  133MYC    H3227051   3.816   6.006   1.530
  133MYC    H3327052   3.798   5.832   1.503
  133MYC    H3427053   3.488   5.963   3.453
  133MYC    H3527054   3.447   5.803   3.461
  133MYC    H3627055   3.671   5.732   3.546
  133MYC    H3727056   3.728   5.902   3.540
  133MYC    H3827057   3.528   5.951   3.705
  133MYC    H3927058   3.498   5.774   3.692
  133MYC    H4027059   3.725   5.738   3.792
  133MYC    H4127060   3.750   5.908   3.806
  133MYC    H4227061   3.512   5.920   3.935
  133MYC    H4327062   3.528   5.746   3.939
  133MYC    H4427063   3.730   5.773   4.076
  133MYC    H4527064   3.723   5.943   4.075
  133MYC    H4627065   3.478   5.895   4.188
  133MYC    H4727066   3.523   5.731   4.164
  133MYC    H4827067   3.720   5.761   4.331
  133MYC    H4927068   3.689   5.929   4.341
  133MYC    H5027069   3.452   5.891   4.425
  133MYC    H5127070   3.503   5.719   4.436
  133MYC    H5227071   3.683   5.794   4.598
  133MYC    H5327072   3.634   5.957   4.585
  133MYC    H5427073   3.429   5.911   4.712
  133MYC    H5527074   3.463   5.736   4.704
  133MYC    H5627075   3.660   5.789   4.853
  133MYC    H5727076   3.621   5.961   4.854
  133MYC    H5827077   3.401   5.904   4.950
  133MYC    H5927078   3.435   5.738   4.971
  133MYC    H6027079   3.638   5.794   5.113
  133MYC    H6127080   3.595   5.964   5.097
  133MYC    H6227081   3.374   5.884   5.205
  133MYC    H6327082   3.435   5.725   5.230
  133MYC    H6427083   3.646   5.831   5.352
  133MYC    H6527084   3.540   5.969   5.369
  133MYC    H6627085   3.362   5.792   5.464
  133MYC    H6727086   3.499   5.688   5.472
  133MYC    H6827087   3.638   5.843   5.613
  133MYC    H6927088   3.510   5.955   5.620
  133MYC    H7027089   3.355   5.789   5.718
  133MYC    H7127090   3.483   5.664   5.703
  133MYC    H7227091   3.636   5.809   5.855
  133MYC    H7327092   3.503   5.921   5.867
  133MYC    H7427093   3.354   5.771   5.976
  133MYC    H7527094   3.473   5.637   5.976
  133MYC    H7627095   3.609   5.759   6.134
  133MYC    H7727096   3.538   5.914   6.107
  133MYC    H7827097   3.316   5.794   6.194
  133MYC    H7927098   3.423   5.674   6.258
  133MYC    H8027099   3.385   5.851   6.429
  133MYC    H8127100   3.460   5.970   6.319
  133MYC    H8227101   3.555   5.845   6.386
  133MYC    H8327102   4.081   6.003   1.638
  133MYC    H8427103   3.973   6.082   1.752
  133MYC    H8527104   4.153   5.833   1.811
  133MYC    H8627105   4.200   6.006   1.832
  133MYC    H8727106   3.996   6.018   1.982
  133MYC    H8827107   3.973   5.835   1.956
  133MYC    H8927108   4.158   5.779   2.076
  133MYC    H9027109   4.218   5.945   2.079
  133MYC    H9127110   4.012   6.015   2.224
  133MYC    H9227111   3.975   5.849   2.244
  133MYC    H9327112   4.238   5.843   2.334
  133MYC    H9427113   4.204   6.017   2.348
  133MYC    H9527114   3.988   5.933   2.483
  133MYC    H9627115   4.080   5.786   2.490
  133MYC    H9727116   4.274   5.890   2.607
  133MYC    H9827117   4.211   6.054   2.568
  133MYC    H9927118   4.031   6.029   2.721
  134MYC     C127119   4.337   0.529   3.292
  134MYC     C227120   4.424   0.418   3.229
  134MYC     O327121   4.540   0.478   3.173
  134MYC     C427122   4.338   0.341   3.128
  134MYC     C527123   4.405   0.297   2.996
  134MYC     C627124   4.430   0.414   2.901
  134MYC     C727125   4.301   0.467   2.837
  134MYC     C827126   4.330   0.553   2.713
  134MYC     C927127   4.208   0.629   2.659
  134MYC    C1027128   4.215   0.667   2.511
  134MYC    C1127129   4.196   0.554   2.409
  134MYC    C1227130   4.327   0.537   2.331
  134MYC    C1327131   4.322   0.404   2.253
  134MYC    C1427132   4.466   0.367   2.215
  134MYC    C1527133   4.474   0.239   2.131
  134MYC    C1627134   4.615   0.177   2.130
  134MYC    C1727135   4.711   0.261   2.046
  134MYC    C1827136   4.844   0.207   2.000
  134MYC    C1927137   4.737   0.239   1.899
  134MYC    C2027138   4.393   0.587   3.424
  134MYC    C2127139   4.365   0.509   3.554
  134MYC    C2227140   4.371   0.607   3.672
  134MYC    C2327141   4.373   0.525   3.802
  134MYC    C2427142   4.378   0.610   3.930
  134MYC    C2527143   4.344   0.526   4.055
  134MYC    C2627144   4.384   0.591   4.188
  134MYC    C2727145   4.355   0.492   4.302
  134MYC    C2827146   4.368   0.559   4.440
  134MYC    C2927147   4.312   0.477   4.557
  134MYC    C3027148   4.324   0.551   4.692
  134MYC    C3127149   4.299   0.467   4.819
  134MYC    C3227150   4.261   0.553   4.941
  134MYC    C3327151   4.278   0.485   5.078
  134MYC    C3427152   4.237   0.570   5.200
  134MYC    C3527153   4.259   0.504   5.336
  134MYC    C3627154   4.177   0.574   5.446
  134MYC    C3727155   4.249   0.566   5.581
  134MYC    C3827156   4.154   0.620   5.689
  134MYC    C3927157   4.223   0.601   5.825
  134MYC    C4027158   4.135   0.643   5.944
  134MYC    C4127159   4.199   0.607   6.079
  134MYC    C4227160   4.097   0.646   6.187
  134MYC    C4327161   4.160   0.662   6.326
  134MYC    C4427162   4.970   0.293   2.001
  134MYC    C4527163   5.099   0.229   2.055
  134MYC    C4627164   5.092   0.169   2.196
  134MYC    C4727165   5.075   0.274   2.308
  134MYC    C4827166   5.102   0.222   2.450
  134MYC    C4927167   5.080   0.328   2.560
  134MYC    C5027168   5.093   0.273   2.703
  134MYC    C5127169   5.012   0.350   2.809
  134MYC    C5227170   5.026   0.286   2.948
  134MYC    C5327171   4.929   0.344   3.052
  134MYC    C5427172   4.926   0.260   3.181
  134MYC    C5527173   4.837   0.328   3.287
  134MYC    C5627174   4.848   0.270   3.429
  134MYC    C5727175   4.816   0.367   3.544
  134MYC    C5827176   4.857   0.310   3.679
  134MYC    C5927177   4.780   0.209   3.760
  134MYC    C6027178   4.778   0.355   3.800
  134MYC    C6127179   4.852   0.400   3.924
  134MYC    C6227180   4.780   0.349   4.050
  134MYC    C6327181   4.854   0.381   4.181
  134MYC    C6427182   4.801   0.305   4.304
  134MYC    C6527183   4.869   0.347   4.435
  134MYC    C6627184   4.844   0.253   4.554
  134MYC    C6727185   4.939   0.273   4.673
  134MYC    C6827186   4.913   0.180   4.794
  134MYC    C6927187   5.019   0.194   4.904
  134MYC    C7027188   4.988   0.105   5.026
  134MYC    C7127189   5.098   0.116   5.132
  134MYC    C7227190   5.067   0.044   5.264
  134MYC    C7327191   5.114   0.127   5.385
  134MYC    C7427192   5.073   0.069   5.522
  134MYC    C7527193   5.145   0.139   5.638
  134MYC    C7627194   5.085   0.105   5.776
  134MYC    C7727195   5.154   0.177   5.893
  134MYC    C7827196   5.097   0.137   6.031
  134MYC    C7927197   5.169   0.205   6.149
  134MYC    C8027198   5.141   0.116   6.272
  134MYC    C8127199   4.290   0.639   3.198
  134MYC    O8227200   4.364   0.706   3.128
  134MYC    O8327201   4.157   0.655   3.183
  134MYC     H127202   4.245   0.484   3.329
  134MYC     H227203   4.443   0.352   3.315
  134MYC     H327204   4.518   0.564   3.133
  134MYC     H427205   4.304   0.252   3.182
  134MYC     H527206   4.246   0.392   3.098
  134MYC     H627207   4.499   0.246   3.019
  134MYC     H727208   4.339   0.218   2.956
  134MYC     H827209   4.464   0.505   2.952
  134MYC     H927210   4.505   0.372   2.832
  134MYC   0H1027211   5.131   0.295   2.978
  134MYC   1H1027212   4.948   0.448   3.081
  134MYC   2H1027213   4.832   0.332   3.003
  134MYC   3H1027214   4.898   0.155   3.167
  134MYC   4H1027215   5.025   0.246   3.224
  134MYC   5H1027216   4.853   0.437   3.286
  134MYC   6H1027217   4.733   0.316   3.253
  134MYC   7H1027218   4.778   0.187   3.443
  134MYC   8H1027219   4.947   0.227   3.448
  134MYC   9H1027220   4.875   0.458   3.526
  134MYC    H1027221   4.238   0.387   2.795
  134MYC   0H1127222   4.708   0.380   3.550
  134MYC   1H1127223   4.964   0.293   3.682
  134MYC   2H1127224   4.702   0.163   3.701
  134MYC   3H1127225   4.828   0.140   3.829
  134MYC   4H1127226   4.689   0.413   3.778
  134MYC   5H1127227   4.954   0.359   3.921
  134MYC   6H1127228   4.863   0.509   3.920
  134MYC   7H1127229   4.683   0.400   4.056
  134MYC   8H1127230   4.761   0.242   4.039
  134MYC   9H1127231   4.957   0.346   4.166
  134MYC    H1127232   4.236   0.525   2.904
  134MYC   0H1227233   4.856   0.490   4.193
  134MYC   1H1227234   4.692   0.319   4.310
  134MYC   2H1227235   4.810   0.196   4.290
  134MYC   3H1227236   4.978   0.336   4.423
  134MYC   4H1227237   4.852   0.454   4.448
  134MYC   5H1227238   4.741   0.269   4.587
  134MYC   6H1227239   4.850   0.148   4.522
  134MYC   7H1227240   5.040   0.248   4.641
  134MYC   8H1227241   4.944   0.379   4.699
  134MYC   9H1227242   4.811   0.196   4.831
  134MYC    H1227243   4.403   0.630   2.741
  134MYC   0H1327244   4.920   0.078   4.755
  134MYC   1H1327245   5.113   0.152   4.867
  134MYC   2H1327246   5.025   0.301   4.928
  134MYC   3H1327247   4.892   0.138   5.068
  134MYC   4H1327248   4.991   0.001   4.993
  134MYC   5H1327249   5.195   0.083   5.092
  134MYC   6H1327250   5.113   0.220   5.164
  134MYC   7H1327251   4.958   0.042   5.275
  134MYC   8H1327252   5.110  -0.056   5.255
  134MYC   9H1327253   5.222   0.140   5.375
  134MYC    H1327254   4.375   0.490   2.635
  134MYC   0H1427255   5.061   0.222   5.367
  134MYC   1H1427256   4.965   0.085   5.526
  134MYC   2H1427257   5.096  -0.037   5.511
  134MYC   3H1427258   5.251   0.112   5.639
  134MYC   4H1427259   5.147   0.247   5.617
  134MYC   5H1427260   4.978   0.129   5.774
  134MYC   6H1427261   5.091  -0.004   5.782
  134MYC   7H1427262   5.261   0.156   5.888
  134MYC   8H1427263   5.141   0.285   5.877
  134MYC   9H1427264   4.994   0.169   6.049
  134MYC    H1427265   4.125   0.558   2.666
  134MYC   0H1527266   5.091   0.029   6.044
  134MYC   1H1527267   5.278   0.211   6.134
  134MYC   2H1527268   5.143   0.309   6.170
  134MYC   3H1527269   5.160   0.010   6.255
  134MYC   4H1527270   5.036   0.130   6.301
  134MYC   5H1527271   5.197   0.147   6.361
  134MYC   6H1527272   4.151   0.718   3.109
  134MYC    H1527273   4.170   0.708   2.724
  134MYC    H1627274   4.132   0.735   2.489
  134MYC    H1727275   4.305   0.729   2.498
  134MYC    H1827276   4.162   0.467   2.466
  134MYC    H1927277   4.108   0.584   2.350
  134MYC    H2027278   4.328   0.618   2.256
  134MYC    H2127279   4.419   0.531   2.390
  134MYC    H2227280   4.280   0.320   2.309
  134MYC    H2327281   4.265   0.414   2.160
  134MYC    H2427282   4.522   0.451   2.170
  134MYC    H2527283   4.520   0.352   2.309
  134MYC    H2627284   4.409   0.169   2.186
  134MYC    H2727285   4.430   0.256   2.032
  134MYC    H2827286   4.649   0.167   2.233
  134MYC    H2927287   4.609   0.075   2.090
  134MYC    H3027288   4.709   0.365   2.075
  134MYC    H3127289   4.862   0.100   2.010
  134MYC    H3227290   4.758   0.323   1.834
  134MYC    H3327291   4.691   0.151   1.855
  134MYC    H3427292   4.498   0.618   3.418
  134MYC    H3527293   4.337   0.680   3.440
  134MYC    H3627294   4.264   0.467   3.550
  134MYC    H3727295   4.432   0.424   3.568
  134MYC    H3827296   4.461   0.670   3.669
  134MYC    H3927297   4.281   0.671   3.670
  134MYC    H4027298   4.283   0.463   3.796
  134MYC    H4127299   4.455   0.452   3.807
  134MYC    H4227300   4.482   0.638   3.948
  134MYC    H4327301   4.322   0.704   3.927
  134MYC    H4427302   4.239   0.494   4.051
  134MYC    H4527303   4.398   0.431   4.042
  134MYC    H4627304   4.490   0.617   4.179
  134MYC    H4727305   4.332   0.684   4.215
  134MYC    H4827306   4.255   0.448   4.291
  134MYC    H4927307   4.424   0.406   4.307
  134MYC    H5027308   4.471   0.593   4.461
  134MYC    H5127309   4.306   0.649   4.444
  134MYC    H5227310   4.205   0.461   4.536
  134MYC    H5327311   4.366   0.382   4.557
  134MYC    H5427312   4.425   0.595   4.693
  134MYC    H5527313   4.262   0.640   4.683
  134MYC    H5627314   4.211   0.404   4.801
  134MYC    H5727315   4.389   0.417   4.856
  134MYC    H5827316   4.334   0.633   4.933
  134MYC    H5927317   4.166   0.608   4.931
  134MYC    H6027318   4.204   0.404   5.081
  134MYC    H6127319   4.382   0.452   5.086
  134MYC    H6227320   4.304   0.658   5.194
  134MYC    H6327321   4.131   0.598   5.196
  134MYC    H6427322   4.229   0.400   5.319
  134MYC    H6527323   4.365   0.511   5.361
  134MYC    H6627324   4.149   0.675   5.413
  134MYC    H6727325   4.078   0.526   5.455
  134MYC    H6827326   4.286   0.470   5.617
  134MYC    H6927327   4.335   0.635   5.574
  134MYC    H7027328   4.131   0.725   5.666
  134MYC    H7127329   4.063   0.559   5.690
  134MYC    H7227330   4.246   0.497   5.849
  134MYC    H7327331   4.323   0.647   5.825
  134MYC    H7427332   4.118   0.751   5.941
  134MYC    H7527333   4.035   0.597   5.946
  134MYC    H7627334   4.224   0.500   6.084
  134MYC    H7727335   4.286   0.674   6.091
  134MYC    H7827336   4.047   0.740   6.163
  134MYC    H7927337   4.024   0.563   6.183
  134MYC    H8027338   4.098   0.698   6.409
  134MYC    H8127339   4.251   0.723   6.330
  134MYC    H8227340   4.182   0.560   6.359
  134MYC    H8327341   4.994   0.306   1.895
  134MYC    H8427342   4.947   0.389   2.049
  134MYC    H8527343   5.139   0.146   1.995
  134MYC    H8627344   5.184   0.299   2.054
  134MYC    H8727345   5.012   0.095   2.210
  134MYC    H8827346   5.187   0.117   2.215
  134MYC    H8927347   5.150   0.349   2.281
  134MYC    H9027348   4.974   0.314   2.299
  134MYC    H9127349   5.033   0.137   2.455
  134MYC    H9227350   5.204   0.181   2.454
  134MYC    H9327351   5.159   0.404   2.551
  134MYC    H9427352   4.982   0.372   2.540
  134MYC    H9527353   5.068   0.167   2.712
  134MYC    H9627354   5.201   0.273   2.723
  134MYC    H9727355   5.058   0.449   2.810
  134MYC    H9827356   4.908   0.359   2.776
  134MYC    H9927357   5.000   0.180   2.936
  135MYC     C127358   4.988   1.640   3.201
  135MYC     C227359   5.010   1.497   3.150
  135MYC     O327360   5.145   1.465   3.182
  135MYC     C427361   4.972   1.479   3.002
  135MYC     C527362   4.923   1.337   2.972
  135MYC     C627363   4.974   1.286   2.836
  135MYC     C727364   4.909   1.345   2.710
  135MYC     C827365   4.987   1.303   2.584
  135MYC     C927366   4.924   1.363   2.457
  135MYC    C1027367   5.022   1.363   2.339
  135MYC    C1127368   4.964   1.409   2.204
  135MYC    C1227369   4.941   1.290   2.109
  135MYC    C1327370   4.946   1.321   1.958
  135MYC    C1427371   4.907   1.203   1.867
  135MYC    C1527372   4.934   1.237   1.720
  135MYC    C1627373   4.836   1.172   1.620
  135MYC    C1727374   4.840   1.020   1.633
  135MYC    C1827375   4.716   0.933   1.636
  135MYC    C1927376   4.800   0.940   1.511
  135MYC    C2027377   5.022   1.658   3.350
  135MYC    C2127378   4.974   1.549   3.447
  135MYC    C2227379   5.001   1.574   3.597
  135MYC    C2327380   4.941   1.455   3.674
  135MYC    C2427381   4.986   1.459   3.821
  135MYC    C2527382   4.942   1.341   3.910
  135MYC    C2627383   4.971   1.370   4.058
  135MYC    C2727384   4.887   1.283   4.153
  135MYC    C2827385   4.925   1.318   4.298
  135MYC    C2927386   4.848   1.233   4.402
  135MYC    C3027387   4.906   1.267   4.540
  135MYC    C3127388   4.814   1.214   4.651
  135MYC    C3227389   4.881   1.208   4.789
  135MYC    C3327390   4.790   1.172   4.907
  135MYC    C3427391   4.843   1.185   5.051
  135MYC    C3527392   4.737   1.180   5.162
  135MYC    C3627393   4.804   1.178   5.300
  135MYC    C3727394   4.718   1.179   5.427
  135MYC    C3827395   4.793   1.195   5.560
  135MYC    C3927396   4.701   1.204   5.683
  135MYC    C4027397   4.782   1.207   5.814
  135MYC    C4127398   4.704   1.220   5.946
  135MYC    C4227399   4.804   1.214   6.063
  135MYC    C4327400   4.741   1.221   6.203
  135MYC    C4427401   4.724   0.797   1.706
  135MYC    C4527402   4.636   0.792   1.832
  135MYC    C4627403   4.665   0.897   1.941
  135MYC    C4727404   4.649   0.833   2.079
  135MYC    C4827405   4.691   0.928   2.193
  135MYC    C4927406   4.681   0.861   2.331
  135MYC    C5027407   4.716   0.947   2.454
  135MYC    C5127408   4.692   0.864   2.581
  135MYC    C5227409   4.746   0.935   2.705
  135MYC    C5327410   4.753   0.838   2.824
  135MYC    C5427411   4.768   0.912   2.958
  135MYC    C5527412   4.741   0.822   3.080
  135MYC    C5627413   4.751   0.895   3.215
  135MYC    C5727414   4.693   0.811   3.330
  135MYC    C5827415   4.715   0.878   3.465
  135MYC    C5927416   4.838   0.842   3.545
  135MYC    C6027417   4.701   0.810   3.598
  135MYC    C6127418   4.661   0.866   3.734
  135MYC    C6227419   4.714   0.801   3.863
  135MYC    C6327420   4.671   0.866   3.995
  135MYC    C6427421   4.744   0.801   4.114
  135MYC    C6527422   4.701   0.856   4.251
  135MYC    C6627423   4.757   0.765   4.363
  135MYC    C6727424   4.727   0.826   4.501
  135MYC    C6827425   4.770   0.745   4.625
  135MYC    C6927426   4.697   0.758   4.759
  135MYC    C7027427   4.746   0.662   4.869
  135MYC    C7127428   4.655   0.666   4.993
  135MYC    C7227429   4.732   0.705   5.121
  135MYC    C7327430   4.640   0.702   5.243
  135MYC    C7427431   4.726   0.733   5.367
  135MYC    C7527432   4.633   0.716   5.488
  135MYC    C7627433   4.683   0.790   5.613
  135MYC    C7727434   4.605   0.745   5.737
  135MYC    C7827435   4.670   0.772   5.874
  135MYC    C7927436   4.618   0.674   5.980
  135MYC    C8027437   4.674   0.717   6.117
  135MYC    C8127438   5.069   1.747   3.128
  135MYC    O8227439   5.167   1.717   3.062
  135MYC    O8327440   5.013   1.870   3.124
  135MYC     H127441   4.880   1.652   3.188
  135MYC     H227442   4.939   1.428   3.197
  135MYC     H327443   5.191   1.538   3.228
  135MYC     H427444   4.898   1.554   2.971
  135MYC     H527445   5.064   1.502   2.946
  135MYC     H627446   4.958   1.268   3.050
  135MYC     H727447   4.814   1.331   2.983
  135MYC     H827448   5.082   1.303   2.833
  135MYC     H927449   4.967   1.176   2.836
  135MYC   0H1027450   4.676   1.015   2.731
  135MYC   1H1027451   4.664   0.774   2.814
  135MYC   2H1027452   4.841   0.774   2.808
  135MYC   3H1027453   4.868   0.958   2.964
  135MYC   4H1027454   4.687   0.986   2.958
  135MYC   5H1027455   4.651   0.761   3.064
  135MYC   6H1027456   4.823   0.750   3.070
  135MYC   7H1027457   4.859   0.909   3.223
  135MYC   8H1027458   4.702   0.993   3.202
  135MYC   9H1027459   4.585   0.801   3.317
  135MYC    H1027460   4.805   1.311   2.700
  135MYC   0H1127461   4.732   0.708   3.340
  135MYC   1H1127462   4.686   0.983   3.467
  135MYC   2H1127463   4.897   0.758   3.506
  135MYC   3H1127464   4.897   0.923   3.587
  135MYC   4H1127465   4.666   0.708   3.582
  135MYC   5H1127466   4.696   0.970   3.745
  135MYC   6H1127467   4.552   0.867   3.740
  135MYC   7H1127468   4.703   0.692   3.868
  135MYC   8H1127469   4.824   0.806   3.859
  135MYC   9H1127470   4.695   0.972   3.982
  135MYC    H1127471   4.913   1.454   2.722
  135MYC   0H1227472   4.564   0.848   4.007
  135MYC   1H1227473   4.728   0.693   4.118
  135MYC   2H1227474   4.852   0.821   4.101
  135MYC   3H1227475   4.739   0.959   4.251
  135MYC   4H1227476   4.592   0.855   4.257
  135MYC   5H1227477   4.718   0.664   4.347
  135MYC   6H1227478   4.866   0.762   4.355
  135MYC   7H1227479   4.774   0.924   4.513
  135MYC   8H1227480   4.617   0.828   4.502
  135MYC   9H1227481   4.769   0.643   4.585
  135MYC    H1227482   5.093   1.333   2.591
  135MYC   0H1327483   4.871   0.769   4.660
  135MYC   1H1327484   4.720   0.854   4.806
  135MYC   2H1327485   4.588   0.752   4.748
  135MYC   3H1327486   4.731   0.560   4.832
  135MYC   4H1327487   4.852   0.682   4.891
  135MYC   5H1327488   4.581   0.746   4.978
  135MYC   6H1327489   4.610   0.568   5.011
  135MYC   7H1327490   4.819   0.639   5.128
  135MYC   8H1327491   4.771   0.806   5.104
  135MYC   9H1327492   4.567   0.782   5.230
  135MYC    H1327493   4.976   1.195   2.572
  135MYC   0H1427494   4.600   0.600   5.256
  135MYC   1H1427495   4.817   0.674   5.381
  135MYC   2H1427496   4.762   0.836   5.361
  135MYC   3H1427497   4.536   0.762   5.464
  135MYC   4H1427498   4.620   0.608   5.502
  135MYC   5H1427499   4.790   0.770   5.631
  135MYC   6H1427500   4.675   0.899   5.600
  135MYC   7H1427501   4.507   0.795   5.736
  135MYC   8H1427502   4.586   0.638   5.726
  135MYC   9H1427503   4.779   0.769   5.865
  135MYC    H1427504   4.824   1.323   2.436
  135MYC   0H1527505   4.633   0.869   5.910
  135MYC   1H1527506   4.509   0.674   5.971
  135MYC   2H1527507   4.653   0.573   5.957
  135MYC   3H1527508   4.634   0.814   6.149
  135MYC   4H1527509   4.782   0.722   6.099
  135MYC   5H1527510   4.656   0.648   6.200
  135MYC   6H1527511   5.084   1.915   3.075
  135MYC    H1527512   4.895   1.468   2.473
  135MYC    H1627513   5.095   1.441   2.365
  135MYC    H1727514   5.074   1.267   2.338
  135MYC    H1827515   4.871   1.466   2.211
  135MYC    H1927516   5.027   1.480   2.148
  135MYC    H2027517   5.015   1.210   2.127
  135MYC    H2127518   4.847   1.241   2.138
  135MYC    H2227519   4.884   1.408   1.931
  135MYC    H2327520   5.050   1.338   1.930
  135MYC    H2427521   4.965   1.112   1.887
  135MYC    H2527522   4.799   1.187   1.876
  135MYC    H2627523   4.921   1.343   1.699
  135MYC    H2727524   5.039   1.209   1.705
  135MYC    H2827525   4.740   1.221   1.640
  135MYC    H2927526   4.860   1.210   1.520
  135MYC    H3027527   4.922   0.973   1.685
  135MYC    H3127528   4.619   0.979   1.620
  135MYC    H3227529   4.871   0.861   1.485
  135MYC    H3327530   4.759   0.981   1.420
  135MYC    H3427531   5.131   1.656   3.357
  135MYC    H3527532   4.993   1.760   3.379
  135MYC    H3627533   4.868   1.527   3.426
  135MYC    H3727534   5.026   1.456   3.423
  135MYC    H3827535   5.109   1.570   3.611
  135MYC    H3927536   4.951   1.665   3.631
  135MYC    H4027537   4.832   1.457   3.664
  135MYC    H4127538   4.977   1.361   3.630
  135MYC    H4227539   5.095   1.473   3.824
  135MYC    H4327540   4.952   1.552   3.869
  135MYC    H4427541   4.833   1.338   3.896
  135MYC    H4527542   4.983   1.247   3.872
  135MYC    H4627543   5.076   1.356   4.086
  135MYC    H4727544   4.959   1.475   4.088
  135MYC    H4827545   4.783   1.311   4.130
  135MYC    H4927546   4.889   1.177   4.126
  135MYC    H5027547   5.031   1.307   4.322
  135MYC    H5127548   4.907   1.424   4.317
  135MYC    H5227549   4.747   1.274   4.395
  135MYC    H5327550   4.854   1.124   4.389
  135MYC    H5427551   5.011   1.236   4.550
  135MYC    H5527552   4.911   1.377   4.545
  135MYC    H5627553   4.717   1.263   4.663
  135MYC    H5727554   4.783   1.108   4.644
  135MYC    H5827555   4.969   1.143   4.775
  135MYC    H5927556   4.917   1.308   4.815
  135MYC    H6027557   4.702   1.237   4.897
  135MYC    H6127558   4.755   1.069   4.895
  135MYC    H6227559   4.907   1.099   5.074
  135MYC    H6327560   4.903   1.276   5.065
  135MYC    H6427561   4.678   1.272   5.158
  135MYC    H6527562   4.666   1.098   5.144
  135MYC    H6627563   4.862   1.085   5.304
  135MYC    H6727564   4.870   1.266   5.311
  135MYC    H6827565   4.643   1.258   5.412
  135MYC    H6927566   4.662   1.084   5.431
  135MYC    H7027567   4.860   1.108   5.567
  135MYC    H7127568   4.856   1.285   5.562
  135MYC    H7227569   4.651   1.301   5.672
  135MYC    H7327570   4.621   1.130   5.685
  135MYC    H7427571   4.851   1.122   5.814
  135MYC    H7527572   4.854   1.288   5.804
  135MYC    H7627573   4.654   1.317   5.955
  135MYC    H7727574   4.627   1.143   5.955
  135MYC    H7827575   4.841   1.111   6.054
  135MYC    H7927576   4.892   1.279   6.054
  135MYC    H8027577   4.815   1.215   6.284
  135MYC    H8127578   4.676   1.134   6.213
  135MYC    H8227579   4.683   1.312   6.224
  135MYC    H8327580   4.682   0.717   1.644
  135MYC    H8427581   4.825   0.776   1.742
  135MYC    H8527582   4.531   0.806   1.804
  135MYC    H8627583   4.649   0.691   1.871
  135MYC    H8727584   4.765   0.940   1.928
  135MYC    H8827585   4.600   0.986   1.933
  135MYC    H8927586   4.549   0.794   2.100
  135MYC    H9027587   4.722   0.751   2.076
  135MYC    H9127588   4.790   0.972   2.173
  135MYC    H9227589   4.613   1.006   2.191
  135MYC    H9327590   4.577   0.828   2.345
  135MYC    H9427591   4.741   0.770   2.331
  135MYC    H9527592   4.818   0.986   2.441
  135MYC    H9627593   4.658   1.040   2.456
  135MYC    H9727594   4.588   0.829   2.586
  135MYC    H9827595   4.756   0.775   2.578
  135MYC    H9927596   4.843   0.983   2.687
  136MYC     C127597   4.528   1.531   3.181
  136MYC     C227598   4.536   1.670   3.116
  136MYC     O327599   4.408   1.728   3.093
  136MYC     C427600   4.626   1.669   2.991
  136MYC     C527601   4.594   1.768   2.878
  136MYC     C627602   4.493   1.719   2.773
  136MYC     C727603   4.547   1.603   2.689
  136MYC     C827604   4.449   1.550   2.583
  136MYC     C927605   4.507   1.457   2.475
  136MYC    C1027606   4.396   1.425   2.373
  136MYC    C1127607   4.447   1.374   2.237
  136MYC    C1227608   4.488   1.489   2.144
  136MYC    C1327609   4.519   1.450   1.998
  136MYC    C1427610   4.572   1.571   1.919
  136MYC    C1527611   4.560   1.554   1.767
  136MYC    C1627612   4.619   1.671   1.685
  136MYC    C1727613   4.571   1.809   1.726
  136MYC    C1827614   4.664   1.910   1.790
  136MYC    C1927615   4.605   1.938   1.654
  136MYC    C2027616   4.466   1.520   3.321
  136MYC    C2127617   4.533   1.606   3.429
  136MYC    C2227618   4.515   1.529   3.561
  136MYC    C2327619   4.574   1.615   3.675
  136MYC    C2427620   4.537   1.574   3.818
  136MYC    C2527621   4.610   1.658   3.924
  136MYC    C2627622   4.582   1.589   4.059
  136MYC    C2727623   4.648   1.660   4.179
  136MYC    C2827624   4.627   1.585   4.312
  136MYC    C2927625   4.701   1.653   4.428
  136MYC    C3027626   4.667   1.588   4.563
  136MYC    C3127627   4.761   1.637   4.674
  136MYC    C3227628   4.700   1.591   4.807
  136MYC    C3327629   4.772   1.638   4.935
  136MYC    C3427630   4.707   1.592   5.067
  136MYC    C3527631   4.783   1.651   5.187
  136MYC    C3627632   4.708   1.640   5.321
  136MYC    C3727633   4.807   1.651   5.438
  136MYC    C3827634   4.725   1.648   5.567
  136MYC    C3927635   4.810   1.673   5.693
  136MYC    C4027636   4.716   1.698   5.812
  136MYC    C4127637   4.774   1.679   5.954
  136MYC    C4227638   4.666   1.682   6.064
  136MYC    C4327639   4.727   1.674   6.205
  136MYC    C4427640   4.614   2.004   1.899
  136MYC    C4527641   4.689   2.138   1.906
  136MYC    C4627642   4.790   2.157   2.021
  136MYC    C4727643   4.715   2.166   2.155
  136MYC    C4827644   4.801   2.216   2.272
  136MYC    C4927645   4.701   2.244   2.386
  136MYC    C5027646   4.774   2.296   2.511
  136MYC    C5127647   4.672   2.299   2.626
  136MYC    C5227648   4.741   2.296   2.763
  136MYC    C5327649   4.663   2.211   2.865
  136MYC    C5427650   4.746   2.185   2.991
  136MYC    C5527651   4.660   2.137   3.109
  136MYC    C5627652   4.749   2.105   3.230
  136MYC    C5727653   4.676   2.034   3.345
  136MYC    C5827654   4.762   2.039   3.471
  136MYC    C5927655   4.704   1.980   3.597
  136MYC    C6027656   4.724   2.129   3.585
  136MYC    C6127657   4.830   2.182   3.681
  136MYC    C6227658   4.767   2.200   3.820
  136MYC    C6327659   4.862   2.245   3.933
  136MYC    C6427660   4.793   2.235   4.070
  136MYC    C6527661   4.899   2.267   4.178
  136MYC    C6627662   4.841   2.255   4.320
  136MYC    C6727663   4.951   2.269   4.426
  136MYC    C6827664   4.913   2.198   4.557
  136MYC    C6927665   4.994   2.248   4.678
  136MYC    C7027666   4.963   2.161   4.801
  136MYC    C7127667   5.018   2.210   4.936
  136MYC    C7227668   4.972   2.121   5.053
  136MYC    C7327669   4.956   2.208   5.179
  136MYC    C7427670   4.888   2.121   5.286
  136MYC    C7527671   4.898   2.191   5.422
  136MYC    C7627672   4.860   2.100   5.540
  136MYC    C7727673   4.891   2.173   5.672
  136MYC    C7827674   4.881   2.072   5.787
  136MYC    C7927675   4.865   2.145   5.922
  136MYC    C8027676   4.831   2.061   6.046
  136MYC    C8127677   4.455   1.427   3.097
  136MYC    O8227678   4.378   1.453   3.007
  136MYC    O8327679   4.497   1.299   3.114
  136MYC     H127680   4.630   1.491   3.181
  136MYC     H227681   4.590   1.740   3.181
  136MYC     H327682   4.337   1.664   3.073
  136MYC     H427683   4.722   1.691   3.039
  136MYC     H527684   4.617   1.567   2.950
  136MYC     H627685   4.584   1.869   2.920
  136MYC     H727686   4.688   1.781   2.824
  136MYC     H827687   4.399   1.685   2.818
  136MYC     H927688   4.478   1.804   2.704
  136MYC   0H1027689   4.755   2.399   2.796
  136MYC   1H1027690   4.575   2.275   2.882
  136MYC   2H1027691   4.638   2.118   2.813
  136MYC   3H1027692   4.813   2.104   2.958
  136MYC   4H1027693   4.804   2.278   2.997
  136MYC   5H1027694   4.582   2.212   3.130
  136MYC   6H1027695   4.601   2.050   3.076
  136MYC   7H1027696   4.837   2.051   3.194
  136MYC   8H1027697   4.784   2.204   3.264
  136MYC   9H1027698   4.581   2.085   3.365
  136MYC    H1027699   4.641   1.642   2.646
  136MYC   0H1127700   4.649   1.930   3.322
  136MYC   1H1127701   4.870   2.036   3.459
  136MYC   2H1127702   4.601   1.945   3.598
  136MYC   3H1127703   4.771   1.918   3.656
  136MYC   4H1127704   4.638   2.194   3.575
  136MYC   5H1127705   4.916   2.114   3.685
  136MYC   6H1127706   4.873   2.276   3.646
  136MYC   7H1127707   4.681   2.268   3.815
  136MYC   8H1127708   4.720   2.104   3.841
  136MYC   9H1127709   4.954   2.185   3.931
  136MYC    H1127710   4.576   1.519   2.753
  136MYC   0H1227711   4.892   2.348   3.912
  136MYC   1H1227712   4.704   2.295   4.093
  136MYC   2H1227713   4.765   2.129   4.075
  136MYC   3H1227714   4.989   2.205   4.171
  136MYC   4H1227715   4.927   2.373   4.167
  136MYC   5H1227716   4.760   2.330   4.327
  136MYC   6H1227717   4.801   2.153   4.326
  136MYC   7H1227718   5.044   2.229   4.385
  136MYC   8H1227719   4.964   2.373   4.457
  136MYC   9H1227720   4.808   2.222   4.576
  136MYC    H1227721   4.367   1.494   2.630
  136MYC   0H1327722   4.927   2.090   4.542
  136MYC   1H1327723   5.103   2.243   4.671
  136MYC   2H1327724   4.965   2.351   4.702
  136MYC   3H1327725   4.853   2.161   4.801
  136MYC   4H1327726   4.994   2.058   4.780
  136MYC   5H1327727   5.127   2.218   4.933
  136MYC   6H1327728   4.972   2.309   4.949
  136MYC   7H1327729   4.872   2.083   5.028
  136MYC   8H1327730   5.037   2.035   5.073
  136MYC   9H1327731   5.056   2.234   5.216
  136MYC    H1327732   4.393   1.633   2.538
  136MYC   0H1427733   4.902   2.301   5.158
  136MYC   1H1427734   4.782   2.106   5.261
  136MYC   2H1427735   4.940   2.024   5.288
  136MYC   3H1427736   5.000   2.227   5.442
  136MYC   4H1427737   4.826   2.273   5.416
  136MYC   5H1427738   4.752   2.077   5.541
  136MYC   6H1427739   4.910   2.003   5.539
  136MYC   7H1427740   4.995   2.207   5.667
  136MYC   8H1427741   4.817   2.252   5.693
  136MYC   9H1427742   4.798   2.002   5.775
  136MYC    H1427743   4.598   1.501   2.432
  136MYC   0H1527744   4.970   2.008   5.786
  136MYC   1H1527745   4.950   2.210   5.942
  136MYC   2H1527746   4.782   2.217   5.912
  136MYC   3H1527747   4.908   1.984   6.057
  136MYC   4H1527748   4.732   2.016   6.039
  136MYC   5H1527749   4.835   2.123   6.137
  136MYC   6H1527750   4.433   1.238   3.072
  136MYC    H1527751   4.525   1.359   2.521
  136MYC    H1627752   4.340   1.342   2.416
  136MYC    H1727753   4.324   1.507   2.364
  136MYC    H1827754   4.520   1.292   2.243
  136MYC    H1927755   4.358   1.329   2.191
  136MYC    H2027756   4.405   1.560   2.139
  136MYC    H2127757   4.570   1.547   2.187
  136MYC    H2227758   4.584   1.363   1.982
  136MYC    H2327759   4.424   1.419   1.955
  136MYC    H2427760   4.527   1.664   1.957
  136MYC    H2527761   4.676   1.592   1.948
  136MYC    H2627762   4.617   1.466   1.732
  136MYC    H2727763   4.454   1.536   1.747
  136MYC    H2827764   4.728   1.669   1.689
  136MYC    H2927765   4.595   1.655   1.579
  136MYC    H3027766   4.465   1.813   1.751
  136MYC    H3127767   4.771   1.892   1.793
  136MYC    H3227768   4.526   2.012   1.650
  136MYC    H3327769   4.684   1.941   1.580
  136MYC    H3427770   4.360   1.549   3.318
  136MYC    H3527771   4.464   1.416   3.358
  136MYC    H3627772   4.639   1.621   3.408
  136MYC    H3727773   4.490   1.707   3.430
  136MYC    H3827774   4.410   1.512   3.586
  136MYC    H3927775   4.554   1.427   3.559
  136MYC    H4027776   4.682   1.600   3.667
  136MYC    H4127777   4.552   1.722   3.667
  136MYC    H4227778   4.432   1.606   3.819
  136MYC    H4327779   4.544   1.465   3.827
  136MYC    H4427780   4.717   1.666   3.902
  136MYC    H4527781   4.567   1.759   3.926
  136MYC    H4627782   4.474   1.582   4.074
  136MYC    H4727783   4.620   1.486   4.058
  136MYC    H4827784   4.754   1.679   4.158
  136MYC    H4927785   4.594   1.756   4.182
  136MYC    H5027786   4.523   1.563   4.338
  136MYC    H5127787   4.671   1.485   4.294
  136MYC    H5227788   4.810   1.654   4.416
  136MYC    H5327789   4.668   1.757   4.437
  136MYC    H5427790   4.563   1.611   4.589
  136MYC    H5527791   4.679   1.479   4.559
  136MYC    H5627792   4.859   1.587   4.673
  136MYC    H5727793   4.792   1.743   4.676
  136MYC    H5827794   4.598   1.628   4.821
  136MYC    H5927795   4.674   1.484   4.813
  136MYC    H6027796   4.875   1.600   4.940
  136MYC    H6127797   4.781   1.747   4.931
  136MYC    H6227798   4.604   1.631   5.063
  136MYC    H6327799   4.697   1.483   5.072
  136MYC    H6427800   4.885   1.612   5.200
  136MYC    H6527801   4.799   1.757   5.165
  136MYC    H6627802   4.617   1.701   5.322
  136MYC    H6727803   4.675   1.535   5.320
  136MYC    H6827804   4.883   1.572   5.434
  136MYC    H6927805   4.867   1.743   5.437
  136MYC    H7027806   4.644   1.721   5.557
  136MYC    H7127807   4.682   1.548   5.583
  136MYC    H7227808   4.884   1.594   5.708
  136MYC    H7327809   4.876   1.758   5.673
  136MYC    H7427810   4.679   1.800   5.802
  136MYC    H7527811   4.632   1.628   5.802
  136MYC    H7627812   4.840   1.592   5.965
  136MYC    H7727813   4.853   1.752   5.976
  136MYC    H7827814   4.611   1.777   6.062
  136MYC    H7927815   4.592   1.602   6.060
  136MYC    H8027816   4.647   1.673   6.279
  136MYC    H8127817   4.794   1.759   6.225
  136MYC    H8227818   4.776   1.578   6.223
  136MYC    H8327819   4.510   2.033   1.876
  136MYC    H8427820   4.613   1.953   1.996
  136MYC    H8527821   4.740   2.159   1.811
  136MYC    H8627822   4.621   2.223   1.919
  136MYC    H8727823   4.846   2.063   2.024
  136MYC    H8827824   4.839   2.253   2.000
  136MYC    H8927825   4.627   2.231   2.149
  136MYC    H9027826   4.683   2.063   2.175
  136MYC    H9127827   4.874   2.141   2.304
  136MYC    H9227828   4.859   2.307   2.252
  136MYC    H9327829   4.621   2.312   2.353
  136MYC    H9427830   4.651   2.150   2.411
  136MYC    H9527831   4.852   2.221   2.530
  136MYC    H9627832   4.815   2.396   2.494
  136MYC    H9727833   4.630   2.400   2.621
  136MYC    H9827834   4.593   2.223   2.624
  136MYC    H9927835   4.841   2.251   2.753
  137MYC     C127836   4.597   2.503   3.291
  137MYC     C227837   4.655   2.602   3.189
  137MYC     O327838   4.550   2.694   3.160
  137MYC     C427839   4.712   2.540   3.061
  137MYC     C527840   4.758   2.645   2.958
  137MYC     C627841   4.649   2.701   2.864
  137MYC     C727842   4.694   2.821   2.780
  137MYC     C827843   4.610   2.845   2.653
  137MYC     C927844   4.641   2.745   2.540
  137MYC    C1027845   4.533   2.748   2.431
  137MYC    C1127846   4.543   2.625   2.339
  137MYC    C1227847   4.676   2.616   2.262
  137MYC    C1327848   4.661   2.579   2.113
  137MYC    C1427849   4.790   2.547   2.035
  137MYC    C1527850   4.765   2.562   1.884
  137MYC    C1627851   4.887   2.520   1.802
  137MYC    C1727852   4.986   2.634   1.786
  137MYC    C1827853   5.124   2.614   1.727
  137MYC    C1927854   5.016   2.684   1.647
  137MYC    C2027855   4.567   2.572   3.425
  137MYC    C2127856   4.648   2.530   3.549
  137MYC    C2227857   4.587   2.587   3.678
  137MYC    C2327858   4.698   2.635   3.773
  137MYC    C2427859   4.633   2.656   3.911
  137MYC    C2527860   4.726   2.684   4.030
  137MYC    C2627861   4.648   2.707   4.161
  137MYC    C2727862   4.747   2.704   4.279
  137MYC    C2827863   4.676   2.746   4.409
  137MYC    C2927864   4.763   2.746   4.535
  137MYC    C3027865   4.682   2.762   4.665
  137MYC    C3127866   4.765   2.735   4.792
  137MYC    C3227867   4.684   2.780   4.914
  137MYC    C3327868   4.763   2.784   5.046
  137MYC    C3427869   4.675   2.767   5.171
  137MYC    C3527870   4.745   2.773   5.308
  137MYC    C3627871   4.652   2.797   5.429
  137MYC    C3727872   4.727   2.795   5.563
  137MYC    C3827873   4.642   2.860   5.675
  137MYC    C3927874   4.705   2.828   5.812
  137MYC    C4027875   4.636   2.889   5.935
  137MYC    C4127876   4.694   2.833   6.066
  137MYC    C4227877   4.612   2.873   6.190
  137MYC    C4327878   4.657   2.799   6.318
  137MYC    C4427879   5.241   2.690   1.787
  137MYC    C4527880   5.296   2.635   1.920
  137MYC    C4627881   5.209   2.673   2.041
  137MYC    C4727882   5.260   2.611   2.172
  137MYC    C4827883   5.181   2.665   2.293
  137MYC    C4927884   5.245   2.632   2.429
  137MYC    C5027885   5.142   2.654   2.541
  137MYC    C5127886   5.213   2.649   2.677
  137MYC    C5227887   5.124   2.620   2.799
  137MYC    C5327888   5.192   2.634   2.936
  137MYC    C5427889   5.106   2.598   3.058
  137MYC    C5527890   5.188   2.630   3.183
  137MYC    C5627891   5.100   2.621   3.309
  137MYC    C5727892   5.192   2.601   3.431
  137MYC    C5827893   5.109   2.619   3.558
  137MYC    C5927894   5.079   2.753   3.621
  137MYC    C6027895   5.189   2.666   3.677
  137MYC    C6127896   5.169   2.584   3.804
  137MYC    C6227897   5.183   2.671   3.931
  137MYC    C6327898   5.121   2.597   4.051
  137MYC    C6427899   5.138   2.679   4.180
  137MYC    C6527900   5.132   2.588   4.303
  137MYC    C6627901   5.165   2.653   4.438
  137MYC    C6727902   5.171   2.561   4.562
  137MYC    C6827903   5.209   2.646   4.684
  137MYC    C6927904   5.203   2.561   4.812
  137MYC    C7027905   5.189   2.646   4.940
  137MYC    C7127906   5.201   2.548   5.057
  137MYC    C7227907   5.186   2.634   5.184
  137MYC    C7327908   5.205   2.552   5.312
  137MYC    C7427909   5.189   2.651   5.429
  137MYC    C7527910   5.190   2.602   5.575
  137MYC    C7627911   5.155   2.715   5.674
  137MYC    C7727912   5.207   2.685   5.815
  137MYC    C7827913   5.165   2.791   5.919
  137MYC    C7927914   5.173   2.731   6.061
  137MYC    C8027915   5.083   2.809   6.158
  137MYC    C8127916   4.474   2.436   3.231
  137MYC    O8227917   4.434   2.447   3.117
  137MYC    O8327918   4.415   2.356   3.323
  137MYC     H127919   4.667   2.420   3.304
  137MYC     H227920   4.734   2.660   3.239
  137MYC     H327921   4.477   2.668   3.219
  137MYC     H427922   4.807   2.493   3.089
  137MYC     H527923   4.652   2.465   3.008
  137MYC     H627924   4.795   2.730   3.017
  137MYC     H727925   4.835   2.601   2.894
  137MYC     H827926   4.636   2.619   2.792
  137MYC     H927927   4.548   2.718   2.902
  137MYC   0H1027928   5.086   2.518   2.786
  137MYC   1H1027929   5.281   2.569   2.938
  137MYC   2H1027930   5.222   2.739   2.948
  137MYC   3H1027931   5.019   2.664   3.064
  137MYC   4H1027932   5.060   2.498   3.059
  137MYC   5H1027933   5.257   2.545   3.190
  137MYC   6H1027934   5.241   2.727   3.174
  137MYC   7H1027935   5.047   2.714   3.329
  137MYC   8H1027936   5.024   2.542   3.307
  137MYC   9H1027937   5.235   2.501   3.420
  137MYC    H1027938   4.680   2.907   2.847
  137MYC   0H1127939   5.274   2.673   3.429
  137MYC   1H1127940   5.048   2.531   3.576
  137MYC   2H1127941   5.114   2.844   3.572
  137MYC   3H1127942   4.980   2.758   3.666
  137MYC   4H1127943   5.292   2.698   3.666
  137MYC   5H1127944   5.068   2.543   3.808
  137MYC   6H1127945   5.248   2.509   3.816
  137MYC   7H1127946   5.287   2.681   3.963
  137MYC   8H1127947   5.139   2.771   3.925
  137MYC   9H1127948   5.016   2.585   4.021
  137MYC    H1127949   4.800   2.811   2.752
  137MYC   0H1227950   5.172   2.501   4.054
  137MYC   1H1227951   5.231   2.739   4.181
  137MYC   2H1227952   5.049   2.743   4.187
  137MYC   3H1227953   5.033   2.543   4.314
  137MYC   4H1227954   5.193   2.497   4.292
  137MYC   5H1227955   5.261   2.705   4.425
  137MYC   6H1227956   5.094   2.734   4.459
  137MYC   7H1227957   5.072   2.516   4.575
  137MYC   8H1227958   5.250   2.485   4.550
  137MYC   9H1227959   5.309   2.688   4.669
  137MYC    H1227960   4.507   2.827   2.685
  137MYC   0H1327961   5.144   2.735   4.691
  137MYC   1H1327962   5.109   2.507   4.799
  137MYC   2H1327963   5.294   2.501   4.820
  137MYC   3H1327964   5.267   2.723   4.941
  137MYC   4H1327965   5.098   2.707   4.940
  137MYC   5H1327966   5.127   2.467   5.050
  137MYC   6H1327967   5.295   2.492   5.053
  137MYC   7H1327968   5.253   2.721   5.184
  137MYC   8H1327969   5.083   2.672   5.185
  137MYC   9H1327970   5.139   2.464   5.320
  137MYC    H1327971   4.616   2.949   2.619
  137MYC   0H1427972   5.305   2.508   5.317
  137MYC   1H1427973   5.261   2.734   5.424
  137MYC   2H1427974   5.092   2.701   5.422
  137MYC   3H1427975   5.121   2.519   5.593
  137MYC   4H1427976   5.294   2.572   5.592
  137MYC   5H1427977   5.205   2.802   5.630
  137MYC   6H1427978   5.047   2.734   5.673
  137MYC   7H1427979   5.174   2.586   5.849
  137MYC   8H1427980   5.317   2.687   5.814
  137MYC   9H1427981   5.224   2.882   5.904
  137MYC    H1427982   4.734   2.781   2.494
  137MYC   0H1527983   5.062   2.820   5.893
  137MYC   1H1527984   5.152   2.624   6.075
  137MYC   2H1527985   5.274   2.742   6.101
  137MYC   3H1527986   4.984   2.762   6.174
  137MYC   4H1527987   5.083   2.917   6.138
  137MYC   5H1527988   5.123   2.795   6.259
  137MYC   6H1527989   4.343   2.321   3.268
  137MYC    H1527990   4.657   2.643   2.578
  137MYC    H1627991   4.434   2.740   2.477
  137MYC    H1727992   4.534   2.845   2.380
  137MYC    H1827993   4.527   2.532   2.396
  137MYC    H1927994   4.463   2.628   2.263
  137MYC    H2027995   4.735   2.706   2.280
  137MYC    H2127996   4.735   2.540   2.314
  137MYC    H2227997   4.599   2.492   2.091
  137MYC    H2327998   4.610   2.661   2.060
  137MYC    H2427999   4.853   2.631   2.068
  137MYC    H2528000   4.843   2.454   2.059
  137MYC    H2628001   4.685   2.496   1.850
  137MYC    H2728002   4.733   2.665   1.864
  137MYC    H2828003   4.942   2.439   1.854
  137MYC    H2928004   4.867   2.475   1.704
  137MYC    H3028005   4.990   2.703   1.870
  137MYC    H3128006   5.144   2.509   1.713
  137MYC    H3228007   5.035   2.790   1.630
  137MYC    H3328008   4.984   2.627   1.561
  137MYC    H3428009   4.579   2.680   3.417
  137MYC    H3528010   4.461   2.565   3.456
  137MYC    H3628011   4.646   2.421   3.555
  137MYC    H3728012   4.752   2.563   3.535
  137MYC    H3828013   4.521   2.671   3.654
  137MYC    H3928014   4.528   2.508   3.727
  137MYC    H4028015   4.776   2.558   3.771
  137MYC    H4128016   4.744   2.728   3.737
  137MYC    H4228017   4.563   2.740   3.910
  137MYC    H4328018   4.569   2.570   3.937
  137MYC    H4428019   4.784   2.593   4.046
  137MYC    H4528020   4.798   2.764   4.010
  137MYC    H4628021   4.598   2.804   4.167
  137MYC    H4728022   4.583   2.620   4.176
  137MYC    H4828023   4.791   2.604   4.278
  137MYC    H4928024   4.831   2.772   4.256
  137MYC    H5028025   4.625   2.842   4.393
  137MYC    H5128026   4.594   2.676   4.432
  137MYC    H5228027   4.816   2.650   4.537
  137MYC    H5328028   4.844   2.820   4.536
  137MYC    H5428029   4.644   2.865   4.659
  137MYC    H5528030   4.591   2.701   4.662
  137MYC    H5628031   4.797   2.630   4.790
  137MYC    H5728032   4.863   2.784   4.782
  137MYC    H5828033   4.641   2.880   4.902
  137MYC    H5928034   4.591   2.723   4.920
  137MYC    H6028035   4.835   2.701   5.044
  137MYC    H6128036   4.821   2.877   5.055
  137MYC    H6228037   4.604   2.850   5.173
  137MYC    H6328038   4.612   2.678   5.162
  137MYC    H6428039   4.798   2.677   5.321
  137MYC    H6528040   4.822   2.850   5.303
  137MYC    H6628041   4.601   2.894   5.424
  137MYC    H6728042   4.579   2.715   5.434
  137MYC    H6828043   4.750   2.694   5.598
  137MYC    H6928044   4.827   2.838   5.550
  137MYC    H7028045   4.643   2.969   5.665
  137MYC    H7128046   4.535   2.839   5.665
  137MYC    H7228047   4.706   2.720   5.827
  137MYC    H7328048   4.808   2.864   5.811
  137MYC    H7428049   4.644   2.998   5.936
  137MYC    H7528050   4.528   2.868   5.926
  137MYC    H7628051   4.714   2.725   6.062
  137MYC    H7728052   4.798   2.867   6.072
  137MYC    H7828053   4.624   2.982   6.197
  137MYC    H7928054   4.506   2.853   6.173
  137MYC    H8028055   4.591   2.821   6.402
  137MYC    H8128056   4.759   2.828   6.347
  137MYC    H8228057   4.669   2.691   6.305
  137MYC    H8328058   5.315   2.698   1.706
  137MYC    H8428059   5.209   2.794   1.798
  137MYC    H8528060   5.312   2.527   1.915
  137MYC    H8628061   5.392   2.684   1.939
  137MYC    H8728062   5.208   2.782   2.042
  137MYC    H8828063   5.112   2.630   2.012
  137MYC    H8928064   5.255   2.502   2.167
  137MYC    H9028065   5.361   2.650   2.190
  137MYC    H9128066   5.182   2.775   2.284
  137MYC    H9228067   5.083   2.617   2.296
  137MYC    H9328068   5.292   2.533   2.425
  137MYC    H9428069   5.327   2.704   2.442
  137MYC    H9528070   5.094   2.752   2.538
  137MYC    H9628071   5.076   2.567   2.527
  137MYC    H9728072   5.294   2.576   2.671
  137MYC    H9828073   5.247   2.753   2.687
  137MYC    H9928074   5.042   2.693   2.796
  138MYC     C128075   4.690   3.701   3.218
  138MYC     C228076   4.837   3.678   3.180
  138MYC     O328077   4.901   3.803   3.155
  138MYC     C428078   4.862   3.569   3.073
  138MYC     C528079   4.931   3.603   2.940
  138MYC     C628080   4.847   3.688   2.843
  138MYC     C728081   4.881   3.666   2.694
  138MYC     C828082   4.831   3.781   2.605
  138MYC     C928083   4.846   3.769   2.452
  138MYC    C1028084   4.760   3.855   2.358
  138MYC    C1128085   4.756   3.813   2.210
  138MYC    C1228086   4.884   3.779   2.131
  138MYC    C1328087   4.864   3.799   1.980
  138MYC    C1428088   4.751   3.712   1.923
  138MYC    C1528089   4.766   3.705   1.771
  138MYC    C1628090   4.646   3.630   1.712
  138MYC    C1728091   4.699   3.492   1.675
  138MYC    C1828092   4.735   3.386   1.776
  138MYC    C1928093   4.620   3.364   1.681
  138MYC    C2028094   4.676   3.781   3.348
  138MYC    C2128095   4.733   3.710   3.472
  138MYC    C2228096   4.683   3.775   3.603
  138MYC    C2328097   4.743   3.713   3.730
  138MYC    C2428098   4.693   3.791   3.853
  138MYC    C2528099   4.719   3.719   3.987
  138MYC    C2628100   4.687   3.805   4.110
  138MYC    C2728101   4.683   3.715   4.235
  138MYC    C2828102   4.656   3.797   4.363
  138MYC    C2928103   4.686   3.718   4.491
  138MYC    C3028104   4.645   3.778   4.626
  138MYC    C3128105   4.699   3.696   4.745
  138MYC    C3228106   4.665   3.754   4.884
  138MYC    C3328107   4.727   3.681   5.004
  138MYC    C3428108   4.680   3.728   5.143
  138MYC    C3528109   4.763   3.663   5.255
  138MYC    C3628110   4.728   3.717   5.395
  138MYC    C3728111   4.796   3.636   5.507
  138MYC    C3828112   4.779   3.709   5.642
  138MYC    C3928113   4.867   3.653   5.755
  138MYC    C4028114   4.835   3.712   5.893
  138MYC    C4128115   4.934   3.660   5.999
  138MYC    C4228116   4.894   3.697   6.143
  138MYC    C4328117   4.976   3.624   6.251
  138MYC    C4428118   4.878   3.336   1.764
  138MYC    C4528119   4.907   3.208   1.844
  138MYC    C4628120   4.871   3.216   1.993
  138MYC    C4728121   4.954   3.138   2.095
  138MYC    C4828122   4.899   3.143   2.239
  138MYC    C4928123   4.982   3.082   2.353
  138MYC    C5028124   4.906   3.099   2.485
  138MYC    C5128125   4.989   3.073   2.612
  138MYC    C5228126   4.943   3.165   2.728
  138MYC    C5328127   5.008   3.149   2.866
  138MYC    C5428128   4.924   3.191   2.988
  138MYC    C5528129   4.978   3.154   3.127
  138MYC    C5628130   4.880   3.196   3.237
  138MYC    C5728131   4.941   3.178   3.376
  138MYC    C5828132   4.854   3.249   3.479
  138MYC    C5928133   4.906   3.382   3.527
  138MYC    C6028134   4.915   3.262   3.617
  138MYC    C6128135   4.814   3.255   3.731
  138MYC    C6228136   4.875   3.244   3.871
  138MYC    C6328137   4.789   3.199   3.990
  138MYC    C6428138   4.833   3.260   4.124
  138MYC    C6528139   4.787   3.196   4.256
  138MYC    C6628140   4.776   3.298   4.370
  138MYC    C6728141   4.819   3.232   4.502
  138MYC    C6828142   4.783   3.312   4.629
  138MYC    C6928143   4.871   3.253   4.741
  138MYC    C7028144   4.830   3.301   4.881
  138MYC    C7128145   4.922   3.245   4.992
  138MYC    C7228146   4.884   3.311   5.126
  138MYC    C7328147   4.945   3.229   5.240
  138MYC    C7428148   4.909   3.288   5.377
  138MYC    C7528149   4.945   3.196   5.495
  138MYC    C7628150   4.934   3.272   5.628
  138MYC    C7728151   4.932   3.180   5.751
  138MYC    C7828152   4.957   3.252   5.885
  138MYC    C7928153   4.895   3.196   6.014
  138MYC    C8028154   4.939   3.264   6.144
  138MYC    C8128155   4.600   3.764   3.113
  138MYC    O8228156   4.634   3.827   3.014
  138MYC    O8328157   4.474   3.717   3.118
  138MYC     H128158   4.652   3.603   3.249
  138MYC     H228159   4.881   3.629   3.268
  138MYC     H328160   4.898   3.818   3.059
  138MYC     H428161   4.927   3.501   3.128
  138MYC     H528162   4.769   3.516   3.050
  138MYC     H628163   5.023   3.655   2.968
  138MYC     H728164   4.959   3.507   2.895
  138MYC     H828165   4.737   3.685   2.848
  138MYC     H928166   4.868   3.791   2.873
  138MYC   0H1028167   4.834   3.161   2.727
  138MYC   1H1028168   5.034   3.043   2.875
  138MYC   2H1028169   5.105   3.201   2.857
  138MYC   3H1028170   4.910   3.299   2.975
  138MYC   4H1028171   4.830   3.136   2.978
  138MYC   5H1028172   4.986   3.044   3.128
  138MYC   6H1028173   5.082   3.185   3.146
  138MYC   7H1028174   4.871   3.305   3.227
  138MYC   8H1028175   4.776   3.161   3.228
  138MYC   9H1028176   4.947   3.071   3.401
  138MYC    H1028177   4.988   3.651   2.678
  138MYC   0H1128178   5.044   3.215   3.387
  138MYC   1H1128179   4.747   3.235   3.473
  138MYC   2H1128180   5.002   3.422   3.495
  138MYC   3H1128181   4.831   3.450   3.567
  138MYC   4H1128182   5.009   3.210   3.636
  138MYC   5H1128183   4.741   3.337   3.733
  138MYC   6H1128184   4.754   3.165   3.712
  138MYC   7H1128185   4.965   3.181   3.874
  138MYC   8H1128186   4.910   3.347   3.887
  138MYC   9H1128187   4.686   3.234   3.973
  138MYC    H1128188   4.842   3.568   2.664
  138MYC   0H1228189   4.789   3.089   3.996
  138MYC   1H1228190   4.943   3.253   4.126
  138MYC   2H1228191   4.813   3.368   4.117
  138MYC   3H1228192   4.686   3.157   4.244
  138MYC   4H1228193   4.846   3.107   4.281
  138MYC   5H1228194   4.834   3.390   4.353
  138MYC   6H1228195   4.673   3.331   4.385
  138MYC   7H1228196   4.769   3.135   4.508
  138MYC   8H1228197   4.927   3.215   4.493
  138MYC   9H1228198   4.802   3.420   4.625
  138MYC    H1228199   4.727   3.792   2.636
  138MYC   0H1328200   4.678   3.299   4.656
  138MYC   1H1328201   4.872   3.144   4.738
  138MYC   2H1328202   4.976   3.284   4.728
  138MYC   3H1328203   4.837   3.410   4.888
  138MYC   4H1328204   4.733   3.261   4.912
  138MYC   5H1328205   4.914   3.136   4.992
  138MYC   6H1328206   5.023   3.267   4.956
  138MYC   7H1328207   4.928   3.411   5.129
  138MYC   8H1328208   4.777   3.314   5.150
  138MYC   9H1328209   4.904   3.127   5.242
  138MYC    H1328210   4.875   3.873   2.647
  138MYC   0H1428211   5.053   3.212   5.227
  138MYC   1H1428212   4.963   3.382   5.397
  138MYC   2H1428213   4.801   3.308   5.379
  138MYC   3H1428214   4.877   3.109   5.501
  138MYC   4H1428215   5.045   3.152   5.499
  138MYC   5H1428216   5.018   3.343   5.636
  138MYC   6H1428217   4.844   3.335   5.633
  138MYC   7H1428218   4.833   3.133   5.758
  138MYC   8H1428219   5.000   3.095   5.743
  138MYC   9H1428220   5.066   3.267   5.883
  138MYC    H1428221   4.952   3.774   2.426
  138MYC   0H1528222   4.916   3.353   5.875
  138MYC   1H1528223   4.786   3.189   6.002
  138MYC   2H1528224   4.934   3.094   6.027
  138MYC   3H1528225   4.876   3.353   6.151
  138MYC   4H1528226   5.048   3.280   6.146
  138MYC   5H1528227   4.918   3.204   6.234
  138MYC   6H1528228   4.434   3.773   3.049
  138MYC    H1528229   4.819   3.669   2.417
  138MYC    H1628230   4.658   3.841   2.397
  138MYC    H1728231   4.788   3.960   2.374
  138MYC    H1828232   4.695   3.721   2.206
  138MYC    H1928233   4.696   3.890   2.159
  138MYC    H2028234   4.956   3.847   2.179
  138MYC    H2128235   4.911   3.679   2.168
  138MYC    H2228236   4.848   3.904   1.953
  138MYC    H2328237   4.962   3.770   1.939
  138MYC    H2428238   4.769   3.613   1.968
  138MYC    H2528239   4.653   3.746   1.959
  138MYC    H2628240   4.752   3.809   1.737
  138MYC    H2728241   4.867   3.666   1.750
  138MYC    H2828242   4.553   3.631   1.771
  138MYC    H2928243   4.609   3.670   1.617
  138MYC    H3028244   4.771   3.501   1.594
  138MYC    H3128245   4.702   3.404   1.878
  138MYC    H3228246   4.639   3.296   1.599
  138MYC    H3328247   4.516   3.379   1.709
  138MYC    H3428248   4.722   3.880   3.339
  138MYC    H3528249   4.572   3.807   3.373
  138MYC    H3628250   4.713   3.602   3.478
  138MYC    H3728251   4.842   3.719   3.469
  138MYC    H3828252   4.712   3.881   3.601
  138MYC    H3928253   4.574   3.771   3.606
  138MYC    H4028254   4.706   3.611   3.741
  138MYC    H4128255   4.853   3.721   3.735
  138MYC    H4228256   4.732   3.893   3.858
  138MYC    H4328257   4.584   3.806   3.855
  138MYC    H4428258   4.663   3.624   3.991
  138MYC    H4528259   4.826   3.697   3.988
  138MYC    H4628260   4.760   3.887   4.115
  138MYC    H4728261   4.590   3.853   4.096
  138MYC    H4828262   4.606   3.637   4.226
  138MYC    H4928263   4.775   3.657   4.250
  138MYC    H5028264   4.718   3.887   4.372
  138MYC    H5128265   4.551   3.827   4.373
  138MYC    H5228266   4.646   3.616   4.485
  138MYC    H5328267   4.795   3.703   4.486
  138MYC    H5428268   4.680   3.882   4.630
  138MYC    H5528269   4.536   3.778   4.637
  138MYC    H5628270   4.676   3.589   4.742
  138MYC    H5728271   4.808   3.685   4.741
  138MYC    H5828272   4.707   3.855   4.887
  138MYC    H5928273   4.557   3.770   4.881
  138MYC    H6028274   4.693   3.578   4.987
  138MYC    H6128275   4.837   3.678   5.000
  138MYC    H6228276   4.681   3.838   5.150
  138MYC    H6328277   4.578   3.688   5.148
  138MYC    H6428278   4.736   3.557   5.256
  138MYC    H6528279   4.869   3.673   5.232
  138MYC    H6628280   4.751   3.823   5.413
  138MYC    H6728281   4.620   3.714   5.413
  138MYC    H6828282   4.773   3.529   5.512
  138MYC    H6928283   4.902   3.625   5.481
  138MYC    H7028284   4.807   3.813   5.625
  138MYC    H7128285   4.675   3.711   5.678
  138MYC    H7228286   4.869   3.544   5.761
  138MYC    H7328287   4.971   3.685   5.743
  138MYC    H7428288   4.844   3.822   5.895
  138MYC    H7528289   4.730   3.684   5.911
  138MYC    H7628290   4.941   3.551   5.984
  138MYC    H7728291   5.031   3.708   5.987
  138MYC    H7828292   4.901   3.805   6.156
  138MYC    H7928293   4.788   3.671   6.154
  138MYC    H8028294   5.058   3.689   6.282
  138MYC    H8128295   5.023   3.532   6.214
  138MYC    H8228296   4.916   3.607   6.342
  138MYC    H8328297   4.888   3.304   1.659
  138MYC    H8428298   4.948   3.417   1.784
  138MYC    H8528299   4.857   3.119   1.803
  138MYC    H8628300   5.015   3.193   1.834
  138MYC    H8728301   4.865   3.325   2.010
  138MYC    H8828302   4.765   3.189   2.007
  138MYC    H8928303   4.956   3.034   2.062
  138MYC    H9028304   5.054   3.180   2.079
  138MYC    H9128305   4.865   3.244   2.266
  138MYC    H9228306   4.802   3.092   2.241
  138MYC    H9328307   4.994   2.974   2.336
  138MYC    H9428308   5.077   3.137   2.357
  138MYC    H9528309   4.858   3.197   2.482
  138MYC    H9628310   4.822   3.029   2.482
  138MYC    H9728311   4.972   2.971   2.649
  138MYC    H9828312   5.095   3.087   2.587
  138MYC    H9928313   4.962   3.269   2.701
  139MYC     C128314   4.468   4.597   3.167
  139MYC     C228315   4.575   4.688   3.102
  139MYC     O328316   4.539   4.825   3.099
  139MYC     C428317   4.605   4.653   2.955
  139MYC     C528318   4.727   4.729   2.900
  139MYC     C628319   4.717   4.759   2.750
  139MYC     C728320   4.732   4.641   2.652
  139MYC     C828321   4.769   4.702   2.515
  139MYC     C928322   4.735   4.616   2.392
  139MYC    C1028323   4.710   4.709   2.271
  139MYC    C1128324   4.663   4.647   2.139
  139MYC    C1228325   4.755   4.536   2.086
  139MYC    C1328326   4.718   4.492   1.943
  139MYC    C1428327   4.806   4.374   1.898
  139MYC    C1528328   4.750   4.308   1.771
  139MYC    C1628329   4.815   4.177   1.725
  139MYC    C1728330   4.960   4.198   1.685
  139MYC    C1828331   5.066   4.106   1.740
  139MYC    C1928332   5.027   4.097   1.595
  139MYC    C2028333   4.424   4.649   3.305
  139MYC    C2128334   4.513   4.608   3.423
  139MYC    C2228335   4.442   4.636   3.557
  139MYC    C2328336   4.516   4.599   3.687
  139MYC    C2428337   4.451   4.646   3.818
  139MYC    C2528338   4.534   4.624   3.945
  139MYC    C2628339   4.459   4.671   4.071
  139MYC    C2728340   4.551   4.655   4.193
  139MYC    C2828341   4.481   4.693   4.325
  139MYC    C2928342   4.572   4.695   4.449
  139MYC    C3028343   4.489   4.695   4.578
  139MYC    C3128344   4.578   4.676   4.703
  139MYC    C3228345   4.508   4.669   4.839
  139MYC    C3328346   4.594   4.696   4.964
  139MYC    C3428347   4.507   4.691   5.090
  139MYC    C3528348   4.588   4.689   5.221
  139MYC    C3628349   4.501   4.631   5.334
  139MYC    C3728350   4.551   4.697   5.464
  139MYC    C3828351   4.484   4.640   5.590
  139MYC    C3928352   4.485   4.727   5.716
  139MYC    C4028353   4.430   4.648   5.836
  139MYC    C4128354   4.471   4.724   5.963
  139MYC    C4228355   4.406   4.664   6.089
  139MYC    C4328356   4.484   4.695   6.218
  139MYC    C4428357   5.206   4.152   1.778
  139MYC    C4528358   5.278   4.053   1.871
  139MYC    C4628359   5.220   4.045   2.013
  139MYC    C4728360   5.311   4.019   2.134
  139MYC    C4828361   5.245   4.044   2.270
  139MYC    C4928362   5.314   3.993   2.397
  139MYC    C5028363   5.228   4.028   2.520
  139MYC    C5128364   5.308   4.015   2.650
  139MYC    C5228365   5.223   4.030   2.777
  139MYC    C5328366   5.299   4.027   2.911
  139MYC    C5428367   5.191   4.050   3.018
  139MYC    C5528368   5.244   4.048   3.162
  139MYC    C5628369   5.134   4.069   3.267
  139MYC    C5728370   5.201   4.097   3.402
  139MYC    C5828371   5.109   4.117   3.522
  139MYC    C5928372   5.093   4.256   3.578
  139MYC    C6028373   5.149   4.145   3.664
  139MYC    C6128374   5.066   4.076   3.771
  139MYC    C6228375   5.103   4.117   3.914
  139MYC    C6328376   5.011   4.060   4.023
  139MYC    C6428377   5.039   4.120   4.162
  139MYC    C6528378   4.940   4.068   4.267
  139MYC    C6628379   4.969   4.136   4.401
  139MYC    C6728380   4.915   4.061   4.524
  139MYC    C6828381   4.971   4.122   4.653
  139MYC    C6928382   4.956   4.028   4.774
  139MYC    C7028383   4.991   4.092   4.910
  139MYC    C7128384   5.017   3.991   5.024
  139MYC    C7228385   4.999   4.050   5.165
  139MYC    C7328386   5.058   3.963   5.277
  139MYC    C7428387   5.033   4.012   5.420
  139MYC    C7528388   5.081   3.908   5.522
  139MYC    C7628389   5.091   3.961   5.666
  139MYC    C7728390   5.191   3.888   5.758
  139MYC    C7828391   5.214   3.973   5.884
  139MYC    C7928392   5.318   3.902   5.972
  139MYC    C8028393   5.376   3.997   6.078
  139MYC    C8128394   4.352   4.588   3.068
  139MYC    O8228395   4.284   4.676   3.019
  139MYC    O8328396   4.341   4.462   3.020
  139MYC     H128397   4.507   4.495   3.170
  139MYC     H228398   4.667   4.668   3.158
  139MYC     H328399   4.594   4.871   3.033
  139MYC     H428400   4.631   4.547   2.972
  139MYC     H528401   4.528   4.666   2.880
  139MYC     H628402   4.745   4.821   2.957
  139MYC     H728403   4.819   4.676   2.929
  139MYC     H828404   4.625   4.813   2.725
  139MYC     H928405   4.799   4.829   2.731
  139MYC   0H1028406   5.141   3.958   2.777
  139MYC   1H1028407   5.351   3.933   2.933
  139MYC   2H1028408   5.370   4.111   2.912
  139MYC   3H1028409   5.142   4.147   3.000
  139MYC   4H1028410   5.107   3.981   3.005
  139MYC   5H1028411   5.292   3.952   3.185
  139MYC   6H1028412   5.326   4.121   3.171
  139MYC   7H1028413   5.082   4.162   3.238
  139MYC   8H1028414   5.074   3.978   3.275
  139MYC   9H1028415   5.276   4.023   3.432
  139MYC    H1028416   4.813   4.577   2.688
  139MYC   0H1128417   5.260   4.190   3.396
  139MYC   1H1128418   5.026   4.046   3.513
  139MYC   2H1128419   5.166   4.332   3.551
  139MYC   3H1128420   4.989   4.282   3.590
  139MYC   4H1128421   5.256   4.151   3.683
  139MYC   5H1128422   4.959   4.091   3.750
  139MYC   6H1128423   5.083   3.968   3.773
  139MYC   7H1128424   5.200   4.069   3.929
  139MYC   8H1128425   5.113   4.226   3.921
  139MYC   9H1128426   4.906   4.085   4.004
  139MYC    H1128427   4.641   4.581   2.640
  139MYC   0H1228428   5.016   3.951   4.034
  139MYC   1H1228429   5.142   4.103   4.194
  139MYC   2H1228430   5.023   4.229   4.158
  139MYC   3H1228431   4.834   4.087   4.245
  139MYC   4H1228432   4.956   3.959   4.272
  139MYC   5H1228433   5.077   4.154   4.411
  139MYC   6H1228434   4.942   4.243   4.399
  139MYC   7H1228435   4.805   4.066   4.520
  139MYC   8H1228436   4.944   3.955   4.527
  139MYC   9H1228437   5.077   4.149   4.645
  139MYC    H1228438   4.718   4.799   2.512
  139MYC   0H1328439   4.926   4.220   4.674
  139MYC   1H1328440   4.858   3.979   4.778
  139MYC   2H1328441   5.024   3.943   4.762
  139MYC   3H1328442   5.084   4.147   4.892
  139MYC   4H1328443   4.915   4.160   4.948
  139MYC   5H1328444   4.954   3.904   5.007
  139MYC   6H1328445   5.121   3.957   5.012
  139MYC   7H1328446   5.034   4.154   5.171
  139MYC   8H1328447   4.889   4.047   5.171
  139MYC   9H1328448   5.008   3.866   5.270
  139MYC    H1328449   4.877   4.721   2.515
  139MYC   0H1428450   5.165   3.943   5.263
  139MYC   1H1428451   5.077   4.112   5.435
  139MYC   2H1428452   4.925   4.020   5.435
  139MYC   3H1428453   5.016   3.819   5.520
  139MYC   4H1428454   5.183   3.884   5.490
  139MYC   5H1428455   5.140   4.059   5.655
  139MYC   6H1428456   4.994   3.980   5.713
  139MYC   7H1428457   5.148   3.791   5.788
  139MYC   8H1428458   5.283   3.869   5.701
  139MYC   9H1428459   5.249   4.075   5.859
  139MYC    H1428460   4.814   4.543   2.370
  139MYC   0H1528461   5.119   3.980   5.939
  139MYC   1H1528462   5.269   3.821   6.026
  139MYC   2H1528463   5.393   3.861   5.904
  139MYC   3H1528464   5.417   3.931   6.156
  139MYC   4H1528465   5.303   4.059   6.131
  139MYC   5H1528466   5.459   4.058   6.040
  139MYC   6H1528467   4.266   4.479   2.961
  139MYC    H1528468   4.640   4.566   2.415
  139MYC    H1628469   4.636   4.787   2.294
  139MYC    H1728470   4.806   4.759   2.252
  139MYC    H1828471   4.560   4.616   2.156
  139MYC    H1928472   4.657   4.729   2.066
  139MYC    H2028473   4.861   4.563   2.079
  139MYC    H2128474   4.755   4.451   2.156
  139MYC    H2228475   4.612   4.463   1.939
  139MYC    H2328476   4.728   4.565   1.861
  139MYC    H2428477   4.904   4.414   1.869
  139MYC    H2528478   4.832   4.305   1.979
  139MYC    H2628479   4.642   4.298   1.785
  139MYC    H2728480   4.744   4.375   1.683
  139MYC    H2828481   4.811   4.107   1.810
  139MYC    H2928482   4.759   4.121   1.650
  139MYC    H3028483   4.996   4.299   1.671
  139MYC    H3128484   5.030   4.032   1.812
  139MYC    H3228485   5.101   4.132   1.523
  139MYC    H3328486   4.967   4.016   1.555
  139MYC    H3428487   4.416   4.759   3.310
  139MYC    H3528488   4.329   4.600   3.326
  139MYC    H3628489   4.542   4.505   3.401
  139MYC    H3728490   4.602   4.671   3.430
  139MYC    H3828491   4.418   4.743   3.560
  139MYC    H3928492   4.349   4.581   3.574
  139MYC    H4028493   4.539   4.492   3.694
  139MYC    H4128494   4.611   4.653   3.676
  139MYC    H4228495   4.423   4.751   3.806
  139MYC    H4328496   4.349   4.605   3.829
  139MYC    H4428497   4.564   4.519   3.955
  139MYC    H4528498   4.627   4.681   3.928
  139MYC    H4628499   4.409   4.768   4.068
  139MYC    H4728500   4.373   4.605   4.082
  139MYC    H4828501   4.598   4.557   4.206
  139MYC    H4928502   4.630   4.730   4.178
  139MYC    H5028503   4.429   4.790   4.324
  139MYC    H5128504   4.404   4.616   4.338
  139MYC    H5228505   4.638   4.607   4.446
  139MYC    H5328506   4.636   4.784   4.444
  139MYC    H5428507   4.442   4.794   4.574
  139MYC    H5528508   4.415   4.615   4.569
  139MYC    H5628509   4.629   4.580   4.697
  139MYC    H5728510   4.644   4.764   4.700
  139MYC    H5828511   4.435   4.751   4.840
  139MYC    H5928512   4.452   4.575   4.843
  139MYC    H6028513   4.657   4.607   4.973
  139MYC    H6128514   4.661   4.782   4.952
  139MYC    H6228515   4.436   4.775   5.091
  139MYC    H6328516   4.436   4.607   5.085
  139MYC    H6428517   4.670   4.617   5.209
  139MYC    H6528518   4.641   4.782   5.240
  139MYC    H6628519   4.394   4.648   5.317
  139MYC    H6728520   4.507   4.521   5.340
  139MYC    H6828521   4.659   4.683   5.472
  139MYC    H6928522   4.528   4.804   5.460
  139MYC    H7028523   4.378   4.620   5.569
  139MYC    H7128524   4.527   4.540   5.606
  139MYC    H7228525   4.578   4.781   5.738
  139MYC    H7328526   4.409   4.806   5.707
  139MYC    H7428527   4.322   4.630   5.835
  139MYC    H7528528   4.470   4.546   5.835
  139MYC    H7628529   4.580   4.718   5.972
  139MYC    H7728530   4.440   4.829   5.959
  139MYC    H7828531   4.303   4.702   6.098
  139MYC    H7928532   4.406   4.557   6.066
  139MYC    H8028533   4.469   4.802   6.239
  139MYC    H8128534   4.591   4.677   6.200
  139MYC    H8228535   4.449   4.635   6.302
  139MYC    H8328536   5.271   4.173   1.692
  139MYC    H8428537   5.203   4.251   1.826
  139MYC    H8528538   5.290   3.951   1.833
  139MYC    H8628539   5.382   4.087   1.885
  139MYC    H8728540   5.162   4.135   2.036
  139MYC    H8828541   5.154   3.957   2.014
  139MYC    H8928542   5.346   3.915   2.135
  139MYC    H9028543   5.399   4.083   2.121
  139MYC    H9128544   5.225   4.151   2.277
  139MYC    H9228545   5.142   4.004   2.264
  139MYC    H9328546   5.335   3.885   2.393
  139MYC    H9428547   5.413   4.041   2.407
  139MYC    H9528548   5.176   4.125   2.513
  139MYC    H9628549   5.146   3.954   2.519
  139MYC    H9728550   5.362   3.919   2.655
  139MYC    H9828551   5.390   4.088   2.644
  139MYC    H9928552   5.186   4.134   2.777
  140MYC     C128553   5.019   5.232   3.186
  140MYC     C228554   4.938   5.122   3.115
  140MYC     O328555   5.034   5.028   3.069
  140MYC     C428556   4.846   5.178   3.005
  140MYC     C528557   4.855   5.124   2.861
  140MYC     C628558   4.945   5.197   2.761
  140MYC     C728559   4.928   5.156   2.614
  140MYC     C828560   5.007   5.246   2.517
  140MYC     C928561   5.006   5.190   2.373
  140MYC    C1028562   5.081   5.275   2.269
  140MYC    C1128563   5.014   5.265   2.131
  140MYC    C1228564   5.028   5.133   2.053
  140MYC    C1328565   4.979   5.151   1.908
  140MYC    C1428566   4.937   5.030   1.824
  140MYC    C1528567   4.879   5.061   1.685
  140MYC    C1628568   4.737   5.121   1.692
  140MYC    C1728569   4.617   5.028   1.684
  140MYC    C1828570   4.549   4.990   1.813
  140MYC    C1928571   4.478   5.078   1.713
  140MYC    C2028572   5.074   5.181   3.320
  140MYC    C2128573   4.973   5.180   3.436
  140MYC    C2228574   5.038   5.169   3.575
  140MYC    C2328575   4.940   5.214   3.685
  140MYC    C2428576   4.981   5.175   3.828
  140MYC    C2528577   4.895   5.250   3.931
  140MYC    C2628578   4.953   5.212   4.068
  140MYC    C2728579   4.877   5.284   4.180
  140MYC    C2828580   4.928   5.232   4.315
  140MYC    C2928581   4.853   5.284   4.439
  140MYC    C3028582   4.929   5.254   4.570
  140MYC    C3128583   4.880   5.321   4.699
  140MYC    C3228584   4.962   5.285   4.824
  140MYC    C3328585   4.902   5.340   4.954
  140MYC    C3428586   4.963   5.286   5.085
  140MYC    C3528587   4.897   5.340   5.212
  140MYC    C3628588   4.953   5.274   5.339
  140MYC    C3728589   4.874   5.321   5.463
  140MYC    C3828590   4.938   5.282   5.597
  140MYC    C3928591   4.859   5.320   5.723
  140MYC    C4028592   4.913   5.246   5.847
  140MYC    C4128593   4.861   5.310   5.976
  140MYC    C4228594   4.877   5.211   6.093
  140MYC    C4328595   4.867   5.278   6.230
  140MYC    C4428596   4.504   4.846   1.833
  140MYC    C4528597   4.383   4.838   1.928
  140MYC    C4628598   4.405   4.925   2.053
  140MYC    C4728599   4.296   4.909   2.161
  140MYC    C4828600   4.316   5.008   2.276
  140MYC    C4928601   4.235   4.978   2.404
  140MYC    C5028602   4.251   5.091   2.506
  140MYC    C5128603   4.227   5.039   2.649
  140MYC    C5228604   4.245   5.149   2.754
  140MYC    C5328605   4.240   5.106   2.901
  140MYC    C5428606   4.370   5.138   2.977
  140MYC    C5528607   4.347   5.137   3.129
  140MYC    C5628608   4.480   5.156   3.202
  140MYC    C5728609   4.490   5.097   3.344
  140MYC    C5828610   4.448   5.193   3.455
  140MYC    C5928611   4.555   5.276   3.522
  140MYC    C6028612   4.494   5.158   3.594
  140MYC    C6128613   4.392   5.163   3.706
  140MYC    C6228614   4.459   5.180   3.843
  140MYC    C6328615   4.360   5.152   3.958
  140MYC    C6428616   4.445   5.140   4.086
  140MYC    C6528617   4.360   5.120   4.212
  140MYC    C6628618   4.446   5.112   4.339
  140MYC    C6728619   4.368   5.091   4.470
  140MYC    C6828620   4.463   5.088   4.590
  140MYC    C6928621   4.384   5.082   4.722
  140MYC    C7028622   4.484   5.103   4.837
  140MYC    C7128623   4.422   5.084   4.976
  140MYC    C7228624   4.511   5.118   5.097
  140MYC    C7328625   4.438   5.099   5.231
  140MYC    C7428626   4.523   5.121   5.358
  140MYC    C7528627   4.427   5.102   5.476
  140MYC    C7628628   4.487   5.114   5.617
  140MYC    C7728629   4.388   5.125   5.734
  140MYC    C7828630   4.447   5.166   5.871
  140MYC    C7928631   4.347   5.129   5.982
  140MYC    C8028632   4.374   5.181   6.124
  140MYC    C8128633   5.132   5.285   3.098
  140MYC    O8228634   5.252   5.261   3.104
  140MYC    O8328635   5.086   5.375   3.009
  140MYC     H128636   4.950   5.315   3.200
  140MYC     H228637   4.870   5.069   3.182
  140MYC     H328638   5.111   5.060   3.120
  140MYC     H428639   4.742   5.167   3.039
  140MYC     H528640   4.863   5.285   2.989
  140MYC     H628641   4.889   5.020   2.865
  140MYC     H728642   4.750   5.120   2.827
  140MYC     H828643   4.919   5.303   2.769
  140MYC     H928644   5.049   5.184   2.794
  140MYC   0H1028645   4.170   5.227   2.737
  140MYC   1H1028646   4.156   5.164   2.941
  140MYC   2H1028647   4.216   4.999   2.915
  140MYC   3H1028648   4.445   5.061   2.956
  140MYC   4H1028649   4.410   5.236   2.946
  140MYC   5H1028650   4.278   5.215   3.165
  140MYC   6H1028651   4.309   5.039   3.161
  140MYC   7H1028652   4.556   5.108   3.139
  140MYC   8H1028653   4.514   5.260   3.205
  140MYC   9H1028654   4.428   5.007   3.351
  140MYC    H1028655   4.960   5.051   2.603
  140MYC   0H1128656   4.590   5.054   3.357
  140MYC   1H1128657   4.349   5.234   3.438
  140MYC   2H1128658   4.656   5.268   3.483
  140MYC   3H1128659   4.523   5.375   3.554
  140MYC   4H1128660   4.571   5.082   3.603
  140MYC   5H1128661   4.299   5.221   3.706
  140MYC   6H1128662   4.348   5.062   3.711
  140MYC   7H1128663   4.546   5.112   3.844
  140MYC   8H1128664   4.505   5.279   3.852
  140MYC   9H1128665   4.280   5.226   3.965
  140MYC    H1128666   4.822   5.153   2.587
  140MYC   0H1228667   4.305   5.059   3.939
  140MYC   1H1228668   4.512   5.054   4.084
  140MYC   2H1228669   4.500   5.234   4.102
  140MYC   3H1228670   4.278   5.193   4.219
  140MYC   4H1228671   4.318   5.019   4.208
  140MYC   5H1228672   4.519   5.031   4.330
  140MYC   6H1228673   4.496   5.209   4.353
  140MYC   7H1228674   4.290   5.168   4.482
  140MYC   8H1228675   4.308   5.000   4.462
  140MYC   9H1228676   4.529   5.001   4.580
  140MYC    H1228677   4.957   5.344   2.514
  140MYC   0H1328678   4.530   5.176   4.593
  140MYC   1H1328679   4.298   5.148   4.735
  140MYC   2H1328680   4.330   4.988   4.739
  140MYC   3H1328681   4.568   5.034   4.826
  140MYC   4H1328682   4.533   5.202   4.833
  140MYC   5H1328683   4.337   5.153   4.985
  140MYC   6H1328684   4.382   4.983   4.993
  140MYC   7H1328685   4.607   5.065   5.093
  140MYC   8H1328686   4.551   5.220   5.095
  140MYC   9H1328687   4.349   5.163   5.231
  140MYC    H1328688   5.108   5.260   2.556
  140MYC   0H1428689   4.391   5.000   5.234
  140MYC   1H1428690   4.610   5.055   5.359
  140MYC   2H1428691   4.560   5.224   5.360
  140MYC   3H1428692   4.337   5.165   5.472
  140MYC   4H1428693   4.400   4.995   5.475
  140MYC   5H1428694   4.549   5.024   5.625
  140MYC   6H1428695   4.561   5.195   5.615
  140MYC   7H1428696   4.305   5.190   5.705
  140MYC   8H1428697   4.354   5.022   5.748
  140MYC   9H1428698   4.543   5.114   5.885
  140MYC    H1428699   5.044   5.088   2.368
  140MYC   0H1528700   4.460   5.275   5.869
  140MYC   1H1528701   4.249   5.169   5.951
  140MYC   2H1528702   4.337   5.020   5.986
  140MYC   3H1528703   4.375   5.290   6.126
  140MYC   4H1528704   4.470   5.146   6.164
  140MYC   5H1528705   4.296   5.143   6.191
  140MYC   6H1528706   5.154   5.388   2.941
  140MYC    H1528707   4.899   5.180   2.349
  140MYC    H1628708   5.079   5.381   2.296
  140MYC    H1728709   5.186   5.247   2.249
  140MYC    H1828710   4.911   5.300   2.144
  140MYC    H1928711   5.060   5.331   2.057
  140MYC    H2028712   5.126   5.085   2.061
  140MYC    H2128713   4.966   5.058   2.104
  140MYC    H2228714   4.895   5.222   1.912
  140MYC    H2328715   5.058   5.212   1.863
  140MYC    H2428716   5.016   4.955   1.811
  140MYC    H2528717   4.856   4.985   1.883
  140MYC    H2628718   4.943   5.138   1.640
  140MYC    H2728719   4.873   4.974   1.618
  140MYC    H2828720   4.728   5.188   1.778
  140MYC    H2928721   4.735   5.185   1.603
  140MYC    H3028722   4.629   4.946   1.614
  140MYC    H3128723   4.588   5.047   1.898
  140MYC    H3228724   4.393   5.026   1.668
  140MYC    H3328725   4.472   5.184   1.735
  140MYC    H3428726   5.126   5.085   3.308
  140MYC    H3528727   5.157   5.246   3.351
  140MYC    H3628728   4.919   5.276   3.437
  140MYC    H3728729   4.894   5.105   3.427
  140MYC    H3828730   5.071   5.067   3.598
  140MYC    H3928731   5.128   5.232   3.575
  140MYC    H4028732   4.942   5.323   3.673
  140MYC    H4128733   4.843   5.168   3.662
  140MYC    H4228734   4.968   5.068   3.844
  140MYC    H4328735   5.087   5.189   3.852
  140MYC    H4428736   4.891   5.358   3.908
  140MYC    H4528737   4.794   5.209   3.923
  140MYC    H4628738   4.957   5.104   4.084
  140MYC    H4728739   5.057   5.247   4.074
  140MYC    H4828740   4.882   5.393   4.168
  140MYC    H4928741   4.770   5.259   4.175
  140MYC    H5028742   4.906   5.124   4.319
  140MYC    H5128743   5.032   5.263   4.325
  140MYC    H5228744   4.840   5.393   4.438
  140MYC    H5328745   4.753   5.239   4.449
  140MYC    H5428746   4.923   5.146   4.587
  140MYC    H5528747   5.031   5.294   4.563
  140MYC    H5628748   4.882   5.430   4.683
  140MYC    H5728749   4.773   5.294   4.708
  140MYC    H5828750   4.964   5.176   4.838
  140MYC    H5928751   5.064   5.321   4.807
  140MYC    H6028752   4.918   5.448   4.950
  140MYC    H6128753   4.795   5.319   4.966
  140MYC    H6228754   4.945   5.178   5.090
  140MYC    H6328755   5.071   5.298   5.098
  140MYC    H6428756   4.901   5.450   5.217
  140MYC    H6528757   4.790   5.315   5.212
  140MYC    H6628758   4.955   5.165   5.337
  140MYC    H6728759   5.060   5.295   5.346
  140MYC    H6828760   4.859   5.429   5.461
  140MYC    H6928761   4.774   5.277   5.464
  140MYC    H7028762   4.967   5.176   5.600
  140MYC    H7128763   5.033   5.338   5.604
  140MYC    H7228764   4.847   5.429   5.732
  140MYC    H7328765   4.755   5.285   5.713
  140MYC    H7428766   4.885   5.140   5.848
  140MYC    H7528767   5.021   5.234   5.835
  140MYC    H7628768   4.910   5.408   5.986
  140MYC    H7728769   4.756   5.340   5.966
  140MYC    H7828770   4.812   5.124   6.077
  140MYC    H7928771   4.979   5.170   6.089
  140MYC    H8028772   4.856   5.201   6.307
  140MYC    H8128773   4.776   5.340   6.232
  140MYC    H8228774   4.953   5.345   6.247
  140MYC    H8328775   4.478   4.795   1.740
  140MYC    H8428776   4.588   4.789   1.873
  140MYC    H8528777   4.293   4.880   1.882
  140MYC    H8628778   4.355   4.734   1.948
  140MYC    H8728779   4.500   4.899   2.101
  140MYC    H8828780   4.407   5.030   2.021
  140MYC    H8928781   4.196   4.929   2.121
  140MYC    H9028782   4.294   4.806   2.200
  140MYC    H9128783   4.422   5.002   2.304
  140MYC    H9228784   4.300   5.112   2.244
  140MYC    H9328785   4.131   4.965   2.373
  140MYC    H9428786   4.271   4.883   2.446
  140MYC    H9528787   4.349   5.140   2.500
  140MYC    H9628788   4.174   5.168   2.489
  140MYC    H9728789   4.124   5.002   2.663
  140MYC    H9828790   4.294   4.958   2.680
  140MYC    H9928791   4.345   5.191   2.733
  141MYC     C128792   4.753   5.636   3.227
  141MYC     C228793   4.840   5.761   3.213
  141MYC     O328794   4.757   5.875   3.228
  141MYC     C428795   4.928   5.756   3.087
  141MYC     C528796   4.874   5.838   2.969
  141MYC     C628797   4.949   5.790   2.844
  141MYC     C728798   4.896   5.863   2.719
  141MYC     C828799   4.756   5.820   2.671
  141MYC     C928800   4.729   5.867   2.527
  141MYC    C1028801   4.704   6.019   2.531
  141MYC    C1128802   4.590   6.077   2.445
  141MYC    C1228803   4.616   6.091   2.294
  141MYC    C1328804   4.616   5.958   2.216
  141MYC    C1428805   4.674   5.976   2.075
  141MYC    C1528806   4.619   5.866   1.983
  141MYC    C1628807   4.667   5.860   1.837
  141MYC    C1728808   4.708   5.997   1.784
  141MYC    C1828809   4.850   6.043   1.765
  141MYC    C1928810   4.766   6.007   1.645
  141MYC    C2028811   4.671   5.628   3.357
  141MYC    C2128812   4.761   5.632   3.482
  141MYC    C2228813   4.681   5.651   3.612
  141MYC    C2328814   4.765   5.640   3.740
  141MYC    C2428815   4.729   5.722   3.865
  141MYC    C2528816   4.805   5.688   3.994
  141MYC    C2628817   4.719   5.706   4.121
  141MYC    C2728818   4.797   5.726   4.252
  141MYC    C2828819   4.708   5.694   4.373
  141MYC    C2928820   4.773   5.734   4.507
  141MYC    C3028821   4.686   5.711   4.631
  141MYC    C3128822   4.757   5.770   4.755
  141MYC    C3228823   4.686   5.722   4.883
  141MYC    C3328824   4.757   5.765   5.012
  141MYC    C3428825   4.710   5.687   5.136
  141MYC    C3528826   4.766   5.730   5.272
  141MYC    C3628827   4.685   5.679   5.392
  141MYC    C3728828   4.717   5.745   5.528
  141MYC    C3828829   4.649   5.669   5.643
  141MYC    C3928830   4.654   5.724   5.787
  141MYC    C4028831   4.623   5.623   5.899
  141MYC    C4128832   4.561   5.678   6.029
  141MYC    C4228833   4.571   5.583   6.149
  141MYC    C4328834   4.465   5.617   6.256
  141MYC    C4428835   4.893   6.189   1.773
  141MYC    C4528836   5.044   6.218   1.769
  141MYC    C4628837   5.119   6.181   1.899
  141MYC    C4728838   5.044   6.215   2.029
  141MYC    C4828839   5.122   6.166   2.152
  141MYC    C4928840   5.074   6.226   2.285
  141MYC    C5028841   5.154   6.174   2.406
  141MYC    C5128842   5.177   6.274   2.520
  141MYC    C5228843   5.246   6.210   2.642
  141MYC    C5328844   5.243   6.300   2.767
  141MYC    C5428845   5.331   6.251   2.882
  141MYC    C5528846   5.303   6.321   3.016
  141MYC    C5628847   5.386   6.272   3.135
  141MYC    C5728848   5.356   6.336   3.271
  141MYC    C5828849   5.427   6.258   3.381
  141MYC    C5928850   5.365   6.131   3.433
  141MYC    C6028851   5.367   6.254   3.519
  141MYC    C6128852   5.450   6.256   3.647
  141MYC    C6228853   5.365   6.229   3.773
  141MYC    C6328854   5.438   6.265   3.903
  141MYC    C6428855   5.350   6.238   4.026
  141MYC    C6528856   5.426   6.261   4.158
  141MYC    C6628857   5.347   6.218   4.283
  141MYC    C6728858   5.432   6.248   4.407
  141MYC    C6828859   5.350   6.229   4.536
  141MYC    C6928860   5.438   6.250   4.660
  141MYC    C7028861   5.362   6.221   4.790
  141MYC    C7128862   5.448   6.268   4.908
  141MYC    C7228863   5.378   6.231   5.040
  141MYC    C7328864   5.456   6.279   5.164
  141MYC    C7428865   5.400   6.212   5.290
  141MYC    C7528866   5.459   6.268   5.421
  141MYC    C7628867   5.419   6.198   5.551
  141MYC    C7728868   5.469   6.265   5.681
  141MYC    C7828869   5.429   6.191   5.810
  141MYC    C7928870   5.461   6.266   5.940
  141MYC    C8028871   5.398   6.208   6.068
  141MYC    C8128872   4.664   5.608   3.106
  141MYC    O8228873   4.560   5.667   3.084
  141MYC    O8328874   4.706   5.510   3.023
  141MYC     H128875   4.820   5.549   3.227
  141MYC     H228876   4.912   5.768   3.296
  141MYC     H328877   4.733   5.908   3.140
  141MYC     H428878   5.027   5.794   3.118
  141MYC     H528879   4.943   5.652   3.057
  141MYC     H628880   4.765   5.827   2.963
  141MYC     H728881   4.907   5.942   2.987
  141MYC     H828882   5.051   5.830   2.851
  141MYC     H928883   4.944   5.681   2.836
  141MYC   0H1028884   5.348   6.177   2.620
  141MYC   1H1028885   5.275   6.402   2.741
  141MYC   2H1028886   5.142   6.307   2.811
  141MYC   3H1028887   5.327   6.142   2.900
  141MYC   4H1028888   5.438   6.260   2.859
  141MYC   5H1028889   5.317   6.430   3.007
  141MYC   6H1028890   5.199   6.304   3.045
  141MYC   7H1028891   5.386   6.163   3.148
  141MYC   8H1028892   5.492   6.295   3.121
  141MYC   9H1028893   5.399   6.437   3.266
  141MYC    H1028894   4.898   5.971   2.736
  141MYC   0H1128895   5.248   6.336   3.287
  141MYC   1H1128896   5.536   6.263   3.379
  141MYC   2H1128897   5.264   6.113   3.399
  141MYC   3H1128898   5.423   6.043   3.461
  141MYC   4H1128899   5.273   6.307   3.533
  141MYC   5H1128900   5.532   6.185   3.635
  141MYC   6H1128901   5.487   6.359   3.657
  141MYC   7H1128902   5.272   6.286   3.775
  141MYC   8H1128903   5.339   6.122   3.777
  141MYC   9H1128904   5.535   6.214   3.914
  141MYC    H1128905   4.962   5.851   2.632
  141MYC   0H1228906   5.463   6.372   3.904
  141MYC   1H1228907   5.262   6.305   4.029
  141MYC   2H1228908   5.315   6.134   4.024
  141MYC   3H1228909   5.518   6.202   4.149
  141MYC   4H1228910   5.455   6.366   4.165
  141MYC   5H1228911   5.251   6.271   4.290
  141MYC   6H1228912   5.334   6.109   4.283
  141MYC   7H1228913   5.515   6.176   4.408
  141MYC   8H1228914   5.478   6.348   4.411
  141MYC   9H1228915   5.267   6.299   4.522
  141MYC    H1228916   4.735   5.713   2.676
  141MYC   0H1328917   5.308   6.129   4.552
  141MYC   1H1328918   5.520   6.179   4.647
  141MYC   2H1328919   5.487   6.348   4.670
  141MYC   3H1328920   5.262   6.268   4.794
  141MYC   4H1328921   5.343   6.113   4.792
  141MYC   5H1328922   5.546   6.218   4.910
  141MYC   6H1328923   5.456   6.378   4.913
  141MYC   7H1328924   5.278   6.276   5.049
  141MYC   8H1328925   5.366   6.122   5.044
  141MYC   9H1328926   5.564   6.257   5.156
  141MYC    H1328927   4.678   5.862   2.736
  141MYC   0H1428928   5.447   6.388   5.171
  141MYC   1H1428929   5.291   6.222   5.289
  141MYC   2H1428930   5.432   6.108   5.278
  141MYC   3H1428931   5.568   6.252   5.426
  141MYC   4H1428932   5.433   6.374   5.429
  141MYC   5H1428933   5.310   6.198   5.559
  141MYC   6H1428934   5.455   6.094   5.542
  141MYC   7H1428935   5.578   6.255   5.670
  141MYC   8H1428936   5.444   6.372   5.680
  141MYC   9H1428937   5.320   6.176   5.804
  141MYC    H1428938   4.808   5.832   2.459
  141MYC   0H1528939   5.485   6.098   5.824
  141MYC   1H1528940   5.570   6.271   5.953
  141MYC   2H1528941   5.426   6.369   5.930
  141MYC   3H1528942   5.432   6.105   6.085
  141MYC   4H1528943   5.289   6.202   6.058
  141MYC   5H1528944   5.439   6.253   6.159
  141MYC   6H1528945   4.650   5.510   2.943
  141MYC    H1528946   4.642   5.816   2.485
  141MYC    H1628947   4.686   6.056   2.632
  141MYC    H1728948   4.798   6.057   2.491
  141MYC    H1828949   4.497   6.020   2.452
  141MYC    H1928950   4.569   6.180   2.476
  141MYC    H2028951   4.538   6.159   2.259
  141MYC    H2128952   4.709   6.142   2.266
  141MYC    H2228953   4.661   5.875   2.270
  141MYC    H2328954   4.509   5.934   2.205
  141MYC    H2428955   4.640   6.073   2.038
  141MYC    H2528956   4.784   5.967   2.080
  141MYC    H2628957   4.623   5.770   2.037
  141MYC    H2728958   4.515   5.901   1.974
  141MYC    H2828959   4.747   5.786   1.832
  141MYC    H2928960   4.592   5.819   1.769
  141MYC    H3028961   4.619   6.056   1.805
  141MYC    H3128962   4.929   5.973   1.792
  141MYC    H3228963   4.715   6.085   1.589
  141MYC    H3328964   4.788   5.916   1.590
  141MYC    H3428965   4.592   5.703   3.362
  141MYC    H3528966   4.626   5.529   3.369
  141MYC    H3628967   4.824   5.543   3.474
  141MYC    H3728968   4.833   5.714   3.493
  141MYC    H3828969   4.646   5.755   3.603
  141MYC    H3928970   4.593   5.584   3.618
  141MYC    H4028971   4.757   5.536   3.775
  141MYC    H4128972   4.873   5.657   3.727
  141MYC    H4228973   4.743   5.828   3.840
  141MYC    H4328974   4.623   5.710   3.891
  141MYC    H4428975   4.840   5.584   3.984
  141MYC    H4528976   4.895   5.748   4.010
  141MYC    H4628977   4.644   5.782   4.099
  141MYC    H4728978   4.654   5.619   4.138
  141MYC    H4828979   4.892   5.672   4.250
  141MYC    H4928980   4.829   5.830   4.261
  141MYC    H5028981   4.607   5.738   4.370
  141MYC    H5128982   4.692   5.586   4.379
  141MYC    H5228983   4.863   5.674   4.520
  141MYC    H5328984   4.801   5.840   4.505
  141MYC    H5428985   4.585   5.750   4.613
  141MYC    H5528986   4.677   5.603   4.643
  141MYC    H5628987   4.865   5.750   4.756
  141MYC    H5728988   4.759   5.879   4.749
  141MYC    H5828989   4.583   5.757   4.881
  141MYC    H5928990   4.683   5.612   4.880
  141MYC    H6028991   4.867   5.757   5.013
  141MYC    H6128992   4.737   5.871   5.035
  141MYC    H6228993   4.600   5.687   5.140
  141MYC    H6328994   4.731   5.581   5.117
  141MYC    H6428995   4.875   5.725   5.290
  141MYC    H6528996   4.758   5.840   5.277
  141MYC    H6628997   4.579   5.675   5.366
  141MYC    H6728998   4.718   5.575   5.401
  141MYC    H6828999   4.825   5.738   5.545
  141MYC    H6929000   4.690   5.851   5.526
  141MYC    H7029001   4.548   5.633   5.618
  141MYC    H7129002   4.692   5.568   5.650
  141MYC    H7229003   4.753   5.769   5.802
  141MYC    H7329004   4.577   5.801   5.789
  141MYC    H7429005   4.565   5.545   5.848
  141MYC    H7529006   4.726   5.593   5.918
  141MYC    H7629007   4.606   5.775   6.052
  141MYC    H7729008   4.454   5.690   6.008
  141MYC    H7829009   4.562   5.479   6.115
  141MYC    H7929010   4.673   5.581   6.188
  141MYC    H8029011   4.463   5.548   6.341
  141MYC    H8129012   4.369   5.627   6.203
  141MYC    H8229013   4.498   5.711   6.302
  141MYC    H8329014   4.864   6.236   1.678
  141MYC    H8429015   4.840   6.248   1.848
  141MYC    H8529016   5.091   6.178   1.678
  141MYC    H8629017   5.069   6.323   1.755
  141MYC    H8729018   5.134   6.072   1.899
  141MYC    H8829019   5.217   6.228   1.888
  141MYC    H8929020   5.032   6.324   2.036
  141MYC    H9029021   4.943   6.173   2.032
  141MYC    H9129022   5.107   6.058   2.165
  141MYC    H9229023   5.231   6.175   2.146
  141MYC    H9329024   5.067   6.334   2.270
  141MYC    H9429025   4.966   6.207   2.293
  141MYC    H9529026   5.109   6.081   2.444
  141MYC    H9629027   5.255   6.157   2.367
  141MYC    H9729028   5.243   6.355   2.488
  141MYC    H9829029   5.081   6.322   2.544
  141MYC    H9929030   5.188   6.123   2.676
  142MYC     C129031   5.787   0.173   3.270
  142MYC     C229032   5.695   0.199   3.149
  142MYC     O329033   5.609   0.088   3.128
  142MYC     C429034   5.767   0.246   3.022
  142MYC     C529035   5.676   0.285   2.905
  142MYC     C629036   5.634   0.167   2.816
  142MYC     C729037   5.740   0.134   2.709
  142MYC     C829038   5.677   0.079   2.580
  142MYC     C929039   5.775   0.021   2.477
  142MYC    C1029040   5.700   0.033   2.343
  142MYC    C1129041   5.796   0.015   2.225
  142MYC    C1229042   5.720  -0.026   2.097
  142MYC    C1329043   5.815  -0.047   1.978
  142MYC    C1429044   5.728  -0.046   1.850
  142MYC    C1529045   5.813  -0.012   1.727
  142MYC    C1629046   5.853   0.137   1.718
  142MYC    C1729047   5.733   0.227   1.694
  142MYC    C1829048   5.686   0.300   1.817
  142MYC    C1929049   5.754   0.376   1.706
  142MYC    C2029050   5.723   0.214   3.404
  142MYC    C2129051   5.813   0.193   3.527
  142MYC    C2229052   5.749   0.250   3.655
  142MYC    C2329053   5.832   0.236   3.783
  142MYC    C2429054   5.817   0.102   3.857
  142MYC    C2529055   5.887   0.106   3.994
  142MYC    C2629056   5.848  -0.010   4.087
  142MYC    C2729057   5.924   0.008   4.220
  142MYC    C2829058   5.852  -0.048   4.343
  142MYC    C2929059   5.912  -0.007   4.479
  142MYC    C3029060   5.825  -0.049   4.599
  142MYC    C3129061   5.898   0.003   4.724
  142MYC    C3229062   5.832  -0.038   4.856
  142MYC    C3329063   5.913  -0.009   4.984
  142MYC    C3429064   5.832  -0.042   5.110
  142MYC    C3529065   5.897   0.005   5.242
  142MYC    C3629066   5.827  -0.049   5.367
  142MYC    C3729067   5.905  -0.007   5.493
  142MYC    C3829068   5.845  -0.053   5.627
  142MYC    C3929069   5.940  -0.011   5.741
  142MYC    C4029070   5.887  -0.060   5.876
  142MYC    C4129071   5.953  -0.002   6.002
  142MYC    C4229072   5.875  -0.036   6.131
  142MYC    C4329073   5.957  -0.124   6.226
  142MYC    C4429074   5.538   0.324   1.843
  142MYC    C4529075   5.522   0.437   1.946
  142MYC    C4629076   5.535   0.397   2.094
  142MYC    C4729077   5.518   0.522   2.182
  142MYC    C4829078   5.558   0.490   2.327
  142MYC    C4929079   5.472   0.576   2.421
  142MYC    C5029080   5.517   0.555   2.567
  142MYC    C5129081   5.443   0.659   2.654
  142MYC    C5229082   5.446   0.605   2.798
  142MYC    C5329083   5.340   0.682   2.879
  142MYC    C5429084   5.361   0.659   3.030
  142MYC    C5529085   5.309   0.524   3.082
  142MYC    C5629086   5.351   0.486   3.225
  142MYC    C5729087   5.261   0.375   3.284
  142MYC    C5829088   5.320   0.326   3.415
  142MYC    C5929089   5.261   0.211   3.492
  142MYC    C6029090   5.246   0.351   3.544
  142MYC    C6129091   5.335   0.386   3.663
  142MYC    C6229092   5.258   0.378   3.796
  142MYC    C6329093   5.351   0.365   3.917
  142MYC    C6429094   5.269   0.372   4.047
  142MYC    C6529095   5.373   0.376   4.160
  142MYC    C6629096   5.308   0.365   4.299
  142MYC    C6729097   5.424   0.348   4.399
  142MYC    C6829098   5.380   0.280   4.530
  142MYC    C6929099   5.474   0.309   4.648
  142MYC    C7029100   5.407   0.291   4.785
  142MYC    C7129101   5.507   0.310   4.901
  142MYC    C7229102   5.439   0.287   5.037
  142MYC    C7329103   5.473   0.389   5.147
  142MYC    C7429104   5.408   0.358   5.283
  142MYC    C7529105   5.471   0.450   5.389
  142MYC    C7629106   5.413   0.426   5.530
  142MYC    C7729107   5.486   0.497   5.645
  142MYC    C7829108   5.470   0.426   5.780
  142MYC    C7929109   5.529   0.511   5.894
  142MYC    C8029110   5.521   0.436   6.028
  142MYC    C8129111   5.857   0.038   3.262
  142MYC    O8229112   5.838  -0.064   3.326
  142MYC    O8329113   5.965   0.053   3.182
  142MYC     H129114   5.859   0.253   3.251
  142MYC     H229115   5.624   0.279   3.175
  142MYC     H329116   5.522   0.108   3.090
  142MYC     H429117   5.817   0.337   3.058
  142MYC     H529118   5.844   0.174   2.991
  142MYC     H629119   5.582   0.337   2.929
  142MYC     H729120   5.731   0.359   2.846
  142MYC     H829121   5.590   0.077   2.860
  142MYC     H929122   5.541   0.201   2.767
  142MYC   0H1029123   5.546   0.626   2.837
  142MYC   1H1029124   5.363   0.787   2.860
  142MYC   2H1029125   5.238   0.656   2.850
  142MYC   3H1029126   5.465   0.669   3.060
  142MYC   4H1029127   5.313   0.742   3.083
  142MYC   5H1029128   5.200   0.537   3.085
  142MYC   6H1029129   5.331   0.441   3.013
  142MYC   7H1029130   5.456   0.457   3.220
  142MYC   8H1029131   5.345   0.577   3.286
  142MYC   9H1029132   5.159   0.413   3.298
  142MYC    H1029133   5.794   0.226   2.682
  142MYC   0H1129134   5.235   0.300   3.209
  142MYC   1H1129135   5.428   0.334   3.425
  142MYC   2H1129136   5.178   0.158   3.447
  142MYC   3H1129137   5.331   0.141   3.538
  142MYC   4H1129138   5.146   0.395   3.539
  142MYC   5H1129139   5.421   0.319   3.677
  142MYC   6H1129140   5.379   0.485   3.645
  142MYC   7H1129141   5.184   0.459   3.800
  142MYC   8H1129142   5.198   0.286   3.798
  142MYC   9H1129143   5.422   0.283   3.900
  142MYC    H1129144   5.813   0.062   2.747
  142MYC   0H1229145   5.415   0.454   3.925
  142MYC   1H1229146   5.220   0.470   4.056
  142MYC   2H1229147   5.196   0.291   4.053
  142MYC   3H1229148   5.428   0.281   4.159
  142MYC   4H1229149   5.454   0.448   4.144
  142MYC   5H1229150   5.244   0.451   4.321
  142MYC   6H1229151   5.238   0.280   4.294
  142MYC   7H1229152   5.505   0.293   4.350
  142MYC   8H1229153   5.479   0.440   4.419
  142MYC   9H1229154   5.274   0.292   4.554
  142MYC    H1229155   5.609   0.001   2.615
  142MYC   0H1329156   5.388   0.171   4.518
  142MYC   1H1329157   5.558   0.238   4.648
  142MYC   2H1329158   5.521   0.407   4.633
  142MYC   3H1329159   5.330   0.369   4.790
  142MYC   4H1329160   5.352   0.196   4.793
  142MYC   5H1329161   5.594   0.245   4.887
  142MYC   6H1329162   5.551   0.410   4.897
  142MYC   7H1329163   5.330   0.276   5.042
  142MYC   8H1329164   5.467   0.187   5.073
  142MYC   9H1329165   5.580   0.389   5.169
  142MYC    H1329166   5.613   0.160   2.543
  142MYC   0H1429167   5.442   0.489   5.115
  142MYC   1H1429168   5.300   0.373   5.286
  142MYC   2H1429169   5.437   0.255   5.308
  142MYC   3H1429170   5.579   0.430   5.399
  142MYC   4H1429171   5.461   0.555   5.361
  142MYC   5H1429172   5.305   0.446   5.530
  142MYC   6H1429173   5.409   0.317   5.547
  142MYC   7H1429174   5.592   0.514   5.625
  142MYC   8H1429175   5.452   0.601   5.656
  142MYC   9H1429176   5.362   0.408   5.788
  142MYC    H1429177   5.864   0.085   2.474
  142MYC   0H1529178   5.527   0.332   5.774
  142MYC   1H1529179   5.630   0.538   5.858
  142MYC   2H1529180   5.470   0.603   5.906
  142MYC   3H1529181   5.607   0.469   6.087
  142MYC   4H1529182   5.519   0.327   6.022
  142MYC   5H1529183   5.430   0.467   6.080
  142MYC   6H1529184   6.008  -0.034   3.186
  142MYC    H1529185   5.806  -0.079   2.509
  142MYC    H1629186   5.609  -0.030   2.335
  142MYC    H1729187   5.669   0.137   2.329
  142MYC    H1829188   5.846   0.109   2.202
  142MYC    H1929189   5.875  -0.057   2.252
  142MYC    H2029190   5.679  -0.125   2.120
  142MYC    H2129191   5.632   0.038   2.081
  142MYC    H2229192   5.886   0.036   1.982
  142MYC    H2329193   5.871  -0.140   1.988
  142MYC    H2429194   5.684  -0.146   1.841
  142MYC    H2529195   5.643   0.022   1.862
  142MYC    H2629196   5.909  -0.065   1.736
  142MYC    H2729197   5.771  -0.044   1.631
  142MYC    H2829198   5.894   0.167   1.815
  142MYC    H2929199   5.922   0.153   1.634
  142MYC    H3029200   5.672   0.195   1.610
  142MYC    H3129201   5.740   0.290   1.911
  142MYC    H3229202   5.689   0.440   1.648
  142MYC    H3329203   5.851   0.419   1.731
  142MYC    H3429204   5.709   0.322   3.407
  142MYC    H3529205   5.621   0.173   3.408
  142MYC    H3629206   5.841   0.087   3.531
  142MYC    H3729207   5.908   0.240   3.500
  142MYC    H3829208   5.731   0.358   3.648
  142MYC    H3929209   5.646   0.218   3.679
  142MYC    H4029210   5.939   0.249   3.762
  142MYC    H4129211   5.806   0.315   3.854
  142MYC    H4229212   5.708   0.087   3.863
  142MYC    H4329213   5.855   0.017   3.798
  142MYC    H4429214   5.995   0.107   3.978
  142MYC    H4529215   5.865   0.199   4.048
  142MYC    H4629216   5.741   0.002   4.109
  142MYC    H4729217   5.871  -0.110   4.050
  142MYC    H4829218   6.023  -0.037   4.208
  142MYC    H4929219   5.951   0.113   4.237
  142MYC    H5029220   5.750  -0.007   4.341
  142MYC    H5129221   5.848  -0.157   4.340
  142MYC    H5229222   6.014  -0.047   4.485
  142MYC    H5329223   5.920   0.102   4.484
  142MYC    H5429224   5.726  -0.001   4.597
  142MYC    H5529225   5.816  -0.158   4.603
  142MYC    H5629226   6.005  -0.023   4.718
  142MYC    H5729227   5.896   0.112   4.733
  142MYC    H5829228   5.736   0.014   4.850
  142MYC    H5929229   5.811  -0.146   4.858
  142MYC    H6029230   6.008  -0.063   4.980
  142MYC    H6129231   5.936   0.098   4.993
  142MYC    H6229232   5.730  -0.002   5.104
  142MYC    H6329233   5.828  -0.151   5.100
  142MYC    H6429234   6.005  -0.016   5.248
  142MYC    H6529235   5.886   0.114   5.250
  142MYC    H6629236   5.725  -0.010   5.379
  142MYC    H6729237   5.817  -0.158   5.356
  142MYC    H6829238   6.003  -0.058   5.491
  142MYC    H6929239   5.916   0.102   5.493
  142MYC    H7029240   5.748  -0.002   5.638
  142MYC    H7129241   5.829  -0.161   5.637
  142MYC    H7229242   6.041  -0.050   5.730
  142MYC    H7329243   5.939   0.099   5.741
  142MYC    H7429244   5.785  -0.020   5.876
  142MYC    H7529245   5.880  -0.169   5.886
  142MYC    H7629246   6.058  -0.031   6.012
  142MYC    H7729247   5.957   0.108   5.993
  142MYC    H7829248   5.845   0.052   6.189
  142MYC    H7929249   5.777  -0.079   6.108
  142MYC    H8029250   5.880  -0.169   6.290
  142MYC    H8129251   6.025  -0.071   6.294
  142MYC    H8229252   6.007  -0.204   6.169
  142MYC    H8329253   5.491   0.341   1.745
  142MYC    H8429254   5.487   0.233   1.878
  142MYC    H8529255   5.608   0.501   1.924
  142MYC    H8629256   5.429   0.491   1.926
  142MYC    H8729257   5.459   0.322   2.117
  142MYC    H8829258   5.634   0.354   2.112
  142MYC    H8929259   5.585   0.604   2.155
  142MYC    H9029260   5.413   0.555   2.177
  142MYC    H9129261   5.541   0.384   2.348
  142MYC    H9229262   5.662   0.522   2.341
  142MYC    H9329263   5.490   0.681   2.395
  142MYC    H9429264   5.366   0.554   2.401
  142MYC    H9529265   5.496   0.454   2.604
  142MYC    H9629266   5.625   0.563   2.582
  142MYC    H9729267   5.472   0.764   2.648
  142MYC    H9829268   5.340   0.664   2.615
  142MYC    H9929269   5.419   0.499   2.798
  143MYC     C129270   5.865   0.798   3.216
  143MYC     C229271   5.888   0.864   3.079
  143MYC     O329272   5.833   0.995   3.083
  143MYC     C429273   5.820   0.800   2.956
  143MYC     C529274   5.877   0.862   2.827
  143MYC     C629275   5.808   0.811   2.699
  143MYC     C729276   5.860   0.882   2.573
  143MYC     C829277   5.826   0.800   2.447
  143MYC     C929278   5.869   0.871   2.318
  143MYC    C1029279   5.827   0.808   2.184
  143MYC    C1129280   5.856   0.895   2.060
  143MYC    C1229281   5.758   1.013   2.048
  143MYC    C1329282   5.772   1.078   1.910
  143MYC    C1429283   5.711   1.219   1.905
  143MYC    C1529284   5.717   1.281   1.764
  143MYC    C1629285   5.672   1.427   1.754
  143MYC    C1729286   5.522   1.439   1.728
  143MYC    C1829287   5.446   1.569   1.744
  143MYC    C1929288   5.473   1.513   1.606
  143MYC    C2029289   5.937   0.877   3.327
  143MYC    C2129290   5.941   0.796   3.458
  143MYC    C2229291   5.989   0.879   3.579
  143MYC    C2329292   5.943   0.810   3.708
  143MYC    C2429293   5.981   0.895   3.831
  143MYC    C2529294   5.984   0.806   3.956
  143MYC    C2629295   5.943   0.893   4.076
  143MYC    C2729296   5.916   0.822   4.210
  143MYC    C2829297   5.877   0.923   4.319
  143MYC    C2929298   5.882   0.859   4.458
  143MYC    C3029299   5.904   0.951   4.579
  143MYC    C3129300   5.895   0.876   4.712
  143MYC    C3229301   5.869   0.955   4.841
  143MYC    C3329302   5.868   0.869   4.969
  143MYC    C3429303   5.893   0.945   5.100
  143MYC    C3529304   5.894   0.854   5.224
  143MYC    C3629305   5.888   0.931   5.357
  143MYC    C3729306   5.910   0.829   5.471
  143MYC    C3829307   5.924   0.909   5.601
  143MYC    C3929308   5.948   0.821   5.725
  143MYC    C4029309   5.944   0.900   5.857
  143MYC    C4129310   5.964   0.795   5.968
  143MYC    C4229311   6.037   0.840   6.096
  143MYC    C4329312   6.055   0.727   6.199
  143MYC    C4429313   5.308   1.578   1.805
  143MYC    C4529314   5.310   1.608   1.956
  143MYC    C4629315   5.326   1.481   2.042
  143MYC    C4729316   5.354   1.519   2.188
  143MYC    C4829317   5.391   1.396   2.272
  143MYC    C4929318   5.428   1.431   2.417
  143MYC    C5029319   5.494   1.323   2.505
  143MYC    C5129320   5.410   1.282   2.627
  143MYC    C5229321   5.477   1.201   2.739
  143MYC    C5329322   5.404   1.202   2.875
  143MYC    C5429323   5.496   1.184   2.997
  143MYC    C5529324   5.422   1.181   3.132
  143MYC    C5629325   5.520   1.191   3.250
  143MYC    C5729326   5.441   1.210   3.380
  143MYC    C5829327   5.543   1.229   3.492
  143MYC    C5929328   5.589   1.105   3.566
  143MYC    C6029329   5.509   1.211   3.638
  143MYC    C6129330   5.577   1.307   3.734
  143MYC    C6229331   5.590   1.244   3.874
  143MYC    C6329332   5.626   1.346   3.984
  143MYC    C6429333   5.641   1.278   4.121
  143MYC    C6529334   5.666   1.371   4.241
  143MYC    C6629335   5.654   1.298   4.375
  143MYC    C6729336   5.698   1.390   4.490
  143MYC    C6829337   5.682   1.322   4.627
  143MYC    C6929338   5.726   1.416   4.740
  143MYC    C7029339   5.765   1.341   4.868
  143MYC    C7129340   5.740   1.422   4.996
  143MYC    C7229341   5.790   1.360   5.128
  143MYC    C7329342   5.771   1.458   5.245
  143MYC    C7429343   5.826   1.404   5.378
  143MYC    C7529344   5.718   1.411   5.487
  143MYC    C7629345   5.762   1.344   5.619
  143MYC    C7729346   5.660   1.382   5.727
  143MYC    C7829347   5.692   1.324   5.866
  143MYC    C7929348   5.620   1.400   5.979
  143MYC    C8029349   5.678   1.343   6.109
  143MYC    C8129350   5.720   0.763   3.243
  143MYC    O8229351   5.652   0.825   3.323
  143MYC    O8329352   5.681   0.638   3.206
  143MYC     H129353   5.922   0.706   3.196
  143MYC     H229354   5.996   0.868   3.057
  143MYC     H329355   5.907   1.058   3.090
  143MYC     H429356   5.838   0.692   2.951
  143MYC     H529357   5.712   0.815   2.962
  143MYC     H629358   5.878   0.971   2.824
  143MYC     H729359   5.983   0.833   2.820
  143MYC     H829360   5.833   0.704   2.698
  143MYC     H929361   5.698   0.812   2.699
  143MYC   0H1029362   5.571   1.253   2.763
  143MYC   1H1029363   5.356   1.299   2.888
  143MYC   2H1029364   5.323   1.128   2.878
  143MYC   3H1029365   5.569   1.104   2.981
  143MYC   4H1029366   5.561   1.272   2.993
  143MYC   5H1029367   5.339   1.253   3.131
  143MYC   6H1029368   5.377   1.081   3.139
  143MYC   7H1029369   5.573   1.095   3.263
  143MYC   8H1029370   5.587   1.277   3.240
  143MYC   9H1029371   5.391   1.307   3.369
  143MYC    H1029372   5.821   0.984   2.570
  143MYC   0H1129373   5.365   1.133   3.398
  143MYC   1H1129374   5.617   1.305   3.470
  143MYC   2H1129375   5.538   1.011   3.546
  143MYC   3H1129376   5.694   1.099   3.590
  143MYC   4H1129377   5.407   1.185   3.665
  143MYC   5H1129378   5.676   1.333   3.695
  143MYC   6H1129379   5.519   1.400   3.732
  143MYC   7H1129380   5.492   1.200   3.894
  143MYC   8H1129381   5.669   1.167   3.880
  143MYC   9H1129382   5.721   1.393   3.955
  143MYC    H1129383   5.969   0.888   2.578
  143MYC   0H1229384   5.553   1.427   3.994
  143MYC   1H1229385   5.540   1.234   4.130
  143MYC   2H1229386   5.726   1.209   4.119
  143MYC   3H1229387   5.760   1.425   4.225
  143MYC   4H1229388   5.596   1.455   4.249
  143MYC   5H1229389   5.551   1.261   4.387
  143MYC   6H1229390   5.723   1.213   4.364
  143MYC   7H1229391   5.806   1.405   4.476
  143MYC   8H1229392   5.648   1.488   4.490
  143MYC   9H1229393   5.575   1.299   4.639
  143MYC    H1229394   5.871   0.701   2.463
  143MYC   0H1329395   5.740   1.228   4.630
  143MYC   1H1329396   5.811   1.471   4.697
  143MYC   2H1329397   5.653   1.495   4.759
  143MYC   3H1329398   5.714   1.243   4.869
  143MYC   4H1329399   5.873   1.326   4.874
  143MYC   5H1329400   5.784   1.523   4.990
  143MYC   6H1329401   5.632   1.443   4.995
  143MYC   7H1329402   5.734   1.269   5.152
  143MYC   8H1329403   5.894   1.327   5.121
  143MYC   9H1329404   5.830   1.549   5.227
  143MYC    H1329405   5.718   0.786   2.443
  143MYC   0H1429406   5.667   1.490   5.259
  143MYC   1H1429407   5.847   1.296   5.368
  143MYC   2H1429408   5.918   1.453   5.412
  143MYC   3H1429409   5.693   1.515   5.509
  143MYC   4H1429410   5.630   1.356   5.450
  143MYC   5H1429411   5.767   1.235   5.608
  143MYC   6H1429412   5.857   1.382   5.658
  143MYC   7H1429413   5.659   1.492   5.736
  143MYC   8H1429414   5.558   1.351   5.702
  143MYC   9H1429415   5.663   1.219   5.871
  143MYC    H1429416   5.826   0.972   2.325
  143MYC   0H1529417   5.799   1.338   5.885
  143MYC   1H1529418   5.643   1.507   5.986
  143MYC   2H1529419   5.512   1.383   5.980
  143MYC   3H1529420   5.786   1.360   6.119
  143MYC   4H1529421   5.656   1.237   6.126
  143MYC   5H1529422   5.632   1.397   6.193
  143MYC   6H1529423   5.596   0.629   3.253
  143MYC    H1529424   5.976   0.896   2.321
  143MYC    H1629425   5.881   0.714   2.170
  143MYC    H1729426   5.723   0.777   2.201
  143MYC    H1829427   5.963   0.916   2.049
  143MYC    H1929428   5.829   0.831   1.975
  143MYC    H2029429   5.655   0.976   2.044
  143MYC    H2129430   5.765   1.078   2.136
  143MYC    H2229431   5.880   1.080   1.888
  143MYC    H2329432   5.727   1.009   1.837
  143MYC    H2429433   5.606   1.218   1.938
  143MYC    H2529434   5.759   1.290   1.973
  143MYC    H2629435   5.820   1.264   1.730
  143MYC    H2729436   5.653   1.228   1.693
  143MYC    H2829437   5.709   1.469   1.848
  143MYC    H2929438   5.722   1.477   1.670
  143MYC    H3029439   5.469   1.348   1.752
  143MYC    H3129440   5.502   1.660   1.765
  143MYC    H3229441   5.386   1.476   1.553
  143MYC    H3329442   5.546   1.564   1.544
  143MYC    H3429443   6.039   0.891   3.288
  143MYC    H3529444   5.875   0.966   3.342
  143MYC    H3629445   5.846   0.745   3.480
  143MYC    H3729446   6.002   0.707   3.440
  143MYC    H3829447   6.097   0.893   3.574
  143MYC    H3929448   5.948   0.980   3.583
  143MYC    H4029449   5.834   0.801   3.700
  143MYC    H4129450   6.000   0.716   3.710
  143MYC    H4229451   6.081   0.935   3.808
  143MYC    H4329452   5.918   0.984   3.843
  143MYC    H4429453   5.908   0.727   3.959
  143MYC    H4529454   6.084   0.766   3.974
  143MYC    H4629455   6.017   0.974   4.082
  143MYC    H4729456   5.854   0.949   4.045
  143MYC    H4829457   5.832   0.751   4.212
  143MYC    H4929458   6.008   0.768   4.237
  143MYC    H5029459   5.957   0.997   4.310
  143MYC    H5129460   5.782   0.976   4.299
  143MYC    H5229461   5.790   0.802   4.475
  143MYC    H5329462   5.960   0.781   4.456
  143MYC    H5429463   6.002   1.000   4.568
  143MYC    H5529464   5.830   1.031   4.569
  143MYC    H5629465   5.819   0.796   4.707
  143MYC    H5729466   5.990   0.823   4.729
  143MYC    H5829467   5.952   1.027   4.850
  143MYC    H5929468   5.774   1.006   4.820
  143MYC    H6029469   5.770   0.820   4.962
  143MYC    H6129470   5.942   0.788   4.968
  143MYC    H6229471   5.995   0.983   5.090
  143MYC    H6329472   5.813   1.019   5.109
  143MYC    H6429473   5.803   0.792   5.221
  143MYC    H6529474   5.985   0.792   5.223
  143MYC    H6629475   5.965   1.009   5.357
  143MYC    H6729476   5.792   0.983   5.365
  143MYC    H6829477   5.823   0.763   5.477
  143MYC    H6929478   5.994   0.766   5.439
  143MYC    H7029479   6.009   0.978   5.594
  143MYC    H7129480   5.835   0.972   5.614
  143MYC    H7229481   5.870   0.743   5.726
  143MYC    H7329482   6.036   0.757   5.718
  143MYC    H7429483   6.032   0.966   5.862
  143MYC    H7529484   5.852   0.953   5.884
  143MYC    H7629485   5.865   0.760   5.999
  143MYC    H7729486   6.020   0.709   5.931
  143MYC    H7829487   6.129   0.891   6.066
  143MYC    H7929488   5.985   0.921   6.148
  143MYC    H8029489   5.957   0.678   6.203
  143MYC    H8129490   6.092   0.772   6.292
  143MYC    H8229491   6.131   0.655   6.167
  143MYC    H8329492   5.255   1.661   1.756
  143MYC    H8429493   5.261   1.482   1.782
  143MYC    H8529494   5.386   1.682   1.984
  143MYC    H8629495   5.214   1.649   1.989
  143MYC    H8729496   5.232   1.426   2.031
  143MYC    H8829497   5.403   1.413   2.004
  143MYC    H8929498   5.424   1.604   2.192
  143MYC    H9029499   5.259   1.560   2.224
  143MYC    H9129500   5.323   1.309   2.272
  143MYC    H9229501   5.490   1.367   2.235
  143MYC    H9329502   5.493   1.519   2.411
  143MYC    H9429503   5.336   1.456   2.470
  143MYC    H9529504   5.525   1.243   2.437
  143MYC    H9629505   5.583   1.370   2.548
  143MYC    H9729506   5.376   1.375   2.676
  143MYC    H9829507   5.319   1.230   2.596
  143MYC    H9929508   5.507   1.102   2.704
  144MYC     C129509   5.770   1.660   3.146
  144MYC     C229510   5.698   1.787   3.099
  144MYC     O329511   5.562   1.787   3.140
  144MYC     C429512   5.711   1.819   2.949
  144MYC     C529513   5.667   1.963   2.922
  144MYC     C629514   5.595   1.989   2.789
  144MYC     C729515   5.695   2.029   2.679
  144MYC     C829516   5.629   2.065   2.545
  144MYC     C929517   5.721   2.076   2.422
  144MYC    C1029518   5.761   1.934   2.380
  144MYC    C1129519   5.848   1.923   2.253
  144MYC    C1229520   5.778   1.986   2.131
  144MYC    C1329521   5.838   1.936   1.999
  144MYC    C1429522   5.791   2.018   1.878
  144MYC    C1529523   5.841   1.961   1.743
  144MYC    C1629524   5.785   2.038   1.622
  144MYC    C1729525   5.639   2.006   1.594
  144MYC    C1829526   5.519   2.086   1.640
  144MYC    C1929527   5.567   2.096   1.497
  144MYC    C2029528   5.747   1.620   3.293
  144MYC    C2129529   5.781   1.716   3.409
  144MYC    C2229530   5.740   1.667   3.548
  144MYC    C2329531   5.768   1.758   3.669
  144MYC    C2429532   5.753   1.687   3.805
  144MYC    C2529533   5.785   1.781   3.922
  144MYC    C2629534   5.755   1.711   4.056
  144MYC    C2729535   5.778   1.798   4.181
  144MYC    C2829536   5.743   1.725   4.312
  144MYC    C2929537   5.763   1.817   4.433
  144MYC    C3029538   5.754   1.759   4.575
  144MYC    C3129539   5.789   1.861   4.685
  144MYC    C3229540   5.788   1.810   4.830
  144MYC    C3329541   5.790   1.906   4.950
  144MYC    C3429542   5.802   1.833   5.085
  144MYC    C3529543   5.795   1.920   5.212
  144MYC    C3629544   5.801   1.829   5.335
  144MYC    C3729545   5.785   1.906   5.467
  144MYC    C3829546   5.776   1.821   5.595
  144MYC    C3929547   5.761   1.910   5.719
  144MYC    C4029548   5.755   1.831   5.850
  144MYC    C4129549   5.742   1.928   5.969
  144MYC    C4229550   5.730   1.860   6.107
  144MYC    C4329551   5.737   1.960   6.223
  144MYC    C4429552   5.393   2.014   1.684
  144MYC    C4529553   5.310   2.091   1.788
  144MYC    C4629554   5.354   2.061   1.932
  144MYC    C4729555   5.266   2.129   2.038
  144MYC    C4829556   5.333   2.140   2.176
  144MYC    C4929557   5.236   2.188   2.285
  144MYC    C5029558   5.307   2.224   2.416
  144MYC    C5129559   5.206   2.260   2.527
  144MYC    C5229560   5.268   2.244   2.667
  144MYC    C5329561   5.174   2.213   2.785
  144MYC    C5429562   5.249   2.239   2.916
  144MYC    C5529563   5.163   2.199   3.037
  144MYC    C5629564   5.258   2.186   3.157
  144MYC    C5729565   5.181   2.207   3.289
  144MYC    C5829566   5.274   2.218   3.409
  144MYC    C5929567   5.344   2.090   3.449
  144MYC    C6029568   5.243   2.153   3.541
  144MYC    C6129569   5.275   2.227   3.671
  144MYC    C6229570   5.343   2.137   3.775
  144MYC    C6329571   5.377   2.217   3.902
  144MYC    C6429572   5.408   2.126   4.022
  144MYC    C6529573   5.420   2.205   4.153
  144MYC    C6629574   5.419   2.124   4.284
  144MYC    C6729575   5.420   2.208   4.412
  144MYC    C6829576   5.410   2.127   4.542
  144MYC    C6929577   5.437   2.211   4.668
  144MYC    C7029578   5.446   2.119   4.791
  144MYC    C7129579   5.441   2.199   4.923
  144MYC    C7229580   5.396   2.108   5.038
  144MYC    C7329581   5.376   2.192   5.165
  144MYC    C7429582   5.334   2.110   5.288
  144MYC    C7529583   5.355   2.176   5.425
  144MYC    C7629584   5.359   2.077   5.542
  144MYC    C7729585   5.340   2.145   5.679
  144MYC    C7829586   5.310   2.048   5.795
  144MYC    C7929587   5.279   2.108   5.933
  144MYC    C8029588   5.284   1.999   6.041
  144MYC    C8129589   5.745   1.540   3.056
  144MYC    O8229590   5.838   1.490   2.995
  144MYC    O8329591   5.617   1.509   3.025
  144MYC     H129592   5.878   1.682   3.150
  144MYC     H229593   5.740   1.869   3.159
  144MYC     H329594   5.503   1.801   3.064
  144MYC     H429595   5.813   1.791   2.919
  144MYC     H529596   5.660   1.750   2.881
  144MYC     H629597   5.605   1.991   3.009
  144MYC     H729598   5.758   2.023   2.932
  144MYC     H829599   5.532   1.904   2.760
  144MYC     H929600   5.522   2.069   2.806
  144MYC   0H1029601   5.316   2.339   2.695
  144MYC   1H1029602   5.082   2.273   2.787
  144MYC   2H1029603   5.140   2.109   2.776
  144MYC   3H1029604   5.344   2.184   2.915
  144MYC   4H1029605   5.288   2.341   2.920
  144MYC   5H1029606   5.076   2.261   3.064
  144MYC   6H1029607   5.131   2.099   3.005
  144MYC   7H1029608   5.303   2.087   3.146
  144MYC   8H1029609   5.346   2.250   3.148
  144MYC   9H1029610   5.120   2.298   3.292
  144MYC    H1029611   5.747   2.117   2.718
  144MYC   0H1129612   5.116   2.120   3.303
  144MYC   1H1129613   5.336   2.307   3.401
  144MYC   2H1129614   5.315   1.998   3.401
  144MYC   3H1129615   5.451   2.103   3.461
  144MYC   4H1129616   5.148   2.100   3.544
  144MYC   5H1129617   5.345   2.308   3.647
  144MYC   6H1129618   5.186   2.285   3.700
  144MYC   7H1129619   5.277   2.059   3.814
  144MYC   8H1129620   5.430   2.085   3.733
  144MYC   9H1129621   5.459   2.285   3.874
  144MYC    H1129622   5.775   1.954   2.674
  144MYC   0H1229623   5.292   2.283   3.921
  144MYC   1H1229624   5.330   2.051   4.043
  144MYC   2H1229625   5.500   2.072   3.996
  144MYC   3H1229626   5.512   2.265   4.150
  144MYC   4H1229627   5.343   2.282   4.165
  144MYC   5H1229628   5.328   2.062   4.284
  144MYC   6H1229629   5.506   2.057   4.276
  144MYC   7H1229630   5.511   2.270   4.414
  144MYC   8H1229631   5.330   2.271   4.421
  144MYC   9H1229632   5.314   2.074   4.540
  144MYC    H1229633   5.551   1.992   2.523
  144MYC   0H1329634   5.481   2.044   4.531
  144MYC   1H1329635   5.527   2.272   4.652
  144MYC   2H1329636   5.354   2.280   4.684
  144MYC   3H1329637   5.366   2.044   4.791
  144MYC   4H1329638   5.527   2.046   4.784
  144MYC   5H1329639   5.539   2.245   4.942
  144MYC   6H1329640   5.377   2.287   4.913
  144MYC   7H1329641   5.301   2.060   5.011
  144MYC   8H1329642   5.466   2.030   5.069
  144MYC   9H1329643   5.468   2.249   5.186
  144MYC    H1329644   5.571   2.157   2.564
  144MYC   0H1429645   5.294   2.260   5.139
  144MYC   1H1429646   5.227   2.085   5.289
  144MYC   2H1429647   5.388   2.014   5.295
  144MYC   3H1429648   5.451   2.228   5.423
  144MYC   4H1429649   5.277   2.253   5.433
  144MYC   5H1429650   5.280   2.001   5.535
  144MYC   6H1429651   5.459   2.033   5.548
  144MYC   7H1429652   5.429   2.207   5.695
  144MYC   8H1429653   5.263   2.223   5.679
  144MYC   9H1429654   5.235   1.971   5.774
  144MYC    H1429655   5.653   2.119   2.347
  144MYC   0H1529656   5.404   1.992   5.807
  144MYC   1H1529657   5.337   2.198   5.956
  144MYC   2H1529658   5.177   2.148   5.925
  144MYC   3H1529659   5.384   2.006   6.086
  144MYC   4H1529660   5.256   1.899   6.007
  144MYC   5H1529661   5.219   2.024   6.126
  144MYC   6H1529662   5.615   1.441   2.955
  144MYC    H1529663   5.801   2.148   2.442
  144MYC    H1629664   5.821   1.891   2.461
  144MYC    H1729665   5.676   1.865   2.379
  144MYC    H1829666   5.946   1.966   2.277
  144MYC    H1929667   5.865   1.817   2.232
  144MYC    H2029668   5.671   1.964   2.122
  144MYC    H2129669   5.773   2.095   2.141
  144MYC    H2229670   5.947   1.941   2.001
  144MYC    H2329671   5.814   1.829   1.989
  144MYC    H2429672   5.682   2.032   1.880
  144MYC    H2529673   5.832   2.119   1.884
  144MYC    H2629674   5.949   1.976   1.737
  144MYC    H2729675   5.819   1.854   1.735
  144MYC    H2829676   5.796   2.146   1.639
  144MYC    H2929677   5.845   2.014   1.534
  144MYC    H3029678   5.620   1.899   1.583
  144MYC    H3129679   5.543   2.172   1.703
  144MYC    H3229680   5.511   2.042   1.422
  144MYC    H3329681   5.605   2.193   1.465
  144MYC    H3429682   5.644   1.584   3.302
  144MYC    H3529683   5.820   1.540   3.309
  144MYC    H3629684   5.888   1.739   3.406
  144MYC    H3729685   5.725   1.809   3.392
  144MYC    H3829686   5.632   1.649   3.539
  144MYC    H3929687   5.799   1.575   3.563
  144MYC    H4029688   5.867   1.800   3.649
  144MYC    H4129689   5.693   1.838   3.661
  144MYC    H4229690   5.651   1.648   3.811
  144MYC    H4329691   5.816   1.597   3.798
  144MYC    H4429692   5.881   1.833   3.922
  144MYC    H4529693   5.714   1.864   3.908
  144MYC    H4629694   5.651   1.675   4.057
  144MYC    H4729695   5.817   1.622   4.069
  144MYC    H4829696   5.882   1.832   4.185
  144MYC    H4929697   5.716   1.888   4.178
  144MYC    H5029698   5.642   1.684   4.310
  144MYC    H5129699   5.814   1.641   4.319
  144MYC    H5229700   5.858   1.873   4.435
  144MYC    H5329701   5.696   1.903   4.422
  144MYC    H5429702   5.664   1.701   4.600
  144MYC    H5529703   5.831   1.681   4.581
  144MYC    H5629704   5.888   1.906   4.673
  144MYC    H5729705   5.725   1.950   4.684
  144MYC    H5829706   5.698   1.748   4.829
  144MYC    H5929707   5.876   1.745   4.843
  144MYC    H6029708   5.863   1.986   4.935
  144MYC    H6129709   5.690   1.950   4.958
  144MYC    H6229710   5.716   1.766   5.086
  144MYC    H6329711   5.891   1.768   5.084
  144MYC    H6429712   5.877   1.993   5.208
  144MYC    H6529713   5.702   1.976   5.223
  144MYC    H6629714   5.722   1.753   5.331
  144MYC    H6729715   5.902   1.787   5.340
  144MYC    H6829716   5.877   1.965   5.484
  144MYC    H6929717   5.700   1.976   5.465
  144MYC    H7029718   5.686   1.759   5.586
  144MYC    H7129719   5.871   1.766   5.592
  144MYC    H7229720   5.842   1.984   5.722
  144MYC    H7329721   5.668   1.966   5.703
  144MYC    H7429722   5.670   1.761   5.855
  144MYC    H7529723   5.847   1.775   5.867
  144MYC    H7629724   5.836   1.985   5.974
  144MYC    H7729725   5.660   2.001   5.963
  144MYC    H7829726   5.640   1.799   6.122
  144MYC    H7929727   5.812   1.787   6.115
  144MYC    H8029728   5.668   1.943   6.307
  144MYC    H8129729   5.707   2.060   6.191
  144MYC    H8229730   5.839   1.969   6.263
  144MYC    H8329731   5.334   1.989   1.594
  144MYC    H8429732   5.425   1.913   1.712
  144MYC    H8529733   5.305   2.199   1.770
  144MYC    H8629734   5.209   2.049   1.783
  144MYC    H8729735   5.369   1.954   1.951
  144MYC    H8829736   5.456   2.101   1.939
  144MYC    H8929737   5.245   2.229   1.999
  144MYC    H9029738   5.166   2.084   2.050
  144MYC    H9129739   5.383   2.047   2.206
  144MYC    H9229740   5.409   2.218   2.168
  144MYC    H9329741   5.174   2.272   2.250
  144MYC    H9429742   5.167   2.104   2.301
  144MYC    H9529743   5.361   2.133   2.446
  144MYC    H9629744   5.389   2.295   2.397
  144MYC    H9729745   5.169   2.362   2.513
  144MYC    H9829746   5.117   2.196   2.519
  144MYC    H9929747   5.337   2.159   2.659
  145MYC     C129748   5.691   2.437   3.239
  145MYC     C229749   5.644   2.536   3.131
  145MYC     O329750   5.523   2.486   3.074
  145MYC     C429751   5.751   2.546   3.021
  145MYC     C529752   5.707   2.611   2.888
  145MYC     C629753   5.673   2.506   2.781
  145MYC     C729754   5.655   2.580   2.648
  145MYC     C829755   5.640   2.481   2.531
  145MYC     C929756   5.611   2.550   2.396
  145MYC    C1029757   5.598   2.455   2.276
  145MYC    C1129758   5.703   2.487   2.168
  145MYC    C1229759   5.670   2.618   2.095
  145MYC    C1329760   5.775   2.644   1.986
  145MYC    C1429761   5.737   2.769   1.904
  145MYC    C1529762   5.835   2.824   1.800
  145MYC    C1629763   5.791   2.963   1.751
  145MYC    C1729764   5.656   2.970   1.682
  145MYC    C1829765   5.581   3.098   1.652
  145MYC    C1929766   5.655   3.026   1.542
  145MYC    C2029767   5.600   2.449   3.362
  145MYC    C2129768   5.647   2.553   3.466
  145MYC    C2229769   5.597   2.511   3.606
  145MYC    C2329770   5.640   2.612   3.714
  145MYC    C2429771   5.629   2.545   3.852
  145MYC    C2529772   5.632   2.649   3.965
  145MYC    C2629773   5.631   2.583   4.104
  145MYC    C2729774   5.602   2.675   4.224
  145MYC    C2829775   5.607   2.586   4.349
  145MYC    C2929776   5.605   2.666   4.481
  145MYC    C3029777   5.629   2.583   4.608
  145MYC    C3129778   5.621   2.659   4.741
  145MYC    C3229779   5.620   2.557   4.855
  145MYC    C3329780   5.639   2.637   4.985
  145MYC    C3429781   5.646   2.538   5.103
  145MYC    C3529782   5.651   2.607   5.241
  145MYC    C3629783   5.642   2.493   5.344
  145MYC    C3729784   5.624   2.569   5.477
  145MYC    C3829785   5.625   2.475   5.599
  145MYC    C3929786   5.582   2.545   5.729
  145MYC    C4029787   5.603   2.445   5.844
  145MYC    C4129788   5.560   2.491   5.985
  145MYC    C4229789   5.609   2.416   6.110
  145MYC    C4329790   5.539   2.464   6.239
  145MYC    C4429791   5.429   3.096   1.667
  145MYC    C4529792   5.378   3.139   1.806
  145MYC    C4629793   5.458   3.086   1.927
  145MYC    C4729794   5.376   3.082   2.057
  145MYC    C4829795   5.462   3.043   2.178
  145MYC    C4929796   5.376   3.047   2.306
  145MYC    C5029797   5.460   3.024   2.432
  145MYC    C5129798   5.388   3.041   2.567
  145MYC    C5229799   5.464   3.005   2.696
  145MYC    C5329800   5.369   2.991   2.816
  145MYC    C5429801   5.438   2.978   2.953
  145MYC    C5529802   5.358   3.043   3.067
  145MYC    C5629803   5.433   3.063   3.200
  145MYC    C5729804   5.352   3.054   3.331
  145MYC    C5829805   5.453   3.075   3.443
  145MYC    C5929806   5.537   2.965   3.504
  145MYC    C6029807   5.416   3.017   3.577
  145MYC    C6129808   5.427   3.108   3.699
  145MYC    C6229809   5.391   3.023   3.822
  145MYC    C6329810   5.386   3.104   3.953
  145MYC    C6429811   5.389   3.009   4.074
  145MYC    C6529812   5.347   3.082   4.202
  145MYC    C6629813   5.372   3.011   4.336
  145MYC    C6729814   5.333   3.091   4.462
  145MYC    C6829815   5.327   3.008   4.591
  145MYC    C6929816   5.300   3.099   4.712
  145MYC    C7029817   5.331   3.031   4.846
  145MYC    C7129818   5.303   3.118   4.970
  145MYC    C7229819   5.399   3.074   5.083
  145MYC    C7329820   5.372   3.148   5.215
  145MYC    C7429821   5.460   3.092   5.328
  145MYC    C7529822   5.420   3.153   5.464
  145MYC    C7629823   5.498   3.095   5.583
  145MYC    C7729824   5.453   3.148   5.720
  145MYC    C7829825   5.502   3.071   5.843
  145MYC    C7929826   5.450   3.136   5.973
  145MYC    C8029827   5.494   3.050   6.092
  145MYC    C8129828   5.715   2.291   3.203
  145MYC    O8229829   5.660   2.234   3.111
  145MYC    O8329830   5.804   2.226   3.282
  145MYC     H129831   5.787   2.484   3.268
  145MYC     H229832   5.615   2.634   3.171
  145MYC     H329833   5.550   2.419   3.009
  145MYC     H429834   5.836   2.605   3.059
  145MYC     H529835   5.787   2.445   2.999
  145MYC     H629836   5.624   2.682   2.896
  145MYC     H729837   5.785   2.675   2.845
  145MYC     H829838   5.751   2.429   2.776
  145MYC     H929839   5.581   2.460   2.820
  145MYC   0H1029840   5.540   3.082   2.712
  145MYC   1H1029841   5.310   3.083   2.817
  145MYC   2H1029842   5.287   2.918   2.810
  145MYC   3H1029843   5.466   2.873   2.968
  145MYC   4H1029844   5.530   3.039   2.952
  145MYC   5H1029845   5.326   3.143   3.036
  145MYC   6H1029846   5.268   2.981   3.080
  145MYC   7H1029847   5.529   3.011   3.199
  145MYC   8H1029848   5.474   3.165   3.198
  145MYC   9H1029849   5.266   3.121   3.335
  145MYC    H1029850   5.566   2.643   2.637
  145MYC   0H1129851   5.328   2.947   3.333
  145MYC   1H1129852   5.503   3.171   3.451
  145MYC   2H1129853   5.534   2.865   3.461
  145MYC   3H1129854   5.637   2.985   3.542
  145MYC   4H1129855   5.328   2.954   3.584
  145MYC   5H1129856   5.527   3.153   3.708
  145MYC   6H1129857   5.358   3.192   3.685
  145MYC   7H1129858   5.290   2.980   3.812
  145MYC   8H1129859   5.456   2.935   3.826
  145MYC   9H1129860   5.476   3.167   3.960
  145MYC    H1129861   5.739   2.648   2.628
  145MYC   0H1229862   5.304   3.176   3.957
  145MYC   1H1229863   5.320   2.925   4.061
  145MYC   2H1229864   5.492   2.973   4.083
  145MYC   3H1229865   5.401   3.177   4.201
  145MYC   4H1229866   5.242   3.115   4.200
  145MYC   5H1229867   5.317   2.917   4.334
  145MYC   6H1229868   5.480   2.996   4.345
  145MYC   7H1229869   5.411   3.168   4.470
  145MYC   8H1229870   5.232   3.133   4.447
  145MYC   9H1229871   5.241   2.941   4.585
  145MYC    H1229872   5.733   2.423   2.526
  145MYC   0H1329873   5.417   2.948   4.612
  145MYC   1H1329874   5.355   3.193   4.696
  145MYC   2H1329875   5.192   3.119   4.702
  145MYC   3H1329876   5.272   2.939   4.854
  145MYC   4H1329877   5.435   2.996   4.838
  145MYC   5H1329878   5.319   3.225   4.951
  145MYC   6H1329879   5.197   3.106   4.998
  145MYC   7H1329880   5.376   2.967   5.097
  145MYC   8H1329881   5.505   3.078   5.057
  145MYC   9H1329882   5.384   3.256   5.203
  145MYC    H1329883   5.556   2.415   2.552
  145MYC   0H1429884   5.267   3.136   5.244
  145MYC   1H1429885   5.463   2.983   5.339
  145MYC   2H1429886   5.563   3.122   5.306
  145MYC   3H1429887   5.445   3.260   5.465
  145MYC   4H1429888   5.314   3.129   5.479
  145MYC   5H1429889   5.489   2.985   5.577
  145MYC   6H1429890   5.605   3.119   5.576
  145MYC   7H1429891   5.472   3.256   5.729
  145MYC   8H1429892   5.343   3.151   5.717
  145MYC   9H1429893   5.467   2.967   5.842
  145MYC    H1429894   5.523   2.616   2.403
  145MYC   0H1529895   5.611   3.062   5.853
  145MYC   1H1529896   5.492   3.238   5.964
  145MYC   2H1529897   5.341   3.143   5.964
  145MYC   3H1529898   5.602   3.057   6.114
  145MYC   4H1529899   5.475   2.943   6.078
  145MYC   5H1529900   5.442   3.077   6.185
  145MYC   6H1529901   5.801   2.132   3.255
  145MYC    H1529902   5.696   2.613   2.369
  145MYC    H1629903   5.619   2.351   2.305
  145MYC    H1729904   5.497   2.453   2.233
  145MYC    H1829905   5.804   2.484   2.211
  145MYC    H1929906   5.686   2.413   2.088
  145MYC    H2029907   5.568   2.616   2.053
  145MYC    H2129908   5.668   2.699   2.170
  145MYC    H2229909   5.869   2.666   2.038
  145MYC    H2329910   5.803   2.560   1.922
  145MYC    H2429911   5.650   2.737   1.847
  145MYC    H2529912   5.717   2.848   1.978
  145MYC    H2629913   5.933   2.833   1.849
  145MYC    H2729914   5.853   2.747   1.724
  145MYC    H2829915   5.792   3.029   1.839
  145MYC    H2929916   5.868   2.996   1.681
  145MYC    H3029917   5.597   2.879   1.685
  145MYC    H3129918   5.631   3.191   1.674
  145MYC    H3229919   5.594   2.981   1.464
  145MYC    H3329920   5.742   3.076   1.498
  145MYC    H3429921   5.494   2.458   3.338
  145MYC    H3529922   5.603   2.357   3.422
  145MYC    H3629923   5.756   2.566   3.466
  145MYC    H3729924   5.592   2.646   3.447
  145MYC    H3829925   5.487   2.500   3.608
  145MYC    H3929926   5.639   2.412   3.624
  145MYC    H4029927   5.739   2.651   3.688
  145MYC    H4129928   5.570   2.697   3.713
  145MYC    H4229929   5.537   2.486   3.846
  145MYC    H4329930   5.706   2.468   3.861
  145MYC    H4429931   5.717   2.718   3.955
  145MYC    H4529932   5.543   2.712   3.957
  145MYC    H4629933   5.559   2.499   4.103
  145MYC    H4729934   5.730   2.540   4.123
  145MYC    H4829935   5.683   2.749   4.224
  145MYC    H4929936   5.505   2.726   4.221
  145MYC    H5029937   5.520   2.519   4.356
  145MYC    H5129938   5.696   2.523   4.343
  145MYC    H5229939   5.671   2.754   4.481
  145MYC    H5329940   5.502   2.706   4.479
  145MYC    H5429941   5.561   2.497   4.603
  145MYC    H5529942   5.733   2.549   4.599
  145MYC    H5629943   5.707   2.727   4.750
  145MYC    H5729944   5.528   2.717   4.733
  145MYC    H5829945   5.520   2.511   4.860
  145MYC    H5929946   5.690   2.474   4.839
  145MYC    H6029947   5.736   2.687   4.978
  145MYC    H6129948   5.557   2.709   5.001
  145MYC    H6229949   5.552   2.482   5.095
  145MYC    H6329950   5.721   2.458   5.097
  145MYC    H6429951   5.747   2.659   5.252
  145MYC    H6529952   5.571   2.681   5.249
  145MYC    H6629953   5.554   2.431   5.325
  145MYC    H6729954   5.732   2.430   5.344
  145MYC    H6829955   5.698   2.648   5.491
  145MYC    H6929956   5.525   2.616   5.483
  145MYC    H7029957   5.556   2.392   5.583
  145MYC    H7129958   5.726   2.431   5.603
  145MYC    H7229959   5.648   2.628   5.758
  145MYC    H7329960   5.476   2.573   5.721
  145MYC    H7429961   5.547   2.354   5.821
  145MYC    H7529962   5.710   2.426   5.858
  145MYC    H7629963   5.586   2.597   5.991
  145MYC    H7729964   5.450   2.484   5.988
  145MYC    H7829965   5.591   2.309   6.098
  145MYC    H7929966   5.716   2.429   6.128
  145MYC    H8029967   5.594   2.430   6.328
  145MYC    H8129968   5.434   2.433   6.250
  145MYC    H8229969   5.550   2.573   6.246
  145MYC    H8329970   5.395   3.174   1.598
  145MYC    H8429971   5.379   3.001   1.645
  145MYC    H8529972   5.390   3.248   1.801
  145MYC    H8629973   5.272   3.113   1.817
  145MYC    H8729974   5.491   2.983   1.909
  145MYC    H8829975   5.547   3.148   1.944
  145MYC    H8929976   5.331   3.179   2.081
  145MYC    H9029977   5.297   3.006   2.046
  145MYC    H9129978   5.508   2.945   2.161
  145MYC    H9229979   5.547   3.111   2.187
  145MYC    H9329980   5.325   3.144   2.316
  145MYC    H9429981   5.301   2.969   2.287
  145MYC    H9529982   5.512   2.929   2.418
  145MYC    H9629983   5.538   3.102   2.429
  145MYC    H9729984   5.341   3.139   2.583
  145MYC    H9829985   5.299   2.977   2.560
  145MYC    H9929986   5.509   2.905   2.684
  146MYC     C129987   5.919   3.346   3.288
  146MYC     C229988   5.809   3.321   3.184
  146MYC     O329989   5.774   3.183   3.178
  146MYC     C429990   5.847   3.367   3.043
  146MYC     C529991   5.732   3.372   2.940
  146MYC     C629992   5.791   3.420   2.807
  146MYC     C729993   5.695   3.437   2.687
  146MYC     C829994   5.763   3.437   2.549
  146MYC     C929995   5.730   3.320   2.456
  146MYC    C1029996   5.831   3.288   2.344
  146MYC    C1129997   5.826   3.390   2.229
  146MYC    C1229998   5.710   3.375   2.128
  146MYC    C1329999   5.757   3.448   2.001
  146MYC    C1430000   5.647   3.468   1.895
  146MYC    C1530001   5.705   3.485   1.753
  146MYC    C1630002   5.615   3.556   1.651
  146MYC    C1730003   5.474   3.503   1.636
  146MYC    C1830004   5.359   3.590   1.681
  146MYC    C1930005   5.388   3.574   1.534
  146MYC    C2030006   5.873   3.314   3.431
  146MYC    C2130007   5.958   3.389   3.535
  146MYC    C2230008   5.969   3.333   3.678
  146MYC    C2330009   5.872   3.391   3.782
  146MYC    C2430010   5.871   3.317   3.917
  146MYC    C2530011   5.773   3.379   4.018
  146MYC    C2630012   5.789   3.319   4.158
  146MYC    C2730013   5.709   3.393   4.266
  146MYC    C2830014   5.731   3.342   4.410
  146MYC    C2930015   5.644   3.428   4.504
  146MYC    C3030016   5.675   3.396   4.651
  146MYC    C3130017   5.628   3.491   4.762
  146MYC    C3230018   5.706   3.465   4.892
  146MYC    C3330019   5.653   3.537   5.018
  146MYC    C3430020   5.748   3.523   5.138
  146MYC    C3530021   5.675   3.517   5.273
  146MYC    C3630022   5.785   3.526   5.380
  146MYC    C3730023   5.727   3.500   5.520
  146MYC    C3830024   5.831   3.471   5.630
  146MYC    C3930025   5.759   3.426   5.758
  146MYC    C4030026   5.854   3.401   5.876
  146MYC    C4130027   5.784   3.330   5.992
  146MYC    C4230028   5.853   3.353   6.128
  146MYC    C4330029   5.776   3.314   6.255
  146MYC    C4430030   5.232   3.532   1.740
  146MYC    C4530031   5.187   3.595   1.873
  146MYC    C4630032   5.293   3.587   1.984
  146MYC    C4730033   5.243   3.630   2.123
  146MYC    C4830034   5.348   3.616   2.235
  146MYC    C4930035   5.288   3.580   2.373
  146MYC    C5030036   5.390   3.572   2.488
  146MYC    C5130037   5.339   3.499   2.613
  146MYC    C5230038   5.349   3.581   2.742
  146MYC    C5330039   5.347   3.491   2.867
  146MYC    C5430040   5.335   3.571   2.998
  146MYC    C5530041   5.308   3.477   3.117
  146MYC    C5630042   5.262   3.559   3.239
  146MYC    C5730043   5.282   3.477   3.368
  146MYC    C5830044   5.251   3.553   3.496
  146MYC    C5930045   5.359   3.611   3.584
  146MYC    C6030046   5.276   3.495   3.633
  146MYC    C6130047   5.176   3.527   3.743
  146MYC    C6230048   5.253   3.534   3.876
  146MYC    C6330049   5.163   3.531   4.001
  146MYC    C6430050   5.249   3.510   4.127
  146MYC    C6530051   5.165   3.534   4.254
  146MYC    C6630052   5.232   3.503   4.389
  146MYC    C6730053   5.142   3.527   4.511
  146MYC    C6830054   5.223   3.539   4.642
  146MYC    C6930055   5.138   3.591   4.759
  146MYC    C7030056   5.228   3.622   4.879
  146MYC    C7130057   5.166   3.605   5.019
  146MYC    C7230058   5.266   3.634   5.132
  146MYC    C7330059   5.210   3.600   5.271
  146MYC    C7430060   5.326   3.577   5.369
  146MYC    C7530061   5.272   3.523   5.503
  146MYC    C7630062   5.372   3.550   5.616
  146MYC    C7730063   5.301   3.508   5.746
  146MYC    C7830064   5.383   3.536   5.873
  146MYC    C7930065   5.303   3.500   5.999
  146MYC    C8030066   5.396   3.500   6.122
  146MYC    C8130067   6.051   3.274   3.264
  146MYC    O8230068   6.102   3.197   3.343
  146MYC    O8330069   6.121   3.314   3.155
  146MYC     H130070   5.939   3.454   3.279
  146MYC     H230071   5.723   3.382   3.215
  146MYC     H330072   5.760   3.167   3.083
  146MYC     H430073   5.900   3.463   3.043
  146MYC     H530074   5.917   3.292   3.002
  146MYC     H630075   5.685   3.274   2.926
  146MYC     H730076   5.653   3.437   2.979
  146MYC     H830077   5.857   3.507   2.818
  146MYC     H930078   5.862   3.347   2.767
  146MYC   0H1030079   5.266   3.652   2.757
  146MYC   1H1030080   5.256   3.431   2.866
  146MYC   2H1030081   5.433   3.424   2.877
  146MYC   3H1030082   5.425   3.627   3.026
  146MYC   4H1030083   5.253   3.641   2.978
  146MYC   5H1030084   5.237   3.399   3.089
  146MYC   6H1030085   5.397   3.421   3.148
  146MYC   7H1030086   5.334   3.641   3.255
  146MYC   8H1030087   5.160   3.596   3.225
  146MYC   9H1030088   5.214   3.392   3.358
  146MYC    H1030089   5.622   3.356   2.691
  146MYC   0H1130090   5.385   3.440   3.375
  146MYC   1H1130091   5.153   3.601   3.486
  146MYC   2H1130092   5.464   3.585   3.570
  146MYC   3H1130093   5.347   3.714   3.615
  146MYC   4H1130094   5.331   3.401   3.640
  146MYC   5H1130095   5.119   3.619   3.724
  146MYC   6H1130096   5.102   3.446   3.743
  146MYC   7H1130097   5.324   3.452   3.867
  146MYC   8H1130098   5.314   3.625   3.881
  146MYC   9H1130099   5.103   3.623   4.001
  146MYC    H1130100   5.631   3.526   2.694
  146MYC   0H1230101   5.098   3.445   3.985
  146MYC   1H1230102   5.295   3.411   4.116
  146MYC   2H1230103   5.340   3.572   4.123
  146MYC   3H1230104   5.125   3.636   4.253
  146MYC   4H1230105   5.074   3.473   4.244
  146MYC   5H1230106   5.262   3.398   4.389
  146MYC   6H1230107   5.318   3.571   4.394
  146MYC   7H1230108   5.086   3.620   4.495
  146MYC   8H1230109   5.073   3.442   4.514
  146MYC   9H1230110   5.268   3.443   4.670
  146MYC    H1230111   5.744   3.536   2.506
  146MYC   0H1330112   5.303   3.614   4.638
  146MYC   1H1330113   5.079   3.682   4.739
  146MYC   2H1330114   5.064   3.513   4.781
  146MYC   3H1330115   5.309   3.548   4.882
  146MYC   4H1330116   5.259   3.727   4.869
  146MYC   5H1330117   5.083   3.672   5.041
  146MYC   6H1330118   5.127   3.503   5.029
  146MYC   7H1330119   5.352   3.569   5.114
  146MYC   8H1330120   5.300   3.738   5.118
  146MYC   9H1330121   5.148   3.680   5.314
  146MYC    H1330122   5.872   3.431   2.565
  146MYC   0H1430123   5.146   3.513   5.255
  146MYC   1H1430124   5.407   3.517   5.327
  146MYC   2H1430125   5.371   3.676   5.385
  146MYC   3H1430126   5.175   3.570   5.523
  146MYC   4H1430127   5.252   3.416   5.483
  146MYC   5H1430128   5.463   3.492   5.596
  146MYC   6H1430129   5.398   3.656   5.617
  146MYC   7H1430130   5.206   3.563   5.747
  146MYC   8H1430131   5.272   3.402   5.746
  146MYC   9H1430132   5.482   3.488   5.875
  146MYC    H1430133   5.725   3.231   2.521
  146MYC   0H1530134   5.401   3.645   5.876
  146MYC   1H1530135   5.230   3.580   6.015
  146MYC   2H1530136   5.251   3.404   5.990
  146MYC   3H1530137   5.460   3.589   6.131
  146MYC   4H1530138   5.451   3.405   6.124
  146MYC   5H1530139   5.328   3.498   6.208
  146MYC   6H1530140   6.211   3.279   3.163
  146MYC    H1530141   5.628   3.330   2.417
  146MYC    H1630142   5.931   3.303   2.386
  146MYC    H1730143   5.828   3.183   2.313
  146MYC    H1830144   5.823   3.487   2.280
  146MYC    H1930145   5.922   3.381   2.178
  146MYC    H2030146   5.695   3.271   2.099
  146MYC    H2130147   5.620   3.427   2.163
  146MYC    H2230148   5.783   3.549   2.037
  146MYC    H2330149   5.845   3.397   1.961
  146MYC    H2430150   5.570   3.391   1.903
  146MYC    H2530151   5.597   3.561   1.925
  146MYC    H2630152   5.801   3.539   1.758
  146MYC    H2730153   5.732   3.385   1.717
  146MYC    H2830154   5.615   3.664   1.671
  146MYC    H2930155   5.662   3.556   1.551
  146MYC    H3030156   5.466   3.395   1.650
  146MYC    H3130157   5.387   3.689   1.718
  146MYC    H3230158   5.324   3.508   1.476
  146MYC    H3330159   5.430   3.662   1.487
  146MYC    H3430160   5.766   3.335   3.443
  146MYC    H3530161   5.881   3.206   3.449
  146MYC    H3630162   6.058   3.400   3.492
  146MYC    H3730163   5.910   3.487   3.549
  146MYC    H3830164   5.958   3.224   3.667
  146MYC    H3930165   6.072   3.341   3.716
  146MYC    H4030166   5.901   3.493   3.809
  146MYC    H4130167   5.770   3.393   3.742
  146MYC    H4230168   5.851   3.210   3.902
  146MYC    H4330169   5.973   3.318   3.958
  146MYC    H4430170   5.795   3.487   4.018
  146MYC    H4530171   5.670   3.367   3.983
  146MYC    H4630172   5.772   3.212   4.143
  146MYC    H4730173   5.894   3.329   4.189
  146MYC    H4830174   5.740   3.498   4.266
  146MYC    H4930175   5.602   3.388   4.243
  146MYC    H5030176   5.698   3.238   4.421
  146MYC    H5130177   5.837   3.353   4.435
  146MYC    H5230178   5.673   3.530   4.477
  146MYC    H5330179   5.536   3.417   4.488
  146MYC    H5430180   5.640   3.294   4.672
  146MYC    H5530181   5.785   3.395   4.662
  146MYC    H5630182   5.644   3.595   4.730
  146MYC    H5730183   5.520   3.485   4.778
  146MYC    H5830184   5.712   3.358   4.916
  146MYC    H5930185   5.814   3.484   4.888
  146MYC    H6030186   5.618   3.639   5.003
  146MYC    H6130187   5.559   3.487   5.042
  146MYC    H6230188   5.796   3.425   5.125
  146MYC    H6330189   5.817   3.608   5.135
  146MYC    H6430190   5.624   3.613   5.287
  146MYC    H6530191   5.606   3.432   5.284
  146MYC    H6630192   5.866   3.456   5.359
  146MYC    H6730193   5.836   3.623   5.384
  146MYC    H6830194   5.668   3.588   5.546
  146MYC    H6930195   5.656   3.416   5.525
  146MYC    H7030196   5.885   3.382   5.594
  146MYC    H7130197   5.902   3.552   5.650
  146MYC    H7230198   5.679   3.495   5.787
  146MYC    H7330199   5.707   3.331   5.739
  146MYC    H7430200   5.943   3.349   5.840
  146MYC    H7530201   5.893   3.501   5.902
  146MYC    H7630202   5.685   3.377   5.996
  146MYC    H7730203   5.762   3.225   5.969
  146MYC    H7830204   5.953   3.307   6.122
  146MYC    H7930205   5.866   3.461   6.131
  146MYC    H8030206   5.828   3.348   6.345
  146MYC    H8130207   5.768   3.205   6.256
  146MYC    H8230208   5.673   3.353   6.259
  146MYC    H8330209   5.158   3.554   1.662
  146MYC    H8430210   5.247   3.424   1.747
  146MYC    H8530211   5.164   3.698   1.844
  146MYC    H8630212   5.099   3.538   1.906
  146MYC    H8730213   5.327   3.483   1.979
  146MYC    H8830214   5.373   3.657   1.961
  146MYC    H8930215   5.207   3.733   2.113
  146MYC    H9030216   5.150   3.580   2.152
  146MYC    H9130217   5.410   3.527   2.217
  146MYC    H9230218   5.408   3.707   2.242
  146MYC    H9330219   5.208   3.652   2.397
  146MYC    H9430220   5.241   3.482   2.365
  146MYC    H9530221   5.475   3.519   2.443
  146MYC    H9630222   5.429   3.673   2.508
  146MYC    H9730223   5.237   3.461   2.593
  146MYC    H9830224   5.395   3.406   2.627
  146MYC    H9930225   5.440   3.642   2.741
  147MYC     C130226   5.651   4.396   3.365
  147MYC     C230227   5.554   4.316   3.277
  147MYC     O330228   5.618   4.227   3.187
  147MYC     C430229   5.453   4.407   3.205
  147MYC     C530230   5.448   4.403   3.052
  147MYC     C630231   5.548   4.500   2.986
  147MYC     C730232   5.559   4.478   2.834
  147MYC     C830233   5.639   4.593   2.771
  147MYC     C930234   5.627   4.590   2.618
  147MYC    C1030235   5.732   4.674   2.544
  147MYC    C1130236   5.705   4.707   2.396
  147MYC    C1230237   5.732   4.585   2.306
  147MYC    C1330238   5.671   4.614   2.168
  147MYC    C1430239   5.698   4.502   2.066
  147MYC    C1530240   5.644   4.540   1.926
  147MYC    C1630241   5.596   4.417   1.848
  147MYC    C1730242   5.707   4.320   1.809
  147MYC    C1830243   5.670   4.184   1.754
  147MYC    C1930244   5.735   4.287   1.665
  147MYC    C2030245   5.744   4.308   3.450
  147MYC    C2130246   5.693   4.313   3.595
  147MYC    C2230247   5.738   4.434   3.679
  147MYC    C2330248   5.698   4.423   3.828
  147MYC    C2430249   5.766   4.535   3.909
  147MYC    C2530250   5.723   4.516   4.056
  147MYC    C2630251   5.789   4.624   4.143
  147MYC    C2730252   5.705   4.647   4.269
  147MYC    C2830253   5.771   4.744   4.370
  147MYC    C2930254   5.699   4.722   4.504
  147MYC    C3030255   5.733   4.817   4.621
  147MYC    C3130256   5.662   4.786   4.753
  147MYC    C3230257   5.737   4.845   4.873
  147MYC    C3330258   5.668   4.823   5.009
  147MYC    C3430259   5.739   4.880   5.133
  147MYC    C3530260   5.690   4.826   5.268
  147MYC    C3630261   5.732   4.906   5.392
  147MYC    C3730262   5.663   4.855   5.520
  147MYC    C3830263   5.727   4.916   5.645
  147MYC    C3930264   5.627   4.894   5.760
  147MYC    C4030265   5.687   4.914   5.900
  147MYC    C4130266   5.587   4.875   6.011
  147MYC    C4230267   5.665   4.890   6.143
  147MYC    C4330268   5.613   4.810   6.264
  147MYC    C4430269   5.752   4.062   1.794
  147MYC    C4530270   5.703   3.981   1.915
  147MYC    C4630271   5.738   4.043   2.051
  147MYC    C4730272   5.697   3.957   2.172
  147MYC    C4830273   5.739   4.025   2.302
  147MYC    C4930274   5.712   3.934   2.423
  147MYC    C5030275   5.736   3.998   2.561
  147MYC    C5130276   5.699   3.890   2.664
  147MYC    C5230277   5.744   3.926   2.807
  147MYC    C5330278   5.720   3.811   2.907
  147MYC    C5430279   5.771   3.852   3.046
  147MYC    C5530280   5.729   3.753   3.156
  147MYC    C5630281   5.734   3.832   3.288
  147MYC    C5730282   5.669   3.762   3.408
  147MYC    C5830283   5.692   3.848   3.532
  147MYC    C5930284   5.826   3.880   3.594
  147MYC    C6030285   5.739   3.772   3.653
  147MYC    C6130286   5.667   3.796   3.785
  147MYC    C6230287   5.751   3.861   3.896
  147MYC    C6330288   5.709   3.833   4.041
  147MYC    C6430289   5.787   3.916   4.145
  147MYC    C6530290   5.718   3.908   4.282
  147MYC    C6630291   5.822   3.940   4.392
  147MYC    C6730292   5.746   3.912   4.523
  147MYC    C6830293   5.838   3.929   4.645
  147MYC    C6930294   5.756   3.913   4.775
  147MYC    C7030295   5.837   3.958   4.898
  147MYC    C7130296   5.738   3.968   5.015
  147MYC    C7230297   5.800   4.012   5.149
  147MYC    C7330298   5.715   3.960   5.266
  147MYC    C7430299   5.754   4.008   5.407
  147MYC    C7530300   5.679   3.919   5.508
  147MYC    C7630301   5.724   3.954   5.651
  147MYC    C7730302   5.688   3.862   5.769
  147MYC    C7830303   5.762   3.896   5.900
  147MYC    C7930304   5.733   3.790   6.008
  147MYC    C8030305   5.777   3.840   6.147
  147MYC    C8130306   5.742   4.491   3.287
  147MYC    O8230307   5.841   4.450   3.228
  147MYC    O8330308   5.714   4.622   3.304
  147MYC     H130309   5.595   4.458   3.436
  147MYC     H230310   5.500   4.252   3.347
  147MYC     H330311   5.656   4.289   3.122
  147MYC     H430312   5.359   4.361   3.239
  147MYC     H530313   5.449   4.514   3.233
  147MYC     H630314   5.464   4.305   3.006
  147MYC     H730315   5.347   4.437   3.026
  147MYC     H830316   5.533   4.604   3.018
  147MYC     H930317   5.647   4.474   3.026
  147MYC   0H1030318   5.695   4.017   2.843
  147MYC   1H1030319   5.612   3.793   2.913
  147MYC   2H1030320   5.771   3.717   2.881
  147MYC   3H1030321   5.879   3.870   3.040
  147MYC   4H1030322   5.727   3.950   3.069
  147MYC   5H1030323   5.633   3.703   3.137
  147MYC   6H1030324   5.807   3.676   3.168
  147MYC   7H1030325   5.837   3.865   3.304
  147MYC   8H1030326   5.674   3.924   3.278
  147MYC   9H1030327   5.561   3.750   3.394
  147MYC    H1030328   5.594   4.380   2.800
  147MYC   0H1130329   5.719   3.665   3.423
  147MYC   1H1130330   5.618   3.928   3.536
  147MYC   2H1130331   5.913   3.839   3.544
  147MYC   3H1130332   5.834   3.975   3.646
  147MYC   4H1130333   5.775   3.670   3.648
  147MYC   5H1130334   5.578   3.858   3.771
  147MYC   6H1130335   5.616   3.706   3.823
  147MYC   7H1130336   5.855   3.828   3.893
  147MYC   8H1130337   5.754   3.970   3.882
  147MYC   9H1130338   5.602   3.856   4.047
  147MYC    H1130339   5.456   4.491   2.798
  147MYC   0H1230340   5.708   3.724   4.052
  147MYC   1H1230341   5.892   3.885   4.148
  147MYC   2H1230342   5.795   4.021   4.116
  147MYC   3H1230343   5.636   3.980   4.289
  147MYC   4H1230344   5.672   3.809   4.295
  147MYC   5H1230345   5.901   3.866   4.379
  147MYC   6H1230346   5.866   4.040   4.386
  147MYC   7H1230347   5.656   3.972   4.537
  147MYC   8H1230348   5.714   3.807   4.516
  147MYC   9H1230349   5.918   3.854   4.638
  147MYC    H1230350   5.609   4.691   2.811
  147MYC   0H1330351   5.888   4.026   4.656
  147MYC   1H1330352   5.675   3.985   4.757
  147MYC   2H1330353   5.715   3.812   4.779
  147MYC   3H1330354   5.927   3.896   4.909
  147MYC   4H1330355   5.883   4.055   4.877
  147MYC   5H1330356   5.656   4.037   4.992
  147MYC   6H1330357   5.695   3.867   5.021
  147MYC   7H1330358   5.901   3.971   5.161
  147MYC   8H1330359   5.790   4.121   5.148
  147MYC   9H1330360   5.611   3.989   5.245
  147MYC    H1330361   5.744   4.573   2.798
  147MYC   0H1430362   5.723   3.851   5.274
  147MYC   1H1430363   5.860   4.017   5.431
  147MYC   2H1430364   5.724   4.113   5.413
  147MYC   3H1430365   5.570   3.915   5.493
  147MYC   4H1430366   5.716   3.816   5.503
  147MYC   5H1430367   5.834   3.956   5.647
  147MYC   6H1430368   5.685   4.054   5.669
  147MYC   7H1430369   5.581   3.870   5.791
  147MYC   8H1430370   5.696   3.759   5.735
  147MYC   9H1430371   5.868   3.913   5.877
  147MYC    H1430372   5.645   4.486   2.588
  147MYC   0H1530373   5.736   4.000   5.926
  147MYC   1H1530374   5.628   3.759   6.007
  147MYC   2H1530375   5.780   3.695   5.982
  147MYC   3H1530376   5.735   3.939   6.168
  147MYC   4H1530377   5.886   3.835   6.161
  147MYC   5H1530378   5.738   3.764   6.216
  147MYC   6H1530379   5.790   4.667   3.264
  147MYC    H1530380   5.524   4.613   2.588
  147MYC    H1630381   5.739   4.772   2.591
  147MYC    H1730382   5.833   4.631   2.551
  147MYC    H1830383   5.599   4.731   2.384
  147MYC    H1930384   5.761   4.797   2.368
  147MYC    H2030385   5.841   4.572   2.308
  147MYC    H2130386   5.691   4.492   2.347
  147MYC    H2230387   5.563   4.622   2.182
  147MYC    H2330388   5.692   4.714   2.127
  147MYC    H2430389   5.804   4.473   2.062
  147MYC    H2530390   5.640   4.417   2.101
  147MYC    H2630391   5.562   4.611   1.936
  147MYC    H2730392   5.726   4.586   1.869
  147MYC    H2830393   5.524   4.356   1.904
  147MYC    H2930394   5.544   4.447   1.756
  147MYC    H3030395   5.799   4.333   1.865
  147MYC    H3130396   5.565   4.161   1.739
  147MYC    H3230397   5.840   4.268   1.646
  147MYC    H3330398   5.673   4.318   1.580
  147MYC    H3430399   5.737   4.202   3.423
  147MYC    H3530400   5.852   4.327   3.450
  147MYC    H3630401   5.584   4.301   3.598
  147MYC    H3730402   5.733   4.224   3.645
  147MYC    H3830403   5.840   4.474   3.683
  147MYC    H3930404   5.682   4.519   3.639
  147MYC    H4030405   5.589   4.414   3.832
  147MYC    H4130406   5.747   4.335   3.871
  147MYC    H4230407   5.874   4.521   3.900
  147MYC    H4330408   5.735   4.631   3.868
  147MYC    H4430409   5.615   4.527   4.068
  147MYC    H4530410   5.755   4.419   4.098
  147MYC    H4630411   5.894   4.598   4.158
  147MYC    H4730412   5.793   4.724   4.097
  147MYC    H4830413   5.602   4.677   4.246
  147MYC    H4930414   5.701   4.550   4.321
  147MYC    H5030415   5.876   4.713   4.379
  147MYC    H5130416   5.770   4.847   4.334
  147MYC    H5230417   5.591   4.733   4.486
  147MYC    H5330418   5.716   4.622   4.545
  147MYC    H5430419   5.840   4.833   4.637
  147MYC    H5530420   5.701   4.917   4.592
  147MYC    H5630421   5.556   4.815   4.757
  147MYC    H5730422   5.667   4.677   4.766
  147MYC    H5830423   5.841   4.811   4.875
  147MYC    H5930424   5.741   4.954   4.860
  147MYC    H6030425   5.566   4.864   5.014
  147MYC    H6130426   5.660   4.714   5.022
  147MYC    H6230427   5.848   4.875   5.125
  147MYC    H6330428   5.703   4.984   5.138
  147MYC    H6430429   5.580   4.832   5.266
  147MYC    H6530430   5.724   4.722   5.272
  147MYC    H6630431   5.839   4.887   5.408
  147MYC    H6730432   5.715   5.014   5.379
  147MYC    H6830433   5.557   4.884   5.514
  147MYC    H6930434   5.666   4.746   5.524
  147MYC    H7030435   5.823   4.868   5.666
  147MYC    H7130436   5.745   5.024   5.635
  147MYC    H7230437   5.538   4.959   5.758
  147MYC    H7330438   5.597   4.788   5.756
  147MYC    H7430439   5.778   4.854   5.907
  147MYC    H7530440   5.705   5.022   5.907
  147MYC    H7630441   5.504   4.947   6.013
  147MYC    H7730442   5.538   4.778   6.002
  147MYC    H7830443   5.772   4.867   6.129
  147MYC    H7930444   5.672   4.996   6.170
  147MYC    H8030445   5.678   4.817   6.352
  147MYC    H8130446   5.607   4.702   6.242
  147MYC    H8230447   5.512   4.841   6.291
  147MYC    H8330448   5.743   3.987   1.714
  147MYC    H8430449   5.857   4.093   1.801
  147MYC    H8530450   5.594   3.976   1.922
  147MYC    H8630451   5.734   3.876   1.906
  147MYC    H8730452   5.843   4.073   2.063
  147MYC    H8830453   5.674   4.131   2.062
  147MYC    H8930454   5.588   3.939   2.174
  147MYC    H9030455   5.746   3.859   2.169
  147MYC    H9130456   5.845   4.053   2.298
  147MYC    H9230457   5.686   4.121   2.312
  147MYC    H9330458   5.606   3.909   2.412
  147MYC    H9430459   5.768   3.840   2.418
  147MYC    H9530460   5.845   4.015   2.567
  147MYC    H9630461   5.678   4.090   2.573
  147MYC    H9730462   5.591   3.869   2.668
  147MYC    H9830463   5.741   3.795   2.631
  147MYC    H9930464   5.849   3.951   2.792
  148MYC     C130465   5.859   5.493   3.315
  148MYC     C230466   5.736   5.406   3.351
  148MYC     O330467   5.766   5.275   3.396
  148MYC     C430468   5.639   5.408   3.232
  148MYC     C530469   5.647   5.291   3.132
  148MYC     C630470   5.661   5.334   2.985
  148MYC     C730471   5.782   5.264   2.920
  148MYC     C830472   5.828   5.320   2.784
  148MYC     C930473   5.729   5.302   2.667
  148MYC    C1030474   5.790   5.348   2.534
  148MYC    C1130475   5.719   5.316   2.401
  148MYC    C1230476   5.790   5.386   2.284
  148MYC    C1330477   5.734   5.340   2.148
  148MYC    C1430478   5.815   5.383   2.024
  148MYC    C1530479   5.733   5.423   1.901
  148MYC    C1630480   5.615   5.329   1.870
  148MYC    C1730481   5.654   5.182   1.860
  148MYC    C1830482   5.583   5.089   1.765
  148MYC    C1930483   5.722   5.136   1.733
  148MYC    C2030484   5.956   5.512   3.432
  148MYC    C2130485   5.897   5.562   3.565
  148MYC    C2230486   5.896   5.452   3.672
  148MYC    C2330487   5.816   5.490   3.798
  148MYC    C2430488   5.818   5.389   3.914
  148MYC    C2530489   5.811   5.455   4.053
  148MYC    C2630490   5.872   5.358   4.155
  148MYC    C2730491   5.827   5.387   4.299
  148MYC    C2830492   5.899   5.303   4.406
  148MYC    C2930493   5.863   5.334   4.552
  148MYC    C3030494   5.937   5.235   4.644
  148MYC    C3130495   5.873   5.205   4.781
  148MYC    C3230496   5.892   5.316   4.885
  148MYC    C3330497   5.830   5.274   5.019
  148MYC    C3430498   5.888   5.367   5.127
  148MYC    C3530499   5.858   5.309   5.267
  148MYC    C3630500   5.903   5.387   5.392
  148MYC    C3730501   5.874   5.309   5.521
  148MYC    C3830502   5.881   5.393   5.650
  148MYC    C3930503   5.869   5.302   5.773
  148MYC    C4030504   5.881   5.379   5.906
  148MYC    C4130505   5.837   5.294   6.027
  148MYC    C4230506   5.794   5.374   6.151
  148MYC    C4330507   5.801   5.277   6.271
  148MYC    C4430508   5.556   4.940   1.788
  148MYC    C4530509   5.442   4.921   1.890
  148MYC    C4630510   5.482   4.984   2.024
  148MYC    C4730511   5.399   4.940   2.146
  148MYC    C4830512   5.467   4.996   2.272
  148MYC    C4930513   5.384   4.954   2.394
  148MYC    C5030514   5.461   4.979   2.524
  148MYC    C5130515   5.381   4.931   2.646
  148MYC    C5230516   5.448   4.975   2.778
  148MYC    C5330517   5.383   4.909   2.901
  148MYC    C5430518   5.468   4.921   3.028
  148MYC    C5530519   5.398   4.876   3.157
  148MYC    C5630520   5.430   4.969   3.275
  148MYC    C5730521   5.376   4.925   3.412
  148MYC    C5830522   5.384   5.043   3.507
  148MYC    C5930523   5.516   5.087   3.564
  148MYC    C6030524   5.416   5.016   3.652
  148MYC    C6130525   5.364   5.095   3.772
  148MYC    C6230526   5.436   5.074   3.906
  148MYC    C6330527   5.376   5.144   4.029
  148MYC    C6430528   5.421   5.073   4.158
  148MYC    C6530529   5.359   5.142   4.281
  148MYC    C6630530   5.372   5.053   4.405
  148MYC    C6730531   5.314   5.108   4.537
  148MYC    C6830532   5.383   5.073   4.669
  148MYC    C6930533   5.301   5.100   4.797
  148MYC    C7030534   5.372   5.051   4.925
  148MYC    C7130535   5.314   5.108   5.056
  148MYC    C7230536   5.388   5.077   5.187
  148MYC    C7330537   5.316   5.148   5.303
  148MYC    C7430538   5.405   5.160   5.427
  148MYC    C7530539   5.330   5.214   5.550
  148MYC    C7630540   5.414   5.215   5.679
  148MYC    C7730541   5.326   5.228   5.805
  148MYC    C7830542   5.409   5.229   5.934
  148MYC    C7930543   5.317   5.230   6.058
  148MYC    C8030544   5.396   5.272   6.183
  148MYC    C8130545   5.933   5.456   3.187
  148MYC    O8230546   6.032   5.385   3.193
  148MYC    O8330547   5.897   5.528   3.079
  148MYC     H130548   5.811   5.591   3.306
  148MYC     H230549   5.674   5.455   3.427
  148MYC     H330550   5.704   5.218   3.348
  148MYC     H430551   5.537   5.388   3.270
  148MYC     H530552   5.632   5.511   3.195
  148MYC     H630553   5.729   5.220   3.150
  148MYC     H730554   5.556   5.231   3.143
  148MYC     H830555   5.570   5.312   2.928
  148MYC     H930556   5.675   5.443   2.980
  148MYC   0H1030557   5.436   5.084   2.783
  148MYC   1H1030558   5.288   4.960   2.917
  148MYC   2H1030559   5.346   4.806   2.896
  148MYC   3H1030560   5.564   4.869   3.014
  148MYC   4H1030561   5.504   5.024   3.039
  148MYC   5H1030562   5.292   4.891   3.131
  148MYC   6H1030563   5.426   4.771   3.175
  148MYC   7H1030564   5.539   4.976   3.277
  148MYC   8H1030565   5.404   5.073   3.252
  148MYC   9H1030566   5.277   4.879   3.399
  148MYC    H1030567   5.870   5.282   2.984
  148MYC   0H1130568   5.437   4.841   3.449
  148MYC   1H1130569   5.317   5.126   3.483
  148MYC   2H1130570   5.598   5.034   3.517
  148MYC   3H1130571   5.530   5.194   3.576
  148MYC   4H1130572   5.438   4.914   3.682
  148MYC   5H1130573   5.344   5.199   3.745
  148MYC   6H1130574   5.264   5.059   3.798
  148MYC   7H1130575   5.437   4.965   3.922
  148MYC   8H1130576   5.542   5.100   3.903
  148MYC   9H1130577   5.404   5.249   4.022
  148MYC    H1130578   5.757   5.157   2.915
  148MYC   0H1230579   5.267   5.135   4.034
  148MYC   1H1230580   5.394   4.967   4.148
  148MYC   2H1230581   5.529   5.083   4.171
  148MYC   3H1230582   5.401   5.244   4.290
  148MYC   4H1230583   5.254   5.158   4.254
  148MYC   5H1230584   5.323   4.957   4.385
  148MYC   6H1230585   5.481   5.048   4.418
  148MYC   7H1230586   5.313   5.217   4.523
  148MYC   8H1230587   5.212   5.068   4.547
  148MYC   9H1230588   5.405   4.966   4.676
  148MYC    H1230589   5.850   5.427   2.787
  148MYC   0H1330590   5.477   5.129   4.679
  148MYC   1H1330591   5.288   5.208   4.810
  148MYC   2H1330592   5.199   5.060   4.793
  148MYC   3H1330593   5.360   4.943   4.938
  148MYC   4H1330594   5.480   5.071   4.922
  148MYC   5H1330595   5.296   5.215   5.040
  148MYC   6H1330596   5.212   5.067   5.065
  148MYC   7H1330597   5.394   4.969   5.200
  148MYC   8H1330598   5.491   5.113   5.174
  148MYC   9H1330599   5.295   5.253   5.277
  148MYC    H1330600   5.926   5.278   2.758
  148MYC   0H1430601   5.215   5.114   5.328
  148MYC   1H1430602   5.450   5.062   5.449
  148MYC   2H1430603   5.488   5.229   5.408
  148MYC   3H1430604   5.304   5.317   5.526
  148MYC   4H1430605   5.233   5.167   5.572
  148MYC   5H1430606   5.478   5.126   5.680
  148MYC   6H1430607   5.478   5.304   5.682
  148MYC   7H1430608   5.264   5.319   5.799
  148MYC   8H1430609   5.257   5.143   5.803
  148MYC   9H1430610   5.483   5.149   5.942
  148MYC    H1430611   5.697   5.198   2.658
  148MYC   0H1530612   5.462   5.324   5.940
  148MYC   1H1530613   5.235   5.302   6.050
  148MYC   2H1530614   5.266   5.135   6.079
  148MYC   3H1530615   5.434   5.373   6.162
  148MYC   4H1530616   5.471   5.193   6.198
  148MYC   5H1530617   5.336   5.276   6.274
  148MYC   6H1530618   5.963   5.504   3.012
  148MYC    H1530619   5.642   5.365   2.691
  148MYC    H1630620   5.808   5.455   2.545
  148MYC    H1730621   5.892   5.307   2.530
  148MYC    H1830622   5.707   5.207   2.388
  148MYC    H1930623   5.615   5.348   2.404
  148MYC    H2030624   5.776   5.492   2.307
  148MYC    H2130625   5.898   5.368   2.288
  148MYC    H2230626   5.728   5.230   2.151
  148MYC    H2330627   5.635   5.385   2.142
  148MYC    H2430628   5.870   5.474   2.051
  148MYC    H2530629   5.881   5.298   2.003
  148MYC    H2630630   5.696   5.526   1.907
  148MYC    H2730631   5.797   5.413   1.812
  148MYC    H2830632   5.537   5.326   1.947
  148MYC    H2930633   5.565   5.370   1.782
  148MYC    H3030634   5.700   5.145   1.951
  148MYC    H3130635   5.506   5.136   1.705
  148MYC    H3230636   5.792   5.054   1.745
  148MYC    H3330637   5.753   5.215   1.665
  148MYC    H3430638   6.011   5.419   3.454
  148MYC    H3530639   6.021   5.591   3.393
  148MYC    H3630640   5.965   5.641   3.600
  148MYC    H3730641   5.798   5.607   3.551
  148MYC    H3830642   5.865   5.357   3.627
  148MYC    H3930643   6.002   5.434   3.696
  148MYC    H4030644   5.836   5.592   3.832
  148MYC    H4130645   5.712   5.498   3.763
  148MYC    H4230646   5.747   5.307   3.899
  148MYC    H4330647   5.914   5.339   3.898
  148MYC    H4430648   5.867   5.549   4.061
  148MYC    H4530649   5.709   5.476   4.087
  148MYC    H4630650   5.849   5.255   4.124
  148MYC    H4730651   5.982   5.356   4.149
  148MYC    H4830652   5.843   5.494   4.316
  148MYC    H4930653   5.719   5.369   4.309
  148MYC    H5030654   5.866   5.199   4.390
  148MYC    H5130655   6.007   5.311   4.392
  148MYC    H5230656   5.896   5.437   4.575
  148MYC    H5330657   5.756   5.323   4.571
  148MYC    H5430658   5.939   5.135   4.598
  148MYC    H5530659   6.034   5.279   4.667
  148MYC    H5630660   5.769   5.176   4.761
  148MYC    H5730661   5.927   5.116   4.813
  148MYC    H5830662   6.000   5.326   4.902
  148MYC    H5930663   5.849   5.405   4.837
  148MYC    H6030664   5.721   5.286   5.021
  148MYC    H6130665   5.846   5.168   5.041
  148MYC    H6230666   5.997   5.373   5.117
  148MYC    H6330667   5.845   5.468   5.125
  148MYC    H6430668   5.750   5.295   5.282
  148MYC    H6530669   5.898   5.207   5.277
  148MYC    H6630670   6.010   5.411   5.380
  148MYC    H6730671   5.845   5.479   5.388
  148MYC    H6830672   5.776   5.262   5.511
  148MYC    H6930673   5.945   5.226   5.525
  148MYC    H7030674   5.970   5.456   5.661
  148MYC    H7130675   5.800   5.466   5.638
  148MYC    H7230676   5.772   5.254   5.763
  148MYC    H7330677   5.943   5.221   5.764
  148MYC    H7430678   5.983   5.411   5.930
  148MYC    H7530679   5.816   5.468   5.907
  148MYC    H7630680   5.756   5.224   6.001
  148MYC    H7730681   5.923   5.229   6.051
  148MYC    H7830682   5.866   5.453   6.173
  148MYC    H7930683   5.694   5.417   6.144
  148MYC    H8030684   5.783   5.335   6.362
  148MYC    H8130685   5.900   5.232   6.276
  148MYC    H8230686   5.724   5.200   6.256
  148MYC    H8330687   5.528   4.889   1.695
  148MYC    H8430688   5.643   4.887   1.827
  148MYC    H8530689   5.348   4.956   1.846
  148MYC    H8630690   5.437   4.812   1.906
  148MYC    H8730691   5.582   4.945   2.046
  148MYC    H8830692   5.481   5.094   2.019
  148MYC    H8930693   5.293   4.966   2.133
  148MYC    H9030694   5.397   4.830   2.151
  148MYC    H9130695   5.566   4.950   2.276
  148MYC    H9230696   5.481   5.105   2.262
  148MYC    H9330697   5.281   4.993   2.390
  148MYC    H9430698   5.369   4.846   2.383
  148MYC    H9530699   5.562   4.935   2.521
  148MYC    H9630700   5.488   5.085   2.530
  148MYC    H9730701   5.282   4.976   2.649
  148MYC    H9830702   5.371   4.822   2.636
  148MYC    H9930703   5.556   4.954   2.780
  149MYC     C130704   5.827   5.954   3.268
  149MYC     C230705   5.692   5.953   3.194
  149MYC     O330706   5.642   5.820   3.190
  149MYC     C430707   5.690   6.006   3.050
  149MYC     C530708   5.713   5.898   2.943
  149MYC     C630709   5.767   5.961   2.814
  149MYC     C730710   5.751   5.872   2.689
  149MYC     C830711   5.799   5.928   2.554
  149MYC     C930712   5.834   5.821   2.449
  149MYC    C1030713   5.945   5.881   2.361
  149MYC    C1130714   5.978   5.799   2.235
  149MYC    C1230715   5.862   5.810   2.135
  149MYC    C1330716   5.880   5.926   2.036
  149MYC    C1430717   5.767   5.937   1.932
  149MYC    C1530718   5.808   6.006   1.801
  149MYC    C1630719   5.704   6.034   1.691
  149MYC    C1730720   5.633   5.903   1.661
  149MYC    C1830721   5.518   5.860   1.749
  149MYC    C1930722   5.492   5.909   1.609
  149MYC    C2030723   5.818   5.873   3.398
  149MYC    C2130724   5.776   5.956   3.521
  149MYC    C2230725   5.741   5.874   3.645
  149MYC    C2330726   5.707   5.959   3.769
  149MYC    C2430727   5.708   5.873   3.896
  149MYC    C2530728   5.635   5.932   4.018
  149MYC    C2630729   5.651   5.835   4.136
  149MYC    C2730730   5.581   5.882   4.265
  149MYC    C2830731   5.649   5.832   4.393
  149MYC    C2930732   5.570   5.860   4.522
  149MYC    C3030733   5.665   5.827   4.638
  149MYC    C3130734   5.592   5.794   4.769
  149MYC    C3230735   5.692   5.833   4.879
  149MYC    C3330736   5.643   5.825   5.024
  149MYC    C3430737   5.752   5.854   5.129
  149MYC    C3530738   5.687   5.827   5.266
  149MYC    C3630739   5.781   5.872   5.380
  149MYC    C3730740   5.714   5.858   5.518
  149MYC    C3830741   5.801   5.912   5.632
  149MYC    C3930742   5.776   5.858   5.774
  149MYC    C4030743   5.887   5.885   5.877
  149MYC    C4130744   5.851   5.871   6.026
  149MYC    C4230745   5.922   5.975   6.114
  149MYC    C4330746   5.901   5.950   6.265
  149MYC    C4430747   5.475   5.716   1.772
  149MYC    C4530748   5.375   5.706   1.889
  149MYC    C4630749   5.425   5.756   2.026
  149MYC    C4730750   5.379   5.661   2.138
  149MYC    C4830751   5.414   5.714   2.279
  149MYC    C4930752   5.372   5.616   2.389
  149MYC    C5030753   5.374   5.679   2.530
  149MYC    C5130754   5.329   5.592   2.648
  149MYC    C5230755   5.362   5.664   2.780
  149MYC    C5330756   5.320   5.598   2.913
  149MYC    C5430757   5.348   5.681   3.040
  149MYC    C5530758   5.282   5.606   3.157
  149MYC    C5630759   5.326   5.655   3.296
  149MYC    C5730760   5.258   5.574   3.409
  149MYC    C5830761   5.293   5.619   3.550
  149MYC    C5930762   5.415   5.570   3.623
  149MYC    C6030763   5.278   5.521   3.664
  149MYC    C6130764   5.219   5.575   3.793
  149MYC    C6230765   5.276   5.500   3.915
  149MYC    C6330766   5.206   5.562   4.038
  149MYC    C6430767   5.257   5.512   4.174
  149MYC    C6530768   5.178   5.571   4.292
  149MYC    C6630769   5.265   5.562   4.419
  149MYC    C6730770   5.193   5.598   4.550
  149MYC    C6830771   5.280   5.602   4.677
  149MYC    C6930772   5.202   5.638   4.804
  149MYC    C7030773   5.289   5.622   4.930
  149MYC    C7130774   5.215   5.641   5.063
  149MYC    C7230775   5.302   5.687   5.181
  149MYC    C7330776   5.250   5.643   5.319
  149MYC    C7430777   5.351   5.688   5.426
  149MYC    C7530778   5.291   5.663   5.566
  149MYC    C7630779   5.390   5.708   5.674
  149MYC    C7730780   5.324   5.694   5.813
  149MYC    C7830781   5.424   5.697   5.929
  149MYC    C7930782   5.363   5.672   6.068
  149MYC    C8030783   5.476   5.665   6.172
  149MYC    C8130784   5.943   5.904   3.183
  149MYC    O8230785   5.998   5.796   3.199
  149MYC    O8330786   6.002   5.997   3.105
  149MYC     H130787   5.848   6.060   3.288
  149MYC     H230788   5.626   6.024   3.246
  149MYC     H330789   5.699   5.787   3.118
  149MYC     H430790   5.599   6.063   3.027
  149MYC     H530791   5.764   6.087   3.054
  149MYC     H630792   5.786   5.828   2.986
  149MYC     H730793   5.626   5.834   2.923
  149MYC     H830794   5.728   6.060   2.787
  149MYC     H930795   5.871   5.993   2.825
  149MYC   0H1030796   5.319   5.765   2.787
  149MYC   1H1030797   5.215   5.567   2.920
  149MYC   2H1030798   5.373   5.503   2.915
  149MYC   3H1030799   5.456   5.675   3.054
  149MYC   4H1030800   5.315   5.785   3.030
  149MYC   5H1030801   5.175   5.632   3.155
  149MYC   6H1030802   5.280   5.497   3.153
  149MYC   7H1030803   5.434   5.662   3.312
  149MYC   8H1030804   5.293   5.759   3.307
  149MYC   9H1030805   5.150   5.589   3.397
  149MYC    H1030806   5.789   5.772   2.716
  149MYC   0H1130807   5.280   5.469   3.387
  149MYC   1H1130808   5.269   5.723   3.569
  149MYC   2H1130809   5.480   5.503   3.567
  149MYC   3H1130810   5.473   5.631   3.691
  149MYC   4H1130811   5.246   5.420   3.640
  149MYC   5H1130812   5.255   5.679   3.795
  149MYC   6H1130813   5.110   5.576   3.787
  149MYC   7H1130814   5.252   5.393   3.914
  149MYC   8H1130815   5.385   5.510   3.918
  149MYC   9H1130816   5.221   5.671   4.038
  149MYC    H1130817   5.644   5.847   2.684
  149MYC   0H1230818   5.099   5.542   4.030
  149MYC   1H1230819   5.247   5.403   4.171
  149MYC   2H1230820   5.360   5.549   4.189
  149MYC   3H1230821   5.158   5.677   4.274
  149MYC   4H1230822   5.082   5.517   4.289
  149MYC   5H1230823   5.311   5.463   4.430
  149MYC   6H1230824   5.351   5.628   4.404
  149MYC   7H1230825   5.150   5.699   4.538
  149MYC   8H1230826   5.112   5.525   4.559
  149MYC   9H1230827   5.329   5.506   4.697
  149MYC    H1230828   5.715   5.976   2.503
  149MYC   0H1330829   5.359   5.677   4.666
  149MYC   1H1330830   5.176   5.744   4.802
  149MYC   2H1330831   5.113   5.574   4.803
  149MYC   3H1330832   5.349   5.530   4.936
  149MYC   4H1330833   5.362   5.703   4.927
  149MYC   5H1330834   5.125   5.699   5.039
  149MYC   6H1330835   5.179   5.542   5.094
  149MYC   7H1330836   5.408   5.659   5.176
  149MYC   8H1330837   5.307   5.796   5.170
  149MYC   9H1330838   5.153   5.689   5.344
  149MYC    H1330839   5.879   6.001   2.566
  149MYC   0H1430840   5.222   5.537   5.322
  149MYC   1H1430841   5.445   5.632   5.428
  149MYC   2H1430842   5.371   5.796   5.414
  149MYC   3H1430843   5.195   5.714   5.580
  149MYC   4H1430844   5.273   5.557   5.584
  149MYC   5H1430845   5.482   5.648   5.677
  149MYC   6H1430846   5.424   5.810   5.652
  149MYC   7H1430847   5.245   5.770   5.825
  149MYC   8H1430848   5.274   5.596   5.814
  149MYC   9H1430849   5.488   5.609   5.912
  149MYC    H1430850   5.875   5.732   2.497
  149MYC   0H1530851   5.482   5.789   5.924
  149MYC   1H1530852   5.298   5.759   6.082
  149MYC   2H1530853   5.308   5.577   6.062
  149MYC   3H1530854   5.517   5.762   6.202
  149MYC   4H1530855   5.557   5.608   6.124
  149MYC   5H1530856   5.434   5.609   6.256
  149MYC   6H1530857   6.081   5.953   3.070
  149MYC    H1530858   5.750   5.793   2.385
  149MYC    H1630859   5.916   5.980   2.323
  149MYC    H1730860   6.039   5.902   2.414
  149MYC    H1830861   6.072   5.822   2.185
  149MYC    H1930862   5.987   5.696   2.274
  149MYC    H2030863   5.845   5.715   2.082
  149MYC    H2130864   5.762   5.817   2.180
  149MYC    H2230865   5.893   6.021   2.090
  149MYC    H2330866   5.979   5.910   1.991
  149MYC    H2430867   5.734   5.833   1.916
  149MYC    H2530868   5.688   5.995   1.981
  149MYC    H2630869   5.875   6.091   1.821
  149MYC    H2730870   5.885   5.942   1.754
  149MYC    H2830871   5.632   6.105   1.734
  149MYC    H2930872   5.752   6.073   1.601
  149MYC    H3030873   5.700   5.828   1.618
  149MYC    H3130874   5.499   5.928   1.832
  149MYC    H3230875   5.448   5.838   1.540
  149MYC    H3330876   5.454   6.010   1.599
  149MYC    H3430877   5.755   5.783   3.392
  149MYC    H3530878   5.919   5.843   3.428
  149MYC    H3630879   5.844   6.042   3.531
  149MYC    H3730880   5.686   6.005   3.482
  149MYC    H3830881   5.662   5.800   3.627
  149MYC    H3930882   5.828   5.820   3.684
  149MYC    H4030883   5.774   6.046   3.773
  149MYC    H4130884   5.605   5.999   3.760
  149MYC    H4230885   5.652   5.783   3.868
  149MYC    H4330886   5.808   5.834   3.921
  149MYC    H4430887   5.672   6.031   4.048
  149MYC    H4530888   5.528   5.938   3.994
  149MYC    H4630889   5.609   5.740   4.099
  149MYC    H4730890   5.758   5.819   4.151
  149MYC    H4830891   5.587   5.991   4.270
  149MYC    H4930892   5.477   5.851   4.250
  149MYC    H5030893   5.677   5.726   4.381
  149MYC    H5130894   5.749   5.878   4.392
  149MYC    H5230895   5.533   5.963   4.516
  149MYC    H5330896   5.484   5.791   4.523
  149MYC    H5430897   5.732   5.744   4.613
  149MYC    H5530898   5.728   5.915   4.653
  149MYC    H5630899   5.503   5.850   4.801
  149MYC    H5730900   5.573   5.686   4.775
  149MYC    H5830901   5.786   5.776   4.876
  149MYC    H5930902   5.721   5.937   4.861
  149MYC    H6030903   5.561   5.896   5.037
  149MYC    H6130904   5.596   5.727   5.041
  149MYC    H6230905   5.840   5.791   5.110
  149MYC    H6330906   5.785   5.959   5.131
  149MYC    H6430907   5.587   5.872   5.270
  149MYC    H6530908   5.667   5.720   5.263
  149MYC    H6630909   5.868   5.806   5.385
  149MYC    H6730910   5.831   5.968   5.363
  149MYC    H6830911   5.616   5.907   5.517
  149MYC    H6930912   5.695   5.752   5.538
  149MYC    H7030913   5.905   5.892   5.607
  149MYC    H7130914   5.790   6.021   5.629
  149MYC    H7230915   5.684   5.906   5.810
  149MYC    H7330916   5.754   5.751   5.776
  149MYC    H7430917   5.973   5.821   5.854
  149MYC    H7530918   5.916   5.990   5.865
  149MYC    H7630919   5.742   5.883   6.031
  149MYC    H7730920   5.872   5.771   6.067
  149MYC    H7830921   6.029   5.987   6.092
  149MYC    H7930922   5.875   6.072   6.093
  149MYC    H8030923   5.903   6.039   6.329
  149MYC    H8130924   5.997   5.905   6.294
  149MYC    H8230925   5.815   5.887   6.290
  149MYC    H8330926   5.428   5.674   1.683
  149MYC    H8430927   5.568   5.663   1.795
  149MYC    H8530928   5.283   5.751   1.852
  149MYC    H8630929   5.335   5.604   1.899
  149MYC    H8730930   5.535   5.762   2.024
  149MYC    H8830931   5.394   5.860   2.043
  149MYC    H8930932   5.270   5.648   2.136
  149MYC    H9030933   5.414   5.559   2.118
  149MYC    H9130934   5.520   5.741   2.283
  149MYC    H9230935   5.356   5.807   2.285
  149MYC    H9330936   5.275   5.565   2.375
  149MYC    H9430937   5.439   5.530   2.401
  149MYC    H9530938   5.475   5.717   2.548
  149MYC    H9630939   5.302   5.761   2.521
  149MYC    H9730940   5.221   5.577   2.638
  149MYC    H9830941   5.363   5.488   2.648
  149MYC    H9930942   5.471   5.677   2.780
  150SOL     OW30943   2.347   6.084  12.757
  150SOL    HW130944   2.408   6.164  12.761
  150SOL    HW230945   2.252   6.115  12.764
  151SOL     OW30946   4.209   0.498  12.757
  151SOL    HW130947   4.270   0.578  12.761
  151SOL    HW230948   4.114   0.529  12.764
  152SOL     OW30949   4.209   2.360  12.757
  152SOL    HW130950   4.270   2.440  12.761
  152SOL    HW230951   4.114   2.391  12.764
  153SOL     OW30952   4.209   4.222  12.757
  153SOL    HW130953   4.270   4.302  12.761
  153SOL    HW230954   4.114   4.253  12.764
  154SOL     OW30955   4.209   6.084  12.757
  154SOL    HW130956   4.270   6.164  12.761
  154SOL    HW230957   4.114   6.115  12.764
  155SOL     OW30958   6.071   0.498  12.757
  155SOL    HW130959   6.132   0.578  12.761
  155SOL    HW230960   5.976   0.529  12.764
  156SOL     OW30961   6.071   2.360  12.757
  156SOL    HW130962   6.132   2.440  12.761
  156SOL    HW230963   5.976   2.391  12.764
  157SOL     OW30964   6.071   4.222  12.757
  157SOL    HW130965   6.132   4.302  12.761
  157SOL    HW230966   5.976   4.253  12.764
  158SOL     OW30967   6.071   6.084  12.757
  158SOL    HW130968   6.132   6.164  12.761
  158SOL    HW230969   5.976   6.115  12.764
  159SOL     OW30970   1.537   0.997  12.756
  159SOL    HW130971   1.474   0.921  12.769
  159SOL    HW230972   1.585   1.015  12.842
  160SOL     OW30973   1.537   2.859  12.756
  160SOL    HW130974   1.474   2.783  12.769
  160SOL    HW230975   1.585   2.877  12.842
  161SOL     OW30976   1.537   4.721  12.756
  161SOL    HW130977   1.474   4.645  12.769
  161SOL    HW230978   1.585   4.739  12.842
  162SOL     OW30979   3.399   0.997  12.756
  162SOL    HW130980   3.336   0.921  12.769
  162SOL    HW230981   3.447   1.015  12.842
  163SOL     OW30982   3.399   2.859  12.756
  163SOL    HW130983   3.336   2.783  12.769
  163SOL    HW230984   3.447   2.877  12.842
  164SOL     OW30985   3.399   4.721  12.756
  164SOL    HW130986   3.336   4.645  12.769
  164SOL    HW230987   3.447   4.739  12.842
  165SOL     OW30988   5.261   0.997  12.756
  165SOL    HW130989   5.198   0.921  12.769
  165SOL    HW230990   5.309   1.015  12.842
  166SOL     OW30991   5.261   2.859  12.756
  166SOL    HW130992   5.198   2.783  12.769
  166SOL    HW230993   5.309   2.877  12.842
  167SOL     OW30994   5.261   4.721  12.756
  167SOL    HW130995   5.198   4.645  12.769
  167SOL    HW230996   5.309   4.739  12.842
  168SOL     OW30997   0.134   0.641   0.095
  168SOL    HW130998   0.089   0.553   0.112
  168SOL    HW230999   0.133   0.695   0.179
  169SOL     OW31000   0.134   2.503   0.095
  169SOL    HW131001   0.089   2.415   0.112
  169SOL    HW231002   0.133   2.557   0.179
  170SOL     OW31003   0.134   4.365   0.095
  170SOL    HW131004   0.089   4.277   0.112
  170SOL    HW231005   0.133   4.419   0.179
  171SOL     OW31006   0.134   6.227   0.095
  171SOL    HW131007   0.089   6.139   0.112
  171SOL    HW231008   0.133   6.281   0.179
  172SOL     OW31009   1.996   0.641   0.095
  172SOL    HW131010   1.951   0.553   0.112
  172SOL    HW231011   1.995   0.695   0.179
  173SOL     OW31012   1.996   2.503   0.095
  173SOL    HW131013   1.951   2.415   0.112
  173SOL    HW231014   1.995   2.557   0.179
  174SOL     OW31015   1.996   4.365   0.095
  174SOL    HW131016   1.951   4.277   0.112
  174SOL    HW231017   1.995   4.419   0.179
  175SOL     OW31018   1.996   6.227   0.095
  175SOL    HW131019   1.951   6.139   0.112
  175SOL    HW231020   1.995   6.281   0.179
  176SOL     OW31021   3.858   0.641   0.095
  176SOL    HW131022   3.813   0.553   0.112
  176SOL    HW231023   3.857   0.695   0.179
  177SOL     OW31024   3.858   2.503   0.095
  177SOL    HW131025   3.813   2.415   0.112
  177SOL    HW231026   3.857   2.557   0.179
  178SOL     OW31027   3.858   4.365   0.095
  178SOL    HW131028   3.813   4.277   0.112
  178SOL    HW231029   3.857   4.419   0.179
  179SOL     OW31030   3.858   6.227   0.095
  179SOL    HW131031   3.813   6.139   0.112
  179SOL    HW231032   3.857   6.281   0.179
  180SOL     OW31033   5.720   0.641   0.095
  180SOL    HW131034   5.675   0.553   0.112
  180SOL    HW231035   5.719   0.695   0.179
  181SOL     OW31036   5.720   2.503   0.095
  181SOL    HW131037   5.675   2.415   0.112
  181SOL    HW231038   5.719   2.557   0.179
  182SOL     OW31039   5.720   4.365   0.095
  182SOL    HW131040   5.675   4.277   0.112
  182SOL    HW231041   5.719   4.419   0.179
  183SOL     OW31042   5.720   6.227   0.095
  183SOL    HW131043   5.675   6.139   0.112
  183SOL    HW231044   5.719   6.281   0.179
  184SOL     OW31045   1.679   1.712   0.104
  184SOL    HW131046   1.638   1.689   0.016
  184SOL    HW231047   1.661   1.638   0.169
  185SOL     OW31048   1.679   3.574   0.104
  185SOL    HW131049   1.638   3.551   0.016
  185SOL    HW231050   1.661   3.500   0.169
  186SOL     OW31051   1.679   5.436   0.104
  186SOL    HW131052   1.638   5.413   0.016
  186SOL    HW231053   1.661   5.362   0.169
  187SOL     OW31054   3.541   1.712   0.104
  187SOL    HW131055   3.500   1.689   0.016
  187SOL    HW231056   3.523   1.638   0.169
  188SOL     OW31057   3.541   3.574   0.104
  188SOL    HW131058   3.500   3.551   0.016
  188SOL    HW231059   3.523   3.500   0.169
  189SOL     OW31060   3.541   5.436   0.104
  189SOL    HW131061   3.500   5.413   0.016
  189SOL    HW231062   3.523   5.362   0.169
  190SOL     OW31063   5.403   1.712   0.104
  190SOL    HW131064   5.362   1.689   0.016
  190SOL    HW231065   5.385   1.638   0.169
  191SOL     OW31066   5.403   3.574   0.104
  191SOL    HW131067   5.362   3.551   0.016
  191SOL    HW231068   5.385   3.500   0.169
  192SOL     OW31069   5.403   5.436   0.104
  192SOL    HW131070   5.362   5.413   0.016
  192SOL    HW231071   5.385   5.362   0.169
  193SOL     OW31072   0.500   1.383  12.740
  193SOL    HW131073   0.413   1.368  12.787
  193SOL    HW231074   0.483   1.409  12.645
  194SOL     OW31075   0.500   3.245  12.740
  194SOL    HW131076   0.413   3.230  12.787
  194SOL    HW231077   0.483   3.271  12.645
  195SOL     OW31078   0.500   5.107  12.740
  195SOL    HW131079   0.413   5.092  12.787
  195SOL    HW231080   0.483   5.133  12.645
  196SOL     OW31081   2.362   1.383  12.740
  196SOL    HW131082   2.275   1.368  12.787
  196SOL    HW231083   2.345   1.409  12.645
  197SOL     OW31084   2.362   3.245  12.740
  197SOL    HW131085   2.275   3.230  12.787
  197SOL    HW231086   2.345   3.271  12.645
  198SOL     OW31087   2.362   5.107  12.740
  198SOL    HW131088   2.275   5.092  12.787
  198SOL    HW231089   2.345   5.133  12.645
  199SOL     OW31090   4.224   1.383  12.740
  199SOL    HW131091   4.137   1.368  12.787
  199SOL    HW231092   4.207   1.409  12.645
  200SOL     OW31093   4.224   3.245  12.740
  200SOL    HW131094   4.137   3.230  12.787
  200SOL    HW231095   4.207   3.271  12.645
  201SOL     OW31096   4.224   5.107  12.740
  201SOL    HW131097   4.137   5.092  12.787
  201SOL    HW231098   4.207   5.133  12.645
  202SOL     OW31099   6.086   1.383  12.740
  202SOL    HW131100   5.999   1.368  12.787
  202SOL    HW231101   6.069   1.409  12.645
  203SOL     OW31102   6.086   3.245  12.740
  203SOL    HW131103   5.999   3.230  12.787
  203SOL    HW231104   6.069   3.271  12.645
  204SOL     OW31105   6.086   5.107  12.740
  204SOL    HW131106   5.999   5.092  12.787
  204SOL    HW231107   6.069   5.133  12.645
  205SOL     OW31108   0.309   0.033  12.737
  205SOL    HW131109   0.358   0.117  12.716
  205SOL    HW231110   0.371   6.418  12.782
  206SOL     OW31111   0.309   1.895  12.737
  206SOL    HW131112   0.358   1.979  12.716
  206SOL    HW231113   0.371   1.830  12.782
  207SOL     OW31114   0.309   3.757  12.737
  207SOL    HW131115   0.358   3.841  12.716
  207SOL    HW231116   0.371   3.692  12.782
  208SOL     OW31117   0.309   5.619  12.737
  208SOL    HW131118   0.358   5.703  12.716
  208SOL    HW231119   0.371   5.554  12.782
  209SOL     OW31120   2.171   0.033  12.737
  209SOL    HW131121   2.220   0.117  12.716
  209SOL    HW231122   2.233   6.418  12.782
  210SOL     OW31123   2.171   1.895  12.737
  210SOL    HW131124   2.220   1.979  12.716
  210SOL    HW231125   2.233   1.830  12.782
  211SOL     OW31126   2.171   3.757  12.737
  211SOL    HW131127   2.220   3.841  12.716
  211SOL    HW231128   2.233   3.692  12.782
  212SOL     OW31129   2.171   5.619  12.737
  212SOL    HW131130   2.220   5.703  12.716
  212SOL    HW231131   2.233   5.554  12.782
  213SOL     OW31132   4.033   0.033  12.737
  213SOL    HW131133   4.082   0.117  12.716
  213SOL    HW231134   4.095   6.418  12.782
  214SOL     OW31135   4.033   1.895  12.737
  214SOL    HW131136   4.082   1.979  12.716
  214SOL    HW231137   4.095   1.830  12.782
  215SOL     OW31138   4.033   3.757  12.737
  215SOL    HW131139   4.082   3.841  12.716
  215SOL    HW231140   4.095   3.692  12.782
  216SOL     OW31141   4.033   5.619  12.737
  216SOL    HW131142   4.082   5.703  12.716
  216SOL    HW231143   4.095   5.554  12.782
  217SOL     OW31144   5.895   0.033  12.737
  217SOL    HW131145   5.944   0.117  12.716
  217SOL    HW231146   5.957   6.418  12.782
  218SOL     OW31147   5.895   1.895  12.737
  218SOL    HW131148   5.944   1.979  12.716
  218SOL    HW231149   5.957   1.830  12.782
  219SOL     OW31150   5.895   3.757  12.737
  219SOL    HW131151   5.944   3.841  12.716
  219SOL    HW231152   5.957   3.692  12.782
  220SOL     OW31153   5.895   5.619  12.737
  220SOL    HW131154   5.944   5.703  12.716
  220SOL    HW231155   5.957   5.554  12.782
  221SOL     OW31156   1.364   0.050  12.734
  221SOL    HW131157   1.399   0.009  12.650
  221SOL    HW231158   1.274   0.012  12.754
  222SOL     OW31159   1.364   1.912  12.734
  222SOL    HW131160   1.399   1.871  12.650
  222SOL    HW231161   1.274   1.874  12.754
  223SOL     OW31162   1.364   3.774  12.734
  223SOL    HW131163   1.399   3.733  12.650
  223SOL    HW231164   1.274   3.736  12.754
  224SOL     OW31165   1.364   5.636  12.734
  224SOL    HW131166   1.399   5.595  12.650
  224SOL    HW231167   1.274   5.598  12.754
  225SOL     OW31168   3.226   0.050  12.734
  225SOL    HW131169   3.261   0.009  12.650
  225SOL    HW231170   3.136   0.012  12.754
  226SOL     OW31171   3.226   1.912  12.734
  226SOL    HW131172   3.261   1.871  12.650
  226SOL    HW231173   3.136   1.874  12.754
  227SOL     OW31174   3.226   3.774  12.734
  227SOL    HW131175   3.261   3.733  12.650
  227SOL    HW231176   3.136   3.736  12.754
  228SOL     OW31177   3.226   5.636  12.734
  228SOL    HW131178   3.261   5.595  12.650
  228SOL    HW231179   3.136   5.598  12.754
  229SOL     OW31180   5.088   0.050  12.734
  229SOL    HW131181   5.123   0.009  12.650
  229SOL    HW231182   4.998   0.012  12.754
  230SOL     OW31183   5.088   1.912  12.734
  230SOL    HW131184   5.123   1.871  12.650
  230SOL    HW231185   4.998   1.874  12.754
  231SOL     OW31186   5.088   3.774  12.734
  231SOL    HW131187   5.123   3.733  12.650
  231SOL    HW231188   4.998   3.736  12.754
  232SOL     OW31189   5.088   5.636  12.734
  232SOL    HW131190   5.123   5.595  12.650
  232SOL    HW231191   4.998   5.598  12.754
  233SOL     OW31192   1.283   1.795   0.123
  233SOL    HW131193   1.327   1.859   0.059
  233SOL    HW231194   1.233   1.847   0.193
  234SOL     OW31195   1.283   3.657   0.123
  234SOL    HW131196   1.327   3.721   0.059
  234SOL    HW231197   1.233   3.709   0.193
  235SOL     OW31198   1.283   5.519   0.123
  235SOL    HW131199   1.327   5.583   0.059
  235SOL    HW231200   1.233   5.571   0.193
  236SOL     OW31201   3.145   1.795   0.123
  236SOL    HW131202   3.189   1.859   0.059
  236SOL    HW231203   3.095   1.847   0.193
  237SOL     OW31204   3.145   3.657   0.123
  237SOL    HW131205   3.189   3.721   0.059
  237SOL    HW231206   3.095   3.709   0.193
  238SOL     OW31207   3.145   5.519   0.123
  238SOL    HW131208   3.189   5.583   0.059
  238SOL    HW231209   3.095   5.571   0.193
  239SOL     OW31210   5.007   1.795   0.123
  239SOL    HW131211   5.051   1.859   0.059
  239SOL    HW231212   4.957   1.847   0.193
  240SOL     OW31213   5.007   3.657   0.123
  240SOL    HW131214   5.051   3.721   0.059
  240SOL    HW231215   4.957   3.709   0.193
  241SOL     OW31216   5.007   5.519   0.123
  241SOL    HW131217   5.051   5.583   0.059
  241SOL    HW231218   4.957   5.571   0.193
  242SOL     OW31219   0.684   1.614  12.720
  242SOL    HW131220   0.693   1.624  12.621
  242SOL    HW231221   0.644   1.525  12.741
  243SOL     OW31222   0.684   3.476  12.720
  243SOL    HW131223   0.693   3.486  12.621
  243SOL    HW231224   0.644   3.387  12.741
  244SOL     OW31225   0.684   5.338  12.720
  244SOL    HW131226   0.693   5.348  12.621
  244SOL    HW231227   0.644   5.249  12.741
  245SOL     OW31228   2.546   1.614  12.720
  245SOL    HW131229   2.555   1.624  12.621
  245SOL    HW231230   2.506   1.525  12.741
  246SOL     OW31231   2.546   3.476  12.720
  246SOL    HW131232   2.555   3.486  12.621
  246SOL    HW231233   2.506   3.387  12.741
  247SOL     OW31234   2.546   5.338  12.720
  247SOL    HW131235   2.555   5.348  12.621
  247SOL    HW231236   2.506   5.249  12.741
  248SOL     OW31237   4.408   1.614  12.720
  248SOL    HW131238   4.417   1.624  12.621
  248SOL    HW231239   4.368   1.525  12.741
  249SOL     OW31240   4.408   3.476  12.720
  249SOL    HW131241   4.417   3.486  12.621
  249SOL    HW231242   4.368   3.387  12.741
  250SOL     OW31243   4.408   5.338  12.720
  250SOL    HW131244   4.417   5.348  12.621
  250SOL    HW231245   4.368   5.249  12.741
  251SOL     OW31246   6.270   1.614  12.720
  251SOL    HW131247   6.279   1.624  12.621
  251SOL    HW231248   6.230   1.525  12.741
  252SOL     OW31249   6.270   3.476  12.720
  252SOL    HW131250   6.279   3.486  12.621
  252SOL    HW231251   6.230   3.387  12.741
  253SOL     OW31252   6.270   5.338  12.720
  253SOL    HW131253   6.279   5.348  12.621
  253SOL    HW231254   6.230   5.249  12.741
  254SOL     OW31255   1.701   0.920   0.144
  254SOL    HW131256   1.796   0.891   0.152
  254SOL    HW231257   1.693   0.985   0.069
  255SOL     OW31258   1.701   2.782   0.144
  255SOL    HW131259   1.796   2.753   0.152
  255SOL    HW231260   1.693   2.847   0.069
  256SOL     OW31261   1.701   4.644   0.144
  256SOL    HW131262   1.796   4.615   0.152
  256SOL    HW231263   1.693   4.709   0.069
  257SOL     OW31264   3.563   0.920   0.144
  257SOL    HW131265   3.658   0.891   0.152
  257SOL    HW231266   3.555   0.985   0.069
  258SOL     OW31267   3.563   2.782   0.144
  258SOL    HW131268   3.658   2.753   0.152
  258SOL    HW231269   3.555   2.847   0.069
  259SOL     OW31270   3.563   4.644   0.144
  259SOL    HW131271   3.658   4.615   0.152
  259SOL    HW231272   3.555   4.709   0.069
  260SOL     OW31273   5.425   0.920   0.144
  260SOL    HW131274   5.520   0.891   0.152
  260SOL    HW231275   5.417   0.985   0.069
  261SOL     OW31276   5.425   2.782   0.144
  261SOL    HW131277   5.520   2.753   0.152
  261SOL    HW231278   5.417   2.847   0.069
  262SOL     OW31279   5.425   4.644   0.144
  262SOL    HW131280   5.520   4.615   0.152
  262SOL    HW231281   5.417   4.709   0.069
  263SOL     OW31282   0.051   0.084  12.699
  263SOL    HW131283   0.102   0.085  12.613
  263SOL    HW231284   0.107   0.042  12.770
  264SOL     OW31285   0.051   1.946  12.699
  264SOL    HW131286   0.102   1.947  12.613
  264SOL    HW231287   0.107   1.904  12.770
  265SOL     OW31288   0.051   3.808  12.699
  265SOL    HW131289   0.102   3.809  12.613
  265SOL    HW231290   0.107   3.766  12.770
  266SOL     OW31291   0.051   5.670  12.699
  266SOL    HW131292   0.102   5.671  12.613
  266SOL    HW231293   0.107   5.628  12.770
  267SOL     OW31294   0.319   0.061   0.150
  267SOL    HW131295   0.308   0.155   0.183
  267SOL    HW231296   0.314   6.448   0.227
  268SOL     OW31297   0.319   1.923   0.150
  268SOL    HW131298   0.308   2.017   0.183
  268SOL    HW231299   0.314   1.860   0.227
  269SOL     OW31300   0.319   3.785   0.150
  269SOL    HW131301   0.308   3.879   0.183
  269SOL    HW231302   0.314   3.722   0.227
  270SOL     OW31303   0.319   5.647   0.150
  270SOL    HW131304   0.308   5.741   0.183
  270SOL    HW231305   0.314   5.584   0.227
  271SOL     OW31306   2.181   0.061   0.150
  271SOL    HW131307   2.170   0.155   0.183
  271SOL    HW231308   2.176   6.448   0.227
  272SOL     OW31309   2.181   1.923   0.150
  272SOL    HW131310   2.170   2.017   0.183
  272SOL    HW231311   2.176   1.860   0.227
  273SOL     OW31312   2.181   3.785   0.150
  273SOL    HW131313   2.170   3.879   0.183
  273SOL    HW231314   2.176   3.722   0.227
  274SOL     OW31315   2.181   5.647   0.150
  274SOL    HW131316   2.170   5.741   0.183
  274SOL    HW231317   2.176   5.584   0.227
  275SOL     OW31318   4.043   0.061   0.150
  275SOL    HW131319   4.032   0.155   0.183
  275SOL    HW231320   4.038   6.448   0.227
  276SOL     OW31321   4.043   1.923   0.150
  276SOL    HW131322   4.032   2.017   0.183
  276SOL    HW231323   4.038   1.860   0.227
  277SOL     OW31324   4.043   3.785   0.150
  277SOL    HW131325   4.032   3.879   0.183
  277SOL    HW231326   4.038   3.722   0.227
  278SOL     OW31327   4.043   5.647   0.150
  278SOL    HW131328   4.032   5.741   0.183
  278SOL    HW231329   4.038   5.584   0.227
  279SOL     OW31330   5.905   0.061   0.150
  279SOL    HW131331   5.894   0.155   0.183
  279SOL    HW231332   5.900   6.448   0.227
  280SOL     OW31333   5.905   1.923   0.150
  280SOL    HW131334   5.894   2.017   0.183
  280SOL    HW231335   5.900   1.860   0.227
  281SOL     OW31336   5.905   3.785   0.150
  281SOL    HW131337   5.894   3.879   0.183
  281SOL    HW231338   5.900   3.722   0.227
  282SOL     OW31339   5.905   5.647   0.150
  282SOL    HW131340   5.894   5.741   0.183
  282SOL    HW231341   5.900   5.584   0.227
  283SOL     OW31342   1.552   0.272  12.691
  283SOL    HW131343   1.491   0.197  12.714
  283SOL    HW231344   1.574   0.324  12.774
  284SOL     OW31345   1.552   2.134  12.691
  284SOL    HW131346   1.491   2.059  12.714
  284SOL    HW231347   1.574   2.186  12.774
  285SOL     OW31348   1.552   3.996  12.691
  285SOL    HW131349   1.491   3.921  12.714
  285SOL    HW231350   1.574   4.048  12.774
  286SOL     OW31351   1.552   5.858  12.691
  286SOL    HW131352   1.491   5.783  12.714
  286SOL    HW231353   1.574   5.910  12.774
  287SOL     OW31354   3.414   0.272  12.691
  287SOL    HW131355   3.353   0.197  12.714
  287SOL    HW231356   3.436   0.324  12.774
  288SOL     OW31357   3.414   2.134  12.691
  288SOL    HW131358   3.353   2.059  12.714
  288SOL    HW231359   3.436   2.186  12.774
  289SOL     OW31360   3.414   3.996  12.691
  289SOL    HW131361   3.353   3.921  12.714
  289SOL    HW231362   3.436   4.048  12.774
  290SOL     OW31363   3.414   5.858  12.691
  290SOL    HW131364   3.353   5.783  12.714
  290SOL    HW231365   3.436   5.910  12.774
  291SOL     OW31366   5.276   0.272  12.691
  291SOL    HW131367   5.215   0.197  12.714
  291SOL    HW231368   5.298   0.324  12.774
  292SOL     OW31369   5.276   2.134  12.691
  292SOL    HW131370   5.215   2.059  12.714
  292SOL    HW231371   5.298   2.186  12.774
  293SOL     OW31372   5.276   3.996  12.691
  293SOL    HW131373   5.215   3.921  12.714
  293SOL    HW231374   5.298   4.048  12.774
  294SOL     OW31375   5.276   5.858  12.691
  294SOL    HW131376   5.215   5.783  12.714
  294SOL    HW231377   5.298   5.910  12.774
  295SOL     OW31378   0.618   0.962  12.689
  295SOL    HW131379   0.625   1.046  12.635
  295SOL    HW231380   0.664   0.975  12.777
  296SOL     OW31381   0.618   2.824  12.689
  296SOL    HW131382   0.625   2.908  12.635
  296SOL    HW231383   0.664   2.837  12.777
  297SOL     OW31384   0.618   4.686  12.689
  297SOL    HW131385   0.625   4.770  12.635
  297SOL    HW231386   0.664   4.699  12.777
  298SOL     OW31387   2.480   0.962  12.689
  298SOL    HW131388   2.487   1.046  12.635
  298SOL    HW231389   2.526   0.975  12.777
  299SOL     OW31390   2.480   2.824  12.689
  299SOL    HW131391   2.487   2.908  12.635
  299SOL    HW231392   2.526   2.837  12.777
  300SOL     OW31393   2.480   4.686  12.689
  300SOL    HW131394   2.487   4.770  12.635
  300SOL    HW231395   2.526   4.699  12.777
  301SOL     OW31396   4.342   0.962  12.689
  301SOL    HW131397   4.349   1.046  12.635
  301SOL    HW231398   4.388   0.975  12.777
  302SOL     OW31399   4.342   2.824  12.689
  302SOL    HW131400   4.349   2.908  12.635
  302SOL    HW231401   4.388   2.837  12.777
  303SOL     OW31402   4.342   4.686  12.689
  303SOL    HW131403   4.349   4.770  12.635
  303SOL    HW231404   4.388   4.699  12.777
  304SOL     OW31405   6.204   0.962  12.689
  304SOL    HW131406   6.211   1.046  12.635
  304SOL    HW231407   6.250   0.975  12.777
  305SOL     OW31408   6.204   2.824  12.689
  305SOL    HW131409   6.211   2.908  12.635
  305SOL    HW231410   6.250   2.837  12.777
  306SOL     OW31411   6.204   4.686  12.689
  306SOL    HW131412   6.211   4.770  12.635
  306SOL    HW231413   6.250   4.699  12.777
  307SOL     OW31414   1.195   1.333  12.685
  307SOL    HW131415   1.096   1.322  12.687
  307SOL    HW231416   1.229   1.348  12.778
  308SOL     OW31417   1.195   3.195  12.685
  308SOL    HW131418   1.096   3.184  12.687
  308SOL    HW231419   1.229   3.210  12.778
  309SOL     OW31420   1.195   5.057  12.685
  309SOL    HW131421   1.096   5.046  12.687
  309SOL    HW231422   1.229   5.072  12.778
  310SOL     OW31423   3.057   1.333  12.685
  310SOL    HW131424   2.958   1.322  12.687
  310SOL    HW231425   3.091   1.348  12.778
  311SOL     OW31426   3.057   3.195  12.685
  311SOL    HW131427   2.958   3.184  12.687
  311SOL    HW231428   3.091   3.210  12.778
  312SOL     OW31429   3.057   5.057  12.685
  312SOL    HW131430   2.958   5.046  12.687
  312SOL    HW231431   3.091   5.072  12.778
  313SOL     OW31432   4.919   1.333  12.685
  313SOL    HW131433   4.820   1.322  12.687
  313SOL    HW231434   4.953   1.348  12.778
  314SOL     OW31435   4.919   3.195  12.685
  314SOL    HW131436   4.820   3.184  12.687
  314SOL    HW231437   4.953   3.210  12.778
  315SOL     OW31438   4.919   5.057  12.685
  315SOL    HW131439   4.820   5.046  12.687
  315SOL    HW231440   4.953   5.072  12.778
  316SOL     OW31441   0.039   1.594  12.683
  316SOL    HW131442   0.020   1.498  12.704
  316SOL    HW231443   0.006   1.652  12.758
  317SOL     OW31444   0.626   0.120  12.683
  317SOL    HW131445   0.724   0.098  12.690
  317SOL    HW231446   0.595   0.103  12.590
  318SOL     OW31447   0.039   3.456  12.683
  318SOL    HW131448   0.020   3.360  12.704
  318SOL    HW231449   0.006   3.514  12.758
  319SOL     OW31450   0.626   1.982  12.683
  319SOL    HW131451   0.724   1.960  12.690
  319SOL    HW231452   0.595   1.965  12.590
  320SOL     OW31453   0.039   5.318  12.683
  320SOL    HW131454   0.020   5.222  12.704
  320SOL    HW231455   0.006   5.376  12.758
  321SOL     OW31456   0.626   3.844  12.683
  321SOL    HW131457   0.724   3.822  12.690
  321SOL    HW231458   0.595   3.827  12.590
  322SOL     OW31459   0.626   5.706  12.683
  322SOL    HW131460   0.724   5.684  12.690
  322SOL    HW231461   0.595   5.689  12.590
  323SOL     OW31462   1.901   1.594  12.683
  323SOL    HW131463   1.882   1.498  12.704
  323SOL    HW231464   1.868   1.652  12.758
  324SOL     OW31465   2.488   0.120  12.683
  324SOL    HW131466   2.586   0.098  12.690
  324SOL    HW231467   2.457   0.103  12.590
  325SOL     OW31468   1.901   3.456  12.683
  325SOL    HW131469   1.882   3.360  12.704
  325SOL    HW231470   1.868   3.514  12.758
  326SOL     OW31471   2.488   1.982  12.683
  326SOL    HW131472   2.586   1.960  12.690
  326SOL    HW231473   2.457   1.965  12.590
  327SOL     OW31474   1.901   5.318  12.683
  327SOL    HW131475   1.882   5.222  12.704
  327SOL    HW231476   1.868   5.376  12.758
  328SOL     OW31477   2.488   3.844  12.683
  328SOL    HW131478   2.586   3.822  12.690
  328SOL    HW231479   2.457   3.827  12.590
  329SOL     OW31480   2.488   5.706  12.683
  329SOL    HW131481   2.586   5.684  12.690
  329SOL    HW231482   2.457   5.689  12.590
  330SOL     OW31483   3.763   1.594  12.683
  330SOL    HW131484   3.744   1.498  12.704
  330SOL    HW231485   3.730   1.652  12.758
  331SOL     OW31486   4.350   0.120  12.683
  331SOL    HW131487   4.448   0.098  12.690
  331SOL    HW231488   4.319   0.103  12.590
  332SOL     OW31489   3.763   3.456  12.683
  332SOL    HW131490   3.744   3.360  12.704
  332SOL    HW231491   3.730   3.514  12.758
  333SOL     OW31492   4.350   1.982  12.683
  333SOL    HW131493   4.448   1.960  12.690
  333SOL    HW231494   4.319   1.965  12.590
  334SOL     OW31495   3.763   5.318  12.683
  334SOL    HW131496   3.744   5.222  12.704
  334SOL    HW231497   3.730   5.376  12.758
  335SOL     OW31498   4.350   3.844  12.683
  335SOL    HW131499   4.448   3.822  12.690
  335SOL    HW231500   4.319   3.827  12.590
  336SOL     OW31501   4.350   5.706  12.683
  336SOL    HW131502   4.448   5.684  12.690
  336SOL    HW231503   4.319   5.689  12.590
  337SOL     OW31504   5.625   1.594  12.683
  337SOL    HW131505   5.606   1.498  12.704
  337SOL    HW231506   5.592   1.652  12.758
  338SOL     OW31507   6.212   0.120  12.683
  338SOL    HW131508   6.310   0.098  12.690
  338SOL    HW231509   6.181   0.103  12.590
  339SOL     OW31510   5.625   3.456  12.683
  339SOL    HW131511   5.606   3.360  12.704
  339SOL    HW231512   5.592   3.514  12.758
  340SOL     OW31513   6.212   1.982  12.683
  340SOL    HW131514   6.310   1.960  12.690
  340SOL    HW231515   6.181   1.965  12.590
  341SOL     OW31516   5.625   5.318  12.683
  341SOL    HW131517   5.606   5.222  12.704
  341SOL    HW231518   5.592   5.376  12.758
  342SOL     OW31519   6.212   3.844  12.683
  342SOL    HW131520   6.310   3.822  12.690
  342SOL    HW231521   6.181   3.827  12.590
  343SOL     OW31522   6.212   5.706  12.683
  343SOL    HW131523   6.310   5.684  12.690
  343SOL    HW231524   6.181   5.689  12.590
  344SOL     OW31525   0.242   0.626  12.679
  344SOL    HW131526   0.149   0.624  12.716
  344SOL    HW231527   0.243   0.587  12.587
  345SOL     OW31528   0.242   2.488  12.679
  345SOL    HW131529   0.149   2.486  12.716
  345SOL    HW231530   0.243   2.449  12.587
  346SOL     OW31531   0.242   4.350  12.679
  346SOL    HW131532   0.149   4.348  12.716
  346SOL    HW231533   0.243   4.311  12.587
  347SOL     OW31534   0.242   6.212  12.679
  347SOL    HW131535   0.149   6.210  12.716
  347SOL    HW231536   0.243   6.173  12.587
  348SOL     OW31537   2.104   0.626  12.679
  348SOL    HW131538   2.011   0.624  12.716
  348SOL    HW231539   2.105   0.587  12.587
  349SOL     OW31540   2.104   2.488  12.679
  349SOL    HW131541   2.011   2.486  12.716
  349SOL    HW231542   2.105   2.449  12.587
  350SOL     OW31543   2.104   4.350  12.679
  350SOL    HW131544   2.011   4.348  12.716
  350SOL    HW231545   2.105   4.311  12.587
  351SOL     OW31546   2.104   6.212  12.679
  351SOL    HW131547   2.011   6.210  12.716
  351SOL    HW231548   2.105   6.173  12.587
  352SOL     OW31549   3.966   0.626  12.679
  352SOL    HW131550   3.873   0.624  12.716
  352SOL    HW231551   3.967   0.587  12.587
  353SOL     OW31552   3.966   2.488  12.679
  353SOL    HW131553   3.873   2.486  12.716
  353SOL    HW231554   3.967   2.449  12.587
  354SOL     OW31555   3.966   4.350  12.679
  354SOL    HW131556   3.873   4.348  12.716
  354SOL    HW231557   3.967   4.311  12.587
  355SOL     OW31558   3.966   6.212  12.679
  355SOL    HW131559   3.873   6.210  12.716
  355SOL    HW231560   3.967   6.173  12.587
  356SOL     OW31561   5.828   0.626  12.679
  356SOL    HW131562   5.735   0.624  12.716
  356SOL    HW231563   5.829   0.587  12.587
  357SOL     OW31564   5.828   2.488  12.679
  357SOL    HW131565   5.735   2.486  12.716
  357SOL    HW231566   5.829   2.449  12.587
  358SOL     OW31567   5.828   4.350  12.679
  358SOL    HW131568   5.735   4.348  12.716
  358SOL    HW231569   5.829   4.311  12.587
  359SOL     OW31570   5.828   6.212  12.679
  359SOL    HW131571   5.735   6.210  12.716
  359SOL    HW231572   5.829   6.173  12.587
  360SOL     OW31573   0.878   0.452   0.174
  360SOL    HW131574   0.846   0.524   0.112
  360SOL    HW231575   0.902   0.371   0.121
  361SOL     OW31576   0.878   2.314   0.174
  361SOL    HW131577   0.846   2.386   0.112
  361SOL    HW231578   0.902   2.233   0.121
  362SOL     OW31579   0.878   4.176   0.174
  362SOL    HW131580   0.846   4.248   0.112
  362SOL    HW231581   0.902   4.095   0.121
  363SOL     OW31582   0.878   6.038   0.174
  363SOL    HW131583   0.846   6.110   0.112
  363SOL    HW231584   0.902   5.957   0.121
  364SOL     OW31585   2.740   0.452   0.174
  364SOL    HW131586   2.708   0.524   0.112
  364SOL    HW231587   2.764   0.371   0.121
  365SOL     OW31588   2.740   2.314   0.174
  365SOL    HW131589   2.708   2.386   0.112
  365SOL    HW231590   2.764   2.233   0.121
  366SOL     OW31591   2.740   4.176   0.174
  366SOL    HW131592   2.708   4.248   0.112
  366SOL    HW231593   2.764   4.095   0.121
  367SOL     OW31594   2.740   6.038   0.174
  367SOL    HW131595   2.708   6.110   0.112
  367SOL    HW231596   2.764   5.957   0.121
  368SOL     OW31597   4.602   0.452   0.174
  368SOL    HW131598   4.570   0.524   0.112
  368SOL    HW231599   4.626   0.371   0.121
  369SOL     OW31600   4.602   2.314   0.174
  369SOL    HW131601   4.570   2.386   0.112
  369SOL    HW231602   4.626   2.233   0.121
  370SOL     OW31603   4.602   4.176   0.174
  370SOL    HW131604   4.570   4.248   0.112
  370SOL    HW231605   4.626   4.095   0.121
  371SOL     OW31606   4.602   6.038   0.174
  371SOL    HW131607   4.570   6.110   0.112
  371SOL    HW231608   4.626   5.957   0.121
  372SOL     OW31609   0.031   0.366   0.179
  372SOL    HW131610   6.399   0.409   0.218
  372SOL    HW231611   0.003   0.293   0.116
  373SOL     OW31612   0.031   2.228   0.179
  373SOL    HW131613   6.399   2.271   0.218
  373SOL    HW231614   0.003   2.155   0.116
  374SOL     OW31615   0.031   4.090   0.179
  374SOL    HW131616   6.399   4.133   0.218
  374SOL    HW231617   0.003   4.017   0.116
  375SOL     OW31618   0.031   5.952   0.179
  375SOL    HW131619   6.399   5.995   0.218
  375SOL    HW231620   0.003   5.879   0.116
  376SOL     OW31621   1.893   0.366   0.179
  376SOL    HW131622   1.811   0.409   0.218
  376SOL    HW231623   1.865   0.293   0.116
  377SOL     OW31624   1.893   2.228   0.179
  377SOL    HW131625   1.811   2.271   0.218
  377SOL    HW231626   1.865   2.155   0.116
  378SOL     OW31627   1.893   4.090   0.179
  378SOL    HW131628   1.811   4.133   0.218
  378SOL    HW231629   1.865   4.017   0.116
  379SOL     OW31630   1.893   5.952   0.179
  379SOL    HW131631   1.811   5.995   0.218
  379SOL    HW231632   1.865   5.879   0.116
  380SOL     OW31633   3.755   0.366   0.179
  380SOL    HW131634   3.673   0.409   0.218
  380SOL    HW231635   3.727   0.293   0.116
  381SOL     OW31636   3.755   2.228   0.179
  381SOL    HW131637   3.673   2.271   0.218
  381SOL    HW231638   3.727   2.155   0.116
  382SOL     OW31639   3.755   4.090   0.179
  382SOL    HW131640   3.673   4.133   0.218
  382SOL    HW231641   3.727   4.017   0.116
  383SOL     OW31642   3.755   5.952   0.179
  383SOL    HW131643   3.673   5.995   0.218
  383SOL    HW231644   3.727   5.879   0.116
  384SOL     OW31645   5.617   0.366   0.179
  384SOL    HW131646   5.535   0.409   0.218
  384SOL    HW231647   5.589   0.293   0.116
  385SOL     OW31648   5.617   2.228   0.179
  385SOL    HW131649   5.535   2.271   0.218
  385SOL    HW231650   5.589   2.155   0.116
  386SOL     OW31651   5.617   4.090   0.179
  386SOL    HW131652   5.535   4.133   0.218
  386SOL    HW231653   5.589   4.017   0.116
  387SOL     OW31654   5.617   5.952   0.179
  387SOL    HW131655   5.535   5.995   0.218
  387SOL    HW231656   5.589   5.879   0.116
  388SOL     OW31657   0.606   0.743   0.184
  388SOL    HW131658   0.656   0.828   0.165
  388SOL    HW231659   0.518   0.745   0.136
  389SOL     OW31660   0.606   2.605   0.184
  389SOL    HW131661   0.656   2.690   0.165
  389SOL    HW231662   0.518   2.607   0.136
  390SOL     OW31663   0.606   4.467   0.184
  390SOL    HW131664   0.656   4.552   0.165
  390SOL    HW231665   0.518   4.469   0.136
  391SOL     OW31666   0.606   6.329   0.184
  391SOL    HW131667   0.656   6.414   0.165
  391SOL    HW231668   0.518   6.331   0.136
  392SOL     OW31669   2.468   0.743   0.184
  392SOL    HW131670   2.518   0.828   0.165
  392SOL    HW231671   2.380   0.745   0.136
  393SOL     OW31672   2.468   2.605   0.184
  393SOL    HW131673   2.518   2.690   0.165
  393SOL    HW231674   2.380   2.607   0.136
  394SOL     OW31675   2.468   4.467   0.184
  394SOL    HW131676   2.518   4.552   0.165
  394SOL    HW231677   2.380   4.469   0.136
  395SOL     OW31678   2.468   6.329   0.184
  395SOL    HW131679   2.518   6.414   0.165
  395SOL    HW231680   2.380   6.331   0.136
  396SOL     OW31681   4.330   0.743   0.184
  396SOL    HW131682   4.380   0.828   0.165
  396SOL    HW231683   4.242   0.745   0.136
  397SOL     OW31684   4.330   2.605   0.184
  397SOL    HW131685   4.380   2.690   0.165
  397SOL    HW231686   4.242   2.607   0.136
  398SOL     OW31687   4.330   4.467   0.184
  398SOL    HW131688   4.380   4.552   0.165
  398SOL    HW231689   4.242   4.469   0.136
  399SOL     OW31690   4.330   6.329   0.184
  399SOL    HW131691   4.380   6.414   0.165
  399SOL    HW231692   4.242   6.331   0.136
  400SOL     OW31693   6.192   0.743   0.184
  400SOL    HW131694   6.242   0.828   0.165
  400SOL    HW231695   6.104   0.745   0.136
  401SOL     OW31696   6.192   2.605   0.184
  401SOL    HW131697   6.242   2.690   0.165
  401SOL    HW231698   6.104   2.607   0.136
  402SOL     OW31699   6.192   4.467   0.184
  402SOL    HW131700   6.242   4.552   0.165
  402SOL    HW231701   6.104   4.469   0.136
  403SOL     OW31702   6.192   6.329   0.184
  403SOL    HW131703   6.242   6.414   0.165
  403SOL    HW231704   6.104   6.331   0.136
  404SOL     OW31705   0.091   1.238   0.185
  404SOL    HW131706   0.090   1.191   0.273
  404SOL    HW231707   0.173   1.210   0.134
  405SOL     OW31708   0.091   3.100   0.185
  405SOL    HW131709   0.090   3.053   0.273
  405SOL    HW231710   0.173   3.072   0.134
  406SOL     OW31711   0.091   4.962   0.185
  406SOL    HW131712   0.090   4.915   0.273
  406SOL    HW231713   0.173   4.934   0.134
  407SOL     OW31714   1.953   1.238   0.185
  407SOL    HW131715   1.952   1.191   0.273
  407SOL    HW231716   2.035   1.210   0.134
  408SOL     OW31717   1.953   3.100   0.185
  408SOL    HW131718   1.952   3.053   0.273
  408SOL    HW231719   2.035   3.072   0.134
  409SOL     OW31720   1.953   4.962   0.185
  409SOL    HW131721   1.952   4.915   0.273
  409SOL    HW231722   2.035   4.934   0.134
  410SOL     OW31723   3.815   1.238   0.185
  410SOL    HW131724   3.814   1.191   0.273
  410SOL    HW231725   3.897   1.210   0.134
  411SOL     OW31726   3.815   3.100   0.185
  411SOL    HW131727   3.814   3.053   0.273
  411SOL    HW231728   3.897   3.072   0.134
  412SOL     OW31729   3.815   4.962   0.185
  412SOL    HW131730   3.814   4.915   0.273
  412SOL    HW231731   3.897   4.934   0.134
  413SOL     OW31732   5.677   1.238   0.185
  413SOL    HW131733   5.676   1.191   0.273
  413SOL    HW231734   5.759   1.210   0.134
  414SOL     OW31735   5.677   3.100   0.185
  414SOL    HW131736   5.676   3.053   0.273
  414SOL    HW231737   5.759   3.072   0.134
  415SOL     OW31738   5.677   4.962   0.185
  415SOL    HW131739   5.676   4.915   0.273
  415SOL    HW231740   5.759   4.934   0.134
  416SOL     OW31741   1.676   1.278   0.189
  416SOL    HW131742   1.775   1.286   0.203
  416SOL    HW231743   1.631   1.362   0.220
  417SOL     OW31744   1.676   3.140   0.189
  417SOL    HW131745   1.775   3.148   0.203
  417SOL    HW231746   1.631   3.224   0.220
  418SOL     OW31747   1.676   5.002   0.189
  418SOL    HW131748   1.775   5.010   0.203
  418SOL    HW231749   1.631   5.086   0.220
  419SOL     OW31750   3.538   1.278   0.189
  419SOL    HW131751   3.637   1.286   0.203
  419SOL    HW231752   3.493   1.362   0.220
  420SOL     OW31753   3.538   3.140   0.189
  420SOL    HW131754   3.637   3.148   0.203
  420SOL    HW231755   3.493   3.224   0.220
  421SOL     OW31756   3.538   5.002   0.189
  421SOL    HW131757   3.637   5.010   0.203
  421SOL    HW231758   3.493   5.086   0.220
  422SOL     OW31759   5.400   1.278   0.189
  422SOL    HW131760   5.499   1.286   0.203
  422SOL    HW231761   5.355   1.362   0.220
  423SOL     OW31762   5.400   3.140   0.189
  423SOL    HW131763   5.499   3.148   0.203
  423SOL    HW231764   5.355   3.224   0.220
  424SOL     OW31765   5.400   5.002   0.189
  424SOL    HW131766   5.499   5.010   0.203
  424SOL    HW231767   5.355   5.086   0.220
  425SOL     OW31768   1.095   0.982  12.653
  425SOL    HW131769   1.072   1.035  12.571
  425SOL    HW231770   1.176   0.926  12.634
  426SOL     OW31771   1.095   2.844  12.653
  426SOL    HW131772   1.072   2.897  12.571
  426SOL    HW231773   1.176   2.788  12.634
  427SOL     OW31774   1.095   4.706  12.653
  427SOL    HW131775   1.072   4.759  12.571
  427SOL    HW231776   1.176   4.650  12.634
  428SOL     OW31777   2.957   0.982  12.653
  428SOL    HW131778   2.934   1.035  12.571
  428SOL    HW231779   3.038   0.926  12.634
  429SOL     OW31780   2.957   2.844  12.653
  429SOL    HW131781   2.934   2.897  12.571
  429SOL    HW231782   3.038   2.788  12.634
  430SOL     OW31783   2.957   4.706  12.653
  430SOL    HW131784   2.934   4.759  12.571
  430SOL    HW231785   3.038   4.650  12.634
  431SOL     OW31786   4.819   0.982  12.653
  431SOL    HW131787   4.796   1.035  12.571
  431SOL    HW231788   4.900   0.926  12.634
  432SOL     OW31789   4.819   2.844  12.653
  432SOL    HW131790   4.796   2.897  12.571
  432SOL    HW231791   4.900   2.788  12.634
  433SOL     OW31792   4.819   4.706  12.653
  433SOL    HW131793   4.796   4.759  12.571
  433SOL    HW231794   4.900   4.650  12.634
  434SOL     OW31795   0.697   1.010   0.197
  434SOL    HW131796   0.766   0.994   0.267
  434SOL    HW231797   0.624   1.067   0.235
  435SOL     OW31798   0.697   2.872   0.197
  435SOL    HW131799   0.766   2.856   0.267
  435SOL    HW231800   0.624   2.929   0.235
  436SOL     OW31801   0.697   4.734   0.197
  436SOL    HW131802   0.766   4.718   0.267
  436SOL    HW231803   0.624   4.791   0.235
  437SOL     OW31804   0.697   0.146   0.197
  437SOL    HW131805   0.766   0.130   0.267
  437SOL    HW231806   0.624   0.203   0.235
  438SOL     OW31807   2.559   1.010   0.197
  438SOL    HW131808   2.628   0.994   0.267
  438SOL    HW231809   2.486   1.067   0.235
  439SOL     OW31810   2.559   2.872   0.197
  439SOL    HW131811   2.628   2.856   0.267
  439SOL    HW231812   2.486   2.929   0.235
  440SOL     OW31813   2.559   4.734   0.197
  440SOL    HW131814   2.628   4.718   0.267
  440SOL    HW231815   2.486   4.791   0.235
  441SOL     OW31816   2.559   0.146   0.197
  441SOL    HW131817   2.628   0.130   0.267
  441SOL    HW231818   2.486   0.203   0.235
  442SOL     OW31819   4.421   1.010   0.197
  442SOL    HW131820   4.490   0.994   0.267
  442SOL    HW231821   4.348   1.067   0.235
  443SOL     OW31822   4.421   2.872   0.197
  443SOL    HW131823   4.490   2.856   0.267
  443SOL    HW231824   4.348   2.929   0.235
  444SOL     OW31825   4.421   4.734   0.197
  444SOL    HW131826   4.490   4.718   0.267
  444SOL    HW231827   4.348   4.791   0.235
  445SOL     OW31828   4.421   0.146   0.197
  445SOL    HW131829   4.490   0.130   0.267
  445SOL    HW231830   4.348   0.203   0.235
  446SOL     OW31831   6.283   1.010   0.197
  446SOL    HW131832   6.352   0.994   0.267
  446SOL    HW231833   6.210   1.067   0.235
  447SOL     OW31834   6.283   2.872   0.197
  447SOL    HW131835   6.352   2.856   0.267
  447SOL    HW231836   6.210   2.929   0.235
  448SOL     OW31837   6.283   4.734   0.197
  448SOL    HW131838   6.352   4.718   0.267
  448SOL    HW231839   6.210   4.791   0.235
  449SOL     OW31840   6.283   0.146   0.197
  449SOL    HW131841   6.352   0.130   0.267
  449SOL    HW231842   6.210   0.203   0.235
  450SOL     OW31843   1.644   1.375  12.647
  450SOL    HW131844   1.612   1.469  12.637
  450SOL    HW231845   1.568   1.312  12.635
  451SOL     OW31846   1.644   3.237  12.647
  451SOL    HW131847   1.612   3.331  12.637
  451SOL    HW231848   1.568   3.174  12.635
  452SOL     OW31849   1.644   5.099  12.647
  452SOL    HW131850   1.612   5.193  12.637
  452SOL    HW231851   1.568   5.036  12.635
  453SOL     OW31852   3.506   1.375  12.647
  453SOL    HW131853   3.474   1.469  12.637
  453SOL    HW231854   3.430   1.312  12.635
  454SOL     OW31855   3.506   3.237  12.647
  454SOL    HW131856   3.474   3.331  12.637
  454SOL    HW231857   3.430   3.174  12.635
  455SOL     OW31858   3.506   5.099  12.647
  455SOL    HW131859   3.474   5.193  12.637
  455SOL    HW231860   3.430   5.036  12.635
  456SOL     OW31861   5.368   1.375  12.647
  456SOL    HW131862   5.336   1.469  12.637
  456SOL    HW231863   5.292   1.312  12.635
  457SOL     OW31864   5.368   3.237  12.647
  457SOL    HW131865   5.336   3.331  12.637
  457SOL    HW231866   5.292   3.174  12.635
  458SOL     OW31867   5.368   5.099  12.647
  458SOL    HW131868   5.336   5.193  12.637
  458SOL    HW231869   5.292   5.036  12.635
  459SOL     OW31870   1.402   0.573  12.644
  459SOL    HW131871   1.348   0.552  12.725
  459SOL    HW231872   1.493   0.532  12.653
  460SOL     OW31873   1.402   2.435  12.644
  460SOL    HW131874   1.348   2.414  12.725
  460SOL    HW231875   1.493   2.394  12.653
  461SOL     OW31876   1.402   4.297  12.644
  461SOL    HW131877   1.348   4.276  12.725
  461SOL    HW231878   1.493   4.256  12.653
  462SOL     OW31879   1.402   6.159  12.644
  462SOL    HW131880   1.348   6.138  12.725
  462SOL    HW231881   1.493   6.118  12.653
  463SOL     OW31882   3.264   0.573  12.644
  463SOL    HW131883   3.210   0.552  12.725
  463SOL    HW231884   3.355   0.532  12.653
  464SOL     OW31885   3.264   2.435  12.644
  464SOL    HW131886   3.210   2.414  12.725
  464SOL    HW231887   3.355   2.394  12.653
  465SOL     OW31888   3.264   4.297  12.644
  465SOL    HW131889   3.210   4.276  12.725
  465SOL    HW231890   3.355   4.256  12.653
  466SOL     OW31891   3.264   6.159  12.644
  466SOL    HW131892   3.210   6.138  12.725
  466SOL    HW231893   3.355   6.118  12.653
  467SOL     OW31894   5.126   0.573  12.644
  467SOL    HW131895   5.072   0.552  12.725
  467SOL    HW231896   5.217   0.532  12.653
  468SOL     OW31897   5.126   2.435  12.644
  468SOL    HW131898   5.072   2.414  12.725
  468SOL    HW231899   5.217   2.394  12.653
  469SOL     OW31900   5.126   4.297  12.644
  469SOL    HW131901   5.072   4.276  12.725
  469SOL    HW231902   5.217   4.256  12.653
  470SOL     OW31903   5.126   6.159  12.644
  470SOL    HW131904   5.072   6.138  12.725
  470SOL    HW231905   5.217   6.118  12.653
  471SOL     OW31906   1.292   0.925   0.204
  471SOL    HW131907   1.352   0.844   0.206
  471SOL    HW231908   1.332   0.994   0.144
  472SOL     OW31909   1.292   2.787   0.204
  472SOL    HW131910   1.352   2.706   0.206
  472SOL    HW231911   1.332   2.856   0.144
  473SOL     OW31912   1.292   4.649   0.204
  473SOL    HW131913   1.352   4.568   0.206
  473SOL    HW231914   1.332   4.718   0.144
  474SOL     OW31915   1.292   0.061   0.204
  474SOL    HW131916   1.352   6.430   0.206
  474SOL    HW231917   1.332   0.130   0.144
  475SOL     OW31918   3.154   0.925   0.204
  475SOL    HW131919   3.214   0.844   0.206
  475SOL    HW231920   3.194   0.994   0.144
  476SOL     OW31921   3.154   2.787   0.204
  476SOL    HW131922   3.214   2.706   0.206
  476SOL    HW231923   3.194   2.856   0.144
  477SOL     OW31924   3.154   4.649   0.204
  477SOL    HW131925   3.214   4.568   0.206
  477SOL    HW231926   3.194   4.718   0.144
  478SOL     OW31927   3.154   0.061   0.204
  478SOL    HW131928   3.214   6.430   0.206
  478SOL    HW231929   3.194   0.130   0.144
  479SOL     OW31930   5.016   0.925   0.204
  479SOL    HW131931   5.076   0.844   0.206
  479SOL    HW231932   5.056   0.994   0.144
  480SOL     OW31933   5.016   2.787   0.204
  480SOL    HW131934   5.076   2.706   0.206
  480SOL    HW231935   5.056   2.856   0.144
  481SOL     OW31936   5.016   4.649   0.204
  481SOL    HW131937   5.076   4.568   0.206
  481SOL    HW231938   5.056   4.718   0.144
  482SOL     OW31939   5.016   0.061   0.204
  482SOL    HW131940   5.076   6.430   0.206
  482SOL    HW231941   5.056   0.130   0.144
  483SOL     OW31942   0.824   1.584   0.219
  483SOL    HW131943   0.856   1.594   0.125
  483SOL    HW231944   0.745   1.522   0.221
  484SOL     OW31945   0.824   3.446   0.219
  484SOL    HW131946   0.856   3.456   0.125
  484SOL    HW231947   0.745   3.384   0.221
  485SOL     OW31948   0.824   5.308   0.219
  485SOL    HW131949   0.856   5.318   0.125
  485SOL    HW231950   0.745   5.246   0.221
  486SOL     OW31951   2.686   1.584   0.219
  486SOL    HW131952   2.718   1.594   0.125
  486SOL    HW231953   2.607   1.522   0.221
  487SOL     OW31954   2.686   3.446   0.219
  487SOL    HW131955   2.718   3.456   0.125
  487SOL    HW231956   2.607   3.384   0.221
  488SOL     OW31957   2.686   5.308   0.219
  488SOL    HW131958   2.718   5.318   0.125
  488SOL    HW231959   2.607   5.246   0.221
  489SOL     OW31960   4.548   1.584   0.219
  489SOL    HW131961   4.580   1.594   0.125
  489SOL    HW231962   4.469   1.522   0.221
  490SOL     OW31963   4.548   3.446   0.219
  490SOL    HW131964   4.580   3.456   0.125
  490SOL    HW231965   4.469   3.384   0.221
  491SOL     OW31966   4.548   5.308   0.219
  491SOL    HW131967   4.580   5.318   0.125
  491SOL    HW231968   4.469   5.246   0.221
  492SOL     OW31969   6.410   1.584   0.219
  492SOL    HW131970   6.442   1.594   0.125
  492SOL    HW231971   6.331   1.522   0.221
  493SOL     OW31972   6.410   3.446   0.219
  493SOL    HW131973   6.442   3.456   0.125
  493SOL    HW231974   6.331   3.384   0.221
  494SOL     OW31975   6.410   5.308   0.219
  494SOL    HW131976   6.442   5.318   0.125
  494SOL    HW231977   6.331   5.246   0.221
  495SOL     OW31978   1.312   0.451   0.223
  495SOL    HW131979   1.253   0.531   0.227
  495SOL    HW231980   1.327   0.416   0.316
  496SOL     OW31981   1.312   2.313   0.223
  496SOL    HW131982   1.253   2.393   0.227
  496SOL    HW231983   1.327   2.278   0.316
  497SOL     OW31984   1.312   4.175   0.223
  497SOL    HW131985   1.253   4.255   0.227
  497SOL    HW231986   1.327   4.140   0.316
  498SOL     OW31987   1.312   6.037   0.223
  498SOL    HW131988   1.253   6.117   0.227
  498SOL    HW231989   1.327   6.002   0.316
  499SOL     OW31990   3.174   0.451   0.223
  499SOL    HW131991   3.115   0.531   0.227
  499SOL    HW231992   3.189   0.416   0.316
  500SOL     OW31993   3.174   2.313   0.223
  500SOL    HW131994   3.115   2.393   0.227
  500SOL    HW231995   3.189   2.278   0.316
  501SOL     OW31996   3.174   4.175   0.223
  501SOL    HW131997   3.115   4.255   0.227
  501SOL    HW231998   3.189   4.140   0.316
  502SOL     OW31999   3.174   6.037   0.223
  502SOL    HW132000   3.115   6.117   0.227
  502SOL    HW232001   3.189   6.002   0.316
  503SOL     OW32002   5.036   0.451   0.223
  503SOL    HW132003   4.977   0.531   0.227
  503SOL    HW232004   5.051   0.416   0.316
  504SOL     OW32005   5.036   2.313   0.223
  504SOL    HW132006   4.977   2.393   0.227
  504SOL    HW232007   5.051   2.278   0.316
  505SOL     OW32008   5.036   4.175   0.223
  505SOL    HW132009   4.977   4.255   0.227
  505SOL    HW232010   5.051   4.140   0.316
  506SOL     OW32011   5.036   6.037   0.223
  506SOL    HW132012   4.977   6.117   0.227
  506SOL    HW232013   5.051   6.002   0.316
  507SOL     OW32014   1.051   1.096   0.228
  507SOL    HW132015   0.981   1.049   0.282
  507SOL    HW232016   1.110   1.028   0.185
  508SOL     OW32017   1.051   2.958   0.228
  508SOL    HW132018   0.981   2.911   0.282
  508SOL    HW232019   1.110   2.890   0.185
  509SOL     OW32020   1.051   4.820   0.228
  509SOL    HW132021   0.981   4.773   0.282
  509SOL    HW232022   1.110   4.752   0.185
  510SOL     OW32023   2.913   1.096   0.228
  510SOL    HW132024   2.843   1.049   0.282
  510SOL    HW232025   2.972   1.028   0.185
  511SOL     OW32026   2.913   2.958   0.228
  511SOL    HW132027   2.843   2.911   0.282
  511SOL    HW232028   2.972   2.890   0.185
  512SOL     OW32029   2.913   4.820   0.228
  512SOL    HW132030   2.843   4.773   0.282
  512SOL    HW232031   2.972   4.752   0.185
  513SOL     OW32032   4.775   1.096   0.228
  513SOL    HW132033   4.705   1.049   0.282
  513SOL    HW232034   4.834   1.028   0.185
  514SOL     OW32035   4.775   2.958   0.228
  514SOL    HW132036   4.705   2.911   0.282
  514SOL    HW232037   4.834   2.890   0.185
  515SOL     OW32038   4.775   4.820   0.228
  515SOL    HW132039   4.705   4.773   0.282
  515SOL    HW232040   4.834   4.752   0.185
  516SOL     OW32041   1.567   1.509   0.235
  516SOL    HW132042   1.510   1.493   0.316
  516SOL    HW232043   1.508   1.519   0.155
  517SOL     OW32044   1.567   3.371   0.235
  517SOL    HW132045   1.510   3.355   0.316
  517SOL    HW232046   1.508   3.381   0.155
  518SOL     OW32047   1.567   5.233   0.235
  518SOL    HW132048   1.510   5.217   0.316
  518SOL    HW232049   1.508   5.243   0.155
  519SOL     OW32050   3.429   1.509   0.235
  519SOL    HW132051   3.372   1.493   0.316
  519SOL    HW232052   3.370   1.519   0.155
  520SOL     OW32053   3.429   3.371   0.235
  520SOL    HW132054   3.372   3.355   0.316
  520SOL    HW232055   3.370   3.381   0.155
  521SOL     OW32056   3.429   5.233   0.235
  521SOL    HW132057   3.372   5.217   0.316
  521SOL    HW232058   3.370   5.243   0.155
  522SOL     OW32059   5.291   1.509   0.235
  522SOL    HW132060   5.234   1.493   0.316
  522SOL    HW232061   5.232   1.519   0.155
  523SOL     OW32062   5.291   3.371   0.235
  523SOL    HW132063   5.234   3.355   0.316
  523SOL    HW232064   5.232   3.381   0.155
  524SOL     OW32065   5.291   5.233   0.235
  524SOL    HW132066   5.234   5.217   0.316
  524SOL    HW232067   5.232   5.243   0.155
  525SOL     OW32068   1.516   1.605  12.610
  525SOL    HW132069   1.424   1.642  12.617
  525SOL    HW232070   1.554   1.625  12.520
  526SOL     OW32071   1.516   3.467  12.610
  526SOL    HW132072   1.424   3.504  12.617
  526SOL    HW232073   1.554   3.487  12.520
  527SOL     OW32074   1.516   5.329  12.610
  527SOL    HW132075   1.424   5.366  12.617
  527SOL    HW232076   1.554   5.349  12.520
  528SOL     OW32077   3.378   1.605  12.610
  528SOL    HW132078   3.286   1.642  12.617
  528SOL    HW232079   3.416   1.625  12.520
  529SOL     OW32080   3.378   3.467  12.610
  529SOL    HW132081   3.286   3.504  12.617
  529SOL    HW232082   3.416   3.487  12.520
  530SOL     OW32083   3.378   5.329  12.610
  530SOL    HW132084   3.286   5.366  12.617
  530SOL    HW232085   3.416   5.349  12.520
  531SOL     OW32086   5.240   1.605  12.610
  531SOL    HW132087   5.148   1.642  12.617
  531SOL    HW232088   5.278   1.625  12.520
  532SOL     OW32089   5.240   3.467  12.610
  532SOL    HW132090   5.148   3.504  12.617
  532SOL    HW232091   5.278   3.487  12.520
  533SOL     OW32092   5.240   5.329  12.610
  533SOL    HW132093   5.148   5.366  12.617
  533SOL    HW232094   5.278   5.349  12.520
  534SOL     OW32095   1.315   0.836  12.608
  534SOL    HW132096   1.349   0.743  12.623
  534SOL    HW232097   1.333   0.863  12.513
  535SOL     OW32098   1.315   2.698  12.608
  535SOL    HW132099   1.349   2.605  12.623
  535SOL    HW232100   1.333   2.725  12.513
  536SOL     OW32101   1.315   4.560  12.608
  536SOL    HW132102   1.349   4.467  12.623
  536SOL    HW232103   1.333   4.587  12.513
  537SOL     OW32104   3.177   0.836  12.608
  537SOL    HW132105   3.211   0.743  12.623
  537SOL    HW232106   3.195   0.863  12.513
  538SOL     OW32107   3.177   2.698  12.608
  538SOL    HW132108   3.211   2.605  12.623
  538SOL    HW232109   3.195   2.725  12.513
  539SOL     OW32110   3.177   4.560  12.608
  539SOL    HW132111   3.211   4.467  12.623
  539SOL    HW232112   3.195   4.587  12.513
  540SOL     OW32113   5.039   0.836  12.608
  540SOL    HW132114   5.073   0.743  12.623
  540SOL    HW232115   5.057   0.863  12.513
  541SOL     OW32116   5.039   2.698  12.608
  541SOL    HW132117   5.073   2.605  12.623
  541SOL    HW232118   5.057   2.725  12.513
  542SOL     OW32119   5.039   4.560  12.608
  542SOL    HW132120   5.073   4.467  12.623
  542SOL    HW232121   5.057   4.587  12.513
  543SOL     OW32122   1.446   1.186  12.607
  543SOL    HW132123   1.478   1.110  12.664
  543SOL    HW232124   1.354   1.213  12.637
  544SOL     OW32125   1.446   3.048  12.607
  544SOL    HW132126   1.478   2.972  12.664
  544SOL    HW232127   1.354   3.075  12.637
  545SOL     OW32128   1.446   4.910  12.607
  545SOL    HW132129   1.478   4.834  12.664
  545SOL    HW232130   1.354   4.937  12.637
  546SOL     OW32131   3.308   1.186  12.607
  546SOL    HW132132   3.340   1.110  12.664
  546SOL    HW232133   3.216   1.213  12.637
  547SOL     OW32134   3.308   3.048  12.607
  547SOL    HW132135   3.340   2.972  12.664
  547SOL    HW232136   3.216   3.075  12.637
  548SOL     OW32137   3.308   4.910  12.607
  548SOL    HW132138   3.340   4.834  12.664
  548SOL    HW232139   3.216   4.937  12.637
  549SOL     OW32140   5.170   1.186  12.607
  549SOL    HW132141   5.202   1.110  12.664
  549SOL    HW232142   5.078   1.213  12.637
  550SOL     OW32143   5.170   3.048  12.607
  550SOL    HW132144   5.202   2.972  12.664
  550SOL    HW232145   5.078   3.075  12.637
  551SOL     OW32146   5.170   4.910  12.607
  551SOL    HW132147   5.202   4.834  12.664
  551SOL    HW232148   5.078   4.937  12.637
  552SOL     OW32149   0.087   0.343  12.599
  552SOL    HW132150   6.445   0.315  12.570
  552SOL    HW232151   0.118   0.420  12.543
  553SOL     OW32152   0.087   2.205  12.599
  553SOL    HW132153   6.445   2.177  12.570
  553SOL    HW232154   0.118   2.282  12.543
  554SOL     OW32155   0.087   4.067  12.599
  554SOL    HW132156   6.445   4.039  12.570
  554SOL    HW232157   0.118   4.144  12.543
  555SOL     OW32158   0.087   5.929  12.599
  555SOL    HW132159   6.445   5.901  12.570
  555SOL    HW232160   0.118   6.006  12.543
  556SOL     OW32161   1.949   0.343  12.599
  556SOL    HW132162   1.857   0.315  12.570
  556SOL    HW232163   1.980   0.420  12.543
  557SOL     OW32164   1.949   2.205  12.599
  557SOL    HW132165   1.857   2.177  12.570
  557SOL    HW232166   1.980   2.282  12.543
  558SOL     OW32167   1.949   4.067  12.599
  558SOL    HW132168   1.857   4.039  12.570
  558SOL    HW232169   1.980   4.144  12.543
  559SOL     OW32170   1.949   5.929  12.599
  559SOL    HW132171   1.857   5.901  12.570
  559SOL    HW232172   1.980   6.006  12.543
  560SOL     OW32173   3.811   0.343  12.599
  560SOL    HW132174   3.719   0.315  12.570
  560SOL    HW232175   3.842   0.420  12.543
  561SOL     OW32176   3.811   2.205  12.599
  561SOL    HW132177   3.719   2.177  12.570
  561SOL    HW232178   3.842   2.282  12.543
  562SOL     OW32179   3.811   4.067  12.599
  562SOL    HW132180   3.719   4.039  12.570
  562SOL    HW232181   3.842   4.144  12.543
  563SOL     OW32182   3.811   5.929  12.599
  563SOL    HW132183   3.719   5.901  12.570
  563SOL    HW232184   3.842   6.006  12.543
  564SOL     OW32185   5.673   0.343  12.599
  564SOL    HW132186   5.581   0.315  12.570
  564SOL    HW232187   5.704   0.420  12.543
  565SOL     OW32188   5.673   2.205  12.599
  565SOL    HW132189   5.581   2.177  12.570
  565SOL    HW232190   5.704   2.282  12.543
  566SOL     OW32191   5.673   4.067  12.599
  566SOL    HW132192   5.581   4.039  12.570
  566SOL    HW232193   5.704   4.144  12.543
  567SOL     OW32194   5.673   5.929  12.599
  567SOL    HW132195   5.581   5.901  12.570
  567SOL    HW232196   5.704   6.006  12.543
  568SOL     OW32197   1.206   1.610  12.597
  568SOL    HW132198   1.212   1.517  12.634
  568SOL    HW232199   1.147   1.610  12.517
  569SOL     OW32200   1.206   3.472  12.597
  569SOL    HW132201   1.212   3.379  12.634
  569SOL    HW232202   1.147   3.472  12.517
  570SOL     OW32203   1.206   5.334  12.597
  570SOL    HW132204   1.212   5.241  12.634
  570SOL    HW232205   1.147   5.334  12.517
  571SOL     OW32206   3.068   1.610  12.597
  571SOL    HW132207   3.074   1.517  12.634
  571SOL    HW232208   3.009   1.610  12.517
  572SOL     OW32209   3.068   3.472  12.597
  572SOL    HW132210   3.074   3.379  12.634
  572SOL    HW232211   3.009   3.472  12.517
  573SOL     OW32212   3.068   5.334  12.597
  573SOL    HW132213   3.074   5.241  12.634
  573SOL    HW232214   3.009   5.334  12.517
  574SOL     OW32215   4.930   1.610  12.597
  574SOL    HW132216   4.936   1.517  12.634
  574SOL    HW232217   4.871   1.610  12.517
  575SOL     OW32218   4.930   3.472  12.597
  575SOL    HW132219   4.936   3.379  12.634
  575SOL    HW232220   4.871   3.472  12.517
  576SOL     OW32221   4.930   5.334  12.597
  576SOL    HW132222   4.936   5.241  12.634
  576SOL    HW232223   4.871   5.334  12.517
  577SOL     OW32224   1.147   0.701   0.249
  577SOL    HW132225   1.204   0.779   0.224
  577SOL    HW232226   1.087   0.727   0.325
  578SOL     OW32227   1.147   2.563   0.249
  578SOL    HW132228   1.204   2.641   0.224
  578SOL    HW232229   1.087   2.589   0.325
  579SOL     OW32230   1.147   4.425   0.249
  579SOL    HW132231   1.204   4.503   0.224
  579SOL    HW232232   1.087   4.451   0.325
  580SOL     OW32233   3.009   0.701   0.249
  580SOL    HW132234   3.066   0.779   0.224
  580SOL    HW232235   2.949   0.727   0.325
  581SOL     OW32236   3.009   2.563   0.249
  581SOL    HW132237   3.066   2.641   0.224
  581SOL    HW232238   2.949   2.589   0.325
  582SOL     OW32239   3.009   4.425   0.249
  582SOL    HW132240   3.066   4.503   0.224
  582SOL    HW232241   2.949   4.451   0.325
  583SOL     OW32242   4.871   0.701   0.249
  583SOL    HW132243   4.928   0.779   0.224
  583SOL    HW232244   4.811   0.727   0.325
  584SOL     OW32245   4.871   2.563   0.249
  584SOL    HW132246   4.928   2.641   0.224
  584SOL    HW232247   4.811   2.589   0.325
  585SOL     OW32248   4.871   4.425   0.249
  585SOL    HW132249   4.928   4.503   0.224
  585SOL    HW232250   4.811   4.451   0.325
  586SOL     OW32251   0.275   0.324   0.252
  586SOL    HW132252   0.196   0.375   0.218
  586SOL    HW232253   0.266   0.309   0.350
  587SOL     OW32254   0.275   2.186   0.252
  587SOL    HW132255   0.196   2.237   0.218
  587SOL    HW232256   0.266   2.171   0.350
  588SOL     OW32257   0.275   4.048   0.252
  588SOL    HW132258   0.196   4.099   0.218
  588SOL    HW232259   0.266   4.033   0.350
  589SOL     OW32260   0.275   5.910   0.252
  589SOL    HW132261   0.196   5.961   0.218
  589SOL    HW232262   0.266   5.895   0.350
  590SOL     OW32263   2.137   0.324   0.252
  590SOL    HW132264   2.058   0.375   0.218
  590SOL    HW232265   2.128   0.309   0.350
  591SOL     OW32266   2.137   2.186   0.252
  591SOL    HW132267   2.058   2.237   0.218
  591SOL    HW232268   2.128   2.171   0.350
  592SOL     OW32269   2.137   4.048   0.252
  592SOL    HW132270   2.058   4.099   0.218
  592SOL    HW232271   2.128   4.033   0.350
  593SOL     OW32272   2.137   5.910   0.252
  593SOL    HW132273   2.058   5.961   0.218
  593SOL    HW232274   2.128   5.895   0.350
  594SOL     OW32275   3.999   0.324   0.252
  594SOL    HW132276   3.920   0.375   0.218
  594SOL    HW232277   3.990   0.309   0.350
  595SOL     OW32278   3.999   2.186   0.252
  595SOL    HW132279   3.920   2.237   0.218
  595SOL    HW232280   3.990   2.171   0.350
  596SOL     OW32281   3.999   4.048   0.252
  596SOL    HW132282   3.920   4.099   0.218
  596SOL    HW232283   3.990   4.033   0.350
  597SOL     OW32284   3.999   5.910   0.252
  597SOL    HW132285   3.920   5.961   0.218
  597SOL    HW232286   3.990   5.895   0.350
  598SOL     OW32287   5.861   0.324   0.252
  598SOL    HW132288   5.782   0.375   0.218
  598SOL    HW232289   5.852   0.309   0.350
  599SOL     OW32290   5.861   2.186   0.252
  599SOL    HW132291   5.782   2.237   0.218
  599SOL    HW232292   5.852   2.171   0.350
  600SOL     OW32293   5.861   4.048   0.252
  600SOL    HW132294   5.782   4.099   0.218
  600SOL    HW232295   5.852   4.033   0.350
  601SOL     OW32296   5.861   5.910   0.252
  601SOL    HW132297   5.782   5.961   0.218
  601SOL    HW232298   5.852   5.895   0.350
  602SOL     OW32299   0.625   1.363   0.258
  602SOL    HW132300   0.576   1.276   0.267
  602SOL    HW232301   0.602   1.406   0.171
  603SOL     OW32302   0.625   3.225   0.258
  603SOL    HW132303   0.576   3.138   0.267
  603SOL    HW232304   0.602   3.268   0.171
  604SOL     OW32305   0.625   5.087   0.258
  604SOL    HW132306   0.576   5.000   0.267
  604SOL    HW232307   0.602   5.130   0.171
  605SOL     OW32308   2.487   1.363   0.258
  605SOL    HW132309   2.438   1.276   0.267
  605SOL    HW232310   2.464   1.406   0.171
  606SOL     OW32311   2.487   3.225   0.258
  606SOL    HW132312   2.438   3.138   0.267
  606SOL    HW232313   2.464   3.268   0.171
  607SOL     OW32314   2.487   5.087   0.258
  607SOL    HW132315   2.438   5.000   0.267
  607SOL    HW232316   2.464   5.130   0.171
  608SOL     OW32317   4.349   1.363   0.258
  608SOL    HW132318   4.300   1.276   0.267
  608SOL    HW232319   4.326   1.406   0.171
  609SOL     OW32320   4.349   3.225   0.258
  609SOL    HW132321   4.300   3.138   0.267
  609SOL    HW232322   4.326   3.268   0.171
  610SOL     OW32323   4.349   5.087   0.258
  610SOL    HW132324   4.300   5.000   0.267
  610SOL    HW232325   4.326   5.130   0.171
  611SOL     OW32326   6.211   1.363   0.258
  611SOL    HW132327   6.162   1.276   0.267
  611SOL    HW232328   6.188   1.406   0.171
  612SOL     OW32329   6.211   3.225   0.258
  612SOL    HW132330   6.162   3.138   0.267
  612SOL    HW232331   6.188   3.268   0.171
  613SOL     OW32332   6.211   5.087   0.258
  613SOL    HW132333   6.162   5.000   0.267
  613SOL    HW232334   6.188   5.130   0.171
  614SOL     OW32335   1.470   0.733   0.260
  614SOL    HW132336   1.465   0.668   0.335
  614SOL    HW232337   1.550   0.792   0.273
  615SOL     OW32338   1.470   2.595   0.260
  615SOL    HW132339   1.465   2.530   0.335
  615SOL    HW232340   1.550   2.654   0.273
  616SOL     OW32341   1.470   4.457   0.260
  616SOL    HW132342   1.465   4.392   0.335
  616SOL    HW232343   1.550   4.516   0.273
  617SOL     OW32344   1.470   6.319   0.260
  617SOL    HW132345   1.465   6.254   0.335
  617SOL    HW232346   1.550   6.378   0.273
  618SOL     OW32347   3.332   0.733   0.260
  618SOL    HW132348   3.327   0.668   0.335
  618SOL    HW232349   3.412   0.792   0.273
  619SOL     OW32350   3.332   2.595   0.260
  619SOL    HW132351   3.327   2.530   0.335
  619SOL    HW232352   3.412   2.654   0.273
  620SOL     OW32353   3.332   4.457   0.260
  620SOL    HW132354   3.327   4.392   0.335
  620SOL    HW232355   3.412   4.516   0.273
  621SOL     OW32356   3.332   6.319   0.260
  621SOL    HW132357   3.327   6.254   0.335
  621SOL    HW232358   3.412   6.378   0.273
  622SOL     OW32359   5.194   0.733   0.260
  622SOL    HW132360   5.189   0.668   0.335
  622SOL    HW232361   5.274   0.792   0.273
  623SOL     OW32362   5.194   2.595   0.260
  623SOL    HW132363   5.189   2.530   0.335
  623SOL    HW232364   5.274   2.654   0.273
  624SOL     OW32365   5.194   4.457   0.260
  624SOL    HW132366   5.189   4.392   0.335
  624SOL    HW232367   5.274   4.516   0.273
  625SOL     OW32368   5.194   6.319   0.260
  625SOL    HW132369   5.189   6.254   0.335
  625SOL    HW232370   5.274   6.378   0.273
  626SOL     OW32371   1.044   0.547  12.582
  626SOL    HW132372   1.003   0.629  12.543
  626SOL    HW232373   1.108   0.573  12.655
  627SOL     OW32374   0.871   1.372  12.582
  627SOL    HW132375   0.825   1.387  12.670
  627SOL    HW232376   0.915   1.457  12.552
  628SOL     OW32377   1.044   2.409  12.582
  628SOL    HW132378   1.003   2.491  12.543
  628SOL    HW232379   1.108   2.435  12.655
  629SOL     OW32380   0.871   3.234  12.582
  629SOL    HW132381   0.825   3.249  12.670
  629SOL    HW232382   0.915   3.319  12.552
  630SOL     OW32383   1.044   4.271  12.582
  630SOL    HW132384   1.003   4.353  12.543
  630SOL    HW232385   1.108   4.297  12.655
  631SOL     OW32386   0.871   5.096  12.582
  631SOL    HW132387   0.825   5.111  12.670
  631SOL    HW232388   0.915   5.181  12.552
  632SOL     OW32389   1.044   6.133  12.582
  632SOL    HW132390   1.003   6.215  12.543
  632SOL    HW232391   1.108   6.159  12.655
  633SOL     OW32392   2.906   0.547  12.582
  633SOL    HW132393   2.865   0.629  12.543
  633SOL    HW232394   2.970   0.573  12.655
  634SOL     OW32395   2.733   1.372  12.582
  634SOL    HW132396   2.687   1.387  12.670
  634SOL    HW232397   2.777   1.457  12.552
  635SOL     OW32398   2.906   2.409  12.582
  635SOL    HW132399   2.865   2.491  12.543
  635SOL    HW232400   2.970   2.435  12.655
  636SOL     OW32401   2.733   3.234  12.582
  636SOL    HW132402   2.687   3.249  12.670
  636SOL    HW232403   2.777   3.319  12.552
  637SOL     OW32404   2.906   4.271  12.582
  637SOL    HW132405   2.865   4.353  12.543
  637SOL    HW232406   2.970   4.297  12.655
  638SOL     OW32407   2.733   5.096  12.582
  638SOL    HW132408   2.687   5.111  12.670
  638SOL    HW232409   2.777   5.181  12.552
  639SOL     OW32410   2.906   6.133  12.582
  639SOL    HW132411   2.865   6.215  12.543
  639SOL    HW232412   2.970   6.159  12.655
  640SOL     OW32413   4.768   0.547  12.582
  640SOL    HW132414   4.727   0.629  12.543
  640SOL    HW232415   4.832   0.573  12.655
  641SOL     OW32416   4.595   1.372  12.582
  641SOL    HW132417   4.549   1.387  12.670
  641SOL    HW232418   4.639   1.457  12.552
  642SOL     OW32419   4.768   2.409  12.582
  642SOL    HW132420   4.727   2.491  12.543
  642SOL    HW232421   4.832   2.435  12.655
  643SOL     OW32422   4.595   3.234  12.582
  643SOL    HW132423   4.549   3.249  12.670
  643SOL    HW232424   4.639   3.319  12.552
  644SOL     OW32425   4.768   4.271  12.582
  644SOL    HW132426   4.727   4.353  12.543
  644SOL    HW232427   4.832   4.297  12.655
  645SOL     OW32428   4.595   5.096  12.582
  645SOL    HW132429   4.549   5.111  12.670
  645SOL    HW232430   4.639   5.181  12.552
  646SOL     OW32431   4.768   6.133  12.582
  646SOL    HW132432   4.727   6.215  12.543
  646SOL    HW232433   4.832   6.159  12.655
  647SOL     OW32434   1.615   0.445   0.269
  647SOL    HW132435   1.541   0.491   0.219
  647SOL    HW232436   1.666   0.513   0.322
  648SOL     OW32437   1.615   2.307   0.269
  648SOL    HW132438   1.541   2.353   0.219
  648SOL    HW232439   1.666   2.375   0.322
  649SOL     OW32440   1.615   4.169   0.269
  649SOL    HW132441   1.541   4.215   0.219
  649SOL    HW232442   1.666   4.237   0.322
  650SOL     OW32443   1.615   6.031   0.269
  650SOL    HW132444   1.541   6.077   0.219
  650SOL    HW232445   1.666   6.099   0.322
  651SOL     OW32446   3.477   0.445   0.269
  651SOL    HW132447   3.403   0.491   0.219
  651SOL    HW232448   3.528   0.513   0.322
  652SOL     OW32449   3.477   2.307   0.269
  652SOL    HW132450   3.403   2.353   0.219
  652SOL    HW232451   3.528   2.375   0.322
  653SOL     OW32452   3.477   4.169   0.269
  653SOL    HW132453   3.403   4.215   0.219
  653SOL    HW232454   3.528   4.237   0.322
  654SOL     OW32455   3.477   6.031   0.269
  654SOL    HW132456   3.403   6.077   0.219
  654SOL    HW232457   3.528   6.099   0.322
  655SOL     OW32458   5.339   0.445   0.269
  655SOL    HW132459   5.265   0.491   0.219
  655SOL    HW232460   5.390   0.513   0.322
  656SOL     OW32461   5.339   2.307   0.269
  656SOL    HW132462   5.265   2.353   0.219
  656SOL    HW232463   5.390   2.375   0.322
  657SOL     OW32464   5.339   4.169   0.269
  657SOL    HW132465   5.265   4.215   0.219
  657SOL    HW232466   5.390   4.237   0.322
  658SOL     OW32467   5.339   6.031   0.269
  658SOL    HW132468   5.265   6.077   0.219
  658SOL    HW232469   5.390   6.099   0.322
  659SOL     OW32470   0.471   1.150   0.273
  659SOL    HW132471   0.400   1.123   0.338
  659SOL    HW232472   0.445   1.122   0.180
  660SOL     OW32473   0.471   3.012   0.273
  660SOL    HW132474   0.400   2.985   0.338
  660SOL    HW232475   0.445   2.984   0.180
  661SOL     OW32476   0.471   4.874   0.273
  661SOL    HW132477   0.400   4.847   0.338
  661SOL    HW232478   0.445   4.846   0.180
  662SOL     OW32479   2.333   1.150   0.273
  662SOL    HW132480   2.262   1.123   0.338
  662SOL    HW232481   2.307   1.122   0.180
  663SOL     OW32482   2.333   3.012   0.273
  663SOL    HW132483   2.262   2.985   0.338
  663SOL    HW232484   2.307   2.984   0.180
  664SOL     OW32485   2.333   4.874   0.273
  664SOL    HW132486   2.262   4.847   0.338
  664SOL    HW232487   2.307   4.846   0.180
  665SOL     OW32488   4.195   1.150   0.273
  665SOL    HW132489   4.124   1.123   0.338
  665SOL    HW232490   4.169   1.122   0.180
  666SOL     OW32491   4.195   3.012   0.273
  666SOL    HW132492   4.124   2.985   0.338
  666SOL    HW232493   4.169   2.984   0.180
  667SOL     OW32494   4.195   4.874   0.273
  667SOL    HW132495   4.124   4.847   0.338
  667SOL    HW232496   4.169   4.846   0.180
  668SOL     OW32497   6.057   1.150   0.273
  668SOL    HW132498   5.986   1.123   0.338
  668SOL    HW232499   6.031   1.122   0.180
  669SOL     OW32500   6.057   3.012   0.273
  669SOL    HW132501   5.986   2.985   0.338
  669SOL    HW232502   6.031   2.984   0.180
  670SOL     OW32503   6.057   4.874   0.273
  670SOL    HW132504   5.986   4.847   0.338
  670SOL    HW232505   6.031   4.846   0.180
  671SOL     OW32506   1.029   0.037   0.285
  671SOL    HW132507   0.957   0.042   0.216
  671SOL    HW232508   1.005   6.418   0.354
  672SOL     OW32509   1.029   1.899   0.285
  672SOL    HW132510   0.957   1.904   0.216
  672SOL    HW232511   1.005   1.830   0.354
  673SOL     OW32512   1.029   3.761   0.285
  673SOL    HW132513   0.957   3.766   0.216
  673SOL    HW232514   1.005   3.692   0.354
  674SOL     OW32515   1.029   5.623   0.285
  674SOL    HW132516   0.957   5.628   0.216
  674SOL    HW232517   1.005   5.554   0.354
  675SOL     OW32518   2.891   0.037   0.285
  675SOL    HW132519   2.819   0.042   0.216
  675SOL    HW232520   2.867   6.418   0.354
  676SOL     OW32521   2.891   1.899   0.285
  676SOL    HW132522   2.819   1.904   0.216
  676SOL    HW232523   2.867   1.830   0.354
  677SOL     OW32524   2.891   3.761   0.285
  677SOL    HW132525   2.819   3.766   0.216
  677SOL    HW232526   2.867   3.692   0.354
  678SOL     OW32527   2.891   5.623   0.285
  678SOL    HW132528   2.819   5.628   0.216
  678SOL    HW232529   2.867   5.554   0.354
  679SOL     OW32530   4.753   0.037   0.285
  679SOL    HW132531   4.681   0.042   0.216
  679SOL    HW232532   4.729   6.418   0.354
  680SOL     OW32533   4.753   1.899   0.285
  680SOL    HW132534   4.681   1.904   0.216
  680SOL    HW232535   4.729   1.830   0.354
  681SOL     OW32536   4.753   3.761   0.285
  681SOL    HW132537   4.681   3.766   0.216
  681SOL    HW232538   4.729   3.692   0.354
  682SOL     OW32539   4.753   5.623   0.285
  682SOL    HW132540   4.681   5.628   0.216
  682SOL    HW232541   4.729   5.554   0.354
  683SOL     OW32542   1.740   0.933  12.558
  683SOL    HW132543   1.694   0.926  12.469
  683SOL    HW232544   1.678   0.977  12.624
  684SOL     OW32545   1.740   2.795  12.558
  684SOL    HW132546   1.694   2.788  12.469
  684SOL    HW232547   1.678   2.839  12.624
  685SOL     OW32548   1.740   4.657  12.558
  685SOL    HW132549   1.694   4.650  12.469
  685SOL    HW232550   1.678   4.701  12.624
  686SOL     OW32551   1.740   0.069  12.558
  686SOL    HW132552   1.694   0.062  12.469
  686SOL    HW232553   1.678   0.113  12.624
  687SOL     OW32554   3.602   0.933  12.558
  687SOL    HW132555   3.556   0.926  12.469
  687SOL    HW232556   3.540   0.977  12.624
  688SOL     OW32557   3.602   2.795  12.558
  688SOL    HW132558   3.556   2.788  12.469
  688SOL    HW232559   3.540   2.839  12.624
  689SOL     OW32560   3.602   4.657  12.558
  689SOL    HW132561   3.556   4.650  12.469
  689SOL    HW232562   3.540   4.701  12.624
  690SOL     OW32563   3.602   0.069  12.558
  690SOL    HW132564   3.556   0.062  12.469
  690SOL    HW232565   3.540   0.113  12.624
  691SOL     OW32566   5.464   0.933  12.558
  691SOL    HW132567   5.418   0.926  12.469
  691SOL    HW232568   5.402   0.977  12.624
  692SOL     OW32569   5.464   2.795  12.558
  692SOL    HW132570   5.418   2.788  12.469
  692SOL    HW232571   5.402   2.839  12.624
  693SOL     OW32572   5.464   4.657  12.558
  693SOL    HW132573   5.418   4.650  12.469
  693SOL    HW232574   5.402   4.701  12.624
  694SOL     OW32575   5.464   0.069  12.558
  694SOL    HW132576   5.418   0.062  12.469
  694SOL    HW232577   5.402   0.113  12.624
  695SOL     OW32578   0.142   1.792  12.555
  695SOL    HW132579   0.101   1.718  12.608
  695SOL    HW232580   0.206   1.843  12.613
  696SOL     OW32581   0.142   3.654  12.555
  696SOL    HW132582   0.101   3.580  12.608
  696SOL    HW232583   0.206   3.705  12.613
  697SOL     OW32584   0.142   5.516  12.555
  697SOL    HW132585   0.101   5.442  12.608
  697SOL    HW232586   0.206   5.567  12.613
  698SOL     OW32587   2.004   1.792  12.555
  698SOL    HW132588   1.963   1.718  12.608
  698SOL    HW232589   2.068   1.843  12.613
  699SOL     OW32590   2.004   3.654  12.555
  699SOL    HW132591   1.963   3.580  12.608
  699SOL    HW232592   2.068   3.705  12.613
  700SOL     OW32593   2.004   5.516  12.555
  700SOL    HW132594   1.963   5.442  12.608
  700SOL    HW232595   2.068   5.567  12.613
  701SOL     OW32596   3.866   1.792  12.555
  701SOL    HW132597   3.825   1.718  12.608
  701SOL    HW232598   3.930   1.843  12.613
  702SOL     OW32599   3.866   3.654  12.555
  702SOL    HW132600   3.825   3.580  12.608
  702SOL    HW232601   3.930   3.705  12.613
  703SOL     OW32602   3.866   5.516  12.555
  703SOL    HW132603   3.825   5.442  12.608
  703SOL    HW232604   3.930   5.567  12.613
  704SOL     OW32605   5.728   1.792  12.555
  704SOL    HW132606   5.687   1.718  12.608
  704SOL    HW232607   5.792   1.843  12.613
  705SOL     OW32608   5.728   3.654  12.555
  705SOL    HW132609   5.687   3.580  12.608
  705SOL    HW232610   5.792   3.705  12.613
  706SOL     OW32611   5.728   5.516  12.555
  706SOL    HW132612   5.687   5.442  12.608
  706SOL    HW232613   5.792   5.567  12.613
  707SOL     OW32614   0.233   1.312  12.548
  707SOL    HW132615   0.168   1.239  12.527
  707SOL    HW232616   0.237   1.326  12.646
  708SOL     OW32617   0.233   3.174  12.548
  708SOL    HW132618   0.168   3.101  12.527
  708SOL    HW232619   0.237   3.188  12.646
  709SOL     OW32620   0.233   5.036  12.548
  709SOL    HW132621   0.168   4.963  12.527
  709SOL    HW232622   0.237   5.050  12.646
  710SOL     OW32623   2.095   1.312  12.548
  710SOL    HW132624   2.030   1.239  12.527
  710SOL    HW232625   2.099   1.326  12.646
  711SOL     OW32626   2.095   3.174  12.548
  711SOL    HW132627   2.030   3.101  12.527
  711SOL    HW232628   2.099   3.188  12.646
  712SOL     OW32629   2.095   5.036  12.548
  712SOL    HW132630   2.030   4.963  12.527
  712SOL    HW232631   2.099   5.050  12.646
  713SOL     OW32632   3.957   1.312  12.548
  713SOL    HW132633   3.892   1.239  12.527
  713SOL    HW232634   3.961   1.326  12.646
  714SOL     OW32635   3.957   3.174  12.548
  714SOL    HW132636   3.892   3.101  12.527
  714SOL    HW232637   3.961   3.188  12.646
  715SOL     OW32638   3.957   5.036  12.548
  715SOL    HW132639   3.892   4.963  12.527
  715SOL    HW232640   3.961   5.050  12.646
  716SOL     OW32641   5.819   1.312  12.548
  716SOL    HW132642   5.754   1.239  12.527
  716SOL    HW232643   5.823   1.326  12.646
  717SOL     OW32644   5.819   3.174  12.548
  717SOL    HW132645   5.754   3.101  12.527
  717SOL    HW232646   5.823   3.188  12.646
  718SOL     OW32647   5.819   5.036  12.548
  718SOL    HW132648   5.754   4.963  12.527
  718SOL    HW232649   5.823   5.050  12.646
  719SOL     OW32650   1.731   0.583  12.535
  719SOL    HW132651   1.705   0.672  12.499
  719SOL    HW232652   1.729   0.515  12.462
  720SOL     OW32653   1.731   2.445  12.535
  720SOL    HW132654   1.705   2.534  12.499
  720SOL    HW232655   1.729   2.377  12.462
  721SOL     OW32656   1.731   4.307  12.535
  721SOL    HW132657   1.705   4.396  12.499
  721SOL    HW232658   1.729   4.239  12.462
  722SOL     OW32659   1.731   6.169  12.535
  722SOL    HW132660   1.705   6.258  12.499
  722SOL    HW232661   1.729   6.101  12.462
  723SOL     OW32662   3.593   0.583  12.535
  723SOL    HW132663   3.567   0.672  12.499
  723SOL    HW232664   3.591   0.515  12.462
  724SOL     OW32665   3.593   2.445  12.535
  724SOL    HW132666   3.567   2.534  12.499
  724SOL    HW232667   3.591   2.377  12.462
  725SOL     OW32668   3.593   4.307  12.535
  725SOL    HW132669   3.567   4.396  12.499
  725SOL    HW232670   3.591   4.239  12.462
  726SOL     OW32671   3.593   6.169  12.535
  726SOL    HW132672   3.567   6.258  12.499
  726SOL    HW232673   3.591   6.101  12.462
  727SOL     OW32674   5.455   0.583  12.535
  727SOL    HW132675   5.429   0.672  12.499
  727SOL    HW232676   5.453   0.515  12.462
  728SOL     OW32677   5.455   2.445  12.535
  728SOL    HW132678   5.429   2.534  12.499
  728SOL    HW232679   5.453   2.377  12.462
  729SOL     OW32680   5.455   4.307  12.535
  729SOL    HW132681   5.429   4.396  12.499
  729SOL    HW232682   5.453   4.239  12.462
  730SOL     OW32683   5.455   6.169  12.535
  730SOL    HW132684   5.429   6.258  12.499
  730SOL    HW232685   5.453   6.101  12.462
  731SOL     OW32686   0.862   0.796  12.527
  731SOL    HW132687   0.858   0.872  12.592
  731SOL    HW232688   0.884   0.832  12.436
  732SOL     OW32689   0.862   2.658  12.527
  732SOL    HW132690   0.858   2.734  12.592
  732SOL    HW232691   0.884   2.694  12.436
  733SOL     OW32692   0.862   4.520  12.527
  733SOL    HW132693   0.858   4.596  12.592
  733SOL    HW232694   0.884   4.556  12.436
  734SOL     OW32695   0.862   6.382  12.527
  734SOL    HW132696   0.858   0.008  12.592
  734SOL    HW232697   0.884   6.418  12.436
  735SOL     OW32698   2.724   0.796  12.527
  735SOL    HW132699   2.720   0.872  12.592
  735SOL    HW232700   2.746   0.832  12.436
  736SOL     OW32701   2.724   2.658  12.527
  736SOL    HW132702   2.720   2.734  12.592
  736SOL    HW232703   2.746   2.694  12.436
  737SOL     OW32704   2.724   4.520  12.527
  737SOL    HW132705   2.720   4.596  12.592
  737SOL    HW232706   2.746   4.556  12.436
  738SOL     OW32707   2.724   6.382  12.527
  738SOL    HW132708   2.720   0.008  12.592
  738SOL    HW232709   2.746   6.418  12.436
  739SOL     OW32710   4.586   0.796  12.527
  739SOL    HW132711   4.582   0.872  12.592
  739SOL    HW232712   4.608   0.832  12.436
  740SOL     OW32713   4.586   2.658  12.527
  740SOL    HW132714   4.582   2.734  12.592
  740SOL    HW232715   4.608   2.694  12.436
  741SOL     OW32716   4.586   4.520  12.527
  741SOL    HW132717   4.582   4.596  12.592
  741SOL    HW232718   4.608   4.556  12.436
  742SOL     OW32719   4.586   6.382  12.527
  742SOL    HW132720   4.582   0.008  12.592
  742SOL    HW232721   4.608   6.418  12.436
  743SOL     OW32722   6.448   0.796  12.527
  743SOL    HW132723   6.444   0.872  12.592
  743SOL    HW232724   0.020   0.832  12.436
  744SOL     OW32725   6.448   2.658  12.527
  744SOL    HW132726   6.444   2.734  12.592
  744SOL    HW232727   0.020   2.694  12.436
  745SOL     OW32728   6.448   4.520  12.527
  745SOL    HW132729   6.444   4.596  12.592
  745SOL    HW232730   0.020   4.556  12.436
  746SOL     OW32731   0.088   0.809   0.321
  746SOL    HW132732   0.187   0.797   0.330
  746SOL    HW232733   0.064   0.904   0.342
  747SOL     OW32734   0.088   2.671   0.321
  747SOL    HW132735   0.187   2.659   0.330
  747SOL    HW232736   0.064   2.766   0.342
  748SOL     OW32737   0.088   4.533   0.321
  748SOL    HW132738   0.187   4.521   0.330
  748SOL    HW232739   0.064   4.628   0.342
  749SOL     OW32740   0.088   6.395   0.321
  749SOL    HW132741   0.187   6.383   0.330
  749SOL    HW232742   0.064   0.040   0.342
  750SOL     OW32743   1.950   0.809   0.321
  750SOL    HW132744   2.049   0.797   0.330
  750SOL    HW232745   1.926   0.904   0.342
  751SOL     OW32746   1.950   2.671   0.321
  751SOL    HW132747   2.049   2.659   0.330
  751SOL    HW232748   1.926   2.766   0.342
  752SOL     OW32749   1.950   4.533   0.321
  752SOL    HW132750   2.049   4.521   0.330
  752SOL    HW232751   1.926   4.628   0.342
  753SOL     OW32752   3.812   0.809   0.321
  753SOL    HW132753   3.911   0.797   0.330
  753SOL    HW232754   3.788   0.904   0.342
  754SOL     OW32755   3.812   2.671   0.321
  754SOL    HW132756   3.911   2.659   0.330
  754SOL    HW232757   3.788   2.766   0.342
  755SOL     OW32758   3.812   4.533   0.321
  755SOL    HW132759   3.911   4.521   0.330
  755SOL    HW232760   3.788   4.628   0.342
  756SOL     OW32761   5.674   0.809   0.321
  756SOL    HW132762   5.773   0.797   0.330
  756SOL    HW232763   5.650   0.904   0.342
  757SOL     OW32764   5.674   2.671   0.321
  757SOL    HW132765   5.773   2.659   0.330
  757SOL    HW232766   5.650   2.766   0.342
  758SOL     OW32767   5.674   4.533   0.321
  758SOL    HW132768   5.773   4.521   0.330
  758SOL    HW232769   5.650   4.628   0.342
  759SOL     OW32770   1.239   1.568   0.325
  759SOL    HW132771   1.260   1.642   0.260
  759SOL    HW232772   1.307   1.568   0.398
  760SOL     OW32773   1.239   3.430   0.325
  760SOL    HW132774   1.260   3.504   0.260
  760SOL    HW232775   1.307   3.430   0.398
  761SOL     OW32776   1.239   5.292   0.325
  761SOL    HW132777   1.260   5.366   0.260
  761SOL    HW232778   1.307   5.292   0.398
  762SOL     OW32779   3.101   1.568   0.325
  762SOL    HW132780   3.122   1.642   0.260
  762SOL    HW232781   3.169   1.568   0.398
  763SOL     OW32782   3.101   3.430   0.325
  763SOL    HW132783   3.122   3.504   0.260
  763SOL    HW232784   3.169   3.430   0.398
  764SOL     OW32785   3.101   5.292   0.325
  764SOL    HW132786   3.122   5.366   0.260
  764SOL    HW232787   3.169   5.292   0.398
  765SOL     OW32788   4.963   1.568   0.325
  765SOL    HW132789   4.984   1.642   0.260
  765SOL    HW232790   5.031   1.568   0.398
  766SOL     OW32791   4.963   3.430   0.325
  766SOL    HW132792   4.984   3.504   0.260
  766SOL    HW232793   5.031   3.430   0.398
  767SOL     OW32794   4.963   5.292   0.325
  767SOL    HW132795   4.984   5.366   0.260
  767SOL    HW232796   5.031   5.292   0.398
  768SOL     OW32797   0.362   0.896  12.508
  768SOL    HW132798   0.438   0.940  12.556
  768SOL    HW232799   0.397   0.849  12.426
  769SOL     OW32800   0.362   2.758  12.508
  769SOL    HW132801   0.438   2.802  12.556
  769SOL    HW232802   0.397   2.711  12.426
  770SOL     OW32803   0.362   4.620  12.508
  770SOL    HW132804   0.438   4.664  12.556
  770SOL    HW232805   0.397   4.573  12.426
  771SOL     OW32806   2.224   0.896  12.508
  771SOL    HW132807   2.300   0.940  12.556
  771SOL    HW232808   2.259   0.849  12.426
  772SOL     OW32809   2.224   2.758  12.508
  772SOL    HW132810   2.300   2.802  12.556
  772SOL    HW232811   2.259   2.711  12.426
  773SOL     OW32812   2.224   4.620  12.508
  773SOL    HW132813   2.300   4.664  12.556
  773SOL    HW232814   2.259   4.573  12.426
  774SOL     OW32815   4.086   0.896  12.508
  774SOL    HW132816   4.162   0.940  12.556
  774SOL    HW232817   4.121   0.849  12.426
  775SOL     OW32818   4.086   2.758  12.508
  775SOL    HW132819   4.162   2.802  12.556
  775SOL    HW232820   4.121   2.711  12.426
  776SOL     OW32821   4.086   4.620  12.508
  776SOL    HW132822   4.162   4.664  12.556
  776SOL    HW232823   4.121   4.573  12.426
  777SOL     OW32824   5.948   0.896  12.508
  777SOL    HW132825   6.024   0.940  12.556
  777SOL    HW232826   5.983   0.849  12.426
  778SOL     OW32827   5.948   2.758  12.508
  778SOL    HW132828   6.024   2.802  12.556
  778SOL    HW232829   5.983   2.711  12.426
  779SOL     OW32830   5.948   4.620  12.508
  779SOL    HW132831   6.024   4.664  12.556
  779SOL    HW232832   5.983   4.573  12.426
  780SOL     OW32833   0.698   1.159  12.507
  780SOL    HW132834   0.758   1.238  12.521
  780SOL    HW232835   0.612   1.190  12.466
  781SOL     OW32836   0.698   3.021  12.507
  781SOL    HW132837   0.758   3.100  12.521
  781SOL    HW232838   0.612   3.052  12.466
  782SOL     OW32839   0.698   4.883  12.507
  782SOL    HW132840   0.758   4.962  12.521
  782SOL    HW232841   0.612   4.914  12.466
  783SOL     OW32842   2.560   1.159  12.507
  783SOL    HW132843   2.620   1.238  12.521
  783SOL    HW232844   2.474   1.190  12.466
  784SOL     OW32845   2.560   3.021  12.507
  784SOL    HW132846   2.620   3.100  12.521
  784SOL    HW232847   2.474   3.052  12.466
  785SOL     OW32848   2.560   4.883  12.507
  785SOL    HW132849   2.620   4.962  12.521
  785SOL    HW232850   2.474   4.914  12.466
  786SOL     OW32851   4.422   1.159  12.507
  786SOL    HW132852   4.482   1.238  12.521
  786SOL    HW232853   4.336   1.190  12.466
  787SOL     OW32854   4.422   3.021  12.507
  787SOL    HW132855   4.482   3.100  12.521
  787SOL    HW232856   4.336   3.052  12.466
  788SOL     OW32857   4.422   4.883  12.507
  788SOL    HW132858   4.482   4.962  12.521
  788SOL    HW232859   4.336   4.914  12.466
  789SOL     OW32860   6.284   1.159  12.507
  789SOL    HW132861   6.344   1.238  12.521
  789SOL    HW232862   6.198   1.190  12.466
  790SOL     OW32863   6.284   3.021  12.507
  790SOL    HW132864   6.344   3.100  12.521
  790SOL    HW232865   6.198   3.052  12.466
  791SOL     OW32866   6.284   4.883  12.507
  791SOL    HW132867   6.344   4.962  12.521
  791SOL    HW232868   6.198   4.914  12.466
  792SOL     OW32869   0.329   0.249  12.505
  792SOL    HW132870   0.400   0.320  12.511
  792SOL    HW232871   0.241   0.288  12.533
  793SOL     OW32872   0.329   2.111  12.505
  793SOL    HW132873   0.400   2.182  12.511
  793SOL    HW232874   0.241   2.150  12.533
  794SOL     OW32875   0.329   3.973  12.505
  794SOL    HW132876   0.400   4.044  12.511
  794SOL    HW232877   0.241   4.012  12.533
  795SOL     OW32878   0.329   5.835  12.505
  795SOL    HW132879   0.400   5.906  12.511
  795SOL    HW232880   0.241   5.874  12.533
  796SOL     OW32881   2.191   0.249  12.505
  796SOL    HW132882   2.262   0.320  12.511
  796SOL    HW232883   2.103   0.288  12.533
  797SOL     OW32884   2.191   2.111  12.505
  797SOL    HW132885   2.262   2.182  12.511
  797SOL    HW232886   2.103   2.150  12.533
  798SOL     OW32887   2.191   3.973  12.505
  798SOL    HW132888   2.262   4.044  12.511
  798SOL    HW232889   2.103   4.012  12.533
  799SOL     OW32890   2.191   5.835  12.505
  799SOL    HW132891   2.262   5.906  12.511
  799SOL    HW232892   2.103   5.874  12.533
  800SOL     OW32893   4.053   0.249  12.505
  800SOL    HW132894   4.124   0.320  12.511
  800SOL    HW232895   3.965   0.288  12.533
  801SOL     OW32896   4.053   2.111  12.505
  801SOL    HW132897   4.124   2.182  12.511
  801SOL    HW232898   3.965   2.150  12.533
  802SOL     OW32899   4.053   3.973  12.505
  802SOL    HW132900   4.124   4.044  12.511
  802SOL    HW232901   3.965   4.012  12.533
  803SOL     OW32902   4.053   5.835  12.505
  803SOL    HW132903   4.124   5.906  12.511
  803SOL    HW232904   3.965   5.874  12.533
  804SOL     OW32905   5.915   0.249  12.505
  804SOL    HW132906   5.986   0.320  12.511
  804SOL    HW232907   5.827   0.288  12.533
  805SOL     OW32908   5.915   2.111  12.505
  805SOL    HW132909   5.986   2.182  12.511
  805SOL    HW232910   5.827   2.150  12.533
  806SOL     OW32911   5.915   3.973  12.505
  806SOL    HW132912   5.986   4.044  12.511
  806SOL    HW232913   5.827   4.012  12.533
  807SOL     OW32914   5.915   5.835  12.505
  807SOL    HW132915   5.986   5.906  12.511
  807SOL    HW232916   5.827   5.874  12.533
  808SOL     OW32917   1.025   0.103  12.474
  808SOL    HW132918   1.031   0.188  12.422
  808SOL    HW232919   1.057   0.027  12.417
  809SOL     OW32920   1.025   1.965  12.474
  809SOL    HW132921   1.031   2.050  12.422
  809SOL    HW232922   1.057   1.889  12.417
  810SOL     OW32923   1.025   3.827  12.474
  810SOL    HW132924   1.031   3.912  12.422
  810SOL    HW232925   1.057   3.751  12.417
  811SOL     OW32926   1.025   5.689  12.474
  811SOL    HW132927   1.031   5.774  12.422
  811SOL    HW232928   1.057   5.613  12.417
  812SOL     OW32929   2.887   0.103  12.474
  812SOL    HW132930   2.893   0.188  12.422
  812SOL    HW232931   2.919   0.027  12.417
  813SOL     OW32932   2.887   1.965  12.474
  813SOL    HW132933   2.893   2.050  12.422
  813SOL    HW232934   2.919   1.889  12.417
  814SOL     OW32935   2.887   3.827  12.474
  814SOL    HW132936   2.893   3.912  12.422
  814SOL    HW232937   2.919   3.751  12.417
  815SOL     OW32938   2.887   5.689  12.474
  815SOL    HW132939   2.893   5.774  12.422
  815SOL    HW232940   2.919   5.613  12.417
  816SOL     OW32941   4.749   0.103  12.474
  816SOL    HW132942   4.755   0.188  12.422
  816SOL    HW232943   4.781   0.027  12.417
  817SOL     OW32944   4.749   1.965  12.474
  817SOL    HW132945   4.755   2.050  12.422
  817SOL    HW232946   4.781   1.889  12.417
  818SOL     OW32947   4.749   3.827  12.474
  818SOL    HW132948   4.755   3.912  12.422
  818SOL    HW232949   4.781   3.751  12.417
  819SOL     OW32950   4.749   5.689  12.474
  819SOL    HW132951   4.755   5.774  12.422
  819SOL    HW232952   4.781   5.613  12.417
  820SOL     OW32953   1.080   1.331   0.381
  820SOL    HW132954   1.087   1.247   0.326
  820SOL    HW232955   1.142   1.400   0.345
  821SOL     OW32956   1.080   3.193   0.381
  821SOL    HW132957   1.087   3.109   0.326
  821SOL    HW232958   1.142   3.262   0.345
  822SOL     OW32959   1.080   5.055   0.381
  822SOL    HW132960   1.087   4.971   0.326
  822SOL    HW232961   1.142   5.124   0.345
  823SOL     OW32962   2.942   1.331   0.381
  823SOL    HW132963   2.949   1.247   0.326
  823SOL    HW232964   3.004   1.400   0.345
  824SOL     OW32965   2.942   3.193   0.381
  824SOL    HW132966   2.949   3.109   0.326
  824SOL    HW232967   3.004   3.262   0.345
  825SOL     OW32968   2.942   5.055   0.381
  825SOL    HW132969   2.949   4.971   0.326
  825SOL    HW232970   3.004   5.124   0.345
  826SOL     OW32971   4.804   1.331   0.381
  826SOL    HW132972   4.811   1.247   0.326
  826SOL    HW232973   4.866   1.400   0.345
  827SOL     OW32974   4.804   3.193   0.381
  827SOL    HW132975   4.811   3.109   0.326
  827SOL    HW232976   4.866   3.262   0.345
  828SOL     OW32977   4.804   5.055   0.381
  828SOL    HW132978   4.811   4.971   0.326
  828SOL    HW232979   4.866   5.124   0.345
  829SOL     OW32980   0.216   1.331   0.381
  829SOL    HW132981   0.223   1.247   0.326
  829SOL    HW232982   0.278   1.400   0.345
  830SOL     OW32983   0.216   3.193   0.381
  830SOL    HW132984   0.223   3.109   0.326
  830SOL    HW232985   0.278   3.262   0.345
  831SOL     OW32986   0.216   5.055   0.381
  831SOL    HW132987   0.223   4.971   0.326
  831SOL    HW232988   0.278   5.124   0.345
  832SOL     OW32989   1.873   1.567   0.383
  832SOL    HW132990   1.802   1.555   0.313
  832SOL    HW232991   1.874   1.488   0.443
  833SOL     OW32992   1.873   3.429   0.383
  833SOL    HW132993   1.802   3.417   0.313
  833SOL    HW232994   1.874   3.350   0.443
  834SOL     OW32995   1.873   5.291   0.383
  834SOL    HW132996   1.802   5.279   0.313
  834SOL    HW232997   1.874   5.212   0.443
  835SOL     OW32998   3.735   1.567   0.383
  835SOL    HW132999   3.664   1.555   0.313
  835SOL    HW233000   3.736   1.488   0.443
  836SOL     OW33001   3.735   3.429   0.383
  836SOL    HW133002   3.664   3.417   0.313
  836SOL    HW233003   3.736   3.350   0.443
  837SOL     OW33004   3.735   5.291   0.383
  837SOL    HW133005   3.664   5.279   0.313
  837SOL    HW233006   3.736   5.212   0.443
  838SOL     OW33007   5.597   1.567   0.383
  838SOL    HW133008   5.526   1.555   0.313
  838SOL    HW233009   5.598   1.488   0.443
  839SOL     OW33010   5.597   3.429   0.383
  839SOL    HW133011   5.526   3.417   0.313
  839SOL    HW233012   5.598   3.350   0.443
  840SOL     OW33013   5.597   5.291   0.383
  840SOL    HW133014   5.526   5.279   0.313
  840SOL    HW233015   5.598   5.212   0.443
  841SOL     OW33016   0.363   1.799   0.385
  841SOL    HW133017   0.413   1.713   0.391
  841SOL    HW233018   0.428   1.876   0.382
  842SOL     OW33019   0.363   3.661   0.385
  842SOL    HW133020   0.413   3.575   0.391
  842SOL    HW233021   0.428   3.738   0.382
  843SOL     OW33022   0.363   5.523   0.385
  843SOL    HW133023   0.413   5.437   0.391
  843SOL    HW233024   0.428   5.600   0.382
  844SOL     OW33025   2.225   1.799   0.385
  844SOL    HW133026   2.275   1.713   0.391
  844SOL    HW233027   2.290   1.876   0.382
  845SOL     OW33028   2.225   3.661   0.385
  845SOL    HW133029   2.275   3.575   0.391
  845SOL    HW233030   2.290   3.738   0.382
  846SOL     OW33031   2.225   5.523   0.385
  846SOL    HW133032   2.275   5.437   0.391
  846SOL    HW233033   2.290   5.600   0.382
  847SOL     OW33034   4.087   1.799   0.385
  847SOL    HW133035   4.137   1.713   0.391
  847SOL    HW233036   4.152   1.876   0.382
  848SOL     OW33037   4.087   3.661   0.385
  848SOL    HW133038   4.137   3.575   0.391
  848SOL    HW233039   4.152   3.738   0.382
  849SOL     OW33040   4.087   5.523   0.385
  849SOL    HW133041   4.137   5.437   0.391
  849SOL    HW233042   4.152   5.600   0.382
  850SOL     OW33043   5.949   1.799   0.385
  850SOL    HW133044   5.999   1.713   0.391
  850SOL    HW233045   6.014   1.876   0.382
  851SOL     OW33046   5.949   3.661   0.385
  851SOL    HW133047   5.999   3.575   0.391
  851SOL    HW233048   6.014   3.738   0.382
  852SOL     OW33049   5.949   5.523   0.385
  852SOL    HW133050   5.999   5.437   0.391
  852SOL    HW233051   6.014   5.600   0.382
  853SOL     OW33052   0.793   0.262  12.453
  853SOL    HW133053   0.860   0.201  12.496
  853SOL    HW233054   0.720   0.281  12.518
  854SOL     OW33055   0.793   2.124  12.453
  854SOL    HW133056   0.860   2.063  12.496
  854SOL    HW233057   0.720   2.143  12.518
  855SOL     OW33058   0.793   3.986  12.453
  855SOL    HW133059   0.860   3.925  12.496
  855SOL    HW233060   0.720   4.005  12.518
  856SOL     OW33061   0.793   5.848  12.453
  856SOL    HW133062   0.860   5.787  12.496
  856SOL    HW233063   0.720   5.867  12.518
  857SOL     OW33064   2.655   0.262  12.453
  857SOL    HW133065   2.722   0.201  12.496
  857SOL    HW233066   2.582   0.281  12.518
  858SOL     OW33067   2.655   2.124  12.453
  858SOL    HW133068   2.722   2.063  12.496
  858SOL    HW233069   2.582   2.143  12.518
  859SOL     OW33070   2.655   3.986  12.453
  859SOL    HW133071   2.722   3.925  12.496
  859SOL    HW233072   2.582   4.005  12.518
  860SOL     OW33073   2.655   5.848  12.453
  860SOL    HW133074   2.722   5.787  12.496
  860SOL    HW233075   2.582   5.867  12.518
  861SOL     OW33076   4.517   0.262  12.453
  861SOL    HW133077   4.584   0.201  12.496
  861SOL    HW233078   4.444   0.281  12.518
  862SOL     OW33079   4.517   2.124  12.453
  862SOL    HW133080   4.584   2.063  12.496
  862SOL    HW233081   4.444   2.143  12.518
  863SOL     OW33082   4.517   3.986  12.453
  863SOL    HW133083   4.584   3.925  12.496
  863SOL    HW233084   4.444   4.005  12.518
  864SOL     OW33085   4.517   5.848  12.453
  864SOL    HW133086   4.584   5.787  12.496
  864SOL    HW233087   4.444   5.867  12.518
  865SOL     OW33088   0.871   0.954   0.393
  865SOL    HW133089   0.925   0.885   0.441
  865SOL    HW233090   0.839   1.023   0.459
  866SOL     OW33091   0.871   2.816   0.393
  866SOL    HW133092   0.925   2.747   0.441
  866SOL    HW233093   0.839   2.885   0.459
  867SOL     OW33094   0.871   4.678   0.393
  867SOL    HW133095   0.925   4.609   0.441
  867SOL    HW233096   0.839   4.747   0.459
  868SOL     OW33097   2.733   0.954   0.393
  868SOL    HW133098   2.787   0.885   0.441
  868SOL    HW233099   2.701   1.023   0.459
  869SOL     OW33100   2.733   2.816   0.393
  869SOL    HW133101   2.787   2.747   0.441
  869SOL    HW233102   2.701   2.885   0.459
  870SOL     OW33103   2.733   4.678   0.393
  870SOL    HW133104   2.787   4.609   0.441
  870SOL    HW233105   2.701   4.747   0.459
  871SOL     OW33106   4.595   0.954   0.393
  871SOL    HW133107   4.649   0.885   0.441
  871SOL    HW233108   4.563   1.023   0.459
  872SOL     OW33109   4.595   2.816   0.393
  872SOL    HW133110   4.649   2.747   0.441
  872SOL    HW233111   4.563   2.885   0.459
  873SOL     OW33112   4.595   4.678   0.393
  873SOL    HW133113   4.649   4.609   0.441
  873SOL    HW233114   4.563   4.747   0.459
  874SOL     OW33115   0.578   0.535   0.397
  874SOL    HW133116   0.590   0.601   0.323
  874SOL    HW233117   0.624   0.569   0.480
  875SOL     OW33118   0.578   2.397   0.397
  875SOL    HW133119   0.590   2.463   0.323
  875SOL    HW233120   0.624   2.431   0.480
  876SOL     OW33121   0.578   4.259   0.397
  876SOL    HW133122   0.590   4.325   0.323
  876SOL    HW233123   0.624   4.293   0.480
  877SOL     OW33124   0.578   6.121   0.397
  877SOL    HW133125   0.590   6.187   0.323
  877SOL    HW233126   0.624   6.155   0.480
  878SOL     OW33127   2.440   0.535   0.397
  878SOL    HW133128   2.452   0.601   0.323
  878SOL    HW233129   2.486   0.569   0.480
  879SOL     OW33130   2.440   2.397   0.397
  879SOL    HW133131   2.452   2.463   0.323
  879SOL    HW233132   2.486   2.431   0.480
  880SOL     OW33133   2.440   4.259   0.397
  880SOL    HW133134   2.452   4.325   0.323
  880SOL    HW233135   2.486   4.293   0.480
  881SOL     OW33136   2.440   6.121   0.397
  881SOL    HW133137   2.452   6.187   0.323
  881SOL    HW233138   2.486   6.155   0.480
  882SOL     OW33139   4.302   0.535   0.397
  882SOL    HW133140   4.314   0.601   0.323
  882SOL    HW233141   4.348   0.569   0.480
  883SOL     OW33142   4.302   2.397   0.397
  883SOL    HW133143   4.314   2.463   0.323
  883SOL    HW233144   4.348   2.431   0.480
  884SOL     OW33145   4.302   4.259   0.397
  884SOL    HW133146   4.314   4.325   0.323
  884SOL    HW233147   4.348   4.293   0.480
  885SOL     OW33148   4.302   6.121   0.397
  885SOL    HW133149   4.314   6.187   0.323
  885SOL    HW233150   4.348   6.155   0.480
  886SOL     OW33151   6.164   0.535   0.397
  886SOL    HW133152   6.176   0.601   0.323
  886SOL    HW233153   6.210   0.569   0.480
  887SOL     OW33154   6.164   2.397   0.397
  887SOL    HW133155   6.176   2.463   0.323
  887SOL    HW233156   6.210   2.431   0.480
  888SOL     OW33157   6.164   4.259   0.397
  888SOL    HW133158   6.176   4.325   0.323
  888SOL    HW233159   6.210   4.293   0.480
  889SOL     OW33160   6.164   6.121   0.397
  889SOL    HW133161   6.176   6.187   0.323
  889SOL    HW233162   6.210   6.155   0.480
  890SOL     OW33163   0.264   1.562  12.448
  890SOL    HW133164   0.234   1.619  12.524
  890SOL    HW233165   0.257   1.465  12.474
  891SOL     OW33166   0.264   3.424  12.448
  891SOL    HW133167   0.234   3.481  12.524
  891SOL    HW233168   0.257   3.327  12.474
  892SOL     OW33169   0.264   5.286  12.448
  892SOL    HW133170   0.234   5.343  12.524
  892SOL    HW233171   0.257   5.189  12.474
  893SOL     OW33172   2.126   1.562  12.448
  893SOL    HW133173   2.096   1.619  12.524
  893SOL    HW233174   2.119   1.465  12.474
  894SOL     OW33175   2.126   3.424  12.448
  894SOL    HW133176   2.096   3.481  12.524
  894SOL    HW233177   2.119   3.327  12.474
  895SOL     OW33178   2.126   5.286  12.448
  895SOL    HW133179   2.096   5.343  12.524
  895SOL    HW233180   2.119   5.189  12.474
  896SOL     OW33181   3.988   1.562  12.448
  896SOL    HW133182   3.958   1.619  12.524
  896SOL    HW233183   3.981   1.465  12.474
  897SOL     OW33184   3.988   3.424  12.448
  897SOL    HW133185   3.958   3.481  12.524
  897SOL    HW233186   3.981   3.327  12.474
  898SOL     OW33187   3.988   5.286  12.448
  898SOL    HW133188   3.958   5.343  12.524
  898SOL    HW233189   3.981   5.189  12.474
  899SOL     OW33190   5.850   1.562  12.448
  899SOL    HW133191   5.820   1.619  12.524
  899SOL    HW233192   5.843   1.465  12.474
  900SOL     OW33193   5.850   3.424  12.448
  900SOL    HW133194   5.820   3.481  12.524
  900SOL    HW233195   5.843   3.327  12.474
  901SOL     OW33196   5.850   5.286  12.448
  901SOL    HW133197   5.820   5.343  12.524
  901SOL    HW233198   5.843   5.189  12.474
  902SOL     OW33199   1.441   1.171   0.399
  902SOL    HW133200   1.386   1.087   0.392
  902SOL    HW233201   1.467   1.200   0.307
  903SOL     OW33202   1.441   3.033   0.399
  903SOL    HW133203   1.386   2.949   0.392
  903SOL    HW233204   1.467   3.062   0.307
  904SOL     OW33205   1.441   4.895   0.399
  904SOL    HW133206   1.386   4.811   0.392
  904SOL    HW233207   1.467   4.924   0.307
  905SOL     OW33208   3.303   1.171   0.399
  905SOL    HW133209   3.248   1.087   0.392
  905SOL    HW233210   3.329   1.200   0.307
  906SOL     OW33211   3.303   3.033   0.399
  906SOL    HW133212   3.248   2.949   0.392
  906SOL    HW233213   3.329   3.062   0.307
  907SOL     OW33214   3.303   4.895   0.399
  907SOL    HW133215   3.248   4.811   0.392
  907SOL    HW233216   3.329   4.924   0.307
  908SOL     OW33217   5.165   1.171   0.399
  908SOL    HW133218   5.110   1.087   0.392
  908SOL    HW233219   5.191   1.200   0.307
  909SOL     OW33220   5.165   3.033   0.399
  909SOL    HW133221   5.110   2.949   0.392
  909SOL    HW233222   5.191   3.062   0.307
  910SOL     OW33223   5.165   4.895   0.399
  910SOL    HW133224   5.110   4.811   0.392
  910SOL    HW233225   5.191   4.924   0.307
  911SOL     OW33226   0.516   0.048  12.444
  911SOL    HW133227   0.474   6.441  12.374
  911SOL    HW233228   0.450   0.117  12.476
  912SOL     OW33229   0.516   1.910  12.444
  912SOL    HW133230   0.474   1.853  12.374
  912SOL    HW233231   0.450   1.979  12.476
  913SOL     OW33232   0.516   3.772  12.444
  913SOL    HW133233   0.474   3.715  12.374
  913SOL    HW233234   0.450   3.841  12.476
  914SOL     OW33235   0.516   5.634  12.444
  914SOL    HW133236   0.474   5.577  12.374
  914SOL    HW233237   0.450   5.703  12.476
  915SOL     OW33238   2.378   0.048  12.444
  915SOL    HW133239   2.336   6.441  12.374
  915SOL    HW233240   2.312   0.117  12.476
  916SOL     OW33241   2.378   1.910  12.444
  916SOL    HW133242   2.336   1.853  12.374
  916SOL    HW233243   2.312   1.979  12.476
  917SOL     OW33244   2.378   3.772  12.444
  917SOL    HW133245   2.336   3.715  12.374
  917SOL    HW233246   2.312   3.841  12.476
  918SOL     OW33247   2.378   5.634  12.444
  918SOL    HW133248   2.336   5.577  12.374
  918SOL    HW233249   2.312   5.703  12.476
  919SOL     OW33250   4.240   0.048  12.444
  919SOL    HW133251   4.198   6.441  12.374
  919SOL    HW233252   4.174   0.117  12.476
  920SOL     OW33253   4.240   1.910  12.444
  920SOL    HW133254   4.198   1.853  12.374
  920SOL    HW233255   4.174   1.979  12.476
  921SOL     OW33256   4.240   3.772  12.444
  921SOL    HW133257   4.198   3.715  12.374
  921SOL    HW233258   4.174   3.841  12.476
  922SOL     OW33259   4.240   5.634  12.444
  922SOL    HW133260   4.198   5.577  12.374
  922SOL    HW233261   4.174   5.703  12.476
  923SOL     OW33262   6.102   0.048  12.444
  923SOL    HW133263   6.060   6.441  12.374
  923SOL    HW233264   6.036   0.117  12.476
  924SOL     OW33265   6.102   1.910  12.444
  924SOL    HW133266   6.060   1.853  12.374
  924SOL    HW233267   6.036   1.979  12.476
  925SOL     OW33268   6.102   3.772  12.444
  925SOL    HW133269   6.060   3.715  12.374
  925SOL    HW233270   6.036   3.841  12.476
  926SOL     OW33271   6.102   5.634  12.444
  926SOL    HW133272   6.060   5.577  12.374
  926SOL    HW233273   6.036   5.703  12.476
  927SOL     OW33274   1.807   1.064   0.405
  927SOL    HW133275   1.745   1.049   0.329
  927SOL    HW233276   1.755   1.075   0.490
  928SOL     OW33277   1.807   2.926   0.405
  928SOL    HW133278   1.745   2.911   0.329
  928SOL    HW233279   1.755   2.937   0.490
  929SOL     OW33280   1.807   4.788   0.405
  929SOL    HW133281   1.745   4.773   0.329
  929SOL    HW233282   1.755   4.799   0.490
  930SOL     OW33283   3.669   1.064   0.405
  930SOL    HW133284   3.607   1.049   0.329
  930SOL    HW233285   3.617   1.075   0.490
  931SOL     OW33286   3.669   2.926   0.405
  931SOL    HW133287   3.607   2.911   0.329
  931SOL    HW233288   3.617   2.937   0.490
  932SOL     OW33289   3.669   4.788   0.405
  932SOL    HW133290   3.607   4.773   0.329
  932SOL    HW233291   3.617   4.799   0.490
  933SOL     OW33292   5.531   1.064   0.405
  933SOL    HW133293   5.469   1.049   0.329
  933SOL    HW233294   5.479   1.075   0.490
  934SOL     OW33295   5.531   2.926   0.405
  934SOL    HW133296   5.469   2.911   0.329
  934SOL    HW233297   5.479   2.937   0.490
  935SOL     OW33298   5.531   4.788   0.405
  935SOL    HW133299   5.469   4.773   0.329
  935SOL    HW233300   5.479   4.799   0.490
  936SOL     OW33301   1.559   0.220  12.433
  936SOL    HW133302   1.554   0.257  12.525
  936SOL    HW233303   1.487   0.151  12.421
  937SOL     OW33304   1.559   2.082  12.433
  937SOL    HW133305   1.554   2.119  12.525
  937SOL    HW233306   1.487   2.013  12.421
  938SOL     OW33307   1.559   3.944  12.433
  938SOL    HW133308   1.554   3.981  12.525
  938SOL    HW233309   1.487   3.875  12.421
  939SOL     OW33310   1.559   5.806  12.433
  939SOL    HW133311   1.554   5.843  12.525
  939SOL    HW233312   1.487   5.737  12.421
  940SOL     OW33313   3.421   0.220  12.433
  940SOL    HW133314   3.416   0.257  12.525
  940SOL    HW233315   3.349   0.151  12.421
  941SOL     OW33316   3.421   2.082  12.433
  941SOL    HW133317   3.416   2.119  12.525
  941SOL    HW233318   3.349   2.013  12.421
  942SOL     OW33319   3.421   3.944  12.433
  942SOL    HW133320   3.416   3.981  12.525
  942SOL    HW233321   3.349   3.875  12.421
  943SOL     OW33322   3.421   5.806  12.433
  943SOL    HW133323   3.416   5.843  12.525
  943SOL    HW233324   3.349   5.737  12.421
  944SOL     OW33325   5.283   0.220  12.433
  944SOL    HW133326   5.278   0.257  12.525
  944SOL    HW233327   5.211   0.151  12.421
  945SOL     OW33328   5.283   2.082  12.433
  945SOL    HW133329   5.278   2.119  12.525
  945SOL    HW233330   5.211   2.013  12.421
  946SOL     OW33331   5.283   3.944  12.433
  946SOL    HW133332   5.278   3.981  12.525
  946SOL    HW233333   5.211   3.875  12.421
  947SOL     OW33334   5.283   5.806  12.433
  947SOL    HW133335   5.278   5.843  12.525
  947SOL    HW233336   5.211   5.737  12.421
  948SOL     OW33337   1.605   0.219   0.414
  948SOL    HW133338   1.521   0.218   0.468
  948SOL    HW233339   1.607   0.302   0.358
  949SOL     OW33340   1.605   2.081   0.414
  949SOL    HW133341   1.521   2.080   0.468
  949SOL    HW233342   1.607   2.164   0.358
  950SOL     OW33343   1.605   3.943   0.414
  950SOL    HW133344   1.521   3.942   0.468
  950SOL    HW233345   1.607   4.026   0.358
  951SOL     OW33346   1.605   5.805   0.414
  951SOL    HW133347   1.521   5.804   0.468
  951SOL    HW233348   1.607   5.888   0.358
  952SOL     OW33349   3.467   0.219   0.414
  952SOL    HW133350   3.383   0.218   0.468
  952SOL    HW233351   3.469   0.302   0.358
  953SOL     OW33352   3.467   2.081   0.414
  953SOL    HW133353   3.383   2.080   0.468
  953SOL    HW233354   3.469   2.164   0.358
  954SOL     OW33355   3.467   3.943   0.414
  954SOL    HW133356   3.383   3.942   0.468
  954SOL    HW233357   3.469   4.026   0.358
  955SOL     OW33358   3.467   5.805   0.414
  955SOL    HW133359   3.383   5.804   0.468
  955SOL    HW233360   3.469   5.888   0.358
  956SOL     OW33361   5.329   0.219   0.414
  956SOL    HW133362   5.245   0.218   0.468
  956SOL    HW233363   5.331   0.302   0.358
  957SOL     OW33364   5.329   2.081   0.414
  957SOL    HW133365   5.245   2.080   0.468
  957SOL    HW233366   5.331   2.164   0.358
  958SOL     OW33367   5.329   3.943   0.414
  958SOL    HW133368   5.245   3.942   0.468
  958SOL    HW233369   5.331   4.026   0.358
  959SOL     OW33370   5.329   5.805   0.414
  959SOL    HW133371   5.245   5.804   0.468
  959SOL    HW233372   5.331   5.888   0.358
  960SOL     OW33373   0.473   1.264  12.431
  960SOL    HW133374   0.423   1.265  12.345
  960SOL    HW233375   0.410   1.246  12.507
  961SOL     OW33376   0.473   3.126  12.431
  961SOL    HW133377   0.423   3.127  12.345
  961SOL    HW233378   0.410   3.108  12.507
  962SOL     OW33379   0.473   4.988  12.431
  962SOL    HW133380   0.423   4.989  12.345
  962SOL    HW233381   0.410   4.970  12.507
  963SOL     OW33382   2.335   1.264  12.431
  963SOL    HW133383   2.285   1.265  12.345
  963SOL    HW233384   2.272   1.246  12.507
  964SOL     OW33385   2.335   3.126  12.431
  964SOL    HW133386   2.285   3.127  12.345
  964SOL    HW233387   2.272   3.108  12.507
  965SOL     OW33388   2.335   4.988  12.431
  965SOL    HW133389   2.285   4.989  12.345
  965SOL    HW233390   2.272   4.970  12.507
  966SOL     OW33391   4.197   1.264  12.431
  966SOL    HW133392   4.147   1.265  12.345
  966SOL    HW233393   4.134   1.246  12.507
  967SOL     OW33394   4.197   3.126  12.431
  967SOL    HW133395   4.147   3.127  12.345
  967SOL    HW233396   4.134   3.108  12.507
  968SOL     OW33397   4.197   4.988  12.431
  968SOL    HW133398   4.147   4.989  12.345
  968SOL    HW233399   4.134   4.970  12.507
  969SOL     OW33400   6.059   1.264  12.431
  969SOL    HW133401   6.009   1.265  12.345
  969SOL    HW233402   5.996   1.246  12.507
  970SOL     OW33403   6.059   3.126  12.431
  970SOL    HW133404   6.009   3.127  12.345
  970SOL    HW233405   5.996   3.108  12.507
  971SOL     OW33406   6.059   4.988  12.431
  971SOL    HW133407   6.009   4.989  12.345
  971SOL    HW233408   5.996   4.970  12.507
  972SOL     OW33409   0.117   1.011  12.430
  972SOL    HW133410   0.040   0.978  12.484
  972SOL    HW233411   0.202   0.981  12.472
  973SOL     OW33412   0.117   2.873  12.430
  973SOL    HW133413   0.040   2.840  12.484
  973SOL    HW233414   0.202   2.843  12.472
  974SOL     OW33415   0.117   4.735  12.430
  974SOL    HW133416   0.040   4.702  12.484
  974SOL    HW233417   0.202   4.705  12.472
  975SOL     OW33418   0.117   0.147  12.430
  975SOL    HW133419   0.040   0.114  12.484
  975SOL    HW233420   0.202   0.117  12.472
  976SOL     OW33421   1.979   1.011  12.430
  976SOL    HW133422   1.902   0.978  12.484
  976SOL    HW233423   2.064   0.981  12.472
  977SOL     OW33424   1.979   2.873  12.430
  977SOL    HW133425   1.902   2.840  12.484
  977SOL    HW233426   2.064   2.843  12.472
  978SOL     OW33427   1.979   4.735  12.430
  978SOL    HW133428   1.902   4.702  12.484
  978SOL    HW233429   2.064   4.705  12.472
  979SOL     OW33430   1.979   0.147  12.430
  979SOL    HW133431   1.902   0.114  12.484
  979SOL    HW233432   2.064   0.117  12.472
  980SOL     OW33433   3.841   1.011  12.430
  980SOL    HW133434   3.764   0.978  12.484
  980SOL    HW233435   3.926   0.981  12.472
  981SOL     OW33436   3.841   2.873  12.430
  981SOL    HW133437   3.764   2.840  12.484
  981SOL    HW233438   3.926   2.843  12.472
  982SOL     OW33439   3.841   4.735  12.430
  982SOL    HW133440   3.764   4.702  12.484
  982SOL    HW233441   3.926   4.705  12.472
  983SOL     OW33442   3.841   0.147  12.430
  983SOL    HW133443   3.764   0.114  12.484
  983SOL    HW233444   3.926   0.117  12.472
  984SOL     OW33445   5.703   1.011  12.430
  984SOL    HW133446   5.626   0.978  12.484
  984SOL    HW233447   5.788   0.981  12.472
  985SOL     OW33448   5.703   2.873  12.430
  985SOL    HW133449   5.626   2.840  12.484
  985SOL    HW233450   5.788   2.843  12.472
  986SOL     OW33451   5.703   4.735  12.430
  986SOL    HW133452   5.626   4.702  12.484
  986SOL    HW233453   5.788   4.705  12.472
  987SOL     OW33454   5.703   0.147  12.430
  987SOL    HW133455   5.626   0.114  12.484
  987SOL    HW233456   5.788   0.117  12.472
  988SOL     OW33457   0.562   0.194   0.417
  988SOL    HW133458   0.557   0.189   0.517
  988SOL    HW233459   0.564   0.290   0.388
  989SOL     OW33460   0.562   2.056   0.417
  989SOL    HW133461   0.557   2.051   0.517
  989SOL    HW233462   0.564   2.152   0.388
  990SOL     OW33463   0.562   3.918   0.417
  990SOL    HW133464   0.557   3.913   0.517
  990SOL    HW233465   0.564   4.014   0.388
  991SOL     OW33466   0.562   5.780   0.417
  991SOL    HW133467   0.557   5.775   0.517
  991SOL    HW233468   0.564   5.876   0.388
  992SOL     OW33469   2.424   0.194   0.417
  992SOL    HW133470   2.419   0.189   0.517
  992SOL    HW233471   2.426   0.290   0.388
  993SOL     OW33472   2.424   2.056   0.417
  993SOL    HW133473   2.419   2.051   0.517
  993SOL    HW233474   2.426   2.152   0.388
  994SOL     OW33475   2.424   3.918   0.417
  994SOL    HW133476   2.419   3.913   0.517
  994SOL    HW233477   2.426   4.014   0.388
  995SOL     OW33478   2.424   5.780   0.417
  995SOL    HW133479   2.419   5.775   0.517
  995SOL    HW233480   2.426   5.876   0.388
  996SOL     OW33481   4.286   0.194   0.417
  996SOL    HW133482   4.281   0.189   0.517
  996SOL    HW233483   4.288   0.290   0.388
  997SOL     OW33484   4.286   2.056   0.417
  997SOL    HW133485   4.281   2.051   0.517
  997SOL    HW233486   4.288   2.152   0.388
  998SOL     OW33487   4.286   3.918   0.417
  998SOL    HW133488   4.281   3.913   0.517
  998SOL    HW233489   4.288   4.014   0.388
  999SOL     OW33490   4.286   5.780   0.417
  999SOL    HW133491   4.281   5.775   0.517
  999SOL    HW233492   4.288   5.876   0.388
 1000SOL     OW33493   6.148   0.194   0.417
 1000SOL    HW133494   6.143   0.189   0.517
 1000SOL    HW233495   6.150   0.290   0.388
 1001SOL     OW33496   6.148   2.056   0.417
 1001SOL    HW133497   6.143   2.051   0.517
 1001SOL    HW233498   6.150   2.152   0.388
 1002SOL     OW33499   6.148   3.918   0.417
 1002SOL    HW133500   6.143   3.913   0.517
 1002SOL    HW233501   6.150   4.014   0.388
 1003SOL     OW33502   6.148   5.780   0.417
 1003SOL    HW133503   6.143   5.775   0.517
 1003SOL    HW233504   6.150   5.876   0.388
 1004SOL     OW33505   0.252   1.089   0.418
 1004SOL    HW133506   0.266   1.005   0.470
 1004SOL    HW233507   0.197   1.153   0.473
 1005SOL     OW33508   0.252   2.951   0.418
 1005SOL    HW133509   0.266   2.867   0.470
 1005SOL    HW233510   0.197   3.015   0.473
 1006SOL     OW33511   0.252   4.813   0.418
 1006SOL    HW133512   0.266   4.729   0.470
 1006SOL    HW233513   0.197   4.877   0.473
 1007SOL     OW33514   2.114   1.089   0.418
 1007SOL    HW133515   2.128   1.005   0.470
 1007SOL    HW233516   2.059   1.153   0.473
 1008SOL     OW33517   2.114   2.951   0.418
 1008SOL    HW133518   2.128   2.867   0.470
 1008SOL    HW233519   2.059   3.015   0.473
 1009SOL     OW33520   2.114   4.813   0.418
 1009SOL    HW133521   2.128   4.729   0.470
 1009SOL    HW233522   2.059   4.877   0.473
 1010SOL     OW33523   3.976   1.089   0.418
 1010SOL    HW133524   3.990   1.005   0.470
 1010SOL    HW233525   3.921   1.153   0.473
 1011SOL     OW33526   3.976   2.951   0.418
 1011SOL    HW133527   3.990   2.867   0.470
 1011SOL    HW233528   3.921   3.015   0.473
 1012SOL     OW33529   3.976   4.813   0.418
 1012SOL    HW133530   3.990   4.729   0.470
 1012SOL    HW233531   3.921   4.877   0.473
 1013SOL     OW33532   5.838   1.089   0.418
 1013SOL    HW133533   5.852   1.005   0.470
 1013SOL    HW233534   5.783   1.153   0.473
 1014SOL     OW33535   5.838   2.951   0.418
 1014SOL    HW133536   5.852   2.867   0.470
 1014SOL    HW233537   5.783   3.015   0.473
 1015SOL     OW33538   5.838   4.813   0.418
 1015SOL    HW133539   5.852   4.729   0.470
 1015SOL    HW233540   5.783   4.877   0.473
 1016SOL     OW33541   0.201   0.518  12.426
 1016SOL    HW133542   0.260   0.478  12.356
 1016SOL    HW233543   0.143   0.589  12.385
 1017SOL     OW33544   0.201   2.380  12.426
 1017SOL    HW133545   0.260   2.340  12.356
 1017SOL    HW233546   0.143   2.451  12.385
 1018SOL     OW33547   0.201   4.242  12.426
 1018SOL    HW133548   0.260   4.202  12.356
 1018SOL    HW233549   0.143   4.313  12.385
 1019SOL     OW33550   0.201   6.104  12.426
 1019SOL    HW133551   0.260   6.064  12.356
 1019SOL    HW233552   0.143   6.175  12.385
 1020SOL     OW33553   2.063   0.518  12.426
 1020SOL    HW133554   2.122   0.478  12.356
 1020SOL    HW233555   2.005   0.589  12.385
 1021SOL     OW33556   2.063   2.380  12.426
 1021SOL    HW133557   2.122   2.340  12.356
 1021SOL    HW233558   2.005   2.451  12.385
 1022SOL     OW33559   2.063   4.242  12.426
 1022SOL    HW133560   2.122   4.202  12.356
 1022SOL    HW233561   2.005   4.313  12.385
 1023SOL     OW33562   2.063   6.104  12.426
 1023SOL    HW133563   2.122   6.064  12.356
 1023SOL    HW233564   2.005   6.175  12.385
 1024SOL     OW33565   3.925   0.518  12.426
 1024SOL    HW133566   3.984   0.478  12.356
 1024SOL    HW233567   3.867   0.589  12.385
 1025SOL     OW33568   3.925   2.380  12.426
 1025SOL    HW133569   3.984   2.340  12.356
 1025SOL    HW233570   3.867   2.451  12.385
 1026SOL     OW33571   3.925   4.242  12.426
 1026SOL    HW133572   3.984   4.202  12.356
 1026SOL    HW233573   3.867   4.313  12.385
 1027SOL     OW33574   3.925   6.104  12.426
 1027SOL    HW133575   3.984   6.064  12.356
 1027SOL    HW233576   3.867   6.175  12.385
 1028SOL     OW33577   5.787   0.518  12.426
 1028SOL    HW133578   5.846   0.478  12.356
 1028SOL    HW233579   5.729   0.589  12.385
 1029SOL     OW33580   5.787   2.380  12.426
 1029SOL    HW133581   5.846   2.340  12.356
 1029SOL    HW233582   5.729   2.451  12.385
 1030SOL     OW33583   5.787   4.242  12.426
 1030SOL    HW133584   5.846   4.202  12.356
 1030SOL    HW233585   5.729   4.313  12.385
 1031SOL     OW33586   5.787   6.104  12.426
 1031SOL    HW133587   5.846   6.064  12.356
 1031SOL    HW233588   5.729   6.175  12.385
 1032SOL     OW33589   0.992   1.114  12.423
 1032SOL    HW133590   0.893   1.120  12.433
 1032SOL    HW233591   1.015   1.034  12.367
 1033SOL     OW33592   0.992   2.976  12.423
 1033SOL    HW133593   0.893   2.982  12.433
 1033SOL    HW233594   1.015   2.896  12.367
 1034SOL     OW33595   0.992   4.838  12.423
 1034SOL    HW133596   0.893   4.844  12.433
 1034SOL    HW233597   1.015   4.758  12.367
 1035SOL     OW33598   2.854   1.114  12.423
 1035SOL    HW133599   2.755   1.120  12.433
 1035SOL    HW233600   2.877   1.034  12.367
 1036SOL     OW33601   2.854   2.976  12.423
 1036SOL    HW133602   2.755   2.982  12.433
 1036SOL    HW233603   2.877   2.896  12.367
 1037SOL     OW33604   2.854   4.838  12.423
 1037SOL    HW133605   2.755   4.844  12.433
 1037SOL    HW233606   2.877   4.758  12.367
 1038SOL     OW33607   4.716   1.114  12.423
 1038SOL    HW133608   4.617   1.120  12.433
 1038SOL    HW233609   4.739   1.034  12.367
 1039SOL     OW33610   4.716   2.976  12.423
 1039SOL    HW133611   4.617   2.982  12.433
 1039SOL    HW233612   4.739   2.896  12.367
 1040SOL     OW33613   4.716   4.838  12.423
 1040SOL    HW133614   4.617   4.844  12.433
 1040SOL    HW233615   4.739   4.758  12.367
 1041SOL     OW33616   0.700   1.660  12.420
 1041SOL    HW133617   0.644   1.741  12.429
 1041SOL    HW233618   0.752   1.664  12.334
 1042SOL     OW33619   0.700   3.522  12.420
 1042SOL    HW133620   0.644   3.603  12.429
 1042SOL    HW233621   0.752   3.526  12.334
 1043SOL     OW33622   0.700   5.384  12.420
 1043SOL    HW133623   0.644   5.465  12.429
 1043SOL    HW233624   0.752   5.388  12.334
 1044SOL     OW33625   2.562   1.660  12.420
 1044SOL    HW133626   2.506   1.741  12.429
 1044SOL    HW233627   2.614   1.664  12.334
 1045SOL     OW33628   2.562   3.522  12.420
 1045SOL    HW133629   2.506   3.603  12.429
 1045SOL    HW233630   2.614   3.526  12.334
 1046SOL     OW33631   2.562   5.384  12.420
 1046SOL    HW133632   2.506   5.465  12.429
 1046SOL    HW233633   2.614   5.388  12.334
 1047SOL     OW33634   4.424   1.660  12.420
 1047SOL    HW133635   4.368   1.741  12.429
 1047SOL    HW233636   4.476   1.664  12.334
 1048SOL     OW33637   4.424   3.522  12.420
 1048SOL    HW133638   4.368   3.603  12.429
 1048SOL    HW233639   4.476   3.526  12.334
 1049SOL     OW33640   4.424   5.384  12.420
 1049SOL    HW133641   4.368   5.465  12.429
 1049SOL    HW233642   4.476   5.388  12.334
 1050SOL     OW33643   6.286   1.660  12.420
 1050SOL    HW133644   6.230   1.741  12.429
 1050SOL    HW233645   6.338   1.664  12.334
 1051SOL     OW33646   6.286   3.522  12.420
 1051SOL    HW133647   6.230   3.603  12.429
 1051SOL    HW233648   6.338   3.526  12.334
 1052SOL     OW33649   6.286   5.384  12.420
 1052SOL    HW133650   6.230   5.465  12.429
 1052SOL    HW233651   6.338   5.388  12.334
 1053SOL     OW33652   0.934   0.501   0.431
 1053SOL    HW133653   0.909   0.492   0.335
 1053SOL    HW233654   0.982   0.419   0.462
 1054SOL     OW33655   0.934   2.363   0.431
 1054SOL    HW133656   0.909   2.354   0.335
 1054SOL    HW233657   0.982   2.281   0.462
 1055SOL     OW33658   0.934   4.225   0.431
 1055SOL    HW133659   0.909   4.216   0.335
 1055SOL    HW233660   0.982   4.143   0.462
 1056SOL     OW33661   0.934   6.087   0.431
 1056SOL    HW133662   0.909   6.078   0.335
 1056SOL    HW233663   0.982   6.005   0.462
 1057SOL     OW33664   2.796   0.501   0.431
 1057SOL    HW133665   2.771   0.492   0.335
 1057SOL    HW233666   2.844   0.419   0.462
 1058SOL     OW33667   2.796   2.363   0.431
 1058SOL    HW133668   2.771   2.354   0.335
 1058SOL    HW233669   2.844   2.281   0.462
 1059SOL     OW33670   2.796   4.225   0.431
 1059SOL    HW133671   2.771   4.216   0.335
 1059SOL    HW233672   2.844   4.143   0.462
 1060SOL     OW33673   2.796   6.087   0.431
 1060SOL    HW133674   2.771   6.078   0.335
 1060SOL    HW233675   2.844   6.005   0.462
 1061SOL     OW33676   4.658   0.501   0.431
 1061SOL    HW133677   4.633   0.492   0.335
 1061SOL    HW233678   4.706   0.419   0.462
 1062SOL     OW33679   4.658   2.363   0.431
 1062SOL    HW133680   4.633   2.354   0.335
 1062SOL    HW233681   4.706   2.281   0.462
 1063SOL     OW33682   4.658   4.225   0.431
 1063SOL    HW133683   4.633   4.216   0.335
 1063SOL    HW233684   4.706   4.143   0.462
 1064SOL     OW33685   4.658   6.087   0.431
 1064SOL    HW133686   4.633   6.078   0.335
 1064SOL    HW233687   4.706   6.005   0.462
 1065SOL     OW33688   0.070   0.501   0.431
 1065SOL    HW133689   0.045   0.492   0.335
 1065SOL    HW233690   0.118   0.419   0.462
 1066SOL     OW33691   0.070   2.363   0.431
 1066SOL    HW133692   0.045   2.354   0.335
 1066SOL    HW233693   0.118   2.281   0.462
 1067SOL     OW33694   0.070   4.225   0.431
 1067SOL    HW133695   0.045   4.216   0.335
 1067SOL    HW233696   0.118   4.143   0.462
 1068SOL     OW33697   0.070   6.087   0.431
 1068SOL    HW133698   0.045   6.078   0.335
 1068SOL    HW233699   0.118   6.005   0.462
 1069SOL     OW33700   0.728   0.563  12.412
 1069SOL    HW133701   0.747   0.628  12.486
 1069SOL    HW233702   0.788   0.483  12.421
 1070SOL     OW33703   0.728   2.425  12.412
 1070SOL    HW133704   0.747   2.490  12.486
 1070SOL    HW233705   0.788   2.345  12.421
 1071SOL     OW33706   0.728   4.287  12.412
 1071SOL    HW133707   0.747   4.352  12.486
 1071SOL    HW233708   0.788   4.207  12.421
 1072SOL     OW33709   0.728   6.149  12.412
 1072SOL    HW133710   0.747   6.214  12.486
 1072SOL    HW233711   0.788   6.069  12.421
 1073SOL     OW33712   2.590   0.563  12.412
 1073SOL    HW133713   2.609   0.628  12.486
 1073SOL    HW233714   2.650   0.483  12.421
 1074SOL     OW33715   2.590   2.425  12.412
 1074SOL    HW133716   2.609   2.490  12.486
 1074SOL    HW233717   2.650   2.345  12.421
 1075SOL     OW33718   2.590   4.287  12.412
 1075SOL    HW133719   2.609   4.352  12.486
 1075SOL    HW233720   2.650   4.207  12.421
 1076SOL     OW33721   2.590   6.149  12.412
 1076SOL    HW133722   2.609   6.214  12.486
 1076SOL    HW233723   2.650   6.069  12.421
 1077SOL     OW33724   4.452   0.563  12.412
 1077SOL    HW133725   4.471   0.628  12.486
 1077SOL    HW233726   4.512   0.483  12.421
 1078SOL     OW33727   4.452   2.425  12.412
 1078SOL    HW133728   4.471   2.490  12.486
 1078SOL    HW233729   4.512   2.345  12.421
 1079SOL     OW33730   4.452   4.287  12.412
 1079SOL    HW133731   4.471   4.352  12.486
 1079SOL    HW233732   4.512   4.207  12.421
 1080SOL     OW33733   4.452   6.149  12.412
 1080SOL    HW133734   4.471   6.214  12.486
 1080SOL    HW233735   4.512   6.069  12.421
 1081SOL     OW33736   6.314   0.563  12.412
 1081SOL    HW133737   6.333   0.628  12.486
 1081SOL    HW233738   6.374   0.483  12.421
 1082SOL     OW33739   6.314   2.425  12.412
 1082SOL    HW133740   6.333   2.490  12.486
 1082SOL    HW233741   6.374   2.345  12.421
 1083SOL     OW33742   6.314   4.287  12.412
 1083SOL    HW133743   6.333   4.352  12.486
 1083SOL    HW233744   6.374   4.207  12.421
 1084SOL     OW33745   6.314   6.149  12.412
 1084SOL    HW133746   6.333   6.214  12.486
 1084SOL    HW233747   6.374   6.069  12.421
 1085SOL     OW33748   0.952   1.696   0.436
 1085SOL    HW133749   1.032   1.639   0.457
 1085SOL    HW233750   0.903   1.656   0.359
 1086SOL     OW33751   0.952   3.558   0.436
 1086SOL    HW133752   1.032   3.501   0.457
 1086SOL    HW233753   0.903   3.518   0.359
 1087SOL     OW33754   0.952   5.420   0.436
 1087SOL    HW133755   1.032   5.363   0.457
 1087SOL    HW233756   0.903   5.380   0.359
 1088SOL     OW33757   2.814   1.696   0.436
 1088SOL    HW133758   2.894   1.639   0.457
 1088SOL    HW233759   2.765   1.656   0.359
 1089SOL     OW33760   2.814   3.558   0.436
 1089SOL    HW133761   2.894   3.501   0.457
 1089SOL    HW233762   2.765   3.518   0.359
 1090SOL     OW33763   2.814   5.420   0.436
 1090SOL    HW133764   2.894   5.363   0.457
 1090SOL    HW233765   2.765   5.380   0.359
 1091SOL     OW33766   4.676   1.696   0.436
 1091SOL    HW133767   4.756   1.639   0.457
 1091SOL    HW233768   4.627   1.656   0.359
 1092SOL     OW33769   4.676   3.558   0.436
 1092SOL    HW133770   4.756   3.501   0.457
 1092SOL    HW233771   4.627   3.518   0.359
 1093SOL     OW33772   4.676   5.420   0.436
 1093SOL    HW133773   4.756   5.363   0.457
 1093SOL    HW233774   4.627   5.380   0.359
 1094SOL     OW33775   0.992   1.571  12.404
 1094SOL    HW133776   0.972   1.615  12.316
 1094SOL    HW233777   1.031   1.480  12.388
 1095SOL     OW33778   0.992   3.433  12.404
 1095SOL    HW133779   0.972   3.477  12.316
 1095SOL    HW233780   1.031   3.342  12.388
 1096SOL     OW33781   0.992   5.295  12.404
 1096SOL    HW133782   0.972   5.339  12.316
 1096SOL    HW233783   1.031   5.204  12.388
 1097SOL     OW33784   2.854   1.571  12.404
 1097SOL    HW133785   2.834   1.615  12.316
 1097SOL    HW233786   2.893   1.480  12.388
 1098SOL     OW33787   2.854   3.433  12.404
 1098SOL    HW133788   2.834   3.477  12.316
 1098SOL    HW233789   2.893   3.342  12.388
 1099SOL     OW33790   2.854   5.295  12.404
 1099SOL    HW133791   2.834   5.339  12.316
 1099SOL    HW233792   2.893   5.204  12.388
 1100SOL     OW33793   4.716   1.571  12.404
 1100SOL    HW133794   4.696   1.615  12.316
 1100SOL    HW233795   4.755   1.480  12.388
 1101SOL     OW33796   4.716   3.433  12.404
 1101SOL    HW133797   4.696   3.477  12.316
 1101SOL    HW233798   4.755   3.342  12.388
 1102SOL     OW33799   4.716   5.295  12.404
 1102SOL    HW133800   4.696   5.339  12.316
 1102SOL    HW233801   4.755   5.204  12.388
 1103SOL     OW33802   0.516   1.566   0.442
 1103SOL    HW133803   0.582   1.640   0.451
 1103SOL    HW233804   0.560   1.487   0.400
 1104SOL     OW33805   0.516   3.428   0.442
 1104SOL    HW133806   0.582   3.502   0.451
 1104SOL    HW233807   0.560   3.349   0.400
 1105SOL     OW33808   0.516   5.290   0.442
 1105SOL    HW133809   0.582   5.364   0.451
 1105SOL    HW233810   0.560   5.211   0.400
 1106SOL     OW33811   2.378   1.566   0.442
 1106SOL    HW133812   2.444   1.640   0.451
 1106SOL    HW233813   2.422   1.487   0.400
 1107SOL     OW33814   2.378   3.428   0.442
 1107SOL    HW133815   2.444   3.502   0.451
 1107SOL    HW233816   2.422   3.349   0.400
 1108SOL     OW33817   2.378   5.290   0.442
 1108SOL    HW133818   2.444   5.364   0.451
 1108SOL    HW233819   2.422   5.211   0.400
 1109SOL     OW33820   4.240   1.566   0.442
 1109SOL    HW133821   4.306   1.640   0.451
 1109SOL    HW233822   4.284   1.487   0.400
 1110SOL     OW33823   4.240   3.428   0.442
 1110SOL    HW133824   4.306   3.502   0.451
 1110SOL    HW233825   4.284   3.349   0.400
 1111SOL     OW33826   4.240   5.290   0.442
 1111SOL    HW133827   4.306   5.364   0.451
 1111SOL    HW233828   4.284   5.211   0.400
 1112SOL     OW33829   6.102   1.566   0.442
 1112SOL    HW133830   6.168   1.640   0.451
 1112SOL    HW233831   6.146   1.487   0.400
 1113SOL     OW33832   6.102   3.428   0.442
 1113SOL    HW133833   6.168   3.502   0.451
 1113SOL    HW233834   6.146   3.349   0.400
 1114SOL     OW33835   6.102   5.290   0.442
 1114SOL    HW133836   6.168   5.364   0.451
 1114SOL    HW233837   6.146   5.211   0.400
 1115SOL     OW33838   1.139   1.339  12.394
 1115SOL    HW133839   1.186   1.339  12.482
 1115SOL    HW233840   1.091   1.252  12.383
 1116SOL     OW33841   1.139   3.201  12.394
 1116SOL    HW133842   1.186   3.201  12.482
 1116SOL    HW233843   1.091   3.114  12.383
 1117SOL     OW33844   1.139   5.063  12.394
 1117SOL    HW133845   1.186   5.063  12.482
 1117SOL    HW233846   1.091   4.976  12.383
 1118SOL     OW33847   3.001   1.339  12.394
 1118SOL    HW133848   3.048   1.339  12.482
 1118SOL    HW233849   2.953   1.252  12.383
 1119SOL     OW33850   3.001   3.201  12.394
 1119SOL    HW133851   3.048   3.201  12.482
 1119SOL    HW233852   2.953   3.114  12.383
 1120SOL     OW33853   3.001   5.063  12.394
 1120SOL    HW133854   3.048   5.063  12.482
 1120SOL    HW233855   2.953   4.976  12.383
 1121SOL     OW33856   4.863   1.339  12.394
 1121SOL    HW133857   4.910   1.339  12.482
 1121SOL    HW233858   4.815   1.252  12.383
 1122SOL     OW33859   4.863   3.201  12.394
 1122SOL    HW133860   4.910   3.201  12.482
 1122SOL    HW233861   4.815   3.114  12.383
 1123SOL     OW33862   4.863   5.063  12.394
 1123SOL    HW133863   4.910   5.063  12.482
 1123SOL    HW233864   4.815   4.976  12.383
 1124SOL     OW33865   0.815   1.400   0.456
 1124SOL    HW133866   0.905   1.414   0.414
 1124SOL    HW233867   0.744   1.402   0.385
 1125SOL     OW33868   0.815   3.262   0.456
 1125SOL    HW133869   0.905   3.276   0.414
 1125SOL    HW233870   0.744   3.264   0.385
 1126SOL     OW33871   0.815   5.124   0.456
 1126SOL    HW133872   0.905   5.138   0.414
 1126SOL    HW233873   0.744   5.126   0.385
 1127SOL     OW33874   2.677   1.400   0.456
 1127SOL    HW133875   2.767   1.414   0.414
 1127SOL    HW233876   2.606   1.402   0.385
 1128SOL     OW33877   2.677   3.262   0.456
 1128SOL    HW133878   2.767   3.276   0.414
 1128SOL    HW233879   2.606   3.264   0.385
 1129SOL     OW33880   2.677   5.124   0.456
 1129SOL    HW133881   2.767   5.138   0.414
 1129SOL    HW233882   2.606   5.126   0.385
 1130SOL     OW33883   4.539   1.400   0.456
 1130SOL    HW133884   4.629   1.414   0.414
 1130SOL    HW233885   4.468   1.402   0.385
 1131SOL     OW33886   4.539   3.262   0.456
 1131SOL    HW133887   4.629   3.276   0.414
 1131SOL    HW233888   4.468   3.264   0.385
 1132SOL     OW33889   4.539   5.124   0.456
 1132SOL    HW133890   4.629   5.138   0.414
 1132SOL    HW233891   4.468   5.126   0.385
 1133SOL     OW33892   6.401   1.400   0.456
 1133SOL    HW133893   0.041   1.414   0.414
 1133SOL    HW233894   6.330   1.402   0.385
 1134SOL     OW33895   6.401   3.262   0.456
 1134SOL    HW133896   0.041   3.276   0.414
 1134SOL    HW233897   6.330   3.264   0.385
 1135SOL     OW33898   6.401   5.124   0.456
 1135SOL    HW133899   0.041   5.138   0.414
 1135SOL    HW233900   6.330   5.126   0.385
 1136SOL     OW33901   0.100   1.799   0.459
 1136SOL    HW133902   0.058   1.713   0.432
 1136SOL    HW233903   0.194   1.802   0.425
 1137SOL     OW33904   0.100   3.661   0.459
 1137SOL    HW133905   0.058   3.575   0.432
 1137SOL    HW233906   0.194   3.664   0.425
 1138SOL     OW33907   0.100   5.523   0.459
 1138SOL    HW133908   0.058   5.437   0.432
 1138SOL    HW233909   0.194   5.526   0.425
 1139SOL     OW33910   1.962   1.799   0.459
 1139SOL    HW133911   1.920   1.713   0.432
 1139SOL    HW233912   2.056   1.802   0.425
 1140SOL     OW33913   1.962   3.661   0.459
 1140SOL    HW133914   1.920   3.575   0.432
 1140SOL    HW233915   2.056   3.664   0.425
 1141SOL     OW33916   1.962   5.523   0.459
 1141SOL    HW133917   1.920   5.437   0.432
 1141SOL    HW233918   2.056   5.526   0.425
 1142SOL     OW33919   3.824   1.799   0.459
 1142SOL    HW133920   3.782   1.713   0.432
 1142SOL    HW233921   3.918   1.802   0.425
 1143SOL     OW33922   3.824   3.661   0.459
 1143SOL    HW133923   3.782   3.575   0.432
 1143SOL    HW233924   3.918   3.664   0.425
 1144SOL     OW33925   3.824   5.523   0.459
 1144SOL    HW133926   3.782   5.437   0.432
 1144SOL    HW233927   3.918   5.526   0.425
 1145SOL     OW33928   5.686   1.799   0.459
 1145SOL    HW133929   5.644   1.713   0.432
 1145SOL    HW233930   5.780   1.802   0.425
 1146SOL     OW33931   5.686   3.661   0.459
 1146SOL    HW133932   5.644   3.575   0.432
 1146SOL    HW233933   5.780   3.664   0.425
 1147SOL     OW33934   5.686   5.523   0.459
 1147SOL    HW133935   5.644   5.437   0.432
 1147SOL    HW233936   5.780   5.526   0.425
 1148SOL     OW33937   1.150   0.378  12.382
 1148SOL    HW133938   1.105   0.441  12.446
 1148SOL    HW233939   1.243   0.409  12.365
 1149SOL     OW33940   1.150   2.240  12.382
 1149SOL    HW133941   1.105   2.303  12.446
 1149SOL    HW233942   1.243   2.271  12.365
 1150SOL     OW33943   1.150   4.102  12.382
 1150SOL    HW133944   1.105   4.165  12.446
 1150SOL    HW233945   1.243   4.133  12.365
 1151SOL     OW33946   1.150   5.964  12.382
 1151SOL    HW133947   1.105   6.027  12.446
 1151SOL    HW233948   1.243   5.995  12.365
 1152SOL     OW33949   3.012   0.378  12.382
 1152SOL    HW133950   2.967   0.441  12.446
 1152SOL    HW233951   3.105   0.409  12.365
 1153SOL     OW33952   3.012   2.240  12.382
 1153SOL    HW133953   2.967   2.303  12.446
 1153SOL    HW233954   3.105   2.271  12.365
 1154SOL     OW33955   3.012   4.102  12.382
 1154SOL    HW133956   2.967   4.165  12.446
 1154SOL    HW233957   3.105   4.133  12.365
 1155SOL     OW33958   3.012   5.964  12.382
 1155SOL    HW133959   2.967   6.027  12.446
 1155SOL    HW233960   3.105   5.995  12.365
 1156SOL     OW33961   4.874   0.378  12.382
 1156SOL    HW133962   4.829   0.441  12.446
 1156SOL    HW233963   4.967   0.409  12.365
 1157SOL     OW33964   4.874   2.240  12.382
 1157SOL    HW133965   4.829   2.303  12.446
 1157SOL    HW233966   4.967   2.271  12.365
 1158SOL     OW33967   4.874   4.102  12.382
 1158SOL    HW133968   4.829   4.165  12.446
 1158SOL    HW233969   4.967   4.133  12.365
 1159SOL     OW33970   4.874   5.964  12.382
 1159SOL    HW133971   4.829   6.027  12.446
 1159SOL    HW233972   4.967   5.995  12.365
 1160SOL     OW33973   1.406   0.467  12.378
 1160SOL    HW133974   1.386   0.510  12.466
 1160SOL    HW233975   1.484   0.405  12.387
 1161SOL     OW33976   1.406   2.329  12.378
 1161SOL    HW133977   1.386   2.372  12.466
 1161SOL    HW233978   1.484   2.267  12.387
 1162SOL     OW33979   1.406   4.191  12.378
 1162SOL    HW133980   1.386   4.234  12.466
 1162SOL    HW233981   1.484   4.129  12.387
 1163SOL     OW33982   1.406   6.053  12.378
 1163SOL    HW133983   1.386   6.096  12.466
 1163SOL    HW233984   1.484   5.991  12.387
 1164SOL     OW33985   3.268   0.467  12.378
 1164SOL    HW133986   3.248   0.510  12.466
 1164SOL    HW233987   3.346   0.405  12.387
 1165SOL     OW33988   3.268   2.329  12.378
 1165SOL    HW133989   3.248   2.372  12.466
 1165SOL    HW233990   3.346   2.267  12.387
 1166SOL     OW33991   3.268   4.191  12.378
 1166SOL    HW133992   3.248   4.234  12.466
 1166SOL    HW233993   3.346   4.129  12.387
 1167SOL     OW33994   3.268   6.053  12.378
 1167SOL    HW133995   3.248   6.096  12.466
 1167SOL    HW233996   3.346   5.991  12.387
 1168SOL     OW33997   5.130   0.467  12.378
 1168SOL    HW133998   5.110   0.510  12.466
 1168SOL    HW233999   5.208   0.405  12.387
 1169SOL     OW34000   5.130   2.329  12.378
 1169SOL    HW134001   5.110   2.372  12.466
 1169SOL    HW234002   5.208   2.267  12.387
 1170SOL     OW34003   5.130   4.191  12.378
 1170SOL    HW134004   5.110   4.234  12.466
 1170SOL    HW234005   5.208   4.129  12.387
 1171SOL     OW34006   5.130   6.053  12.378
 1171SOL    HW134007   5.110   6.096  12.466
 1171SOL    HW234008   5.208   5.991  12.387
 1172SOL     OW34009   1.599   0.777  12.374
 1172SOL    HW134010   1.507   0.815  12.369
 1172SOL    HW234011   1.659   0.824  12.309
 1173SOL     OW34012   1.599   2.639  12.374
 1173SOL    HW134013   1.507   2.677  12.369
 1173SOL    HW234014   1.659   2.686  12.309
 1174SOL     OW34015   1.599   4.501  12.374
 1174SOL    HW134016   1.507   4.539  12.369
 1174SOL    HW234017   1.659   4.548  12.309
 1175SOL     OW34018   1.599   6.363  12.374
 1175SOL    HW134019   1.507   6.401  12.369
 1175SOL    HW234020   1.659   6.410  12.309
 1176SOL     OW34021   3.461   0.777  12.374
 1176SOL    HW134022   3.369   0.815  12.369
 1176SOL    HW234023   3.521   0.824  12.309
 1177SOL     OW34024   3.461   2.639  12.374
 1177SOL    HW134025   3.369   2.677  12.369
 1177SOL    HW234026   3.521   2.686  12.309
 1178SOL     OW34027   3.461   4.501  12.374
 1178SOL    HW134028   3.369   4.539  12.369
 1178SOL    HW234029   3.521   4.548  12.309
 1179SOL     OW34030   3.461   6.363  12.374
 1179SOL    HW134031   3.369   6.401  12.369
 1179SOL    HW234032   3.521   6.410  12.309
 1180SOL     OW34033   5.323   0.777  12.374
 1180SOL    HW134034   5.231   0.815  12.369
 1180SOL    HW234035   5.383   0.824  12.309
 1181SOL     OW34036   5.323   2.639  12.374
 1181SOL    HW134037   5.231   2.677  12.369
 1181SOL    HW234038   5.383   2.686  12.309
 1182SOL     OW34039   5.323   4.501  12.374
 1182SOL    HW134040   5.231   4.539  12.369
 1182SOL    HW234041   5.383   4.548  12.309
 1183SOL     OW34042   5.323   6.363  12.374
 1183SOL    HW134043   5.231   6.401  12.369
 1183SOL    HW234044   5.383   6.410  12.309
 1184SOL     OW34045   1.293   0.343   0.476
 1184SOL    HW134046   1.207   0.293   0.463
 1184SOL    HW234047   1.355   0.289   0.532
 1185SOL     OW34048   1.293   2.205   0.476
 1185SOL    HW134049   1.207   2.155   0.463
 1185SOL    HW234050   1.355   2.151   0.532
 1186SOL     OW34051   1.293   4.067   0.476
 1186SOL    HW134052   1.207   4.017   0.463
 1186SOL    HW234053   1.355   4.013   0.532
 1187SOL     OW34054   1.293   5.929   0.476
 1187SOL    HW134055   1.207   5.879   0.463
 1187SOL    HW234056   1.355   5.875   0.532
 1188SOL     OW34057   3.155   0.343   0.476
 1188SOL    HW134058   3.069   0.293   0.463
 1188SOL    HW234059   3.217   0.289   0.532
 1189SOL     OW34060   3.155   2.205   0.476
 1189SOL    HW134061   3.069   2.155   0.463
 1189SOL    HW234062   3.217   2.151   0.532
 1190SOL     OW34063   3.155   4.067   0.476
 1190SOL    HW134064   3.069   4.017   0.463
 1190SOL    HW234065   3.217   4.013   0.532
 1191SOL     OW34066   3.155   5.929   0.476
 1191SOL    HW134067   3.069   5.879   0.463
 1191SOL    HW234068   3.217   5.875   0.532
 1192SOL     OW34069   5.017   0.343   0.476
 1192SOL    HW134070   4.931   0.293   0.463
 1192SOL    HW234071   5.079   0.289   0.532
 1193SOL     OW34072   5.017   2.205   0.476
 1193SOL    HW134073   4.931   2.155   0.463
 1193SOL    HW234074   5.079   2.151   0.532
 1194SOL     OW34075   5.017   4.067   0.476
 1194SOL    HW134076   4.931   4.017   0.463
 1194SOL    HW234077   5.079   4.013   0.532
 1195SOL     OW34078   5.017   5.929   0.476
 1195SOL    HW134079   4.931   5.879   0.463
 1195SOL    HW234080   5.079   5.875   0.532
 1196SOL     OW34081   0.331   0.808   0.481
 1196SOL    HW134082   0.424   0.844   0.486
 1196SOL    HW234083   0.325   0.723   0.533
 1197SOL     OW34084   0.331   2.670   0.481
 1197SOL    HW134085   0.424   2.706   0.486
 1197SOL    HW234086   0.325   2.585   0.533
 1198SOL     OW34087   0.331   4.532   0.481
 1198SOL    HW134088   0.424   4.568   0.486
 1198SOL    HW234089   0.325   4.447   0.533
 1199SOL     OW34090   0.331   6.394   0.481
 1199SOL    HW134091   0.424   6.430   0.486
 1199SOL    HW234092   0.325   6.309   0.533
 1200SOL     OW34093   2.193   0.808   0.481
 1200SOL    HW134094   2.286   0.844   0.486
 1200SOL    HW234095   2.187   0.723   0.533
 1201SOL     OW34096   2.193   2.670   0.481
 1201SOL    HW134097   2.286   2.706   0.486
 1201SOL    HW234098   2.187   2.585   0.533
 1202SOL     OW34099   2.193   4.532   0.481
 1202SOL    HW134100   2.286   4.568   0.486
 1202SOL    HW234101   2.187   4.447   0.533
 1203SOL     OW34102   2.193   6.394   0.481
 1203SOL    HW134103   2.286   6.430   0.486
 1203SOL    HW234104   2.187   6.309   0.533
 1204SOL     OW34105   4.055   0.808   0.481
 1204SOL    HW134106   4.148   0.844   0.486
 1204SOL    HW234107   4.049   0.723   0.533
 1205SOL     OW34108   4.055   2.670   0.481
 1205SOL    HW134109   4.148   2.706   0.486
 1205SOL    HW234110   4.049   2.585   0.533
 1206SOL     OW34111   4.055   4.532   0.481
 1206SOL    HW134112   4.148   4.568   0.486
 1206SOL    HW234113   4.049   4.447   0.533
 1207SOL     OW34114   4.055   6.394   0.481
 1207SOL    HW134115   4.148   6.430   0.486
 1207SOL    HW234116   4.049   6.309   0.533
 1208SOL     OW34117   5.917   0.808   0.481
 1208SOL    HW134118   6.010   0.844   0.486
 1208SOL    HW234119   5.911   0.723   0.533
 1209SOL     OW34120   5.917   2.670   0.481
 1209SOL    HW134121   6.010   2.706   0.486
 1209SOL    HW234122   5.911   2.585   0.533
 1210SOL     OW34123   5.917   4.532   0.481
 1210SOL    HW134124   6.010   4.568   0.486
 1210SOL    HW234125   5.911   4.447   0.533
 1211SOL     OW34126   5.917   6.394   0.481
 1211SOL    HW134127   6.010   6.430   0.486
 1211SOL    HW234128   5.911   6.309   0.533
 1212SOL     OW34129   1.381   0.948  12.364
 1212SOL    HW134130   1.420   1.037  12.384
 1212SOL    HW234131   1.391   0.928  12.267
 1213SOL     OW34132   1.381   2.810  12.364
 1213SOL    HW134133   1.420   2.899  12.384
 1213SOL    HW234134   1.391   2.790  12.267
 1214SOL     OW34135   1.381   4.672  12.364
 1214SOL    HW134136   1.420   4.761  12.384
 1214SOL    HW234137   1.391   4.652  12.267
 1215SOL     OW34138   3.243   0.948  12.364
 1215SOL    HW134139   3.282   1.037  12.384
 1215SOL    HW234140   3.253   0.928  12.267
 1216SOL     OW34141   3.243   2.810  12.364
 1216SOL    HW134142   3.282   2.899  12.384
 1216SOL    HW234143   3.253   2.790  12.267
 1217SOL     OW34144   3.243   4.672  12.364
 1217SOL    HW134145   3.282   4.761  12.384
 1217SOL    HW234146   3.253   4.652  12.267
 1218SOL     OW34147   5.105   0.948  12.364
 1218SOL    HW134148   5.144   1.037  12.384
 1218SOL    HW234149   5.115   0.928  12.267
 1219SOL     OW34150   5.105   2.810  12.364
 1219SOL    HW134151   5.144   2.899  12.384
 1219SOL    HW234152   5.115   2.790  12.267
 1220SOL     OW34153   5.105   4.672  12.364
 1220SOL    HW134154   5.144   4.761  12.384
 1220SOL    HW234155   5.115   4.652  12.267
 1221SOL     OW34156   1.478   1.415   0.485
 1221SOL    HW134157   1.419   1.421   0.565
 1221SOL    HW234158   1.463   1.327   0.439
 1222SOL     OW34159   0.673   1.788   0.485
 1222SOL    HW134160   0.627   1.876   0.472
 1222SOL    HW234161   0.772   1.800   0.478
 1223SOL     OW34162   1.478   3.277   0.485
 1223SOL    HW134163   1.419   3.283   0.565
 1223SOL    HW234164   1.463   3.189   0.439
 1224SOL     OW34165   0.673   3.650   0.485
 1224SOL    HW134166   0.627   3.738   0.472
 1224SOL    HW234167   0.772   3.662   0.478
 1225SOL     OW34168   1.478   5.139   0.485
 1225SOL    HW134169   1.419   5.145   0.565
 1225SOL    HW234170   1.463   5.051   0.439
 1226SOL     OW34171   0.673   5.512   0.485
 1226SOL    HW134172   0.627   5.600   0.472
 1226SOL    HW234173   0.772   5.524   0.478
 1227SOL     OW34174   3.340   1.415   0.485
 1227SOL    HW134175   3.281   1.421   0.565
 1227SOL    HW234176   3.325   1.327   0.439
 1228SOL     OW34177   2.535   1.788   0.485
 1228SOL    HW134178   2.489   1.876   0.472
 1228SOL    HW234179   2.634   1.800   0.478
 1229SOL     OW34180   3.340   3.277   0.485
 1229SOL    HW134181   3.281   3.283   0.565
 1229SOL    HW234182   3.325   3.189   0.439
 1230SOL     OW34183   2.535   3.650   0.485
 1230SOL    HW134184   2.489   3.738   0.472
 1230SOL    HW234185   2.634   3.662   0.478
 1231SOL     OW34186   3.340   5.139   0.485
 1231SOL    HW134187   3.281   5.145   0.565
 1231SOL    HW234188   3.325   5.051   0.439
 1232SOL     OW34189   2.535   5.512   0.485
 1232SOL    HW134190   2.489   5.600   0.472
 1232SOL    HW234191   2.634   5.524   0.478
 1233SOL     OW34192   5.202   1.415   0.485
 1233SOL    HW134193   5.143   1.421   0.565
 1233SOL    HW234194   5.187   1.327   0.439
 1234SOL     OW34195   4.397   1.788   0.485
 1234SOL    HW134196   4.351   1.876   0.472
 1234SOL    HW234197   4.496   1.800   0.478
 1235SOL     OW34198   5.202   3.277   0.485
 1235SOL    HW134199   5.143   3.283   0.565
 1235SOL    HW234200   5.187   3.189   0.439
 1236SOL     OW34201   4.397   3.650   0.485
 1236SOL    HW134202   4.351   3.738   0.472
 1236SOL    HW234203   4.496   3.662   0.478
 1237SOL     OW34204   5.202   5.139   0.485
 1237SOL    HW134205   5.143   5.145   0.565
 1237SOL    HW234206   5.187   5.051   0.439
 1238SOL     OW34207   4.397   5.512   0.485
 1238SOL    HW134208   4.351   5.600   0.472
 1238SOL    HW234209   4.496   5.524   0.478
 1239SOL     OW34210   6.259   1.788   0.485
 1239SOL    HW134211   6.213   1.876   0.472
 1239SOL    HW234212   6.358   1.800   0.478
 1240SOL     OW34213   6.259   3.650   0.485
 1240SOL    HW134214   6.213   3.738   0.472
 1240SOL    HW234215   6.358   3.662   0.478
 1241SOL     OW34216   6.259   5.512   0.485
 1241SOL    HW134217   6.213   5.600   0.472
 1241SOL    HW234218   6.358   5.524   0.478
 1242SOL     OW34219   1.505   1.765   0.491
 1242SOL    HW134220   1.538   1.829   0.422
 1242SOL    HW234221   1.571   1.759   0.566
 1243SOL     OW34222   1.505   3.627   0.491
 1243SOL    HW134223   1.538   3.691   0.422
 1243SOL    HW234224   1.571   3.621   0.566
 1244SOL     OW34225   1.505   5.489   0.491
 1244SOL    HW134226   1.538   5.553   0.422
 1244SOL    HW234227   1.571   5.483   0.566
 1245SOL     OW34228   3.367   1.765   0.491
 1245SOL    HW134229   3.400   1.829   0.422
 1245SOL    HW234230   3.433   1.759   0.566
 1246SOL     OW34231   3.367   3.627   0.491
 1246SOL    HW134232   3.400   3.691   0.422
 1246SOL    HW234233   3.433   3.621   0.566
 1247SOL     OW34234   3.367   5.489   0.491
 1247SOL    HW134235   3.400   5.553   0.422
 1247SOL    HW234236   3.433   5.483   0.566
 1248SOL     OW34237   5.229   1.765   0.491
 1248SOL    HW134238   5.262   1.829   0.422
 1248SOL    HW234239   5.295   1.759   0.566
 1249SOL     OW34240   5.229   3.627   0.491
 1249SOL    HW134241   5.262   3.691   0.422
 1249SOL    HW234242   5.295   3.621   0.566
 1250SOL     OW34243   5.229   5.489   0.491
 1250SOL    HW134244   5.262   5.553   0.422
 1250SOL    HW234245   5.295   5.483   0.566
 1251SOL     OW34246   1.853   0.173   0.495
 1251SOL    HW134247   1.892   0.088   0.459
 1251SOL    HW234248   1.755   0.175   0.476
 1252SOL     OW34249   1.853   2.035   0.495
 1252SOL    HW134250   1.892   1.950   0.459
 1252SOL    HW234251   1.755   2.037   0.476
 1253SOL     OW34252   1.853   3.897   0.495
 1253SOL    HW134253   1.892   3.812   0.459
 1253SOL    HW234254   1.755   3.899   0.476
 1254SOL     OW34255   1.853   5.759   0.495
 1254SOL    HW134256   1.892   5.674   0.459
 1254SOL    HW234257   1.755   5.761   0.476
 1255SOL     OW34258   3.715   0.173   0.495
 1255SOL    HW134259   3.754   0.088   0.459
 1255SOL    HW234260   3.617   0.175   0.476
 1256SOL     OW34261   3.715   2.035   0.495
 1256SOL    HW134262   3.754   1.950   0.459
 1256SOL    HW234263   3.617   2.037   0.476
 1257SOL     OW34264   3.715   3.897   0.495
 1257SOL    HW134265   3.754   3.812   0.459
 1257SOL    HW234266   3.617   3.899   0.476
 1258SOL     OW34267   3.715   5.759   0.495
 1258SOL    HW134268   3.754   5.674   0.459
 1258SOL    HW234269   3.617   5.761   0.476
 1259SOL     OW34270   5.577   0.173   0.495
 1259SOL    HW134271   5.616   0.088   0.459
 1259SOL    HW234272   5.479   0.175   0.476
 1260SOL     OW34273   5.577   2.035   0.495
 1260SOL    HW134274   5.616   1.950   0.459
 1260SOL    HW234275   5.479   2.037   0.476
 1261SOL     OW34276   5.577   3.897   0.495
 1261SOL    HW134277   5.616   3.812   0.459
 1261SOL    HW234278   5.479   3.899   0.476
 1262SOL     OW34279   5.577   5.759   0.495
 1262SOL    HW134280   5.616   5.674   0.459
 1262SOL    HW234281   5.479   5.761   0.476
 1263SOL     OW34282   1.035   0.764   0.498
 1263SOL    HW134283   1.050   0.785   0.594
 1263SOL    HW234284   1.005   0.669   0.489
 1264SOL     OW34285   1.035   2.626   0.498
 1264SOL    HW134286   1.050   2.647   0.594
 1264SOL    HW234287   1.005   2.531   0.489
 1265SOL     OW34288   1.035   4.488   0.498
 1265SOL    HW134289   1.050   4.509   0.594
 1265SOL    HW234290   1.005   4.393   0.489
 1266SOL     OW34291   2.897   0.764   0.498
 1266SOL    HW134292   2.912   0.785   0.594
 1266SOL    HW234293   2.867   0.669   0.489
 1267SOL     OW34294   2.897   2.626   0.498
 1267SOL    HW134295   2.912   2.647   0.594
 1267SOL    HW234296   2.867   2.531   0.489
 1268SOL     OW34297   2.897   4.488   0.498
 1268SOL    HW134298   2.912   4.509   0.594
 1268SOL    HW234299   2.867   4.393   0.489
 1269SOL     OW34300   4.759   0.764   0.498
 1269SOL    HW134301   4.774   0.785   0.594
 1269SOL    HW234302   4.729   0.669   0.489
 1270SOL     OW34303   4.759   2.626   0.498
 1270SOL    HW134304   4.774   2.647   0.594
 1270SOL    HW234305   4.729   2.531   0.489
 1271SOL     OW34306   4.759   4.488   0.498
 1271SOL    HW134307   4.774   4.509   0.594
 1271SOL    HW234308   4.729   4.393   0.489
 1272SOL     OW34309   1.789   0.340  12.346
 1272SOL    HW134310   1.772   0.371  12.252
 1272SOL    HW234311   1.705   0.303  12.384
 1273SOL     OW34312   1.789   2.202  12.346
 1273SOL    HW134313   1.772   2.233  12.252
 1273SOL    HW234314   1.705   2.165  12.384
 1274SOL     OW34315   1.789   4.064  12.346
 1274SOL    HW134316   1.772   4.095  12.252
 1274SOL    HW234317   1.705   4.027  12.384
 1275SOL     OW34318   1.789   5.926  12.346
 1275SOL    HW134319   1.772   5.957  12.252
 1275SOL    HW234320   1.705   5.889  12.384
 1276SOL     OW34321   3.651   0.340  12.346
 1276SOL    HW134322   3.634   0.371  12.252
 1276SOL    HW234323   3.567   0.303  12.384
 1277SOL     OW34324   3.651   2.202  12.346
 1277SOL    HW134325   3.634   2.233  12.252
 1277SOL    HW234326   3.567   2.165  12.384
 1278SOL     OW34327   3.651   4.064  12.346
 1278SOL    HW134328   3.634   4.095  12.252
 1278SOL    HW234329   3.567   4.027  12.384
 1279SOL     OW34330   3.651   5.926  12.346
 1279SOL    HW134331   3.634   5.957  12.252
 1279SOL    HW234332   3.567   5.889  12.384
 1280SOL     OW34333   5.513   0.340  12.346
 1280SOL    HW134334   5.496   0.371  12.252
 1280SOL    HW234335   5.429   0.303  12.384
 1281SOL     OW34336   5.513   2.202  12.346
 1281SOL    HW134337   5.496   2.233  12.252
 1281SOL    HW234338   5.429   2.165  12.384
 1282SOL     OW34339   5.513   4.064  12.346
 1282SOL    HW134340   5.496   4.095  12.252
 1282SOL    HW234341   5.429   4.027  12.384
 1283SOL     OW34342   5.513   5.926  12.346
 1283SOL    HW134343   5.496   5.957  12.252
 1283SOL    HW234344   5.429   5.889  12.384
 1284SOL     OW34345   1.026   0.234   0.503
 1284SOL    HW134346   1.018   0.198   0.410
 1284SOL    HW234347   1.024   0.158   0.568
 1285SOL     OW34348   1.026   2.096   0.503
 1285SOL    HW134349   1.018   2.060   0.410
 1285SOL    HW234350   1.024   2.020   0.568
 1286SOL     OW34351   1.026   3.958   0.503
 1286SOL    HW134352   1.018   3.922   0.410
 1286SOL    HW234353   1.024   3.882   0.568
 1287SOL     OW34354   1.026   5.820   0.503
 1287SOL    HW134355   1.018   5.784   0.410
 1287SOL    HW234356   1.024   5.744   0.568
 1288SOL     OW34357   2.888   0.234   0.503
 1288SOL    HW134358   2.880   0.198   0.410
 1288SOL    HW234359   2.886   0.158   0.568
 1289SOL     OW34360   2.888   2.096   0.503
 1289SOL    HW134361   2.880   2.060   0.410
 1289SOL    HW234362   2.886   2.020   0.568
 1290SOL     OW34363   2.888   3.958   0.503
 1290SOL    HW134364   2.880   3.922   0.410
 1290SOL    HW234365   2.886   3.882   0.568
 1291SOL     OW34366   2.888   5.820   0.503
 1291SOL    HW134367   2.880   5.784   0.410
 1291SOL    HW234368   2.886   5.744   0.568
 1292SOL     OW34369   4.750   0.234   0.503
 1292SOL    HW134370   4.742   0.198   0.410
 1292SOL    HW234371   4.748   0.158   0.568
 1293SOL     OW34372   4.750   2.096   0.503
 1293SOL    HW134373   4.742   2.060   0.410
 1293SOL    HW234374   4.748   2.020   0.568
 1294SOL     OW34375   4.750   3.958   0.503
 1294SOL    HW134376   4.742   3.922   0.410
 1294SOL    HW234377   4.748   3.882   0.568
 1295SOL     OW34378   4.750   5.820   0.503
 1295SOL    HW134379   4.742   5.784   0.410
 1295SOL    HW234380   4.748   5.744   0.568
 1296SOL     OW34381   1.462   1.218  12.337
 1296SOL    HW134382   1.453   1.208  12.436
 1296SOL    HW234383   1.558   1.211  12.311
 1297SOL     OW34384   1.462   3.080  12.337
 1297SOL    HW134385   1.453   3.070  12.436
 1297SOL    HW234386   1.558   3.073  12.311
 1298SOL     OW34387   1.462   4.942  12.337
 1298SOL    HW134388   1.453   4.932  12.436
 1298SOL    HW234389   1.558   4.935  12.311
 1299SOL     OW34390   3.324   1.218  12.337
 1299SOL    HW134391   3.315   1.208  12.436
 1299SOL    HW234392   3.420   1.211  12.311
 1300SOL     OW34393   3.324   3.080  12.337
 1300SOL    HW134394   3.315   3.070  12.436
 1300SOL    HW234395   3.420   3.073  12.311
 1301SOL     OW34396   3.324   4.942  12.337
 1301SOL    HW134397   3.315   4.932  12.436
 1301SOL    HW234398   3.420   4.935  12.311
 1302SOL     OW34399   5.186   1.218  12.337
 1302SOL    HW134400   5.177   1.208  12.436
 1302SOL    HW234401   5.282   1.211  12.311
 1303SOL     OW34402   5.186   3.080  12.337
 1303SOL    HW134403   5.177   3.070  12.436
 1303SOL    HW234404   5.282   3.073  12.311
 1304SOL     OW34405   5.186   4.942  12.337
 1304SOL    HW134406   5.177   4.932  12.436
 1304SOL    HW234407   5.282   4.935  12.311
 1305SOL     OW34408   1.604   1.627  12.329
 1305SOL    HW134409   1.631   1.661  12.239
 1305SOL    HW234410   1.683   1.589  12.375
 1306SOL     OW34411   1.604   3.489  12.329
 1306SOL    HW134412   1.631   3.523  12.239
 1306SOL    HW234413   1.683   3.451  12.375
 1307SOL     OW34414   1.604   5.351  12.329
 1307SOL    HW134415   1.631   5.385  12.239
 1307SOL    HW234416   1.683   5.313  12.375
 1308SOL     OW34417   3.466   1.627  12.329
 1308SOL    HW134418   3.493   1.661  12.239
 1308SOL    HW234419   3.545   1.589  12.375
 1309SOL     OW34420   3.466   3.489  12.329
 1309SOL    HW134421   3.493   3.523  12.239
 1309SOL    HW234422   3.545   3.451  12.375
 1310SOL     OW34423   3.466   5.351  12.329
 1310SOL    HW134424   3.493   5.385  12.239
 1310SOL    HW234425   3.545   5.313  12.375
 1311SOL     OW34426   5.328   1.627  12.329
 1311SOL    HW134427   5.355   1.661  12.239
 1311SOL    HW234428   5.407   1.589  12.375
 1312SOL     OW34429   5.328   3.489  12.329
 1312SOL    HW134430   5.355   3.523  12.239
 1312SOL    HW234431   5.407   3.451  12.375
 1313SOL     OW34432   5.328   5.351  12.329
 1313SOL    HW134433   5.355   5.385  12.239
 1313SOL    HW234434   5.407   5.313  12.375
 1314SOL     OW34435   0.684   1.389  12.328
 1314SOL    HW134436   0.606   1.339  12.366
 1314SOL    HW234437   0.681   1.484  12.359
 1315SOL     OW34438   0.684   3.251  12.328
 1315SOL    HW134439   0.606   3.201  12.366
 1315SOL    HW234440   0.681   3.346  12.359
 1316SOL     OW34441   0.684   5.113  12.328
 1316SOL    HW134442   0.606   5.063  12.366
 1316SOL    HW234443   0.681   5.208  12.359
 1317SOL     OW34444   2.546   1.389  12.328
 1317SOL    HW134445   2.468   1.339  12.366
 1317SOL    HW234446   2.543   1.484  12.359
 1318SOL     OW34447   2.546   3.251  12.328
 1318SOL    HW134448   2.468   3.201  12.366
 1318SOL    HW234449   2.543   3.346  12.359
 1319SOL     OW34450   2.546   5.113  12.328
 1319SOL    HW134451   2.468   5.063  12.366
 1319SOL    HW234452   2.543   5.208  12.359
 1320SOL     OW34453   4.408   1.389  12.328
 1320SOL    HW134454   4.330   1.339  12.366
 1320SOL    HW234455   4.405   1.484  12.359
 1321SOL     OW34456   4.408   3.251  12.328
 1321SOL    HW134457   4.330   3.201  12.366
 1321SOL    HW234458   4.405   3.346  12.359
 1322SOL     OW34459   4.408   5.113  12.328
 1322SOL    HW134460   4.330   5.063  12.366
 1322SOL    HW234461   4.405   5.208  12.359
 1323SOL     OW34462   6.270   1.389  12.328
 1323SOL    HW134463   6.192   1.339  12.366
 1323SOL    HW234464   6.267   1.484  12.359
 1324SOL     OW34465   6.270   3.251  12.328
 1324SOL    HW134466   6.192   3.201  12.366
 1324SOL    HW234467   6.267   3.346  12.359
 1325SOL     OW34468   6.270   5.113  12.328
 1325SOL    HW134469   6.192   5.063  12.366
 1325SOL    HW234470   6.267   5.208  12.359
 1326SOL     OW34471   1.478   0.588   0.524
 1326SOL    HW134472   1.448   0.493   0.531
 1326SOL    HW234473   1.551   0.604   0.590
 1327SOL     OW34474   1.478   2.450   0.524
 1327SOL    HW134475   1.448   2.355   0.531
 1327SOL    HW234476   1.551   2.466   0.590
 1328SOL     OW34477   1.478   4.312   0.524
 1328SOL    HW134478   1.448   4.217   0.531
 1328SOL    HW234479   1.551   4.328   0.590
 1329SOL     OW34480   1.478   6.174   0.524
 1329SOL    HW134481   1.448   6.079   0.531
 1329SOL    HW234482   1.551   6.190   0.590
 1330SOL     OW34483   3.340   0.588   0.524
 1330SOL    HW134484   3.310   0.493   0.531
 1330SOL    HW234485   3.413   0.604   0.590
 1331SOL     OW34486   3.340   2.450   0.524
 1331SOL    HW134487   3.310   2.355   0.531
 1331SOL    HW234488   3.413   2.466   0.590
 1332SOL     OW34489   3.340   4.312   0.524
 1332SOL    HW134490   3.310   4.217   0.531
 1332SOL    HW234491   3.413   4.328   0.590
 1333SOL     OW34492   3.340   6.174   0.524
 1333SOL    HW134493   3.310   6.079   0.531
 1333SOL    HW234494   3.413   6.190   0.590
 1334SOL     OW34495   5.202   0.588   0.524
 1334SOL    HW134496   5.172   0.493   0.531
 1334SOL    HW234497   5.275   0.604   0.590
 1335SOL     OW34498   5.202   2.450   0.524
 1335SOL    HW134499   5.172   2.355   0.531
 1335SOL    HW234500   5.275   2.466   0.590
 1336SOL     OW34501   5.202   4.312   0.524
 1336SOL    HW134502   5.172   4.217   0.531
 1336SOL    HW234503   5.275   4.328   0.590
 1337SOL     OW34504   5.202   6.174   0.524
 1337SOL    HW134505   5.172   6.079   0.531
 1337SOL    HW234506   5.275   6.190   0.590
 1338SOL     OW34507   1.199   1.790  12.320
 1338SOL    HW134508   1.223   1.850  12.244
 1338SOL    HW234509   1.206   1.695  12.290
 1339SOL     OW34510   1.199   3.652  12.320
 1339SOL    HW134511   1.223   3.712  12.244
 1339SOL    HW234512   1.206   3.557  12.290
 1340SOL     OW34513   1.199   5.514  12.320
 1340SOL    HW134514   1.223   5.574  12.244
 1340SOL    HW234515   1.206   5.419  12.290
 1341SOL     OW34516   3.061   1.790  12.320
 1341SOL    HW134517   3.085   1.850  12.244
 1341SOL    HW234518   3.068   1.695  12.290
 1342SOL     OW34519   3.061   3.652  12.320
 1342SOL    HW134520   3.085   3.712  12.244
 1342SOL    HW234521   3.068   3.557  12.290
 1343SOL     OW34522   3.061   5.514  12.320
 1343SOL    HW134523   3.085   5.574  12.244
 1343SOL    HW234524   3.068   5.419  12.290
 1344SOL     OW34525   4.923   1.790  12.320
 1344SOL    HW134526   4.947   1.850  12.244
 1344SOL    HW234527   4.930   1.695  12.290
 1345SOL     OW34528   4.923   3.652  12.320
 1345SOL    HW134529   4.947   3.712  12.244
 1345SOL    HW234530   4.930   3.557  12.290
 1346SOL     OW34531   4.923   5.514  12.320
 1346SOL    HW134532   4.947   5.574  12.244
 1346SOL    HW234533   4.930   5.419  12.290
 1347SOL     OW34534   0.237   0.273   0.528
 1347SOL    HW134535   0.272   0.256   0.620
 1347SOL    HW234536   0.149   0.228   0.516
 1348SOL     OW34537   0.237   2.135   0.528
 1348SOL    HW134538   0.272   2.118   0.620
 1348SOL    HW234539   0.149   2.090   0.516
 1349SOL     OW34540   0.237   3.997   0.528
 1349SOL    HW134541   0.272   3.980   0.620
 1349SOL    HW234542   0.149   3.952   0.516
 1350SOL     OW34543   0.237   5.859   0.528
 1350SOL    HW134544   0.272   5.842   0.620
 1350SOL    HW234545   0.149   5.814   0.516
 1351SOL     OW34546   2.099   0.273   0.528
 1351SOL    HW134547   2.134   0.256   0.620
 1351SOL    HW234548   2.011   0.228   0.516
 1352SOL     OW34549   2.099   2.135   0.528
 1352SOL    HW134550   2.134   2.118   0.620
 1352SOL    HW234551   2.011   2.090   0.516
 1353SOL     OW34552   2.099   3.997   0.528
 1353SOL    HW134553   2.134   3.980   0.620
 1353SOL    HW234554   2.011   3.952   0.516
 1354SOL     OW34555   2.099   5.859   0.528
 1354SOL    HW134556   2.134   5.842   0.620
 1354SOL    HW234557   2.011   5.814   0.516
 1355SOL     OW34558   3.961   0.273   0.528
 1355SOL    HW134559   3.996   0.256   0.620
 1355SOL    HW234560   3.873   0.228   0.516
 1356SOL     OW34561   3.961   2.135   0.528
 1356SOL    HW134562   3.996   2.118   0.620
 1356SOL    HW234563   3.873   2.090   0.516
 1357SOL     OW34564   3.961   3.997   0.528
 1357SOL    HW134565   3.996   3.980   0.620
 1357SOL    HW234566   3.873   3.952   0.516
 1358SOL     OW34567   3.961   5.859   0.528
 1358SOL    HW134568   3.996   5.842   0.620
 1358SOL    HW234569   3.873   5.814   0.516
 1359SOL     OW34570   5.823   0.273   0.528
 1359SOL    HW134571   5.858   0.256   0.620
 1359SOL    HW234572   5.735   0.228   0.516
 1360SOL     OW34573   5.823   2.135   0.528
 1360SOL    HW134574   5.858   2.118   0.620
 1360SOL    HW234575   5.735   2.090   0.516
 1361SOL     OW34576   5.823   3.997   0.528
 1361SOL    HW134577   5.858   3.980   0.620
 1361SOL    HW234578   5.735   3.952   0.516
 1362SOL     OW34579   5.823   5.859   0.528
 1362SOL    HW134580   5.858   5.842   0.620
 1362SOL    HW234581   5.735   5.814   0.516
 1363SOL     OW34582   1.871   1.516  12.309
 1363SOL    HW134583   1.885   1.543  12.214
 1363SOL    HW234584   1.954   1.538  12.362
 1364SOL     OW34585   1.871   3.378  12.309
 1364SOL    HW134586   1.885   3.405  12.214
 1364SOL    HW234587   1.954   3.400  12.362
 1365SOL     OW34588   1.871   5.240  12.309
 1365SOL    HW134589   1.885   5.267  12.214
 1365SOL    HW234590   1.954   5.262  12.362
 1366SOL     OW34591   3.733   1.516  12.309
 1366SOL    HW134592   3.747   1.543  12.214
 1366SOL    HW234593   3.816   1.538  12.362
 1367SOL     OW34594   3.733   3.378  12.309
 1367SOL    HW134595   3.747   3.405  12.214
 1367SOL    HW234596   3.816   3.400  12.362
 1368SOL     OW34597   3.733   5.240  12.309
 1368SOL    HW134598   3.747   5.267  12.214
 1368SOL    HW234599   3.816   5.262  12.362
 1369SOL     OW34600   5.595   1.516  12.309
 1369SOL    HW134601   5.609   1.543  12.214
 1369SOL    HW234602   5.678   1.538  12.362
 1370SOL     OW34603   5.595   3.378  12.309
 1370SOL    HW134604   5.609   3.405  12.214
 1370SOL    HW234605   5.678   3.400  12.362
 1371SOL     OW34606   5.595   5.240  12.309
 1371SOL    HW134607   5.609   5.267  12.214
 1371SOL    HW234608   5.678   5.262  12.362
 1372SOL     OW34609   0.351   0.507   0.538
 1372SOL    HW134610   0.299   0.424   0.521
 1372SOL    HW234611   0.428   0.512   0.474
 1373SOL     OW34612   0.351   2.369   0.538
 1373SOL    HW134613   0.299   2.286   0.521
 1373SOL    HW234614   0.428   2.374   0.474
 1374SOL     OW34615   0.351   4.231   0.538
 1374SOL    HW134616   0.299   4.148   0.521
 1374SOL    HW234617   0.428   4.236   0.474
 1375SOL     OW34618   0.351   6.093   0.538
 1375SOL    HW134619   0.299   6.010   0.521
 1375SOL    HW234620   0.428   6.098   0.474
 1376SOL     OW34621   2.213   0.507   0.538
 1376SOL    HW134622   2.161   0.424   0.521
 1376SOL    HW234623   2.290   0.512   0.474
 1377SOL     OW34624   2.213   2.369   0.538
 1377SOL    HW134625   2.161   2.286   0.521
 1377SOL    HW234626   2.290   2.374   0.474
 1378SOL     OW34627   2.213   4.231   0.538
 1378SOL    HW134628   2.161   4.148   0.521
 1378SOL    HW234629   2.290   4.236   0.474
 1379SOL     OW34630   2.213   6.093   0.538
 1379SOL    HW134631   2.161   6.010   0.521
 1379SOL    HW234632   2.290   6.098   0.474
 1380SOL     OW34633   4.075   0.507   0.538
 1380SOL    HW134634   4.023   0.424   0.521
 1380SOL    HW234635   4.152   0.512   0.474
 1381SOL     OW34636   4.075   2.369   0.538
 1381SOL    HW134637   4.023   2.286   0.521
 1381SOL    HW234638   4.152   2.374   0.474
 1382SOL     OW34639   4.075   4.231   0.538
 1382SOL    HW134640   4.023   4.148   0.521
 1382SOL    HW234641   4.152   4.236   0.474
 1383SOL     OW34642   4.075   6.093   0.538
 1383SOL    HW134643   4.023   6.010   0.521
 1383SOL    HW234644   4.152   6.098   0.474
 1384SOL     OW34645   5.937   0.507   0.538
 1384SOL    HW134646   5.885   0.424   0.521
 1384SOL    HW234647   6.014   0.512   0.474
 1385SOL     OW34648   5.937   2.369   0.538
 1385SOL    HW134649   5.885   2.286   0.521
 1385SOL    HW234650   6.014   2.374   0.474
 1386SOL     OW34651   5.937   4.231   0.538
 1386SOL    HW134652   5.885   4.148   0.521
 1386SOL    HW234653   6.014   4.236   0.474
 1387SOL     OW34654   5.937   6.093   0.538
 1387SOL    HW134655   5.885   6.010   0.521
 1387SOL    HW234656   6.014   6.098   0.474
 1388SOL     OW34657   0.414   0.749  12.302
 1388SOL    HW134658   0.482   0.804  12.255
 1388SOL    HW234659   0.454   0.661  12.329
 1389SOL     OW34660   0.414   2.611  12.302
 1389SOL    HW134661   0.482   2.666  12.255
 1389SOL    HW234662   0.454   2.523  12.329
 1390SOL     OW34663   0.414   4.473  12.302
 1390SOL    HW134664   0.482   4.528  12.255
 1390SOL    HW234665   0.454   4.385  12.329
 1391SOL     OW34666   2.276   0.749  12.302
 1391SOL    HW134667   2.344   0.804  12.255
 1391SOL    HW234668   2.316   0.661  12.329
 1392SOL     OW34669   2.276   2.611  12.302
 1392SOL    HW134670   2.344   2.666  12.255
 1392SOL    HW234671   2.316   2.523  12.329
 1393SOL     OW34672   2.276   4.473  12.302
 1393SOL    HW134673   2.344   4.528  12.255
 1393SOL    HW234674   2.316   4.385  12.329
 1394SOL     OW34675   4.138   0.749  12.302
 1394SOL    HW134676   4.206   0.804  12.255
 1394SOL    HW234677   4.178   0.661  12.329
 1395SOL     OW34678   4.138   2.611  12.302
 1395SOL    HW134679   4.206   2.666  12.255
 1395SOL    HW234680   4.178   2.523  12.329
 1396SOL     OW34681   4.138   4.473  12.302
 1396SOL    HW134682   4.206   4.528  12.255
 1396SOL    HW234683   4.178   4.385  12.329
 1397SOL     OW34684   6.000   0.749  12.302
 1397SOL    HW134685   6.068   0.804  12.255
 1397SOL    HW234686   6.040   0.661  12.329
 1398SOL     OW34687   6.000   2.611  12.302
 1398SOL    HW134688   6.068   2.666  12.255
 1398SOL    HW234689   6.040   2.523  12.329
 1399SOL     OW34690   6.000   4.473  12.302
 1399SOL    HW134691   6.068   4.528  12.255
 1399SOL    HW234692   6.040   4.385  12.329
 1400SOL     OW34693   0.125   0.735  12.301
 1400SOL    HW134694   0.213   0.722  12.346
 1400SOL    HW234695   0.112   0.832  12.279
 1401SOL     OW34696   0.125   2.597  12.301
 1401SOL    HW134697   0.213   2.584  12.346
 1401SOL    HW234698   0.112   2.694  12.279
 1402SOL     OW34699   0.125   4.459  12.301
 1402SOL    HW134700   0.213   4.446  12.346
 1402SOL    HW234701   0.112   4.556  12.279
 1403SOL     OW34702   0.125   6.321  12.301
 1403SOL    HW134703   0.213   6.308  12.346
 1403SOL    HW234704   0.112   6.418  12.279
 1404SOL     OW34705   1.987   0.735  12.301
 1404SOL    HW134706   2.075   0.722  12.346
 1404SOL    HW234707   1.974   0.832  12.279
 1405SOL     OW34708   1.987   2.597  12.301
 1405SOL    HW134709   2.075   2.584  12.346
 1405SOL    HW234710   1.974   2.694  12.279
 1406SOL     OW34711   1.987   4.459  12.301
 1406SOL    HW134712   2.075   4.446  12.346
 1406SOL    HW234713   1.974   4.556  12.279
 1407SOL     OW34714   1.987   6.321  12.301
 1407SOL    HW134715   2.075   6.308  12.346
 1407SOL    HW234716   1.974   6.418  12.279
 1408SOL     OW34717   3.849   0.735  12.301
 1408SOL    HW134718   3.937   0.722  12.346
 1408SOL    HW234719   3.836   0.832  12.279
 1409SOL     OW34720   3.849   2.597  12.301
 1409SOL    HW134721   3.937   2.584  12.346
 1409SOL    HW234722   3.836   2.694  12.279
 1410SOL     OW34723   3.849   4.459  12.301
 1410SOL    HW134724   3.937   4.446  12.346
 1410SOL    HW234725   3.836   4.556  12.279
 1411SOL     OW34726   3.849   6.321  12.301
 1411SOL    HW134727   3.937   6.308  12.346
 1411SOL    HW234728   3.836   6.418  12.279
 1412SOL     OW34729   5.711   0.735  12.301
 1412SOL    HW134730   5.799   0.722  12.346
 1412SOL    HW234731   5.698   0.832  12.279
 1413SOL     OW34732   5.711   2.597  12.301
 1413SOL    HW134733   5.799   2.584  12.346
 1413SOL    HW234734   5.698   2.694  12.279
 1414SOL     OW34735   5.711   4.459  12.301
 1414SOL    HW134736   5.799   4.446  12.346
 1414SOL    HW234737   5.698   4.556  12.279
 1415SOL     OW34738   5.711   6.321  12.301
 1415SOL    HW134739   5.799   6.308  12.346
 1415SOL    HW234740   5.698   6.418  12.279
 1416SOL     OW34741   1.766   1.221  12.292
 1416SOL    HW134742   1.857   1.182  12.279
 1416SOL    HW234743   1.774   1.317  12.316
 1417SOL     OW34744   1.766   3.083  12.292
 1417SOL    HW134745   1.857   3.044  12.279
 1417SOL    HW234746   1.774   3.179  12.316
 1418SOL     OW34747   1.766   4.945  12.292
 1418SOL    HW134748   1.857   4.906  12.279
 1418SOL    HW234749   1.774   5.041  12.316
 1419SOL     OW34750   3.628   1.221  12.292
 1419SOL    HW134751   3.719   1.182  12.279
 1419SOL    HW234752   3.636   1.317  12.316
 1420SOL     OW34753   3.628   3.083  12.292
 1420SOL    HW134754   3.719   3.044  12.279
 1420SOL    HW234755   3.636   3.179  12.316
 1421SOL     OW34756   3.628   4.945  12.292
 1421SOL    HW134757   3.719   4.906  12.279
 1421SOL    HW234758   3.636   5.041  12.316
 1422SOL     OW34759   5.490   1.221  12.292
 1422SOL    HW134760   5.581   1.182  12.279
 1422SOL    HW234761   5.498   1.317  12.316
 1423SOL     OW34762   5.490   3.083  12.292
 1423SOL    HW134763   5.581   3.044  12.279
 1423SOL    HW234764   5.498   3.179  12.316
 1424SOL     OW34765   5.490   4.945  12.292
 1424SOL    HW134766   5.581   4.906  12.279
 1424SOL    HW234767   5.498   5.041  12.316
 1425SOL     OW34768   0.095   1.256   0.554
 1425SOL    HW134769   0.090   1.255   0.654
 1425SOL    HW234770   0.012   1.215   0.516
 1426SOL     OW34771   0.095   3.118   0.554
 1426SOL    HW134772   0.090   3.117   0.654
 1426SOL    HW234773   0.012   3.077   0.516
 1427SOL     OW34774   0.095   4.980   0.554
 1427SOL    HW134775   0.090   4.979   0.654
 1427SOL    HW234776   0.012   4.939   0.516
 1428SOL     OW34777   1.957   1.256   0.554
 1428SOL    HW134778   1.952   1.255   0.654
 1428SOL    HW234779   1.874   1.215   0.516
 1429SOL     OW34780   1.957   3.118   0.554
 1429SOL    HW134781   1.952   3.117   0.654
 1429SOL    HW234782   1.874   3.077   0.516
 1430SOL     OW34783   1.957   4.980   0.554
 1430SOL    HW134784   1.952   4.979   0.654
 1430SOL    HW234785   1.874   4.939   0.516
 1431SOL     OW34786   3.819   1.256   0.554
 1431SOL    HW134787   3.814   1.255   0.654
 1431SOL    HW234788   3.736   1.215   0.516
 1432SOL     OW34789   3.819   3.118   0.554
 1432SOL    HW134790   3.814   3.117   0.654
 1432SOL    HW234791   3.736   3.077   0.516
 1433SOL     OW34792   3.819   4.980   0.554
 1433SOL    HW134793   3.814   4.979   0.654
 1433SOL    HW234794   3.736   4.939   0.516
 1434SOL     OW34795   5.681   1.256   0.554
 1434SOL    HW134796   5.676   1.255   0.654
 1434SOL    HW234797   5.598   1.215   0.516
 1435SOL     OW34798   5.681   3.118   0.554
 1435SOL    HW134799   5.676   3.117   0.654
 1435SOL    HW234800   5.598   3.077   0.516
 1436SOL     OW34801   5.681   4.980   0.554
 1436SOL    HW134802   5.676   4.979   0.654
 1436SOL    HW234803   5.598   4.939   0.516
 1437SOL     OW34804   0.780   1.142   0.555
 1437SOL    HW134805   0.702   1.159   0.615
 1437SOL    HW234806   0.814   1.229   0.519
 1438SOL     OW34807   0.780   3.004   0.555
 1438SOL    HW134808   0.702   3.021   0.615
 1438SOL    HW234809   0.814   3.091   0.519
 1439SOL     OW34810   0.780   4.866   0.555
 1439SOL    HW134811   0.702   4.883   0.615
 1439SOL    HW234812   0.814   4.953   0.519
 1440SOL     OW34813   2.642   1.142   0.555
 1440SOL    HW134814   2.564   1.159   0.615
 1440SOL    HW234815   2.676   1.229   0.519
 1441SOL     OW34816   2.642   3.004   0.555
 1441SOL    HW134817   2.564   3.021   0.615
 1441SOL    HW234818   2.676   3.091   0.519
 1442SOL     OW34819   2.642   4.866   0.555
 1442SOL    HW134820   2.564   4.883   0.615
 1442SOL    HW234821   2.676   4.953   0.519
 1443SOL     OW34822   4.504   1.142   0.555
 1443SOL    HW134823   4.426   1.159   0.615
 1443SOL    HW234824   4.538   1.229   0.519
 1444SOL     OW34825   4.504   3.004   0.555
 1444SOL    HW134826   4.426   3.021   0.615
 1444SOL    HW234827   4.538   3.091   0.519
 1445SOL     OW34828   4.504   4.866   0.555
 1445SOL    HW134829   4.426   4.883   0.615
 1445SOL    HW234830   4.538   4.953   0.519
 1446SOL     OW34831   0.585   0.868   0.561
 1446SOL    HW134832   0.629   0.957   0.552
 1446SOL    HW234833   0.522   0.868   0.638
 1447SOL     OW34834   0.585   2.730   0.561
 1447SOL    HW134835   0.629   2.819   0.552
 1447SOL    HW234836   0.522   2.730   0.638
 1448SOL     OW34837   0.585   4.592   0.561
 1448SOL    HW134838   0.629   4.681   0.552
 1448SOL    HW234839   0.522   4.592   0.638
 1449SOL     OW34840   2.447   0.868   0.561
 1449SOL    HW134841   2.491   0.957   0.552
 1449SOL    HW234842   2.384   0.868   0.638
 1450SOL     OW34843   2.447   2.730   0.561
 1450SOL    HW134844   2.491   2.819   0.552
 1450SOL    HW234845   2.384   2.730   0.638
 1451SOL     OW34846   2.447   4.592   0.561
 1451SOL    HW134847   2.491   4.681   0.552
 1451SOL    HW234848   2.384   4.592   0.638
 1452SOL     OW34849   4.309   0.868   0.561
 1452SOL    HW134850   4.353   0.957   0.552
 1452SOL    HW234851   4.246   0.868   0.638
 1453SOL     OW34852   4.309   2.730   0.561
 1453SOL    HW134853   4.353   2.819   0.552
 1453SOL    HW234854   4.246   2.730   0.638
 1454SOL     OW34855   4.309   4.592   0.561
 1454SOL    HW134856   4.353   4.681   0.552
 1454SOL    HW234857   4.246   4.592   0.638
 1455SOL     OW34858   6.171   0.868   0.561
 1455SOL    HW134859   6.215   0.957   0.552
 1455SOL    HW234860   6.108   0.868   0.638
 1456SOL     OW34861   6.171   2.730   0.561
 1456SOL    HW134862   6.215   2.819   0.552
 1456SOL    HW234863   6.108   2.730   0.638
 1457SOL     OW34864   6.171   4.592   0.561
 1457SOL    HW134865   6.215   4.681   0.552
 1457SOL    HW234866   6.108   4.592   0.638
 1458SOL     OW34867   0.985   0.888  12.276
 1458SOL    HW134868   1.031   0.804  12.247
 1458SOL    HW234869   0.929   0.922  12.201
 1459SOL     OW34870   0.985   2.750  12.276
 1459SOL    HW134871   1.031   2.666  12.247
 1459SOL    HW234872   0.929   2.784  12.201
 1460SOL     OW34873   0.985   4.612  12.276
 1460SOL    HW134874   1.031   4.528  12.247
 1460SOL    HW234875   0.929   4.646  12.201
 1461SOL     OW34876   2.847   0.888  12.276
 1461SOL    HW134877   2.893   0.804  12.247
 1461SOL    HW234878   2.791   0.922  12.201
 1462SOL     OW34879   2.847   2.750  12.276
 1462SOL    HW134880   2.893   2.666  12.247
 1462SOL    HW234881   2.791   2.784  12.201
 1463SOL     OW34882   2.847   4.612  12.276
 1463SOL    HW134883   2.893   4.528  12.247
 1463SOL    HW234884   2.791   4.646  12.201
 1464SOL     OW34885   4.709   0.888  12.276
 1464SOL    HW134886   4.755   0.804  12.247
 1464SOL    HW234887   4.653   0.922  12.201
 1465SOL     OW34888   4.709   2.750  12.276
 1465SOL    HW134889   4.755   2.666  12.247
 1465SOL    HW234890   4.653   2.784  12.201
 1466SOL     OW34891   4.709   4.612  12.276
 1466SOL    HW134892   4.755   4.528  12.247
 1466SOL    HW234893   4.653   4.646  12.201
 1467SOL     OW34894   0.142   1.819  12.275
 1467SOL    HW134895   0.132   1.804  12.374
 1467SOL    HW234896   0.056   1.855  12.239
 1468SOL     OW34897   0.142   3.681  12.275
 1468SOL    HW134898   0.132   3.666  12.374
 1468SOL    HW234899   0.056   3.717  12.239
 1469SOL     OW34900   0.142   5.543  12.275
 1469SOL    HW134901   0.132   5.528  12.374
 1469SOL    HW234902   0.056   5.579  12.239
 1470SOL     OW34903   2.004   1.819  12.275
 1470SOL    HW134904   1.994   1.804  12.374
 1470SOL    HW234905   1.918   1.855  12.239
 1471SOL     OW34906   2.004   3.681  12.275
 1471SOL    HW134907   1.994   3.666  12.374
 1471SOL    HW234908   1.918   3.717  12.239
 1472SOL     OW34909   2.004   5.543  12.275
 1472SOL    HW134910   1.994   5.528  12.374
 1472SOL    HW234911   1.918   5.579  12.239
 1473SOL     OW34912   3.866   1.819  12.275
 1473SOL    HW134913   3.856   1.804  12.374
 1473SOL    HW234914   3.780   1.855  12.239
 1474SOL     OW34915   3.866   3.681  12.275
 1474SOL    HW134916   3.856   3.666  12.374
 1474SOL    HW234917   3.780   3.717  12.239
 1475SOL     OW34918   3.866   5.543  12.275
 1475SOL    HW134919   3.856   5.528  12.374
 1475SOL    HW234920   3.780   5.579  12.239
 1476SOL     OW34921   5.728   1.819  12.275
 1476SOL    HW134922   5.718   1.804  12.374
 1476SOL    HW234923   5.642   1.855  12.239
 1477SOL     OW34924   5.728   3.681  12.275
 1477SOL    HW134925   5.718   3.666  12.374
 1477SOL    HW234926   5.642   3.717  12.239
 1478SOL     OW34927   5.728   5.543  12.275
 1478SOL    HW134928   5.718   5.528  12.374
 1478SOL    HW234929   5.642   5.579  12.239
 1479SOL     OW34930   1.372   0.860   0.577
 1479SOL    HW134931   1.297   0.860   0.511
 1479SOL    HW234932   1.409   0.768   0.586
 1480SOL     OW34933   1.372   2.722   0.577
 1480SOL    HW134934   1.297   2.722   0.511
 1480SOL    HW234935   1.409   2.630   0.586
 1481SOL     OW34936   1.372   4.584   0.577
 1481SOL    HW134937   1.297   4.584   0.511
 1481SOL    HW234938   1.409   4.492   0.586
 1482SOL     OW34939   1.372   6.446   0.577
 1482SOL    HW134940   1.297   6.446   0.511
 1482SOL    HW234941   1.409   6.354   0.586
 1483SOL     OW34942   3.234   0.860   0.577
 1483SOL    HW134943   3.159   0.860   0.511
 1483SOL    HW234944   3.271   0.768   0.586
 1484SOL     OW34945   3.234   2.722   0.577
 1484SOL    HW134946   3.159   2.722   0.511
 1484SOL    HW234947   3.271   2.630   0.586
 1485SOL     OW34948   3.234   4.584   0.577
 1485SOL    HW134949   3.159   4.584   0.511
 1485SOL    HW234950   3.271   4.492   0.586
 1486SOL     OW34951   3.234   6.446   0.577
 1486SOL    HW134952   3.159   6.446   0.511
 1486SOL    HW234953   3.271   6.354   0.586
 1487SOL     OW34954   5.096   0.860   0.577
 1487SOL    HW134955   5.021   0.860   0.511
 1487SOL    HW234956   5.133   0.768   0.586
 1488SOL     OW34957   5.096   2.722   0.577
 1488SOL    HW134958   5.021   2.722   0.511
 1488SOL    HW234959   5.133   2.630   0.586
 1489SOL     OW34960   5.096   4.584   0.577
 1489SOL    HW134961   5.021   4.584   0.511
 1489SOL    HW234962   5.133   4.492   0.586
 1490SOL     OW34963   5.096   6.446   0.577
 1490SOL    HW134964   5.021   6.446   0.511
 1490SOL    HW234965   5.133   6.354   0.586
 1491SOL     OW34966   0.402   1.739  12.264
 1491SOL    HW134967   0.311   1.780  12.262
 1491SOL    HW234968   0.395   1.645  12.296
 1492SOL     OW34969   0.402   3.601  12.264
 1492SOL    HW134970   0.311   3.642  12.262
 1492SOL    HW234971   0.395   3.507  12.296
 1493SOL     OW34972   0.402   5.463  12.264
 1493SOL    HW134973   0.311   5.504  12.262
 1493SOL    HW234974   0.395   5.369  12.296
 1494SOL     OW34975   2.264   1.739  12.264
 1494SOL    HW134976   2.173   1.780  12.262
 1494SOL    HW234977   2.257   1.645  12.296
 1495SOL     OW34978   2.264   3.601  12.264
 1495SOL    HW134979   2.173   3.642  12.262
 1495SOL    HW234980   2.257   3.507  12.296
 1496SOL     OW34981   2.264   5.463  12.264
 1496SOL    HW134982   2.173   5.504  12.262
 1496SOL    HW234983   2.257   5.369  12.296
 1497SOL     OW34984   4.126   1.739  12.264
 1497SOL    HW134985   4.035   1.780  12.262
 1497SOL    HW234986   4.119   1.645  12.296
 1498SOL     OW34987   4.126   3.601  12.264
 1498SOL    HW134988   4.035   3.642  12.262
 1498SOL    HW234989   4.119   3.507  12.296
 1499SOL     OW34990   4.126   5.463  12.264
 1499SOL    HW134991   4.035   5.504  12.262
 1499SOL    HW234992   4.119   5.369  12.296
 1500SOL     OW34993   5.988   1.739  12.264
 1500SOL    HW134994   5.897   1.780  12.262
 1500SOL    HW234995   5.981   1.645  12.296
 1501SOL     OW34996   5.988   3.601  12.264
 1501SOL    HW134997   5.897   3.642  12.262
 1501SOL    HW234998   5.981   3.507  12.296
 1502SOL     OW34999   5.988   5.463  12.264
 1502SOL    HW135000   5.897   5.504  12.262
 1502SOL    HW235001   5.981   5.369  12.296
 1503SOL     OW35002   0.347   1.433   0.593
 1503SOL    HW135003   0.269   1.402   0.540
 1503SOL    HW235004   0.405   1.491   0.536
 1504SOL     OW35005   0.347   3.295   0.593
 1504SOL    HW135006   0.269   3.264   0.540
 1504SOL    HW235007   0.405   3.353   0.536
 1505SOL     OW35008   0.347   5.157   0.593
 1505SOL    HW135009   0.269   5.126   0.540
 1505SOL    HW235010   0.405   5.215   0.536
 1506SOL     OW35011   2.209   1.433   0.593
 1506SOL    HW135012   2.131   1.402   0.540
 1506SOL    HW235013   2.267   1.491   0.536
 1507SOL     OW35014   2.209   3.295   0.593
 1507SOL    HW135015   2.131   3.264   0.540
 1507SOL    HW235016   2.267   3.353   0.536
 1508SOL     OW35017   2.209   5.157   0.593
 1508SOL    HW135018   2.131   5.126   0.540
 1508SOL    HW235019   2.267   5.215   0.536
 1509SOL     OW35020   4.071   1.433   0.593
 1509SOL    HW135021   3.993   1.402   0.540
 1509SOL    HW235022   4.129   1.491   0.536
 1510SOL     OW35023   4.071   3.295   0.593
 1510SOL    HW135024   3.993   3.264   0.540
 1510SOL    HW235025   4.129   3.353   0.536
 1511SOL     OW35026   4.071   5.157   0.593
 1511SOL    HW135027   3.993   5.126   0.540
 1511SOL    HW235028   4.129   5.215   0.536
 1512SOL     OW35029   5.933   1.433   0.593
 1512SOL    HW135030   5.855   1.402   0.540
 1512SOL    HW235031   5.991   1.491   0.536
 1513SOL     OW35032   5.933   3.295   0.593
 1513SOL    HW135033   5.855   3.264   0.540
 1513SOL    HW235034   5.991   3.353   0.536
 1514SOL     OW35035   5.933   5.157   0.593
 1514SOL    HW135036   5.855   5.126   0.540
 1514SOL    HW235037   5.991   5.215   0.536
 1515SOL     OW35038   0.744   0.632   0.596
 1515SOL    HW135039   0.803   0.606   0.520
 1515SOL    HW235040   0.716   0.728   0.585
 1516SOL     OW35041   0.744   2.494   0.596
 1516SOL    HW135042   0.803   2.468   0.520
 1516SOL    HW235043   0.716   2.590   0.585
 1517SOL     OW35044   0.744   4.356   0.596
 1517SOL    HW135045   0.803   4.330   0.520
 1517SOL    HW235046   0.716   4.452   0.585
 1518SOL     OW35047   0.744   6.218   0.596
 1518SOL    HW135048   0.803   6.192   0.520
 1518SOL    HW235049   0.716   6.314   0.585
 1519SOL     OW35050   2.606   0.632   0.596
 1519SOL    HW135051   2.665   0.606   0.520
 1519SOL    HW235052   2.578   0.728   0.585
 1520SOL     OW35053   2.606   2.494   0.596
 1520SOL    HW135054   2.665   2.468   0.520
 1520SOL    HW235055   2.578   2.590   0.585
 1521SOL     OW35056   2.606   4.356   0.596
 1521SOL    HW135057   2.665   4.330   0.520
 1521SOL    HW235058   2.578   4.452   0.585
 1522SOL     OW35059   2.606   6.218   0.596
 1522SOL    HW135060   2.665   6.192   0.520
 1522SOL    HW235061   2.578   6.314   0.585
 1523SOL     OW35062   4.468   0.632   0.596
 1523SOL    HW135063   4.527   0.606   0.520
 1523SOL    HW235064   4.440   0.728   0.585
 1524SOL     OW35065   4.468   2.494   0.596
 1524SOL    HW135066   4.527   2.468   0.520
 1524SOL    HW235067   4.440   2.590   0.585
 1525SOL     OW35068   4.468   4.356   0.596
 1525SOL    HW135069   4.527   4.330   0.520
 1525SOL    HW235070   4.440   4.452   0.585
 1526SOL     OW35071   4.468   6.218   0.596
 1526SOL    HW135072   4.527   6.192   0.520
 1526SOL    HW235073   4.440   6.314   0.585
 1527SOL     OW35074   6.330   0.632   0.596
 1527SOL    HW135075   6.389   0.606   0.520
 1527SOL    HW235076   6.302   0.728   0.585
 1528SOL     OW35077   6.330   2.494   0.596
 1528SOL    HW135078   6.389   2.468   0.520
 1528SOL    HW235079   6.302   2.590   0.585
 1529SOL     OW35080   6.330   4.356   0.596
 1529SOL    HW135081   6.389   4.330   0.520
 1529SOL    HW235082   6.302   4.452   0.585
 1530SOL     OW35083   6.330   6.218   0.596
 1530SOL    HW135084   6.389   6.192   0.520
 1530SOL    HW235085   6.302   6.314   0.585
 1531SOL     OW35086   1.650   1.097   0.611
 1531SOL    HW135087   1.655   1.178   0.670
 1531SOL    HW235088   1.564   1.099   0.560
 1532SOL     OW35089   1.650   2.959   0.611
 1532SOL    HW135090   1.655   3.040   0.670
 1532SOL    HW235091   1.564   2.961   0.560
 1533SOL     OW35092   1.650   4.821   0.611
 1533SOL    HW135093   1.655   4.902   0.670
 1533SOL    HW235094   1.564   4.823   0.560
 1534SOL     OW35095   3.512   1.097   0.611
 1534SOL    HW135096   3.517   1.178   0.670
 1534SOL    HW235097   3.426   1.099   0.560
 1535SOL     OW35098   3.512   2.959   0.611
 1535SOL    HW135099   3.517   3.040   0.670
 1535SOL    HW235100   3.426   2.961   0.560
 1536SOL     OW35101   3.512   4.821   0.611
 1536SOL    HW135102   3.517   4.902   0.670
 1536SOL    HW235103   3.426   4.823   0.560
 1537SOL     OW35104   5.374   1.097   0.611
 1537SOL    HW135105   5.379   1.178   0.670
 1537SOL    HW235106   5.288   1.099   0.560
 1538SOL     OW35107   5.374   2.959   0.611
 1538SOL    HW135108   5.379   3.040   0.670
 1538SOL    HW235109   5.288   2.961   0.560
 1539SOL     OW35110   5.374   4.821   0.611
 1539SOL    HW135111   5.379   4.902   0.670
 1539SOL    HW235112   5.288   4.823   0.560
 1540SOL     OW35113   1.742   0.932  12.221
 1540SOL    HW135114   1.780   1.023  12.236
 1540SOL    HW235115   1.734   0.915  12.122
 1541SOL     OW35116   1.742   2.794  12.221
 1541SOL    HW135117   1.780   2.885  12.236
 1541SOL    HW235118   1.734   2.777  12.122
 1542SOL     OW35119   1.742   4.656  12.221
 1542SOL    HW135120   1.780   4.747  12.236
 1542SOL    HW235121   1.734   4.639  12.122
 1543SOL     OW35122   3.604   0.932  12.221
 1543SOL    HW135123   3.642   1.023  12.236
 1543SOL    HW235124   3.596   0.915  12.122
 1544SOL     OW35125   3.604   2.794  12.221
 1544SOL    HW135126   3.642   2.885  12.236
 1544SOL    HW235127   3.596   2.777  12.122
 1545SOL     OW35128   3.604   4.656  12.221
 1545SOL    HW135129   3.642   4.747  12.236
 1545SOL    HW235130   3.596   4.639  12.122
 1546SOL     OW35131   5.466   0.932  12.221
 1546SOL    HW135132   5.504   1.023  12.236
 1546SOL    HW235133   5.458   0.915  12.122
 1547SOL     OW35134   5.466   2.794  12.221
 1547SOL    HW135135   5.504   2.885  12.236
 1547SOL    HW235136   5.458   2.777  12.122
 1548SOL     OW35137   5.466   4.656  12.221
 1548SOL    HW135138   5.504   4.747  12.236
 1548SOL    HW235139   5.458   4.639  12.122
 1549SOL     OW35140   1.123   1.193   0.632
 1549SOL    HW135141   1.083   1.237   0.713
 1549SOL    HW235142   1.082   1.230   0.549
 1550SOL     OW35143   1.123   3.055   0.632
 1550SOL    HW135144   1.083   3.099   0.713
 1550SOL    HW235145   1.082   3.092   0.549
 1551SOL     OW35146   1.123   4.917   0.632
 1551SOL    HW135147   1.083   4.961   0.713
 1551SOL    HW235148   1.082   4.954   0.549
 1552SOL     OW35149   2.985   1.193   0.632
 1552SOL    HW135150   2.945   1.237   0.713
 1552SOL    HW235151   2.944   1.230   0.549
 1553SOL     OW35152   2.985   3.055   0.632
 1553SOL    HW135153   2.945   3.099   0.713
 1553SOL    HW235154   2.944   3.092   0.549
 1554SOL     OW35155   2.985   4.917   0.632
 1554SOL    HW135156   2.945   4.961   0.713
 1554SOL    HW235157   2.944   4.954   0.549
 1555SOL     OW35158   4.847   1.193   0.632
 1555SOL    HW135159   4.807   1.237   0.713
 1555SOL    HW235160   4.806   1.230   0.549
 1556SOL     OW35161   4.847   3.055   0.632
 1556SOL    HW135162   4.807   3.099   0.713
 1556SOL    HW235163   4.806   3.092   0.549
 1557SOL     OW35164   4.847   4.917   0.632
 1557SOL    HW135165   4.807   4.961   0.713
 1557SOL    HW235166   4.806   4.954   0.549
 1558SOL     OW35167   1.239   1.548  12.210
 1558SOL    HW135168   1.245   1.471  12.274
 1558SOL    HW235169   1.187   1.522  12.130
 1559SOL     OW35170   1.239   3.410  12.210
 1559SOL    HW135171   1.245   3.333  12.274
 1559SOL    HW235172   1.187   3.384  12.130
 1560SOL     OW35173   1.239   5.272  12.210
 1560SOL    HW135174   1.245   5.195  12.274
 1560SOL    HW235175   1.187   5.246  12.130
 1561SOL     OW35176   3.101   1.548  12.210
 1561SOL    HW135177   3.107   1.471  12.274
 1561SOL    HW235178   3.049   1.522  12.130
 1562SOL     OW35179   3.101   3.410  12.210
 1562SOL    HW135180   3.107   3.333  12.274
 1562SOL    HW235181   3.049   3.384  12.130
 1563SOL     OW35182   3.101   5.272  12.210
 1563SOL    HW135183   3.107   5.195  12.274
 1563SOL    HW235184   3.049   5.246  12.130
 1564SOL     OW35185   4.963   1.548  12.210
 1564SOL    HW135186   4.969   1.471  12.274
 1564SOL    HW235187   4.911   1.522  12.130
 1565SOL     OW35188   4.963   3.410  12.210
 1565SOL    HW135189   4.969   3.333  12.274
 1565SOL    HW235190   4.911   3.384  12.130
 1566SOL     OW35191   4.963   5.272  12.210
 1566SOL    HW135192   4.969   5.195  12.274
 1566SOL    HW235193   4.911   5.246  12.130
 1567SOL     OW35194   1.717   1.485   0.636
 1567SOL    HW135195   1.624   1.460   0.609
 1567SOL    HW235196   1.743   1.435   0.718
 1568SOL     OW35197   1.717   3.347   0.636
 1568SOL    HW135198   1.624   3.322   0.609
 1568SOL    HW235199   1.743   3.297   0.718
 1569SOL     OW35200   1.717   5.209   0.636
 1569SOL    HW135201   1.624   5.184   0.609
 1569SOL    HW235202   1.743   5.159   0.718
 1570SOL     OW35203   3.579   1.485   0.636
 1570SOL    HW135204   3.486   1.460   0.609
 1570SOL    HW235205   3.605   1.435   0.718
 1571SOL     OW35206   3.579   3.347   0.636
 1571SOL    HW135207   3.486   3.322   0.609
 1571SOL    HW235208   3.605   3.297   0.718
 1572SOL     OW35209   3.579   5.209   0.636
 1572SOL    HW135210   3.486   5.184   0.609
 1572SOL    HW235211   3.605   5.159   0.718
 1573SOL     OW35212   5.441   1.485   0.636
 1573SOL    HW135213   5.348   1.460   0.609
 1573SOL    HW235214   5.467   1.435   0.718
 1574SOL     OW35215   5.441   3.347   0.636
 1574SOL    HW135216   5.348   3.322   0.609
 1574SOL    HW235217   5.467   3.297   0.718
 1575SOL     OW35218   5.441   5.209   0.636
 1575SOL    HW135219   5.348   5.184   0.609
 1575SOL    HW235220   5.467   5.159   0.718
 1576SOL     OW35221   0.450   0.390  12.203
 1576SOL    HW135222   0.532   0.334  12.212
 1576SOL    HW235223   0.369   0.332  12.207
 1577SOL     OW35224   0.450   2.252  12.203
 1577SOL    HW135225   0.532   2.196  12.212
 1577SOL    HW235226   0.369   2.194  12.207
 1578SOL     OW35227   0.450   4.114  12.203
 1578SOL    HW135228   0.532   4.058  12.212
 1578SOL    HW235229   0.369   4.056  12.207
 1579SOL     OW35230   0.450   5.976  12.203
 1579SOL    HW135231   0.532   5.920  12.212
 1579SOL    HW235232   0.369   5.918  12.207
 1580SOL     OW35233   2.312   0.390  12.203
 1580SOL    HW135234   2.394   0.334  12.212
 1580SOL    HW235235   2.231   0.332  12.207
 1581SOL     OW35236   2.312   2.252  12.203
 1581SOL    HW135237   2.394   2.196  12.212
 1581SOL    HW235238   2.231   2.194  12.207
 1582SOL     OW35239   2.312   4.114  12.203
 1582SOL    HW135240   2.394   4.058  12.212
 1582SOL    HW235241   2.231   4.056  12.207
 1583SOL     OW35242   2.312   5.976  12.203
 1583SOL    HW135243   2.394   5.920  12.212
 1583SOL    HW235244   2.231   5.918  12.207
 1584SOL     OW35245   4.174   0.390  12.203
 1584SOL    HW135246   4.256   0.334  12.212
 1584SOL    HW235247   4.093   0.332  12.207
 1585SOL     OW35248   4.174   2.252  12.203
 1585SOL    HW135249   4.256   2.196  12.212
 1585SOL    HW235250   4.093   2.194  12.207
 1586SOL     OW35251   4.174   4.114  12.203
 1586SOL    HW135252   4.256   4.058  12.212
 1586SOL    HW235253   4.093   4.056  12.207
 1587SOL     OW35254   4.174   5.976  12.203
 1587SOL    HW135255   4.256   5.920  12.212
 1587SOL    HW235256   4.093   5.918  12.207
 1588SOL     OW35257   6.036   0.390  12.203
 1588SOL    HW135258   6.118   0.334  12.212
 1588SOL    HW235259   5.955   0.332  12.207
 1589SOL     OW35260   6.036   2.252  12.203
 1589SOL    HW135261   6.118   2.196  12.212
 1589SOL    HW235262   5.955   2.194  12.207
 1590SOL     OW35263   6.036   4.114  12.203
 1590SOL    HW135264   6.118   4.058  12.212
 1590SOL    HW235265   5.955   4.056  12.207
 1591SOL     OW35266   6.036   5.976  12.203
 1591SOL    HW135267   6.118   5.920  12.212
 1591SOL    HW235268   5.955   5.918  12.207
 1592SOL     OW35269   0.214   0.283  12.202
 1592SOL    HW135270   0.134   0.343  12.189
 1592SOL    HW235271   0.204   0.234  12.288
 1593SOL     OW35272   0.214   2.145  12.202
 1593SOL    HW135273   0.134   2.205  12.189
 1593SOL    HW235274   0.204   2.096  12.288
 1594SOL     OW35275   0.214   4.007  12.202
 1594SOL    HW135276   0.134   4.067  12.189
 1594SOL    HW235277   0.204   3.958  12.288
 1595SOL     OW35278   0.214   5.869  12.202
 1595SOL    HW135279   0.134   5.929  12.189
 1595SOL    HW235280   0.204   5.820  12.288
 1596SOL     OW35281   2.076   0.283  12.202
 1596SOL    HW135282   1.996   0.343  12.189
 1596SOL    HW235283   2.066   0.234  12.288
 1597SOL     OW35284   2.076   2.145  12.202
 1597SOL    HW135285   1.996   2.205  12.189
 1597SOL    HW235286   2.066   2.096  12.288
 1598SOL     OW35287   2.076   4.007  12.202
 1598SOL    HW135288   1.996   4.067  12.189
 1598SOL    HW235289   2.066   3.958  12.288
 1599SOL     OW35290   2.076   5.869  12.202
 1599SOL    HW135291   1.996   5.929  12.189
 1599SOL    HW235292   2.066   5.820  12.288
 1600SOL     OW35293   3.938   0.283  12.202
 1600SOL    HW135294   3.858   0.343  12.189
 1600SOL    HW235295   3.928   0.234  12.288
 1601SOL     OW35296   3.938   2.145  12.202
 1601SOL    HW135297   3.858   2.205  12.189
 1601SOL    HW235298   3.928   2.096  12.288
 1602SOL     OW35299   3.938   4.007  12.202
 1602SOL    HW135300   3.858   4.067  12.189
 1602SOL    HW235301   3.928   3.958  12.288
 1603SOL     OW35302   3.938   5.869  12.202
 1603SOL    HW135303   3.858   5.929  12.189
 1603SOL    HW235304   3.928   5.820  12.288
 1604SOL     OW35305   5.800   0.283  12.202
 1604SOL    HW135306   5.720   0.343  12.189
 1604SOL    HW235307   5.790   0.234  12.288
 1605SOL     OW35308   5.800   2.145  12.202
 1605SOL    HW135309   5.720   2.205  12.189
 1605SOL    HW235310   5.790   2.096  12.288
 1606SOL     OW35311   5.800   4.007  12.202
 1606SOL    HW135312   5.720   4.067  12.189
 1606SOL    HW235313   5.790   3.958  12.288
 1607SOL     OW35314   5.800   5.869  12.202
 1607SOL    HW135315   5.720   5.929  12.189
 1607SOL    HW235316   5.790   5.820  12.288
 1608SOL     OW35317   1.436   0.212   0.644
 1608SOL    HW135318   1.488   0.147   0.699
 1608SOL    HW235319   1.387   0.275   0.705
 1609SOL     OW35320   1.436   2.074   0.644
 1609SOL    HW135321   1.488   2.009   0.699
 1609SOL    HW235322   1.387   2.137   0.705
 1610SOL     OW35323   1.436   3.936   0.644
 1610SOL    HW135324   1.488   3.871   0.699
 1610SOL    HW235325   1.387   3.999   0.705
 1611SOL     OW35326   1.436   5.798   0.644
 1611SOL    HW135327   1.488   5.733   0.699
 1611SOL    HW235328   1.387   5.861   0.705
 1612SOL     OW35329   3.298   0.212   0.644
 1612SOL    HW135330   3.350   0.147   0.699
 1612SOL    HW235331   3.249   0.275   0.705
 1613SOL     OW35332   3.298   2.074   0.644
 1613SOL    HW135333   3.350   2.009   0.699
 1613SOL    HW235334   3.249   2.137   0.705
 1614SOL     OW35335   3.298   3.936   0.644
 1614SOL    HW135336   3.350   3.871   0.699
 1614SOL    HW235337   3.249   3.999   0.705
 1615SOL     OW35338   3.298   5.798   0.644
 1615SOL    HW135339   3.350   5.733   0.699
 1615SOL    HW235340   3.249   5.861   0.705
 1616SOL     OW35341   5.160   0.212   0.644
 1616SOL    HW135342   5.212   0.147   0.699
 1616SOL    HW235343   5.111   0.275   0.705
 1617SOL     OW35344   5.160   2.074   0.644
 1617SOL    HW135345   5.212   2.009   0.699
 1617SOL    HW235346   5.111   2.137   0.705
 1618SOL     OW35347   5.160   3.936   0.644
 1618SOL    HW135348   5.212   3.871   0.699
 1618SOL    HW235349   5.111   3.999   0.705
 1619SOL     OW35350   5.160   5.798   0.644
 1619SOL    HW135351   5.212   5.733   0.699
 1619SOL    HW235352   5.111   5.861   0.705
 1620SOL     OW35353   0.052   0.542   0.646
 1620SOL    HW135354   0.137   0.509   0.605
 1620SOL    HW235355   0.065   0.557   0.744
 1621SOL     OW35356   0.052   2.404   0.646
 1621SOL    HW135357   0.137   2.371   0.605
 1621SOL    HW235358   0.065   2.419   0.744
 1622SOL     OW35359   0.052   4.266   0.646
 1622SOL    HW135360   0.137   4.233   0.605
 1622SOL    HW235361   0.065   4.281   0.744
 1623SOL     OW35362   0.052   6.128   0.646
 1623SOL    HW135363   0.137   6.095   0.605
 1623SOL    HW235364   0.065   6.143   0.744
 1624SOL     OW35365   1.914   0.542   0.646
 1624SOL    HW135366   1.999   0.509   0.605
 1624SOL    HW235367   1.927   0.557   0.744
 1625SOL     OW35368   1.914   2.404   0.646
 1625SOL    HW135369   1.999   2.371   0.605
 1625SOL    HW235370   1.927   2.419   0.744
 1626SOL     OW35371   1.914   4.266   0.646
 1626SOL    HW135372   1.999   4.233   0.605
 1626SOL    HW235373   1.927   4.281   0.744
 1627SOL     OW35374   1.914   6.128   0.646
 1627SOL    HW135375   1.999   6.095   0.605
 1627SOL    HW235376   1.927   6.143   0.744
 1628SOL     OW35377   3.776   0.542   0.646
 1628SOL    HW135378   3.861   0.509   0.605
 1628SOL    HW235379   3.789   0.557   0.744
 1629SOL     OW35380   3.776   2.404   0.646
 1629SOL    HW135381   3.861   2.371   0.605
 1629SOL    HW235382   3.789   2.419   0.744
 1630SOL     OW35383   3.776   4.266   0.646
 1630SOL    HW135384   3.861   4.233   0.605
 1630SOL    HW235385   3.789   4.281   0.744
 1631SOL     OW35386   3.776   6.128   0.646
 1631SOL    HW135387   3.861   6.095   0.605
 1631SOL    HW235388   3.789   6.143   0.744
 1632SOL     OW35389   5.638   0.542   0.646
 1632SOL    HW135390   5.723   0.509   0.605
 1632SOL    HW235391   5.651   0.557   0.744
 1633SOL     OW35392   5.638   2.404   0.646
 1633SOL    HW135393   5.723   2.371   0.605
 1633SOL    HW235394   5.651   2.419   0.744
 1634SOL     OW35395   5.638   4.266   0.646
 1634SOL    HW135396   5.723   4.233   0.605
 1634SOL    HW235397   5.651   4.281   0.744
 1635SOL     OW35398   5.638   6.128   0.646
 1635SOL    HW135399   5.723   6.095   0.605
 1635SOL    HW235400   5.651   6.143   0.744
 1636SOL     OW35401   0.384   1.286  12.194
 1636SOL    HW135402   0.371   1.379  12.160
 1636SOL    HW235403   0.300   1.234  12.181
 1637SOL     OW35404   0.384   3.148  12.194
 1637SOL    HW135405   0.371   3.241  12.160
 1637SOL    HW235406   0.300   3.096  12.181
 1638SOL     OW35407   0.384   5.010  12.194
 1638SOL    HW135408   0.371   5.103  12.160
 1638SOL    HW235409   0.300   4.958  12.181
 1639SOL     OW35410   2.246   1.286  12.194
 1639SOL    HW135411   2.233   1.379  12.160
 1639SOL    HW235412   2.162   1.234  12.181
 1640SOL     OW35413   2.246   3.148  12.194
 1640SOL    HW135414   2.233   3.241  12.160
 1640SOL    HW235415   2.162   3.096  12.181
 1641SOL     OW35416   2.246   5.010  12.194
 1641SOL    HW135417   2.233   5.103  12.160
 1641SOL    HW235418   2.162   4.958  12.181
 1642SOL     OW35419   4.108   1.286  12.194
 1642SOL    HW135420   4.095   1.379  12.160
 1642SOL    HW235421   4.024   1.234  12.181
 1643SOL     OW35422   4.108   3.148  12.194
 1643SOL    HW135423   4.095   3.241  12.160
 1643SOL    HW235424   4.024   3.096  12.181
 1644SOL     OW35425   4.108   5.010  12.194
 1644SOL    HW135426   4.095   5.103  12.160
 1644SOL    HW235427   4.024   4.958  12.181
 1645SOL     OW35428   5.970   1.286  12.194
 1645SOL    HW135429   5.957   1.379  12.160
 1645SOL    HW235430   5.886   1.234  12.181
 1646SOL     OW35431   5.970   3.148  12.194
 1646SOL    HW135432   5.957   3.241  12.160
 1646SOL    HW235433   5.886   3.096  12.181
 1647SOL     OW35434   5.970   5.010  12.194
 1647SOL    HW135435   5.957   5.103  12.160
 1647SOL    HW235436   5.886   4.958  12.181
 1648SOL     OW35437   0.684   0.201  12.193
 1648SOL    HW135438   0.774   0.185  12.153
 1648SOL    HW235439   0.692   0.206  12.292
 1649SOL     OW35440   0.684   2.063  12.193
 1649SOL    HW135441   0.774   2.047  12.153
 1649SOL    HW235442   0.692   2.068  12.292
 1650SOL     OW35443   0.684   3.925  12.193
 1650SOL    HW135444   0.774   3.909  12.153
 1650SOL    HW235445   0.692   3.930  12.292
 1651SOL     OW35446   0.684   5.787  12.193
 1651SOL    HW135447   0.774   5.771  12.153
 1651SOL    HW235448   0.692   5.792  12.292
 1652SOL     OW35449   2.546   0.201  12.193
 1652SOL    HW135450   2.636   0.185  12.153
 1652SOL    HW235451   2.554   0.206  12.292
 1653SOL     OW35452   2.546   2.063  12.193
 1653SOL    HW135453   2.636   2.047  12.153
 1653SOL    HW235454   2.554   2.068  12.292
 1654SOL     OW35455   2.546   3.925  12.193
 1654SOL    HW135456   2.636   3.909  12.153
 1654SOL    HW235457   2.554   3.930  12.292
 1655SOL     OW35458   2.546   5.787  12.193
 1655SOL    HW135459   2.636   5.771  12.153
 1655SOL    HW235460   2.554   5.792  12.292
 1656SOL     OW35461   4.408   0.201  12.193
 1656SOL    HW135462   4.498   0.185  12.153
 1656SOL    HW235463   4.416   0.206  12.292
 1657SOL     OW35464   4.408   2.063  12.193
 1657SOL    HW135465   4.498   2.047  12.153
 1657SOL    HW235466   4.416   2.068  12.292
 1658SOL     OW35467   4.408   3.925  12.193
 1658SOL    HW135468   4.498   3.909  12.153
 1658SOL    HW235469   4.416   3.930  12.292
 1659SOL     OW35470   4.408   5.787  12.193
 1659SOL    HW135471   4.498   5.771  12.153
 1659SOL    HW235472   4.416   5.792  12.292
 1660SOL     OW35473   6.270   0.201  12.193
 1660SOL    HW135474   6.360   0.185  12.153
 1660SOL    HW235475   6.278   0.206  12.292
 1661SOL     OW35476   6.270   2.063  12.193
 1661SOL    HW135477   6.360   2.047  12.153
 1661SOL    HW235478   6.278   2.068  12.292
 1662SOL     OW35479   6.270   3.925  12.193
 1662SOL    HW135480   6.360   3.909  12.153
 1662SOL    HW235481   6.278   3.930  12.292
 1663SOL     OW35482   6.270   5.787  12.193
 1663SOL    HW135483   6.360   5.771  12.153
 1663SOL    HW235484   6.278   5.792  12.292
 1664SOL     OW35485   1.264   1.729   0.660
 1664SOL    HW135486   1.348   1.734   0.606
 1664SOL    HW235487   1.241   1.633   0.678
 1665SOL     OW35488   1.264   3.591   0.660
 1665SOL    HW135489   1.348   3.596   0.606
 1665SOL    HW235490   1.241   3.495   0.678
 1666SOL     OW35491   1.264   5.453   0.660
 1666SOL    HW135492   1.348   5.458   0.606
 1666SOL    HW235493   1.241   5.357   0.678
 1667SOL     OW35494   3.126   1.729   0.660
 1667SOL    HW135495   3.210   1.734   0.606
 1667SOL    HW235496   3.103   1.633   0.678
 1668SOL     OW35497   3.126   3.591   0.660
 1668SOL    HW135498   3.210   3.596   0.606
 1668SOL    HW235499   3.103   3.495   0.678
 1669SOL     OW35500   3.126   5.453   0.660
 1669SOL    HW135501   3.210   5.458   0.606
 1669SOL    HW235502   3.103   5.357   0.678
 1670SOL     OW35503   4.988   1.729   0.660
 1670SOL    HW135504   5.072   1.734   0.606
 1670SOL    HW235505   4.965   1.633   0.678
 1671SOL     OW35506   4.988   3.591   0.660
 1671SOL    HW135507   5.072   3.596   0.606
 1671SOL    HW235508   4.965   3.495   0.678
 1672SOL     OW35509   4.988   5.453   0.660
 1672SOL    HW135510   5.072   5.458   0.606
 1672SOL    HW235511   4.965   5.357   0.678
 1673SOL     OW35512   1.606   0.112  12.184
 1673SOL    HW135513   1.588   0.179  12.112
 1673SOL    HW235514   1.603   0.158  12.273
 1674SOL     OW35515   1.606   1.974  12.184
 1674SOL    HW135516   1.588   2.041  12.112
 1674SOL    HW235517   1.603   2.020  12.273
 1675SOL     OW35518   1.606   3.836  12.184
 1675SOL    HW135519   1.588   3.903  12.112
 1675SOL    HW235520   1.603   3.882  12.273
 1676SOL     OW35521   1.606   5.698  12.184
 1676SOL    HW135522   1.588   5.765  12.112
 1676SOL    HW235523   1.603   5.744  12.273
 1677SOL     OW35524   3.468   0.112  12.184
 1677SOL    HW135525   3.450   0.179  12.112
 1677SOL    HW235526   3.465   0.158  12.273
 1678SOL     OW35527   3.468   1.974  12.184
 1678SOL    HW135528   3.450   2.041  12.112
 1678SOL    HW235529   3.465   2.020  12.273
 1679SOL     OW35530   3.468   3.836  12.184
 1679SOL    HW135531   3.450   3.903  12.112
 1679SOL    HW235532   3.465   3.882  12.273
 1680SOL     OW35533   3.468   5.698  12.184
 1680SOL    HW135534   3.450   5.765  12.112
 1680SOL    HW235535   3.465   5.744  12.273
 1681SOL     OW35536   5.330   0.112  12.184
 1681SOL    HW135537   5.312   0.179  12.112
 1681SOL    HW235538   5.327   0.158  12.273
 1682SOL     OW35539   5.330   1.974  12.184
 1682SOL    HW135540   5.312   2.041  12.112
 1682SOL    HW235541   5.327   2.020  12.273
 1683SOL     OW35542   5.330   3.836  12.184
 1683SOL    HW135543   5.312   3.903  12.112
 1683SOL    HW235544   5.327   3.882  12.273
 1684SOL     OW35545   5.330   5.698  12.184
 1684SOL    HW135546   5.312   5.765  12.112
 1684SOL    HW235547   5.327   5.744  12.273
 1685SOL     OW35548   1.172   0.205  12.181
 1685SOL    HW135549   1.172   0.269  12.258
 1685SOL    HW235550   1.200   0.253  12.098
 1686SOL     OW35551   1.172   2.067  12.181
 1686SOL    HW135552   1.172   2.131  12.258
 1686SOL    HW235553   1.200   2.115  12.098
 1687SOL     OW35554   1.172   3.929  12.181
 1687SOL    HW135555   1.172   3.993  12.258
 1687SOL    HW235556   1.200   3.977  12.098
 1688SOL     OW35557   1.172   5.791  12.181
 1688SOL    HW135558   1.172   5.855  12.258
 1688SOL    HW235559   1.200   5.839  12.098
 1689SOL     OW35560   3.034   0.205  12.181
 1689SOL    HW135561   3.034   0.269  12.258
 1689SOL    HW235562   3.062   0.253  12.098
 1690SOL     OW35563   3.034   2.067  12.181
 1690SOL    HW135564   3.034   2.131  12.258
 1690SOL    HW235565   3.062   2.115  12.098
 1691SOL     OW35566   3.034   3.929  12.181
 1691SOL    HW135567   3.034   3.993  12.258
 1691SOL    HW235568   3.062   3.977  12.098
 1692SOL     OW35569   3.034   5.791  12.181
 1692SOL    HW135570   3.034   5.855  12.258
 1692SOL    HW235571   3.062   5.839  12.098
 1693SOL     OW35572   4.896   0.205  12.181
 1693SOL    HW135573   4.896   0.269  12.258
 1693SOL    HW235574   4.924   0.253  12.098
 1694SOL     OW35575   4.896   2.067  12.181
 1694SOL    HW135576   4.896   2.131  12.258
 1694SOL    HW235577   4.924   2.115  12.098
 1695SOL     OW35578   4.896   3.929  12.181
 1695SOL    HW135579   4.896   3.993  12.258
 1695SOL    HW235580   4.924   3.977  12.098
 1696SOL     OW35581   4.896   5.791  12.181
 1696SOL    HW135582   4.896   5.855  12.258
 1696SOL    HW235583   4.924   5.839  12.098
 1697SOL     OW35584   1.284   1.443   0.674
 1697SOL    HW135585   1.331   1.456   0.761
 1697SOL    HW235586   1.218   1.369   0.683
 1698SOL     OW35587   1.284   3.305   0.674
 1698SOL    HW135588   1.331   3.318   0.761
 1698SOL    HW235589   1.218   3.231   0.683
 1699SOL     OW35590   1.284   5.167   0.674
 1699SOL    HW135591   1.331   5.180   0.761
 1699SOL    HW235592   1.218   5.093   0.683
 1700SOL     OW35593   3.146   1.443   0.674
 1700SOL    HW135594   3.193   1.456   0.761
 1700SOL    HW235595   3.080   1.369   0.683
 1701SOL     OW35596   3.146   3.305   0.674
 1701SOL    HW135597   3.193   3.318   0.761
 1701SOL    HW235598   3.080   3.231   0.683
 1702SOL     OW35599   3.146   5.167   0.674
 1702SOL    HW135600   3.193   5.180   0.761
 1702SOL    HW235601   3.080   5.093   0.683
 1703SOL     OW35602   5.008   1.443   0.674
 1703SOL    HW135603   5.055   1.456   0.761
 1703SOL    HW235604   4.942   1.369   0.683
 1704SOL     OW35605   5.008   3.305   0.674
 1704SOL    HW135606   5.055   3.318   0.761
 1704SOL    HW235607   4.942   3.231   0.683
 1705SOL     OW35608   5.008   5.167   0.674
 1705SOL    HW135609   5.055   5.180   0.761
 1705SOL    HW235610   4.942   5.093   0.683
 1706SOL     OW35611   0.171   1.135  12.170
 1706SOL    HW135612   0.193   1.074  12.246
 1706SOL    HW235613   0.181   1.086  12.084
 1707SOL     OW35614   0.171   2.997  12.170
 1707SOL    HW135615   0.193   2.936  12.246
 1707SOL    HW235616   0.181   2.948  12.084
 1708SOL     OW35617   0.171   4.859  12.170
 1708SOL    HW135618   0.193   4.798  12.246
 1708SOL    HW235619   0.181   4.810  12.084
 1709SOL     OW35620   2.033   1.135  12.170
 1709SOL    HW135621   2.055   1.074  12.246
 1709SOL    HW235622   2.043   1.086  12.084
 1710SOL     OW35623   2.033   2.997  12.170
 1710SOL    HW135624   2.055   2.936  12.246
 1710SOL    HW235625   2.043   2.948  12.084
 1711SOL     OW35626   2.033   4.859  12.170
 1711SOL    HW135627   2.055   4.798  12.246
 1711SOL    HW235628   2.043   4.810  12.084
 1712SOL     OW35629   3.895   1.135  12.170
 1712SOL    HW135630   3.917   1.074  12.246
 1712SOL    HW235631   3.905   1.086  12.084
 1713SOL     OW35632   3.895   2.997  12.170
 1713SOL    HW135633   3.917   2.936  12.246
 1713SOL    HW235634   3.905   2.948  12.084
 1714SOL     OW35635   3.895   4.859  12.170
 1714SOL    HW135636   3.917   4.798  12.246
 1714SOL    HW235637   3.905   4.810  12.084
 1715SOL     OW35638   5.757   1.135  12.170
 1715SOL    HW135639   5.779   1.074  12.246
 1715SOL    HW235640   5.767   1.086  12.084
 1716SOL     OW35641   5.757   2.997  12.170
 1716SOL    HW135642   5.779   2.936  12.246
 1716SOL    HW235643   5.767   2.948  12.084
 1717SOL     OW35644   5.757   4.859  12.170
 1717SOL    HW135645   5.779   4.798  12.246
 1717SOL    HW235646   5.767   4.810  12.084
 1718SOL     OW35647   0.819   0.603  12.169
 1718SOL    HW135648   0.772   0.600  12.258
 1718SOL    HW235649   0.768   0.548  12.103
 1719SOL     OW35650   0.942   1.676  12.169
 1719SOL    HW135651   0.918   1.658  12.074
 1719SOL    HW235652   0.972   1.770  12.179
 1720SOL     OW35653   0.819   2.465  12.169
 1720SOL    HW135654   0.772   2.462  12.258
 1720SOL    HW235655   0.768   2.410  12.103
 1721SOL     OW35656   0.942   3.538  12.169
 1721SOL    HW135657   0.918   3.520  12.074
 1721SOL    HW235658   0.972   3.632  12.179
 1722SOL     OW35659   0.819   4.327  12.169
 1722SOL    HW135660   0.772   4.324  12.258
 1722SOL    HW235661   0.768   4.272  12.103
 1723SOL     OW35662   0.942   5.400  12.169
 1723SOL    HW135663   0.918   5.382  12.074
 1723SOL    HW235664   0.972   5.494  12.179
 1724SOL     OW35665   0.819   6.189  12.169
 1724SOL    HW135666   0.772   6.186  12.258
 1724SOL    HW235667   0.768   6.134  12.103
 1725SOL     OW35668   2.681   0.603  12.169
 1725SOL    HW135669   2.634   0.600  12.258
 1725SOL    HW235670   2.630   0.548  12.103
 1726SOL     OW35671   2.804   1.676  12.169
 1726SOL    HW135672   2.780   1.658  12.074
 1726SOL    HW235673   2.834   1.770  12.179
 1727SOL     OW35674   2.681   2.465  12.169
 1727SOL    HW135675   2.634   2.462  12.258
 1727SOL    HW235676   2.630   2.410  12.103
 1728SOL     OW35677   2.804   3.538  12.169
 1728SOL    HW135678   2.780   3.520  12.074
 1728SOL    HW235679   2.834   3.632  12.179
 1729SOL     OW35680   2.681   4.327  12.169
 1729SOL    HW135681   2.634   4.324  12.258
 1729SOL    HW235682   2.630   4.272  12.103
 1730SOL     OW35683   2.804   5.400  12.169
 1730SOL    HW135684   2.780   5.382  12.074
 1730SOL    HW235685   2.834   5.494  12.179
 1731SOL     OW35686   2.681   6.189  12.169
 1731SOL    HW135687   2.634   6.186  12.258
 1731SOL    HW235688   2.630   6.134  12.103
 1732SOL     OW35689   4.543   0.603  12.169
 1732SOL    HW135690   4.496   0.600  12.258
 1732SOL    HW235691   4.492   0.548  12.103
 1733SOL     OW35692   4.666   1.676  12.169
 1733SOL    HW135693   4.642   1.658  12.074
 1733SOL    HW235694   4.696   1.770  12.179
 1734SOL     OW35695   4.543   2.465  12.169
 1734SOL    HW135696   4.496   2.462  12.258
 1734SOL    HW235697   4.492   2.410  12.103
 1735SOL     OW35698   4.666   3.538  12.169
 1735SOL    HW135699   4.642   3.520  12.074
 1735SOL    HW235700   4.696   3.632  12.179
 1736SOL     OW35701   4.543   4.327  12.169
 1736SOL    HW135702   4.496   4.324  12.258
 1736SOL    HW235703   4.492   4.272  12.103
 1737SOL     OW35704   4.666   5.400  12.169
 1737SOL    HW135705   4.642   5.382  12.074
 1737SOL    HW235706   4.696   5.494  12.179
 1738SOL     OW35707   4.543   6.189  12.169
 1738SOL    HW135708   4.496   6.186  12.258
 1738SOL    HW235709   4.492   6.134  12.103
 1739SOL     OW35710   1.088   0.681  12.168
 1739SOL    HW135711   1.008   0.620  12.171
 1739SOL    HW235712   1.169   0.628  12.144
 1740SOL     OW35713   1.088   2.543  12.168
 1740SOL    HW135714   1.008   2.482  12.171
 1740SOL    HW235715   1.169   2.490  12.144
 1741SOL     OW35716   1.088   4.405  12.168
 1741SOL    HW135717   1.008   4.344  12.171
 1741SOL    HW235718   1.169   4.352  12.144
 1742SOL     OW35719   1.088   6.267  12.168
 1742SOL    HW135720   1.008   6.206  12.171
 1742SOL    HW235721   1.169   6.214  12.144
 1743SOL     OW35722   2.950   0.681  12.168
 1743SOL    HW135723   2.870   0.620  12.171
 1743SOL    HW235724   3.031   0.628  12.144
 1744SOL     OW35725   2.950   2.543  12.168
 1744SOL    HW135726   2.870   2.482  12.171
 1744SOL    HW235727   3.031   2.490  12.144
 1745SOL     OW35728   2.950   4.405  12.168
 1745SOL    HW135729   2.870   4.344  12.171
 1745SOL    HW235730   3.031   4.352  12.144
 1746SOL     OW35731   2.950   6.267  12.168
 1746SOL    HW135732   2.870   6.206  12.171
 1746SOL    HW235733   3.031   6.214  12.144
 1747SOL     OW35734   4.812   0.681  12.168
 1747SOL    HW135735   4.732   0.620  12.171
 1747SOL    HW235736   4.893   0.628  12.144
 1748SOL     OW35737   4.812   2.543  12.168
 1748SOL    HW135738   4.732   2.482  12.171
 1748SOL    HW235739   4.893   2.490  12.144
 1749SOL     OW35740   4.812   4.405  12.168
 1749SOL    HW135741   4.732   4.344  12.171
 1749SOL    HW235742   4.893   4.352  12.144
 1750SOL     OW35743   4.812   6.267  12.168
 1750SOL    HW135744   4.732   6.206  12.171
 1750SOL    HW235745   4.893   6.214  12.144
 1751SOL     OW35746   0.573   0.220   0.679
 1751SOL    HW135747   0.611   0.136   0.716
 1751SOL    HW235748   0.485   0.239   0.723
 1752SOL     OW35749   0.573   2.082   0.679
 1752SOL    HW135750   0.611   1.998   0.716
 1752SOL    HW235751   0.485   2.101   0.723
 1753SOL     OW35752   0.573   3.944   0.679
 1753SOL    HW135753   0.611   3.860   0.716
 1753SOL    HW235754   0.485   3.963   0.723
 1754SOL     OW35755   0.573   5.806   0.679
 1754SOL    HW135756   0.611   5.722   0.716
 1754SOL    HW235757   0.485   5.825   0.723
 1755SOL     OW35758   2.435   0.220   0.679
 1755SOL    HW135759   2.473   0.136   0.716
 1755SOL    HW235760   2.347   0.239   0.723
 1756SOL     OW35761   2.435   2.082   0.679
 1756SOL    HW135762   2.473   1.998   0.716
 1756SOL    HW235763   2.347   2.101   0.723
 1757SOL     OW35764   2.435   3.944   0.679
 1757SOL    HW135765   2.473   3.860   0.716
 1757SOL    HW235766   2.347   3.963   0.723
 1758SOL     OW35767   2.435   5.806   0.679
 1758SOL    HW135768   2.473   5.722   0.716
 1758SOL    HW235769   2.347   5.825   0.723
 1759SOL     OW35770   4.297   0.220   0.679
 1759SOL    HW135771   4.335   0.136   0.716
 1759SOL    HW235772   4.209   0.239   0.723
 1760SOL     OW35773   4.297   2.082   0.679
 1760SOL    HW135774   4.335   1.998   0.716
 1760SOL    HW235775   4.209   2.101   0.723
 1761SOL     OW35776   4.297   3.944   0.679
 1761SOL    HW135777   4.335   3.860   0.716
 1761SOL    HW235778   4.209   3.963   0.723
 1762SOL     OW35779   4.297   5.806   0.679
 1762SOL    HW135780   4.335   5.722   0.716
 1762SOL    HW235781   4.209   5.825   0.723
 1763SOL     OW35782   6.159   0.220   0.679
 1763SOL    HW135783   6.197   0.136   0.716
 1763SOL    HW235784   6.071   0.239   0.723
 1764SOL     OW35785   6.159   2.082   0.679
 1764SOL    HW135786   6.197   1.998   0.716
 1764SOL    HW235787   6.071   2.101   0.723
 1765SOL     OW35788   6.159   3.944   0.679
 1765SOL    HW135789   6.197   3.860   0.716
 1765SOL    HW235790   6.071   3.963   0.723
 1766SOL     OW35791   6.159   5.806   0.679
 1766SOL    HW135792   6.197   5.722   0.716
 1766SOL    HW235793   6.071   5.825   0.723
 1767SOL     OW35794   1.771   1.745   0.686
 1767SOL    HW135795   1.832   1.775   0.613
 1767SOL    HW235796   1.733   1.656   0.664
 1768SOL     OW35797   1.013   0.032   0.686
 1768SOL    HW135798   0.950   6.410   0.655
 1768SOL    HW235799   1.106   6.446   0.686
 1769SOL     OW35800   1.771   3.607   0.686
 1769SOL    HW135801   1.832   3.637   0.613
 1769SOL    HW235802   1.733   3.518   0.664
 1770SOL     OW35803   1.013   1.894   0.686
 1770SOL    HW135804   0.950   1.822   0.655
 1770SOL    HW235805   1.106   1.858   0.686
 1771SOL     OW35806   1.771   5.469   0.686
 1771SOL    HW135807   1.832   5.499   0.613
 1771SOL    HW235808   1.733   5.380   0.664
 1772SOL     OW35809   1.013   3.756   0.686
 1772SOL    HW135810   0.950   3.684   0.655
 1772SOL    HW235811   1.106   3.720   0.686
 1773SOL     OW35812   1.013   5.618   0.686
 1773SOL    HW135813   0.950   5.546   0.655
 1773SOL    HW235814   1.106   5.582   0.686
 1774SOL     OW35815   3.633   1.745   0.686
 1774SOL    HW135816   3.694   1.775   0.613
 1774SOL    HW235817   3.595   1.656   0.664
 1775SOL     OW35818   2.875   0.032   0.686
 1775SOL    HW135819   2.812   6.410   0.655
 1775SOL    HW235820   2.968   6.446   0.686
 1776SOL     OW35821   3.633   3.607   0.686
 1776SOL    HW135822   3.694   3.637   0.613
 1776SOL    HW235823   3.595   3.518   0.664
 1777SOL     OW35824   2.875   1.894   0.686
 1777SOL    HW135825   2.812   1.822   0.655
 1777SOL    HW235826   2.968   1.858   0.686
 1778SOL     OW35827   3.633   5.469   0.686
 1778SOL    HW135828   3.694   5.499   0.613
 1778SOL    HW235829   3.595   5.380   0.664
 1779SOL     OW35830   2.875   3.756   0.686
 1779SOL    HW135831   2.812   3.684   0.655
 1779SOL    HW235832   2.968   3.720   0.686
 1780SOL     OW35833   2.875   5.618   0.686
 1780SOL    HW135834   2.812   5.546   0.655
 1780SOL    HW235835   2.968   5.582   0.686
 1781SOL     OW35836   5.495   1.745   0.686
 1781SOL    HW135837   5.556   1.775   0.613
 1781SOL    HW235838   5.457   1.656   0.664
 1782SOL     OW35839   4.737   0.032   0.686
 1782SOL    HW135840   4.674   6.410   0.655
 1782SOL    HW235841   4.830   6.446   0.686
 1783SOL     OW35842   5.495   3.607   0.686
 1783SOL    HW135843   5.556   3.637   0.613
 1783SOL    HW235844   5.457   3.518   0.664
 1784SOL     OW35845   4.737   1.894   0.686
 1784SOL    HW135846   4.674   1.822   0.655
 1784SOL    HW235847   4.830   1.858   0.686
 1785SOL     OW35848   5.495   5.469   0.686
 1785SOL    HW135849   5.556   5.499   0.613
 1785SOL    HW235850   5.457   5.380   0.664
 1786SOL     OW35851   4.737   3.756   0.686
 1786SOL    HW135852   4.674   3.684   0.655
 1786SOL    HW235853   4.830   3.720   0.686
 1787SOL     OW35854   4.737   5.618   0.686
 1787SOL    HW135855   4.674   5.546   0.655
 1787SOL    HW235856   4.830   5.582   0.686
 1788SOL     OW35857   0.149   0.032   0.686
 1788SOL    HW135858   0.086   6.410   0.655
 1788SOL    HW235859   0.242   6.446   0.686
 1789SOL     OW35860   0.581   1.273   0.697
 1789SOL    HW135861   0.488   1.266   0.660
 1789SOL    HW235862   0.592   1.362   0.741
 1790SOL     OW35863   0.581   3.135   0.697
 1790SOL    HW135864   0.488   3.128   0.660
 1790SOL    HW235865   0.592   3.224   0.741
 1791SOL     OW35866   0.581   4.997   0.697
 1791SOL    HW135867   0.488   4.990   0.660
 1791SOL    HW235868   0.592   5.086   0.741
 1792SOL     OW35869   2.443   1.273   0.697
 1792SOL    HW135870   2.350   1.266   0.660
 1792SOL    HW235871   2.454   1.362   0.741
 1793SOL     OW35872   2.443   3.135   0.697
 1793SOL    HW135873   2.350   3.128   0.660
 1793SOL    HW235874   2.454   3.224   0.741
 1794SOL     OW35875   2.443   4.997   0.697
 1794SOL    HW135876   2.350   4.990   0.660
 1794SOL    HW235877   2.454   5.086   0.741
 1795SOL     OW35878   4.305   1.273   0.697
 1795SOL    HW135879   4.212   1.266   0.660
 1795SOL    HW235880   4.316   1.362   0.741
 1796SOL     OW35881   4.305   3.135   0.697
 1796SOL    HW135882   4.212   3.128   0.660
 1796SOL    HW235883   4.316   3.224   0.741
 1797SOL     OW35884   4.305   4.997   0.697
 1797SOL    HW135885   4.212   4.990   0.660
 1797SOL    HW235886   4.316   5.086   0.741
 1798SOL     OW35887   6.167   1.273   0.697
 1798SOL    HW135888   6.074   1.266   0.660
 1798SOL    HW235889   6.178   1.362   0.741
 1799SOL     OW35890   6.167   3.135   0.697
 1799SOL    HW135891   6.074   3.128   0.660
 1799SOL    HW235892   6.178   3.224   0.741
 1800SOL     OW35893   6.167   4.997   0.697
 1800SOL    HW135894   6.074   4.990   0.660
 1800SOL    HW235895   6.178   5.086   0.741
 1801SOL     OW35896   0.632   1.784  12.143
 1801SOL    HW135897   0.540   1.767  12.178
 1801SOL    HW235898   0.660   1.876  12.169
 1802SOL     OW35899   0.632   3.646  12.143
 1802SOL    HW135900   0.540   3.629  12.178
 1802SOL    HW235901   0.660   3.738  12.169
 1803SOL     OW35902   0.632   5.508  12.143
 1803SOL    HW135903   0.540   5.491  12.178
 1803SOL    HW235904   0.660   5.600  12.169
 1804SOL     OW35905   2.494   1.784  12.143
 1804SOL    HW135906   2.402   1.767  12.178
 1804SOL    HW235907   2.522   1.876  12.169
 1805SOL     OW35908   2.494   3.646  12.143
 1805SOL    HW135909   2.402   3.629  12.178
 1805SOL    HW235910   2.522   3.738  12.169
 1806SOL     OW35911   2.494   5.508  12.143
 1806SOL    HW135912   2.402   5.491  12.178
 1806SOL    HW235913   2.522   5.600  12.169
 1807SOL     OW35914   4.356   1.784  12.143
 1807SOL    HW135915   4.264   1.767  12.178
 1807SOL    HW235916   4.384   1.876  12.169
 1808SOL     OW35917   4.356   3.646  12.143
 1808SOL    HW135918   4.264   3.629  12.178
 1808SOL    HW235919   4.384   3.738  12.169
 1809SOL     OW35920   4.356   5.508  12.143
 1809SOL    HW135921   4.264   5.491  12.178
 1809SOL    HW235922   4.384   5.600  12.169
 1810SOL     OW35923   6.218   1.784  12.143
 1810SOL    HW135924   6.126   1.767  12.178
 1810SOL    HW235925   6.246   1.876  12.169
 1811SOL     OW35926   6.218   3.646  12.143
 1811SOL    HW135927   6.126   3.629  12.178
 1811SOL    HW235928   6.246   3.738  12.169
 1812SOL     OW35929   6.218   5.508  12.143
 1812SOL    HW135930   6.126   5.491  12.178
 1812SOL    HW235931   6.246   5.600  12.169
 1813SOL     OW35932   1.363   0.588  12.137
 1813SOL    HW135933   1.391   0.545  12.222
 1813SOL    HW235934   1.388   0.684  12.138
 1814SOL     OW35935   1.363   2.450  12.137
 1814SOL    HW135936   1.391   2.407  12.222
 1814SOL    HW235937   1.388   2.546  12.138
 1815SOL     OW35938   1.363   4.312  12.137
 1815SOL    HW135939   1.391   4.269  12.222
 1815SOL    HW235940   1.388   4.408  12.138
 1816SOL     OW35941   1.363   6.174  12.137
 1816SOL    HW135942   1.391   6.131  12.222
 1816SOL    HW235943   1.388   6.270  12.138
 1817SOL     OW35944   3.225   0.588  12.137
 1817SOL    HW135945   3.253   0.545  12.222
 1817SOL    HW235946   3.250   0.684  12.138
 1818SOL     OW35947   3.225   2.450  12.137
 1818SOL    HW135948   3.253   2.407  12.222
 1818SOL    HW235949   3.250   2.546  12.138
 1819SOL     OW35950   3.225   4.312  12.137
 1819SOL    HW135951   3.253   4.269  12.222
 1819SOL    HW235952   3.250   4.408  12.138
 1820SOL     OW35953   3.225   6.174  12.137
 1820SOL    HW135954   3.253   6.131  12.222
 1820SOL    HW235955   3.250   6.270  12.138
 1821SOL     OW35956   5.087   0.588  12.137
 1821SOL    HW135957   5.115   0.545  12.222
 1821SOL    HW235958   5.112   0.684  12.138
 1822SOL     OW35959   5.087   2.450  12.137
 1822SOL    HW135960   5.115   2.407  12.222
 1822SOL    HW235961   5.112   2.546  12.138
 1823SOL     OW35962   5.087   4.312  12.137
 1823SOL    HW135963   5.115   4.269  12.222
 1823SOL    HW235964   5.112   4.408  12.138
 1824SOL     OW35965   5.087   6.174  12.137
 1824SOL    HW135966   5.115   6.131  12.222
 1824SOL    HW235967   5.112   6.270  12.138
 1825SOL     OW35968   0.625   0.840  12.135
 1825SOL    HW135969   0.681   0.921  12.118
 1825SOL    HW235970   0.684   0.760  12.138
 1826SOL     OW35971   0.625   2.702  12.135
 1826SOL    HW135972   0.681   2.783  12.118
 1826SOL    HW235973   0.684   2.622  12.138
 1827SOL     OW35974   0.625   4.564  12.135
 1827SOL    HW135975   0.681   4.645  12.118
 1827SOL    HW235976   0.684   4.484  12.138
 1828SOL     OW35977   0.625   6.426  12.135
 1828SOL    HW135978   0.681   0.057  12.118
 1828SOL    HW235979   0.684   6.346  12.138
 1829SOL     OW35980   2.487   0.840  12.135
 1829SOL    HW135981   2.543   0.921  12.118
 1829SOL    HW235982   2.546   0.760  12.138
 1830SOL     OW35983   2.487   2.702  12.135
 1830SOL    HW135984   2.543   2.783  12.118
 1830SOL    HW235985   2.546   2.622  12.138
 1831SOL     OW35986   2.487   4.564  12.135
 1831SOL    HW135987   2.543   4.645  12.118
 1831SOL    HW235988   2.546   4.484  12.138
 1832SOL     OW35989   2.487   6.426  12.135
 1832SOL    HW135990   2.543   0.057  12.118
 1832SOL    HW235991   2.546   6.346  12.138
 1833SOL     OW35992   4.349   0.840  12.135
 1833SOL    HW135993   4.405   0.921  12.118
 1833SOL    HW235994   4.408   0.760  12.138
 1834SOL     OW35995   4.349   2.702  12.135
 1834SOL    HW135996   4.405   2.783  12.118
 1834SOL    HW235997   4.408   2.622  12.138
 1835SOL     OW35998   4.349   4.564  12.135
 1835SOL    HW135999   4.405   4.645  12.118
 1835SOL    HW236000   4.408   4.484  12.138
 1836SOL     OW36001   4.349   6.426  12.135
 1836SOL    HW136002   4.405   0.057  12.118
 1836SOL    HW236003   4.408   6.346  12.138
 1837SOL     OW36004   6.211   0.840  12.135
 1837SOL    HW136005   6.267   0.921  12.118
 1837SOL    HW236006   6.270   0.760  12.138
 1838SOL     OW36007   6.211   2.702  12.135
 1838SOL    HW136008   6.267   2.783  12.118
 1838SOL    HW236009   6.270   2.622  12.138
 1839SOL     OW36010   6.211   4.564  12.135
 1839SOL    HW136011   6.267   4.645  12.118
 1839SOL    HW236012   6.270   4.484  12.138
 1840SOL     OW36013   6.211   6.426  12.135
 1840SOL    HW136014   6.267   0.057  12.118
 1840SOL    HW236015   6.270   6.346  12.138
 1841SOL     OW36016   1.305   1.226  12.127
 1841SOL    HW136017   1.342   1.153  12.069
 1841SOL    HW236018   1.357   1.231  12.212
 1842SOL     OW36019   1.305   3.088  12.127
 1842SOL    HW136020   1.342   3.015  12.069
 1842SOL    HW236021   1.357   3.093  12.212
 1843SOL     OW36022   1.305   4.950  12.127
 1843SOL    HW136023   1.342   4.877  12.069
 1843SOL    HW236024   1.357   4.955  12.212
 1844SOL     OW36025   3.167   1.226  12.127
 1844SOL    HW136026   3.204   1.153  12.069
 1844SOL    HW236027   3.219   1.231  12.212
 1845SOL     OW36028   3.167   3.088  12.127
 1845SOL    HW136029   3.204   3.015  12.069
 1845SOL    HW236030   3.219   3.093  12.212
 1846SOL     OW36031   3.167   4.950  12.127
 1846SOL    HW136032   3.204   4.877  12.069
 1846SOL    HW236033   3.219   4.955  12.212
 1847SOL     OW36034   5.029   1.226  12.127
 1847SOL    HW136035   5.066   1.153  12.069
 1847SOL    HW236036   5.081   1.231  12.212
 1848SOL     OW36037   5.029   3.088  12.127
 1848SOL    HW136038   5.066   3.015  12.069
 1848SOL    HW236039   5.081   3.093  12.212
 1849SOL     OW36040   5.029   4.950  12.127
 1849SOL    HW136041   5.066   4.877  12.069
 1849SOL    HW236042   5.081   4.955  12.212
 1850SOL     OW36043   0.842   1.271  12.126
 1850SOL    HW136044   0.837   1.304  12.221
 1850SOL    HW236045   0.756   1.290  12.080
 1851SOL     OW36046   0.842   3.133  12.126
 1851SOL    HW136047   0.837   3.166  12.221
 1851SOL    HW236048   0.756   3.152  12.080
 1852SOL     OW36049   0.842   4.995  12.126
 1852SOL    HW136050   0.837   5.028  12.221
 1852SOL    HW236051   0.756   5.014  12.080
 1853SOL     OW36052   2.704   1.271  12.126
 1853SOL    HW136053   2.699   1.304  12.221
 1853SOL    HW236054   2.618   1.290  12.080
 1854SOL     OW36055   2.704   3.133  12.126
 1854SOL    HW136056   2.699   3.166  12.221
 1854SOL    HW236057   2.618   3.152  12.080
 1855SOL     OW36058   2.704   4.995  12.126
 1855SOL    HW136059   2.699   5.028  12.221
 1855SOL    HW236060   2.618   5.014  12.080
 1856SOL     OW36061   4.566   1.271  12.126
 1856SOL    HW136062   4.561   1.304  12.221
 1856SOL    HW236063   4.480   1.290  12.080
 1857SOL     OW36064   4.566   3.133  12.126
 1857SOL    HW136065   4.561   3.166  12.221
 1857SOL    HW236066   4.480   3.152  12.080
 1858SOL     OW36067   4.566   4.995  12.126
 1858SOL    HW136068   4.561   5.028  12.221
 1858SOL    HW236069   4.480   5.014  12.080
 1859SOL     OW36070   0.900   1.512   0.727
 1859SOL    HW136071   0.877   1.487   0.633
 1859SOL    HW236072   0.961   1.443   0.766
 1860SOL     OW36073   0.900   3.374   0.727
 1860SOL    HW136074   0.877   3.349   0.633
 1860SOL    HW236075   0.961   3.305   0.766
 1861SOL     OW36076   0.900   5.236   0.727
 1861SOL    HW136077   0.877   5.211   0.633
 1861SOL    HW236078   0.961   5.167   0.766
 1862SOL     OW36079   2.762   1.512   0.727
 1862SOL    HW136080   2.739   1.487   0.633
 1862SOL    HW236081   2.823   1.443   0.766
 1863SOL     OW36082   2.762   3.374   0.727
 1863SOL    HW136083   2.739   3.349   0.633
 1863SOL    HW236084   2.823   3.305   0.766
 1864SOL     OW36085   2.762   5.236   0.727
 1864SOL    HW136086   2.739   5.211   0.633
 1864SOL    HW236087   2.823   5.167   0.766
 1865SOL     OW36088   4.624   1.512   0.727
 1865SOL    HW136089   4.601   1.487   0.633
 1865SOL    HW236090   4.685   1.443   0.766
 1866SOL     OW36091   4.624   3.374   0.727
 1866SOL    HW136092   4.601   3.349   0.633
 1866SOL    HW236093   4.685   3.305   0.766
 1867SOL     OW36094   4.624   5.236   0.727
 1867SOL    HW136095   4.601   5.211   0.633
 1867SOL    HW236096   4.685   5.167   0.766
 1868SOL     OW36097   1.669   0.602   0.738
 1868SOL    HW136098   1.631   0.533   0.800
 1868SOL    HW236099   1.751   0.566   0.694
 1869SOL     OW36100   1.669   2.464   0.738
 1869SOL    HW136101   1.631   2.395   0.800
 1869SOL    HW236102   1.751   2.428   0.694
 1870SOL     OW36103   1.669   4.326   0.738
 1870SOL    HW136104   1.631   4.257   0.800
 1870SOL    HW236105   1.751   4.290   0.694
 1871SOL     OW36106   1.669   6.188   0.738
 1871SOL    HW136107   1.631   6.119   0.800
 1871SOL    HW236108   1.751   6.152   0.694
 1872SOL     OW36109   3.531   0.602   0.738
 1872SOL    HW136110   3.493   0.533   0.800
 1872SOL    HW236111   3.613   0.566   0.694
 1873SOL     OW36112   3.531   2.464   0.738
 1873SOL    HW136113   3.493   2.395   0.800
 1873SOL    HW236114   3.613   2.428   0.694
 1874SOL     OW36115   3.531   4.326   0.738
 1874SOL    HW136116   3.493   4.257   0.800
 1874SOL    HW236117   3.613   4.290   0.694
 1875SOL     OW36118   3.531   6.188   0.738
 1875SOL    HW136119   3.493   6.119   0.800
 1875SOL    HW236120   3.613   6.152   0.694
 1876SOL     OW36121   5.393   0.602   0.738
 1876SOL    HW136122   5.355   0.533   0.800
 1876SOL    HW236123   5.475   0.566   0.694
 1877SOL     OW36124   5.393   2.464   0.738
 1877SOL    HW136125   5.355   2.395   0.800
 1877SOL    HW236126   5.475   2.428   0.694
 1878SOL     OW36127   5.393   4.326   0.738
 1878SOL    HW136128   5.355   4.257   0.800
 1878SOL    HW236129   5.475   4.290   0.694
 1879SOL     OW36130   5.393   6.188   0.738
 1879SOL    HW136131   5.355   6.119   0.800
 1879SOL    HW236132   5.475   6.152   0.694
 1880SOL     OW36133   0.927   0.087  12.106
 1880SOL    HW136134   0.952   0.067  12.011
 1880SOL    HW236135   0.999   0.143  12.148
 1881SOL     OW36136   0.927   1.949  12.106
 1881SOL    HW136137   0.952   1.929  12.011
 1881SOL    HW236138   0.999   2.005  12.148
 1882SOL     OW36139   0.927   3.811  12.106
 1882SOL    HW136140   0.952   3.791  12.011
 1882SOL    HW236141   0.999   3.867  12.148
 1883SOL     OW36142   0.927   5.673  12.106
 1883SOL    HW136143   0.952   5.653  12.011
 1883SOL    HW236144   0.999   5.729  12.148
 1884SOL     OW36145   2.789   0.087  12.106
 1884SOL    HW136146   2.814   0.067  12.011
 1884SOL    HW236147   2.861   0.143  12.148
 1885SOL     OW36148   2.789   1.949  12.106
 1885SOL    HW136149   2.814   1.929  12.011
 1885SOL    HW236150   2.861   2.005  12.148
 1886SOL     OW36151   2.789   3.811  12.106
 1886SOL    HW136152   2.814   3.791  12.011
 1886SOL    HW236153   2.861   3.867  12.148
 1887SOL     OW36154   2.789   5.673  12.106
 1887SOL    HW136155   2.814   5.653  12.011
 1887SOL    HW236156   2.861   5.729  12.148
 1888SOL     OW36157   4.651   0.087  12.106
 1888SOL    HW136158   4.676   0.067  12.011
 1888SOL    HW236159   4.723   0.143  12.148
 1889SOL     OW36160   4.651   1.949  12.106
 1889SOL    HW136161   4.676   1.929  12.011
 1889SOL    HW236162   4.723   2.005  12.148
 1890SOL     OW36163   4.651   3.811  12.106
 1890SOL    HW136164   4.676   3.791  12.011
 1890SOL    HW236165   4.723   3.867  12.148
 1891SOL     OW36166   4.651   5.673  12.106
 1891SOL    HW136167   4.676   5.653  12.011
 1891SOL    HW236168   4.723   5.729  12.148
 1892SOL     OW36169   0.063   0.087  12.106
 1892SOL    HW136170   0.088   0.067  12.011
 1892SOL    HW236171   0.135   0.143  12.148
 1893SOL     OW36172   0.063   1.949  12.106
 1893SOL    HW136173   0.088   1.929  12.011
 1893SOL    HW236174   0.135   2.005  12.148
 1894SOL     OW36175   0.063   3.811  12.106
 1894SOL    HW136176   0.088   3.791  12.011
 1894SOL    HW236177   0.135   3.867  12.148
 1895SOL     OW36178   0.063   5.673  12.106
 1895SOL    HW136179   0.088   5.653  12.011
 1895SOL    HW236180   0.135   5.729  12.148
 1896SOL     OW36181   1.452   0.854  12.102
 1896SOL    HW136182   1.395   0.906  12.039
 1896SOL    HW236183   1.548   0.866  12.078
 1897SOL     OW36184   1.452   2.716  12.102
 1897SOL    HW136185   1.395   2.768  12.039
 1897SOL    HW236186   1.548   2.728  12.078
 1898SOL     OW36187   1.452   4.578  12.102
 1898SOL    HW136188   1.395   4.630  12.039
 1898SOL    HW236189   1.548   4.590  12.078
 1899SOL     OW36190   1.452   6.440  12.102
 1899SOL    HW136191   1.395   0.042  12.039
 1899SOL    HW236192   1.548   0.002  12.078
 1900SOL     OW36193   3.314   0.854  12.102
 1900SOL    HW136194   3.257   0.906  12.039
 1900SOL    HW236195   3.410   0.866  12.078
 1901SOL     OW36196   3.314   2.716  12.102
 1901SOL    HW136197   3.257   2.768  12.039
 1901SOL    HW236198   3.410   2.728  12.078
 1902SOL     OW36199   3.314   4.578  12.102
 1902SOL    HW136200   3.257   4.630  12.039
 1902SOL    HW236201   3.410   4.590  12.078
 1903SOL     OW36202   3.314   6.440  12.102
 1903SOL    HW136203   3.257   0.042  12.039
 1903SOL    HW236204   3.410   0.002  12.078
 1904SOL     OW36205   5.176   0.854  12.102
 1904SOL    HW136206   5.119   0.906  12.039
 1904SOL    HW236207   5.272   0.866  12.078
 1905SOL     OW36208   5.176   2.716  12.102
 1905SOL    HW136209   5.119   2.768  12.039
 1905SOL    HW236210   5.272   2.728  12.078
 1906SOL     OW36211   5.176   4.578  12.102
 1906SOL    HW136212   5.119   4.630  12.039
 1906SOL    HW236213   5.272   4.590  12.078
 1907SOL     OW36214   5.176   6.440  12.102
 1907SOL    HW136215   5.119   0.042  12.039
 1907SOL    HW236216   5.272   0.002  12.078
 1908SOL     OW36217   1.662   1.718  12.098
 1908SOL    HW136218   1.715   1.728  12.014
 1908SOL    HW236219   1.635   1.808  12.132
 1909SOL     OW36220   1.662   3.580  12.098
 1909SOL    HW136221   1.715   3.590  12.014
 1909SOL    HW236222   1.635   3.670  12.132
 1910SOL     OW36223   1.662   5.442  12.098
 1910SOL    HW136224   1.715   5.452  12.014
 1910SOL    HW236225   1.635   5.532  12.132
 1911SOL     OW36226   3.524   1.718  12.098
 1911SOL    HW136227   3.577   1.728  12.014
 1911SOL    HW236228   3.497   1.808  12.132
 1912SOL     OW36229   3.524   3.580  12.098
 1912SOL    HW136230   3.577   3.590  12.014
 1912SOL    HW236231   3.497   3.670  12.132
 1913SOL     OW36232   3.524   5.442  12.098
 1913SOL    HW136233   3.577   5.452  12.014
 1913SOL    HW236234   3.497   5.532  12.132
 1914SOL     OW36235   5.386   1.718  12.098
 1914SOL    HW136236   5.439   1.728  12.014
 1914SOL    HW236237   5.359   1.808  12.132
 1915SOL     OW36238   5.386   3.580  12.098
 1915SOL    HW136239   5.439   3.590  12.014
 1915SOL    HW236240   5.359   3.670  12.132
 1916SOL     OW36241   5.386   5.442  12.098
 1916SOL    HW136242   5.439   5.452  12.014
 1916SOL    HW236243   5.359   5.532  12.132
 1917SOL     OW36244   0.090   0.554  12.090
 1917SOL    HW136245   0.182   0.553  12.049
 1917SOL    HW236246   0.084   0.628  12.157
 1918SOL     OW36247   0.090   2.416  12.090
 1918SOL    HW136248   0.182   2.415  12.049
 1918SOL    HW236249   0.084   2.490  12.157
 1919SOL     OW36250   0.090   4.278  12.090
 1919SOL    HW136251   0.182   4.277  12.049
 1919SOL    HW236252   0.084   4.352  12.157
 1920SOL     OW36253   0.090   6.140  12.090
 1920SOL    HW136254   0.182   6.139  12.049
 1920SOL    HW236255   0.084   6.214  12.157
 1921SOL     OW36256   1.952   0.554  12.090
 1921SOL    HW136257   2.044   0.553  12.049
 1921SOL    HW236258   1.946   0.628  12.157
 1922SOL     OW36259   1.952   2.416  12.090
 1922SOL    HW136260   2.044   2.415  12.049
 1922SOL    HW236261   1.946   2.490  12.157
 1923SOL     OW36262   1.952   4.278  12.090
 1923SOL    HW136263   2.044   4.277  12.049
 1923SOL    HW236264   1.946   4.352  12.157
 1924SOL     OW36265   1.952   6.140  12.090
 1924SOL    HW136266   2.044   6.139  12.049
 1924SOL    HW236267   1.946   6.214  12.157
 1925SOL     OW36268   3.814   0.554  12.090
 1925SOL    HW136269   3.906   0.553  12.049
 1925SOL    HW236270   3.808   0.628  12.157
 1926SOL     OW36271   3.814   2.416  12.090
 1926SOL    HW136272   3.906   2.415  12.049
 1926SOL    HW236273   3.808   2.490  12.157
 1927SOL     OW36274   3.814   4.278  12.090
 1927SOL    HW136275   3.906   4.277  12.049
 1927SOL    HW236276   3.808   4.352  12.157
 1928SOL     OW36277   3.814   6.140  12.090
 1928SOL    HW136278   3.906   6.139  12.049
 1928SOL    HW236279   3.808   6.214  12.157
 1929SOL     OW36280   5.676   0.554  12.090
 1929SOL    HW136281   5.768   0.553  12.049
 1929SOL    HW236282   5.670   0.628  12.157
 1930SOL     OW36283   5.676   2.416  12.090
 1930SOL    HW136284   5.768   2.415  12.049
 1930SOL    HW236285   5.670   2.490  12.157
 1931SOL     OW36286   5.676   4.278  12.090
 1931SOL    HW136287   5.768   4.277  12.049
 1931SOL    HW236288   5.670   4.352  12.157
 1932SOL     OW36289   5.676   6.140  12.090
 1932SOL    HW136290   5.768   6.139  12.049
 1932SOL    HW236291   5.670   6.214  12.157
 1933SOL     OW36292   1.836   0.190   0.759
 1933SOL    HW136293   1.832   0.100   0.803
 1933SOL    HW236294   1.839   0.179   0.660
 1934SOL     OW36295   1.836   2.052   0.759
 1934SOL    HW136296   1.832   1.962   0.803
 1934SOL    HW236297   1.839   2.041   0.660
 1935SOL     OW36298   1.836   3.914   0.759
 1935SOL    HW136299   1.832   3.824   0.803
 1935SOL    HW236300   1.839   3.903   0.660
 1936SOL     OW36301   1.836   5.776   0.759
 1936SOL    HW136302   1.832   5.686   0.803
 1936SOL    HW236303   1.839   5.765   0.660
 1937SOL     OW36304   3.698   0.190   0.759
 1937SOL    HW136305   3.694   0.100   0.803
 1937SOL    HW236306   3.701   0.179   0.660
 1938SOL     OW36307   3.698   2.052   0.759
 1938SOL    HW136308   3.694   1.962   0.803
 1938SOL    HW236309   3.701   2.041   0.660
 1939SOL     OW36310   3.698   3.914   0.759
 1939SOL    HW136311   3.694   3.824   0.803
 1939SOL    HW236312   3.701   3.903   0.660
 1940SOL     OW36313   3.698   5.776   0.759
 1940SOL    HW136314   3.694   5.686   0.803
 1940SOL    HW236315   3.701   5.765   0.660
 1941SOL     OW36316   5.560   0.190   0.759
 1941SOL    HW136317   5.556   0.100   0.803
 1941SOL    HW236318   5.563   0.179   0.660
 1942SOL     OW36319   5.560   2.052   0.759
 1942SOL    HW136320   5.556   1.962   0.803
 1942SOL    HW236321   5.563   2.041   0.660
 1943SOL     OW36322   5.560   3.914   0.759
 1943SOL    HW136323   5.556   3.824   0.803
 1943SOL    HW236324   5.563   3.903   0.660
 1944SOL     OW36325   5.560   5.776   0.759
 1944SOL    HW136326   5.556   5.686   0.803
 1944SOL    HW236327   5.563   5.765   0.660
 1945SOL     OW36328   1.721   0.383  12.085
 1945SOL    HW136329   1.794   0.452  12.089
 1945SOL    HW236330   1.749   0.308  12.026
 1946SOL     OW36331   1.721   2.245  12.085
 1946SOL    HW136332   1.794   2.314  12.089
 1946SOL    HW236333   1.749   2.170  12.026
 1947SOL     OW36334   1.721   4.107  12.085
 1947SOL    HW136335   1.794   4.176  12.089
 1947SOL    HW236336   1.749   4.032  12.026
 1948SOL     OW36337   1.721   5.969  12.085
 1948SOL    HW136338   1.794   6.038  12.089
 1948SOL    HW236339   1.749   5.894  12.026
 1949SOL     OW36340   3.583   0.383  12.085
 1949SOL    HW136341   3.656   0.452  12.089
 1949SOL    HW236342   3.611   0.308  12.026
 1950SOL     OW36343   3.583   2.245  12.085
 1950SOL    HW136344   3.656   2.314  12.089
 1950SOL    HW236345   3.611   2.170  12.026
 1951SOL     OW36346   3.583   4.107  12.085
 1951SOL    HW136347   3.656   4.176  12.089
 1951SOL    HW236348   3.611   4.032  12.026
 1952SOL     OW36349   3.583   5.969  12.085
 1952SOL    HW136350   3.656   6.038  12.089
 1952SOL    HW236351   3.611   5.894  12.026
 1953SOL     OW36352   5.445   0.383  12.085
 1953SOL    HW136353   5.518   0.452  12.089
 1953SOL    HW236354   5.473   0.308  12.026
 1954SOL     OW36355   5.445   2.245  12.085
 1954SOL    HW136356   5.518   2.314  12.089
 1954SOL    HW236357   5.473   2.170  12.026
 1955SOL     OW36358   5.445   4.107  12.085
 1955SOL    HW136359   5.518   4.176  12.089
 1955SOL    HW236360   5.473   4.032  12.026
 1956SOL     OW36361   5.445   5.969  12.085
 1956SOL    HW136362   5.518   6.038  12.089
 1956SOL    HW236363   5.473   5.894  12.026
 1957SOL     OW36364   0.319   0.211   0.763
 1957SOL    HW136365   0.296   0.248   0.853
 1957SOL    HW236366   0.289   0.116   0.757
 1958SOL     OW36367   0.319   2.073   0.763
 1958SOL    HW136368   0.296   2.110   0.853
 1958SOL    HW236369   0.289   1.978   0.757
 1959SOL     OW36370   0.319   3.935   0.763
 1959SOL    HW136371   0.296   3.972   0.853
 1959SOL    HW236372   0.289   3.840   0.757
 1960SOL     OW36373   0.319   5.797   0.763
 1960SOL    HW136374   0.296   5.834   0.853
 1960SOL    HW236375   0.289   5.702   0.757
 1961SOL     OW36376   2.181   0.211   0.763
 1961SOL    HW136377   2.158   0.248   0.853
 1961SOL    HW236378   2.151   0.116   0.757
 1962SOL     OW36379   2.181   2.073   0.763
 1962SOL    HW136380   2.158   2.110   0.853
 1962SOL    HW236381   2.151   1.978   0.757
 1963SOL     OW36382   2.181   3.935   0.763
 1963SOL    HW136383   2.158   3.972   0.853
 1963SOL    HW236384   2.151   3.840   0.757
 1964SOL     OW36385   2.181   5.797   0.763
 1964SOL    HW136386   2.158   5.834   0.853
 1964SOL    HW236387   2.151   5.702   0.757
 1965SOL     OW36388   4.043   0.211   0.763
 1965SOL    HW136389   4.020   0.248   0.853
 1965SOL    HW236390   4.013   0.116   0.757
 1966SOL     OW36391   4.043   2.073   0.763
 1966SOL    HW136392   4.020   2.110   0.853
 1966SOL    HW236393   4.013   1.978   0.757
 1967SOL     OW36394   4.043   3.935   0.763
 1967SOL    HW136395   4.020   3.972   0.853
 1967SOL    HW236396   4.013   3.840   0.757
 1968SOL     OW36397   4.043   5.797   0.763
 1968SOL    HW136398   4.020   5.834   0.853
 1968SOL    HW236399   4.013   5.702   0.757
 1969SOL     OW36400   5.905   0.211   0.763
 1969SOL    HW136401   5.882   0.248   0.853
 1969SOL    HW236402   5.875   0.116   0.757
 1970SOL     OW36403   5.905   2.073   0.763
 1970SOL    HW136404   5.882   2.110   0.853
 1970SOL    HW236405   5.875   1.978   0.757
 1971SOL     OW36406   5.905   3.935   0.763
 1971SOL    HW136407   5.882   3.972   0.853
 1971SOL    HW236408   5.875   3.840   0.757
 1972SOL     OW36409   5.905   5.797   0.763
 1972SOL    HW136410   5.882   5.834   0.853
 1972SOL    HW236411   5.875   5.702   0.757
 1973SOL     OW36412   1.359   1.057   0.766
 1973SOL    HW136413   1.383   0.994   0.692
 1973SOL    HW236414   1.269   1.097   0.748
 1974SOL     OW36415   1.359   2.919   0.766
 1974SOL    HW136416   1.383   2.856   0.692
 1974SOL    HW236417   1.269   2.959   0.748
 1975SOL     OW36418   1.359   4.781   0.766
 1975SOL    HW136419   1.383   4.718   0.692
 1975SOL    HW236420   1.269   4.821   0.748
 1976SOL     OW36421   3.221   1.057   0.766
 1976SOL    HW136422   3.245   0.994   0.692
 1976SOL    HW236423   3.131   1.097   0.748
 1977SOL     OW36424   3.221   2.919   0.766
 1977SOL    HW136425   3.245   2.856   0.692
 1977SOL    HW236426   3.131   2.959   0.748
 1978SOL     OW36427   3.221   4.781   0.766
 1978SOL    HW136428   3.245   4.718   0.692
 1978SOL    HW236429   3.131   4.821   0.748
 1979SOL     OW36430   5.083   1.057   0.766
 1979SOL    HW136431   5.107   0.994   0.692
 1979SOL    HW236432   4.993   1.097   0.748
 1980SOL     OW36433   5.083   2.919   0.766
 1980SOL    HW136434   5.107   2.856   0.692
 1980SOL    HW236435   4.993   2.959   0.748
 1981SOL     OW36436   5.083   4.781   0.766
 1981SOL    HW136437   5.107   4.718   0.692
 1981SOL    HW236438   4.993   4.821   0.748
 1982SOL     OW36439   0.834   1.000  12.076
 1982SOL    HW136440   0.874   0.999  11.984
 1982SOL    HW236441   0.844   1.092  12.116
 1983SOL     OW36442   0.834   2.862  12.076
 1983SOL    HW136443   0.874   2.861  11.984
 1983SOL    HW236444   0.844   2.954  12.116
 1984SOL     OW36445   0.834   4.724  12.076
 1984SOL    HW136446   0.874   4.723  11.984
 1984SOL    HW236447   0.844   4.816  12.116
 1985SOL     OW36448   2.696   1.000  12.076
 1985SOL    HW136449   2.736   0.999  11.984
 1985SOL    HW236450   2.706   1.092  12.116
 1986SOL     OW36451   2.696   2.862  12.076
 1986SOL    HW136452   2.736   2.861  11.984
 1986SOL    HW236453   2.706   2.954  12.116
 1987SOL     OW36454   2.696   4.724  12.076
 1987SOL    HW136455   2.736   4.723  11.984
 1987SOL    HW236456   2.706   4.816  12.116
 1988SOL     OW36457   4.558   1.000  12.076
 1988SOL    HW136458   4.598   0.999  11.984
 1988SOL    HW236459   4.568   1.092  12.116
 1989SOL     OW36460   4.558   2.862  12.076
 1989SOL    HW136461   4.598   2.861  11.984
 1989SOL    HW236462   4.568   2.954  12.116
 1990SOL     OW36463   4.558   4.724  12.076
 1990SOL    HW136464   4.598   4.723  11.984
 1990SOL    HW236465   4.568   4.816  12.116
 1991SOL     OW36466   6.420   1.000  12.076
 1991SOL    HW136467   0.010   0.999  11.984
 1991SOL    HW236468   6.430   1.092  12.116
 1992SOL     OW36469   6.420   2.862  12.076
 1992SOL    HW136470   0.010   2.861  11.984
 1992SOL    HW236471   6.430   2.954  12.116
 1993SOL     OW36472   6.420   4.724  12.076
 1993SOL    HW136473   0.010   4.723  11.984
 1993SOL    HW236474   6.430   4.816  12.116
 1994SOL     OW36475   1.014   0.794   0.770
 1994SOL    HW136476   1.055   0.762   0.856
 1994SOL    HW236477   0.918   0.767   0.767
 1995SOL     OW36478   1.014   2.656   0.770
 1995SOL    HW136479   1.055   2.624   0.856
 1995SOL    HW236480   0.918   2.629   0.767
 1996SOL     OW36481   1.014   4.518   0.770
 1996SOL    HW136482   1.055   4.486   0.856
 1996SOL    HW236483   0.918   4.491   0.767
 1997SOL     OW36484   2.876   0.794   0.770
 1997SOL    HW136485   2.917   0.762   0.856
 1997SOL    HW236486   2.780   0.767   0.767
 1998SOL     OW36487   2.876   2.656   0.770
 1998SOL    HW136488   2.917   2.624   0.856
 1998SOL    HW236489   2.780   2.629   0.767
 1999SOL     OW36490   2.876   4.518   0.770
 1999SOL    HW136491   2.917   4.486   0.856
 1999SOL    HW236492   2.780   4.491   0.767
 2000SOL     OW36493   4.738   0.794   0.770
 2000SOL    HW136494   4.779   0.762   0.856
 2000SOL    HW236495   4.642   0.767   0.767
 2001SOL     OW36496   4.738   2.656   0.770
 2001SOL    HW136497   4.779   2.624   0.856
 2001SOL    HW236498   4.642   2.629   0.767
 2002SOL     OW36499   4.738   4.518   0.770
 2002SOL    HW136500   4.779   4.486   0.856
 2002SOL    HW236501   4.642   4.491   0.767
 2003SOL     OW36502   0.261   1.783   0.773
 2003SOL    HW136503   0.318   1.718   0.823
 2003SOL    HW236504   0.245   1.750   0.680
 2004SOL     OW36505   0.261   3.645   0.773
 2004SOL    HW136506   0.318   3.580   0.823
 2004SOL    HW236507   0.245   3.612   0.680
 2005SOL     OW36508   0.261   5.507   0.773
 2005SOL    HW136509   0.318   5.442   0.823
 2005SOL    HW236510   0.245   5.474   0.680
 2006SOL     OW36511   2.123   1.783   0.773
 2006SOL    HW136512   2.180   1.718   0.823
 2006SOL    HW236513   2.107   1.750   0.680
 2007SOL     OW36514   2.123   3.645   0.773
 2007SOL    HW136515   2.180   3.580   0.823
 2007SOL    HW236516   2.107   3.612   0.680
 2008SOL     OW36517   2.123   5.507   0.773
 2008SOL    HW136518   2.180   5.442   0.823
 2008SOL    HW236519   2.107   5.474   0.680
 2009SOL     OW36520   3.985   1.783   0.773
 2009SOL    HW136521   4.042   1.718   0.823
 2009SOL    HW236522   3.969   1.750   0.680
 2010SOL     OW36523   3.985   3.645   0.773
 2010SOL    HW136524   4.042   3.580   0.823
 2010SOL    HW236525   3.969   3.612   0.680
 2011SOL     OW36526   3.985   5.507   0.773
 2011SOL    HW136527   4.042   5.442   0.823
 2011SOL    HW236528   3.969   5.474   0.680
 2012SOL     OW36529   5.847   1.783   0.773
 2012SOL    HW136530   5.904   1.718   0.823
 2012SOL    HW236531   5.831   1.750   0.680
 2013SOL     OW36532   5.847   3.645   0.773
 2013SOL    HW136533   5.904   3.580   0.823
 2013SOL    HW236534   5.831   3.612   0.680
 2014SOL     OW36535   5.847   5.507   0.773
 2014SOL    HW136536   5.904   5.442   0.823
 2014SOL    HW236537   5.831   5.474   0.680
 2015SOL     OW36538   1.003   0.408   0.774
 2015SOL    HW136539   0.926   0.442   0.828
 2015SOL    HW236540   0.969   0.357   0.695
 2016SOL     OW36541   1.003   2.270   0.774
 2016SOL    HW136542   0.926   2.304   0.828
 2016SOL    HW236543   0.969   2.219   0.695
 2017SOL     OW36544   1.003   4.132   0.774
 2017SOL    HW136545   0.926   4.166   0.828
 2017SOL    HW236546   0.969   4.081   0.695
 2018SOL     OW36547   1.003   5.994   0.774
 2018SOL    HW136548   0.926   6.028   0.828
 2018SOL    HW236549   0.969   5.943   0.695
 2019SOL     OW36550   2.865   0.408   0.774
 2019SOL    HW136551   2.788   0.442   0.828
 2019SOL    HW236552   2.831   0.357   0.695
 2020SOL     OW36553   2.865   2.270   0.774
 2020SOL    HW136554   2.788   2.304   0.828
 2020SOL    HW236555   2.831   2.219   0.695
 2021SOL     OW36556   2.865   4.132   0.774
 2021SOL    HW136557   2.788   4.166   0.828
 2021SOL    HW236558   2.831   4.081   0.695
 2022SOL     OW36559   2.865   5.994   0.774
 2022SOL    HW136560   2.788   6.028   0.828
 2022SOL    HW236561   2.831   5.943   0.695
 2023SOL     OW36562   4.727   0.408   0.774
 2023SOL    HW136563   4.650   0.442   0.828
 2023SOL    HW236564   4.693   0.357   0.695
 2024SOL     OW36565   4.727   2.270   0.774
 2024SOL    HW136566   4.650   2.304   0.828
 2024SOL    HW236567   4.693   2.219   0.695
 2025SOL     OW36568   4.727   4.132   0.774
 2025SOL    HW136569   4.650   4.166   0.828
 2025SOL    HW236570   4.693   4.081   0.695
 2026SOL     OW36571   4.727   5.994   0.774
 2026SOL    HW136572   4.650   6.028   0.828
 2026SOL    HW236573   4.693   5.943   0.695
 2027SOL     OW36574   0.422   0.811   0.783
 2027SOL    HW136575   0.508   0.823   0.833
 2027SOL    HW236576   0.380   0.724   0.810
 2028SOL     OW36577   0.422   2.673   0.783
 2028SOL    HW136578   0.508   2.685   0.833
 2028SOL    HW236579   0.380   2.586   0.810
 2029SOL     OW36580   0.422   4.535   0.783
 2029SOL    HW136581   0.508   4.547   0.833
 2029SOL    HW236582   0.380   4.448   0.810
 2030SOL     OW36583   0.422   6.397   0.783
 2030SOL    HW136584   0.508   6.409   0.833
 2030SOL    HW236585   0.380   6.310   0.810
 2031SOL     OW36586   2.284   0.811   0.783
 2031SOL    HW136587   2.370   0.823   0.833
 2031SOL    HW236588   2.242   0.724   0.810
 2032SOL     OW36589   2.284   2.673   0.783
 2032SOL    HW136590   2.370   2.685   0.833
 2032SOL    HW236591   2.242   2.586   0.810
 2033SOL     OW36592   2.284   4.535   0.783
 2033SOL    HW136593   2.370   4.547   0.833
 2033SOL    HW236594   2.242   4.448   0.810
 2034SOL     OW36595   2.284   6.397   0.783
 2034SOL    HW136596   2.370   6.409   0.833
 2034SOL    HW236597   2.242   6.310   0.810
 2035SOL     OW36598   4.146   0.811   0.783
 2035SOL    HW136599   4.232   0.823   0.833
 2035SOL    HW236600   4.104   0.724   0.810
 2036SOL     OW36601   4.146   2.673   0.783
 2036SOL    HW136602   4.232   2.685   0.833
 2036SOL    HW236603   4.104   2.586   0.810
 2037SOL     OW36604   4.146   4.535   0.783
 2037SOL    HW136605   4.232   4.547   0.833
 2037SOL    HW236606   4.104   4.448   0.810
 2038SOL     OW36607   4.146   6.397   0.783
 2038SOL    HW136608   4.232   6.409   0.833
 2038SOL    HW236609   4.104   6.310   0.810
 2039SOL     OW36610   6.008   0.811   0.783
 2039SOL    HW136611   6.094   0.823   0.833
 2039SOL    HW236612   5.966   0.724   0.810
 2040SOL     OW36613   6.008   2.673   0.783
 2040SOL    HW136614   6.094   2.685   0.833
 2040SOL    HW236615   5.966   2.586   0.810
 2041SOL     OW36616   6.008   4.535   0.783
 2041SOL    HW136617   6.094   4.547   0.833
 2041SOL    HW236618   5.966   4.448   0.810
 2042SOL     OW36619   6.008   6.397   0.783
 2042SOL    HW136620   6.094   6.409   0.833
 2042SOL    HW236621   5.966   6.310   0.810
 2043SOL     OW36622   1.686   0.881   0.786
 2043SOL    HW136623   1.659   0.792   0.749
 2043SOL    HW236624   1.687   0.949   0.713
 2044SOL     OW36625   1.686   2.743   0.786
 2044SOL    HW136626   1.659   2.654   0.749
 2044SOL    HW236627   1.687   2.811   0.713
 2045SOL     OW36628   1.686   4.605   0.786
 2045SOL    HW136629   1.659   4.516   0.749
 2045SOL    HW236630   1.687   4.673   0.713
 2046SOL     OW36631   1.686   0.017   0.786
 2046SOL    HW136632   1.659   6.378   0.749
 2046SOL    HW236633   1.687   0.085   0.713
 2047SOL     OW36634   3.548   0.881   0.786
 2047SOL    HW136635   3.521   0.792   0.749
 2047SOL    HW236636   3.549   0.949   0.713
 2048SOL     OW36637   3.548   2.743   0.786
 2048SOL    HW136638   3.521   2.654   0.749
 2048SOL    HW236639   3.549   2.811   0.713
 2049SOL     OW36640   3.548   4.605   0.786
 2049SOL    HW136641   3.521   4.516   0.749
 2049SOL    HW236642   3.549   4.673   0.713
 2050SOL     OW36643   3.548   0.017   0.786
 2050SOL    HW136644   3.521   6.378   0.749
 2050SOL    HW236645   3.549   0.085   0.713
 2051SOL     OW36646   5.410   0.881   0.786
 2051SOL    HW136647   5.383   0.792   0.749
 2051SOL    HW236648   5.411   0.949   0.713
 2052SOL     OW36649   5.410   2.743   0.786
 2052SOL    HW136650   5.383   2.654   0.749
 2052SOL    HW236651   5.411   2.811   0.713
 2053SOL     OW36652   5.410   4.605   0.786
 2053SOL    HW136653   5.383   4.516   0.749
 2053SOL    HW236654   5.411   4.673   0.713
 2054SOL     OW36655   5.410   0.017   0.786
 2054SOL    HW136656   5.383   6.378   0.749
 2054SOL    HW236657   5.411   0.085   0.713
 2055SOL     OW36658   1.286   0.384   0.794
 2055SOL    HW136659   1.307   0.458   0.858
 2055SOL    HW236660   1.197   0.401   0.751
 2056SOL     OW36661   1.286   2.246   0.794
 2056SOL    HW136662   1.307   2.320   0.858
 2056SOL    HW236663   1.197   2.263   0.751
 2057SOL     OW36664   1.286   4.108   0.794
 2057SOL    HW136665   1.307   4.182   0.858
 2057SOL    HW236666   1.197   4.125   0.751
 2058SOL     OW36667   1.286   5.970   0.794
 2058SOL    HW136668   1.307   6.044   0.858
 2058SOL    HW236669   1.197   5.987   0.751
 2059SOL     OW36670   3.148   0.384   0.794
 2059SOL    HW136671   3.169   0.458   0.858
 2059SOL    HW236672   3.059   0.401   0.751
 2060SOL     OW36673   3.148   2.246   0.794
 2060SOL    HW136674   3.169   2.320   0.858
 2060SOL    HW236675   3.059   2.263   0.751
 2061SOL     OW36676   3.148   4.108   0.794
 2061SOL    HW136677   3.169   4.182   0.858
 2061SOL    HW236678   3.059   4.125   0.751
 2062SOL     OW36679   3.148   5.970   0.794
 2062SOL    HW136680   3.169   6.044   0.858
 2062SOL    HW236681   3.059   5.987   0.751
 2063SOL     OW36682   5.010   0.384   0.794
 2063SOL    HW136683   5.031   0.458   0.858
 2063SOL    HW236684   4.921   0.401   0.751
 2064SOL     OW36685   5.010   2.246   0.794
 2064SOL    HW136686   5.031   2.320   0.858
 2064SOL    HW236687   4.921   2.263   0.751
 2065SOL     OW36688   5.010   4.108   0.794
 2065SOL    HW136689   5.031   4.182   0.858
 2065SOL    HW236690   4.921   4.125   0.751
 2066SOL     OW36691   5.010   5.970   0.794
 2066SOL    HW136692   5.031   6.044   0.858
 2066SOL    HW236693   4.921   5.987   0.751
 2067SOL     OW36694   0.209   0.974   0.796
 2067SOL    HW136695   0.298   0.929   0.782
 2067SOL    HW236696   0.136   0.909   0.777
 2068SOL     OW36697   0.209   2.836   0.796
 2068SOL    HW136698   0.298   2.791   0.782
 2068SOL    HW236699   0.136   2.771   0.777
 2069SOL     OW36700   0.209   4.698   0.796
 2069SOL    HW136701   0.298   4.653   0.782
 2069SOL    HW236702   0.136   4.633   0.777
 2070SOL     OW36703   2.071   0.974   0.796
 2070SOL    HW136704   2.160   0.929   0.782
 2070SOL    HW236705   1.998   0.909   0.777
 2071SOL     OW36706   2.071   2.836   0.796
 2071SOL    HW136707   2.160   2.791   0.782
 2071SOL    HW236708   1.998   2.771   0.777
 2072SOL     OW36709   2.071   4.698   0.796
 2072SOL    HW136710   2.160   4.653   0.782
 2072SOL    HW236711   1.998   4.633   0.777
 2073SOL     OW36712   3.933   0.974   0.796
 2073SOL    HW136713   4.022   0.929   0.782
 2073SOL    HW236714   3.860   0.909   0.777
 2074SOL     OW36715   3.933   2.836   0.796
 2074SOL    HW136716   4.022   2.791   0.782
 2074SOL    HW236717   3.860   2.771   0.777
 2075SOL     OW36718   3.933   4.698   0.796
 2075SOL    HW136719   4.022   4.653   0.782
 2075SOL    HW236720   3.860   4.633   0.777
 2076SOL     OW36721   5.795   0.974   0.796
 2076SOL    HW136722   5.884   0.929   0.782
 2076SOL    HW236723   5.722   0.909   0.777
 2077SOL     OW36724   5.795   2.836   0.796
 2077SOL    HW136725   5.884   2.791   0.782
 2077SOL    HW236726   5.722   2.771   0.777
 2078SOL     OW36727   5.795   4.698   0.796
 2078SOL    HW136728   5.884   4.653   0.782
 2078SOL    HW236729   5.722   4.633   0.777
 2079SOL     OW36730   0.683   0.462   0.801
 2079SOL    HW136731   0.649   0.373   0.771
 2079SOL    HW236732   0.709   0.516   0.721
 2080SOL     OW36733   0.683   2.324   0.801
 2080SOL    HW136734   0.649   2.235   0.771
 2080SOL    HW236735   0.709   2.378   0.721
 2081SOL     OW36736   0.683   4.186   0.801
 2081SOL    HW136737   0.649   4.097   0.771
 2081SOL    HW236738   0.709   4.240   0.721
 2082SOL     OW36739   0.683   6.048   0.801
 2082SOL    HW136740   0.649   5.959   0.771
 2082SOL    HW236741   0.709   6.102   0.721
 2083SOL     OW36742   2.545   0.462   0.801
 2083SOL    HW136743   2.511   0.373   0.771
 2083SOL    HW236744   2.571   0.516   0.721
 2084SOL     OW36745   2.545   2.324   0.801
 2084SOL    HW136746   2.511   2.235   0.771
 2084SOL    HW236747   2.571   2.378   0.721
 2085SOL     OW36748   2.545   4.186   0.801
 2085SOL    HW136749   2.511   4.097   0.771
 2085SOL    HW236750   2.571   4.240   0.721
 2086SOL     OW36751   2.545   6.048   0.801
 2086SOL    HW136752   2.511   5.959   0.771
 2086SOL    HW236753   2.571   6.102   0.721
 2087SOL     OW36754   4.407   0.462   0.801
 2087SOL    HW136755   4.373   0.373   0.771
 2087SOL    HW236756   4.433   0.516   0.721
 2088SOL     OW36757   4.407   2.324   0.801
 2088SOL    HW136758   4.373   2.235   0.771
 2088SOL    HW236759   4.433   2.378   0.721
 2089SOL     OW36760   4.407   4.186   0.801
 2089SOL    HW136761   4.373   4.097   0.771
 2089SOL    HW236762   4.433   4.240   0.721
 2090SOL     OW36763   4.407   6.048   0.801
 2090SOL    HW136764   4.373   5.959   0.771
 2090SOL    HW236765   4.433   6.102   0.721
 2091SOL     OW36766   6.269   0.462   0.801
 2091SOL    HW136767   6.235   0.373   0.771
 2091SOL    HW236768   6.295   0.516   0.721
 2092SOL     OW36769   6.269   2.324   0.801
 2092SOL    HW136770   6.235   2.235   0.771
 2092SOL    HW236771   6.295   2.378   0.721
 2093SOL     OW36772   6.269   4.186   0.801
 2093SOL    HW136773   6.235   4.097   0.771
 2093SOL    HW236774   6.295   4.240   0.721
 2094SOL     OW36775   6.269   6.048   0.801
 2094SOL    HW136776   6.235   5.959   0.771
 2094SOL    HW236777   6.295   6.102   0.721
 2095SOL     OW36778   1.076   1.345  12.044
 2095SOL    HW136779   0.996   1.322  12.099
 2095SOL    HW236780   1.159   1.319  12.093
 2096SOL     OW36781   1.076   3.207  12.044
 2096SOL    HW136782   0.996   3.184  12.099
 2096SOL    HW236783   1.159   3.181  12.093
 2097SOL     OW36784   1.076   5.069  12.044
 2097SOL    HW136785   0.996   5.046  12.099
 2097SOL    HW236786   1.159   5.043  12.093
 2098SOL     OW36787   2.938   1.345  12.044
 2098SOL    HW136788   2.858   1.322  12.099
 2098SOL    HW236789   3.021   1.319  12.093
 2099SOL     OW36790   2.938   3.207  12.044
 2099SOL    HW136791   2.858   3.184  12.099
 2099SOL    HW236792   3.021   3.181  12.093
 2100SOL     OW36793   2.938   5.069  12.044
 2100SOL    HW136794   2.858   5.046  12.099
 2100SOL    HW236795   3.021   5.043  12.093
 2101SOL     OW36796   4.800   1.345  12.044
 2101SOL    HW136797   4.720   1.322  12.099
 2101SOL    HW236798   4.883   1.319  12.093
 2102SOL     OW36799   4.800   3.207  12.044
 2102SOL    HW136800   4.720   3.184  12.099
 2102SOL    HW236801   4.883   3.181  12.093
 2103SOL     OW36802   4.800   5.069  12.044
 2103SOL    HW136803   4.720   5.046  12.099
 2103SOL    HW236804   4.883   5.043  12.093
 2104SOL     OW36805   1.472   1.503  12.043
 2104SOL    HW136806   1.496   1.597  12.069
 2104SOL    HW236807   1.456   1.449  12.125
 2105SOL     OW36808   1.472   3.365  12.043
 2105SOL    HW136809   1.496   3.459  12.069
 2105SOL    HW236810   1.456   3.311  12.125
 2106SOL     OW36811   1.472   5.227  12.043
 2106SOL    HW136812   1.496   5.321  12.069
 2106SOL    HW236813   1.456   5.173  12.125
 2107SOL     OW36814   3.334   1.503  12.043
 2107SOL    HW136815   3.358   1.597  12.069
 2107SOL    HW236816   3.318   1.449  12.125
 2108SOL     OW36817   3.334   3.365  12.043
 2108SOL    HW136818   3.358   3.459  12.069
 2108SOL    HW236819   3.318   3.311  12.125
 2109SOL     OW36820   3.334   5.227  12.043
 2109SOL    HW136821   3.358   5.321  12.069
 2109SOL    HW236822   3.318   5.173  12.125
 2110SOL     OW36823   5.196   1.503  12.043
 2110SOL    HW136824   5.220   1.597  12.069
 2110SOL    HW236825   5.180   1.449  12.125
 2111SOL     OW36826   5.196   3.365  12.043
 2111SOL    HW136827   5.220   3.459  12.069
 2111SOL    HW236828   5.180   3.311  12.125
 2112SOL     OW36829   5.196   5.227  12.043
 2112SOL    HW136830   5.220   5.321  12.069
 2112SOL    HW236831   5.180   5.173  12.125
 2113SOL     OW36832   0.076   1.562  12.035
 2113SOL    HW136833   0.030   1.644  12.001
 2113SOL    HW236834   0.174   1.581  12.044
 2114SOL     OW36835   0.076   3.424  12.035
 2114SOL    HW136836   0.030   3.506  12.001
 2114SOL    HW236837   0.174   3.443  12.044
 2115SOL     OW36838   0.076   5.286  12.035
 2115SOL    HW136839   0.030   5.368  12.001
 2115SOL    HW236840   0.174   5.305  12.044
 2116SOL     OW36841   1.938   1.562  12.035
 2116SOL    HW136842   1.892   1.644  12.001
 2116SOL    HW236843   2.036   1.581  12.044
 2117SOL     OW36844   1.938   3.424  12.035
 2117SOL    HW136845   1.892   3.506  12.001
 2117SOL    HW236846   2.036   3.443  12.044
 2118SOL     OW36847   1.938   5.286  12.035
 2118SOL    HW136848   1.892   5.368  12.001
 2118SOL    HW236849   2.036   5.305  12.044
 2119SOL     OW36850   3.800   1.562  12.035
 2119SOL    HW136851   3.754   1.644  12.001
 2119SOL    HW236852   3.898   1.581  12.044
 2120SOL     OW36853   3.800   3.424  12.035
 2120SOL    HW136854   3.754   3.506  12.001
 2120SOL    HW236855   3.898   3.443  12.044
 2121SOL     OW36856   3.800   5.286  12.035
 2121SOL    HW136857   3.754   5.368  12.001
 2121SOL    HW236858   3.898   5.305  12.044
 2122SOL     OW36859   5.662   1.562  12.035
 2122SOL    HW136860   5.616   1.644  12.001
 2122SOL    HW236861   5.760   1.581  12.044
 2123SOL     OW36862   5.662   3.424  12.035
 2123SOL    HW136863   5.616   3.506  12.001
 2123SOL    HW236864   5.760   3.443  12.044
 2124SOL     OW36865   5.662   5.286  12.035
 2124SOL    HW136866   5.616   5.368  12.001
 2124SOL    HW236867   5.760   5.305  12.044
 2125SOL     OW36868   0.329   0.545   0.812
 2125SOL    HW136869   0.367   0.486   0.884
 2125SOL    HW236870   0.369   0.519   0.724
 2126SOL     OW36871   0.329   2.407   0.812
 2126SOL    HW136872   0.367   2.348   0.884
 2126SOL    HW236873   0.369   2.381   0.724
 2127SOL     OW36874   0.329   4.269   0.812
 2127SOL    HW136875   0.367   4.210   0.884
 2127SOL    HW236876   0.369   4.243   0.724
 2128SOL     OW36877   0.329   6.131   0.812
 2128SOL    HW136878   0.367   6.072   0.884
 2128SOL    HW236879   0.369   6.105   0.724
 2129SOL     OW36880   2.191   0.545   0.812
 2129SOL    HW136881   2.229   0.486   0.884
 2129SOL    HW236882   2.231   0.519   0.724
 2130SOL     OW36883   2.191   2.407   0.812
 2130SOL    HW136884   2.229   2.348   0.884
 2130SOL    HW236885   2.231   2.381   0.724
 2131SOL     OW36886   2.191   4.269   0.812
 2131SOL    HW136887   2.229   4.210   0.884
 2131SOL    HW236888   2.231   4.243   0.724
 2132SOL     OW36889   2.191   6.131   0.812
 2132SOL    HW136890   2.229   6.072   0.884
 2132SOL    HW236891   2.231   6.105   0.724
 2133SOL     OW36892   4.053   0.545   0.812
 2133SOL    HW136893   4.091   0.486   0.884
 2133SOL    HW236894   4.093   0.519   0.724
 2134SOL     OW36895   4.053   2.407   0.812
 2134SOL    HW136896   4.091   2.348   0.884
 2134SOL    HW236897   4.093   2.381   0.724
 2135SOL     OW36898   4.053   4.269   0.812
 2135SOL    HW136899   4.091   4.210   0.884
 2135SOL    HW236900   4.093   4.243   0.724
 2136SOL     OW36901   4.053   6.131   0.812
 2136SOL    HW136902   4.091   6.072   0.884
 2136SOL    HW236903   4.093   6.105   0.724
 2137SOL     OW36904   5.915   0.545   0.812
 2137SOL    HW136905   5.953   0.486   0.884
 2137SOL    HW236906   5.955   0.519   0.724
 2138SOL     OW36907   5.915   2.407   0.812
 2138SOL    HW136908   5.953   2.348   0.884
 2138SOL    HW236909   5.955   2.381   0.724
 2139SOL     OW36910   5.915   4.269   0.812
 2139SOL    HW136911   5.953   4.210   0.884
 2139SOL    HW236912   5.955   4.243   0.724
 2140SOL     OW36913   5.915   6.131   0.812
 2140SOL    HW136914   5.953   6.072   0.884
 2140SOL    HW236915   5.955   6.105   0.724
 2141SOL     OW36916   0.366   1.508  12.033
 2141SOL    HW136917   0.345   1.464  11.946
 2141SOL    HW236918   0.463   1.534  12.036
 2142SOL     OW36919   0.366   3.370  12.033
 2142SOL    HW136920   0.345   3.326  11.946
 2142SOL    HW236921   0.463   3.396  12.036
 2143SOL     OW36922   0.366   5.232  12.033
 2143SOL    HW136923   0.345   5.188  11.946
 2143SOL    HW236924   0.463   5.258  12.036
 2144SOL     OW36925   2.228   1.508  12.033
 2144SOL    HW136926   2.207   1.464  11.946
 2144SOL    HW236927   2.325   1.534  12.036
 2145SOL     OW36928   2.228   3.370  12.033
 2145SOL    HW136929   2.207   3.326  11.946
 2145SOL    HW236930   2.325   3.396  12.036
 2146SOL     OW36931   2.228   5.232  12.033
 2146SOL    HW136932   2.207   5.188  11.946
 2146SOL    HW236933   2.325   5.258  12.036
 2147SOL     OW36934   4.090   1.508  12.033
 2147SOL    HW136935   4.069   1.464  11.946
 2147SOL    HW236936   4.187   1.534  12.036
 2148SOL     OW36937   4.090   3.370  12.033
 2148SOL    HW136938   4.069   3.326  11.946
 2148SOL    HW236939   4.187   3.396  12.036
 2149SOL     OW36940   4.090   5.232  12.033
 2149SOL    HW136941   4.069   5.188  11.946
 2149SOL    HW236942   4.187   5.258  12.036
 2150SOL     OW36943   5.952   1.508  12.033
 2150SOL    HW136944   5.931   1.464  11.946
 2150SOL    HW236945   6.049   1.534  12.036
 2151SOL     OW36946   5.952   3.370  12.033
 2151SOL    HW136947   5.931   3.326  11.946
 2151SOL    HW236948   6.049   3.396  12.036
 2152SOL     OW36949   5.952   5.232  12.033
 2152SOL    HW136950   5.931   5.188  11.946
 2152SOL    HW236951   6.049   5.258  12.036
 2153SOL     OW36952   0.049   1.308   0.814
 2153SOL    HW136953   0.102   1.259   0.882
 2153SOL    HW236954   0.071   1.406   0.819
 2154SOL     OW36955   0.049   3.170   0.814
 2154SOL    HW136956   0.102   3.121   0.882
 2154SOL    HW236957   0.071   3.268   0.819
 2155SOL     OW36958   0.049   5.032   0.814
 2155SOL    HW136959   0.102   4.983   0.882
 2155SOL    HW236960   0.071   5.130   0.819
 2156SOL     OW36961   1.911   1.308   0.814
 2156SOL    HW136962   1.964   1.259   0.882
 2156SOL    HW236963   1.933   1.406   0.819
 2157SOL     OW36964   1.911   3.170   0.814
 2157SOL    HW136965   1.964   3.121   0.882
 2157SOL    HW236966   1.933   3.268   0.819
 2158SOL     OW36967   1.911   5.032   0.814
 2158SOL    HW136968   1.964   4.983   0.882
 2158SOL    HW236969   1.933   5.130   0.819
 2159SOL     OW36970   3.773   1.308   0.814
 2159SOL    HW136971   3.826   1.259   0.882
 2159SOL    HW236972   3.795   1.406   0.819
 2160SOL     OW36973   3.773   3.170   0.814
 2160SOL    HW136974   3.826   3.121   0.882
 2160SOL    HW236975   3.795   3.268   0.819
 2161SOL     OW36976   3.773   5.032   0.814
 2161SOL    HW136977   3.826   4.983   0.882
 2161SOL    HW236978   3.795   5.130   0.819
 2162SOL     OW36979   5.635   1.308   0.814
 2162SOL    HW136980   5.688   1.259   0.882
 2162SOL    HW236981   5.657   1.406   0.819
 2163SOL     OW36982   5.635   3.170   0.814
 2163SOL    HW136983   5.688   3.121   0.882
 2163SOL    HW236984   5.657   3.268   0.819
 2164SOL     OW36985   5.635   5.032   0.814
 2164SOL    HW136986   5.688   4.983   0.882
 2164SOL    HW236987   5.657   5.130   0.819
 2165SOL     OW36988   0.630   1.565   0.816
 2165SOL    HW136989   0.625   1.647   0.873
 2165SOL    HW236990   0.719   1.562   0.771
 2166SOL     OW36991   0.630   3.427   0.816
 2166SOL    HW136992   0.625   3.509   0.873
 2166SOL    HW236993   0.719   3.424   0.771
 2167SOL     OW36994   0.630   5.289   0.816
 2167SOL    HW136995   0.625   5.371   0.873
 2167SOL    HW236996   0.719   5.286   0.771
 2168SOL     OW36997   2.492   1.565   0.816
 2168SOL    HW136998   2.487   1.647   0.873
 2168SOL    HW236999   2.581   1.562   0.771
 2169SOL     OW37000   2.492   3.427   0.816
 2169SOL    HW137001   2.487   3.509   0.873
 2169SOL    HW237002   2.581   3.424   0.771
 2170SOL     OW37003   2.492   5.289   0.816
 2170SOL    HW137004   2.487   5.371   0.873
 2170SOL    HW237005   2.581   5.286   0.771
 2171SOL     OW37006   4.354   1.565   0.816
 2171SOL    HW137007   4.349   1.647   0.873
 2171SOL    HW237008   4.443   1.562   0.771
 2172SOL     OW37009   4.354   3.427   0.816
 2172SOL    HW137010   4.349   3.509   0.873
 2172SOL    HW237011   4.443   3.424   0.771
 2173SOL     OW37012   4.354   5.289   0.816
 2173SOL    HW137013   4.349   5.371   0.873
 2173SOL    HW237014   4.443   5.286   0.771
 2174SOL     OW37015   6.216   1.565   0.816
 2174SOL    HW137016   6.211   1.647   0.873
 2174SOL    HW237017   6.305   1.562   0.771
 2175SOL     OW37018   6.216   3.427   0.816
 2175SOL    HW137019   6.211   3.509   0.873
 2175SOL    HW237020   6.305   3.424   0.771
 2176SOL     OW37021   6.216   5.289   0.816
 2176SOL    HW137022   6.211   5.371   0.873
 2176SOL    HW237023   6.305   5.286   0.771
 2177SOL     OW37024   1.626   1.290   0.821
 2177SOL    HW137025   1.686   1.293   0.901
 2177SOL    HW237026   1.551   1.354   0.834
 2178SOL     OW37027   1.626   3.152   0.821
 2178SOL    HW137028   1.686   3.155   0.901
 2178SOL    HW237029   1.551   3.216   0.834
 2179SOL     OW37030   1.626   5.014   0.821
 2179SOL    HW137031   1.686   5.017   0.901
 2179SOL    HW237032   1.551   5.078   0.834
 2180SOL     OW37033   3.488   1.290   0.821
 2180SOL    HW137034   3.548   1.293   0.901
 2180SOL    HW237035   3.413   1.354   0.834
 2181SOL     OW37036   3.488   3.152   0.821
 2181SOL    HW137037   3.548   3.155   0.901
 2181SOL    HW237038   3.413   3.216   0.834
 2182SOL     OW37039   3.488   5.014   0.821
 2182SOL    HW137040   3.548   5.017   0.901
 2182SOL    HW237041   3.413   5.078   0.834
 2183SOL     OW37042   5.350   1.290   0.821
 2183SOL    HW137043   5.410   1.293   0.901
 2183SOL    HW237044   5.275   1.354   0.834
 2184SOL     OW37045   5.350   3.152   0.821
 2184SOL    HW137046   5.410   3.155   0.901
 2184SOL    HW237047   5.275   3.216   0.834
 2185SOL     OW37048   5.350   5.014   0.821
 2185SOL    HW137049   5.410   5.017   0.901
 2185SOL    HW237050   5.275   5.078   0.834
 2186SOL     OW37051   1.626   1.290  11.993
 2186SOL    HW137052   1.686   1.293  12.073
 2186SOL    HW237053   1.551   1.354  12.006
 2187SOL     OW37054   1.626   3.152  11.993
 2187SOL    HW137055   1.686   3.155  12.073
 2187SOL    HW237056   1.551   3.216  12.006
 2188SOL     OW37057   1.626   5.014  11.993
 2188SOL    HW137058   1.686   5.017  12.073
 2188SOL    HW237059   1.551   5.078  12.006
 2189SOL     OW37060   3.488   1.290  11.993
 2189SOL    HW137061   3.548   1.293  12.073
 2189SOL    HW237062   3.413   1.354  12.006
 2190SOL     OW37063   3.488   3.152  11.993
 2190SOL    HW137064   3.548   3.155  12.073
 2190SOL    HW237065   3.413   3.216  12.006
 2191SOL     OW37066   3.488   5.014  11.993
 2191SOL    HW137067   3.548   5.017  12.073
 2191SOL    HW237068   3.413   5.078  12.006
 2192SOL     OW37069   5.350   1.290  11.993
 2192SOL    HW137070   5.410   1.293  12.073
 2192SOL    HW237071   5.275   1.354  12.006
 2193SOL     OW37072   5.350   3.152  11.993
 2193SOL    HW137073   5.410   3.155  12.073
 2193SOL    HW237074   5.275   3.216  12.006
 2194SOL     OW37075   5.350   5.014  11.993
 2194SOL    HW137076   5.410   5.017  12.073
 2194SOL    HW237077   5.275   5.078  12.006
 2195SOL     OW37078   0.630   1.565  11.988
 2195SOL    HW137079   0.625   1.647  12.045
 2195SOL    HW237080   0.719   1.562  11.943
 2196SOL     OW37081   0.630   3.427  11.988
 2196SOL    HW137082   0.625   3.509  12.045
 2196SOL    HW237083   0.719   3.424  11.943
 2197SOL     OW37084   0.630   5.289  11.988
 2197SOL    HW137085   0.625   5.371  12.045
 2197SOL    HW237086   0.719   5.286  11.943
 2198SOL     OW37087   2.492   1.565  11.988
 2198SOL    HW137088   2.487   1.647  12.045
 2198SOL    HW237089   2.581   1.562  11.943
 2199SOL     OW37090   2.492   3.427  11.988
 2199SOL    HW137091   2.487   3.509  12.045
 2199SOL    HW237092   2.581   3.424  11.943
 2200SOL     OW37093   2.492   5.289  11.988
 2200SOL    HW137094   2.487   5.371  12.045
 2200SOL    HW237095   2.581   5.286  11.943
 2201SOL     OW37096   4.354   1.565  11.988
 2201SOL    HW137097   4.349   1.647  12.045
 2201SOL    HW237098   4.443   1.562  11.943
 2202SOL     OW37099   4.354   3.427  11.988
 2202SOL    HW137100   4.349   3.509  12.045
 2202SOL    HW237101   4.443   3.424  11.943
 2203SOL     OW37102   4.354   5.289  11.988
 2203SOL    HW137103   4.349   5.371  12.045
 2203SOL    HW237104   4.443   5.286  11.943
 2204SOL     OW37105   6.216   1.565  11.988
 2204SOL    HW137106   6.211   1.647  12.045
 2204SOL    HW237107   6.305   1.562  11.943
 2205SOL     OW37108   6.216   3.427  11.988
 2205SOL    HW137109   6.211   3.509  12.045
 2205SOL    HW237110   6.305   3.424  11.943
 2206SOL     OW37111   6.216   5.289  11.988
 2206SOL    HW137112   6.211   5.371  12.045
 2206SOL    HW237113   6.305   5.286  11.943
 2207SOL     OW37114   0.049   1.308  11.986
 2207SOL    HW137115   0.102   1.259  12.054
 2207SOL    HW237116   0.071   1.406  11.991
 2208SOL     OW37117   0.049   3.170  11.986
 2208SOL    HW137118   0.102   3.121  12.054
 2208SOL    HW237119   0.071   3.268  11.991
 2209SOL     OW37120   0.049   5.032  11.986
 2209SOL    HW137121   0.102   4.983  12.054
 2209SOL    HW237122   0.071   5.130  11.991
 2210SOL     OW37123   1.911   1.308  11.986
 2210SOL    HW137124   1.964   1.259  12.054
 2210SOL    HW237125   1.933   1.406  11.991
 2211SOL     OW37126   1.911   3.170  11.986
 2211SOL    HW137127   1.964   3.121  12.054
 2211SOL    HW237128   1.933   3.268  11.991
 2212SOL     OW37129   1.911   5.032  11.986
 2212SOL    HW137130   1.964   4.983  12.054
 2212SOL    HW237131   1.933   5.130  11.991
 2213SOL     OW37132   3.773   1.308  11.986
 2213SOL    HW137133   3.826   1.259  12.054
 2213SOL    HW237134   3.795   1.406  11.991
 2214SOL     OW37135   3.773   3.170  11.986
 2214SOL    HW137136   3.826   3.121  12.054
 2214SOL    HW237137   3.795   3.268  11.991
 2215SOL     OW37138   3.773   5.032  11.986
 2215SOL    HW137139   3.826   4.983  12.054
 2215SOL    HW237140   3.795   5.130  11.991
 2216SOL     OW37141   5.635   1.308  11.986
 2216SOL    HW137142   5.688   1.259  12.054
 2216SOL    HW237143   5.657   1.406  11.991
 2217SOL     OW37144   5.635   3.170  11.986
 2217SOL    HW137145   5.688   3.121  12.054
 2217SOL    HW237146   5.657   3.268  11.991
 2218SOL     OW37147   5.635   5.032  11.986
 2218SOL    HW137148   5.688   4.983  12.054
 2218SOL    HW237149   5.657   5.130  11.991
 2219SOL     OW37150   0.366   1.508   0.861
 2219SOL    HW137151   0.345   1.464   0.774
 2219SOL    HW237152   0.463   1.534   0.864
 2220SOL     OW37153   0.366   3.370   0.861
 2220SOL    HW137154   0.345   3.326   0.774
 2220SOL    HW237155   0.463   3.396   0.864
 2221SOL     OW37156   0.366   5.232   0.861
 2221SOL    HW137157   0.345   5.188   0.774
 2221SOL    HW237158   0.463   5.258   0.864
 2222SOL     OW37159   2.228   1.508   0.861
 2222SOL    HW137160   2.207   1.464   0.774
 2222SOL    HW237161   2.325   1.534   0.864
 2223SOL     OW37162   2.228   3.370   0.861
 2223SOL    HW137163   2.207   3.326   0.774
 2223SOL    HW237164   2.325   3.396   0.864
 2224SOL     OW37165   2.228   5.232   0.861
 2224SOL    HW137166   2.207   5.188   0.774
 2224SOL    HW237167   2.325   5.258   0.864
 2225SOL     OW37168   4.090   1.508   0.861
 2225SOL    HW137169   4.069   1.464   0.774
 2225SOL    HW237170   4.187   1.534   0.864
 2226SOL     OW37171   4.090   3.370   0.861
 2226SOL    HW137172   4.069   3.326   0.774
 2226SOL    HW237173   4.187   3.396   0.864
 2227SOL     OW37174   4.090   5.232   0.861
 2227SOL    HW137175   4.069   5.188   0.774
 2227SOL    HW237176   4.187   5.258   0.864
 2228SOL     OW37177   5.952   1.508   0.861
 2228SOL    HW137178   5.931   1.464   0.774
 2228SOL    HW237179   6.049   1.534   0.864
 2229SOL     OW37180   5.952   3.370   0.861
 2229SOL    HW137181   5.931   3.326   0.774
 2229SOL    HW237182   6.049   3.396   0.864
 2230SOL     OW37183   5.952   5.232   0.861
 2230SOL    HW137184   5.931   5.188   0.774
 2230SOL    HW237185   6.049   5.258   0.864
 2231SOL     OW37186   0.329   0.545  11.984
 2231SOL    HW137187   0.367   0.486  12.056
 2231SOL    HW237188   0.369   0.519  11.896
 2232SOL     OW37189   0.329   2.407  11.984
 2232SOL    HW137190   0.367   2.348  12.056
 2232SOL    HW237191   0.369   2.381  11.896
 2233SOL     OW37192   0.329   4.269  11.984
 2233SOL    HW137193   0.367   4.210  12.056
 2233SOL    HW237194   0.369   4.243  11.896
 2234SOL     OW37195   0.329   6.131  11.984
 2234SOL    HW137196   0.367   6.072  12.056
 2234SOL    HW237197   0.369   6.105  11.896
 2235SOL     OW37198   2.191   0.545  11.984
 2235SOL    HW137199   2.229   0.486  12.056
 2235SOL    HW237200   2.231   0.519  11.896
 2236SOL     OW37201   2.191   2.407  11.984
 2236SOL    HW137202   2.229   2.348  12.056
 2236SOL    HW237203   2.231   2.381  11.896
 2237SOL     OW37204   2.191   4.269  11.984
 2237SOL    HW137205   2.229   4.210  12.056
 2237SOL    HW237206   2.231   4.243  11.896
 2238SOL     OW37207   2.191   6.131  11.984
 2238SOL    HW137208   2.229   6.072  12.056
 2238SOL    HW237209   2.231   6.105  11.896
 2239SOL     OW37210   4.053   0.545  11.984
 2239SOL    HW137211   4.091   0.486  12.056
 2239SOL    HW237212   4.093   0.519  11.896
 2240SOL     OW37213   4.053   2.407  11.984
 2240SOL    HW137214   4.091   2.348  12.056
 2240SOL    HW237215   4.093   2.381  11.896
 2241SOL     OW37216   4.053   4.269  11.984
 2241SOL    HW137217   4.091   4.210  12.056
 2241SOL    HW237218   4.093   4.243  11.896
 2242SOL     OW37219   4.053   6.131  11.984
 2242SOL    HW137220   4.091   6.072  12.056
 2242SOL    HW237221   4.093   6.105  11.896
 2243SOL     OW37222   5.915   0.545  11.984
 2243SOL    HW137223   5.953   0.486  12.056
 2243SOL    HW237224   5.955   0.519  11.896
 2244SOL     OW37225   5.915   2.407  11.984
 2244SOL    HW137226   5.953   2.348  12.056
 2244SOL    HW237227   5.955   2.381  11.896
 2245SOL     OW37228   5.915   4.269  11.984
 2245SOL    HW137229   5.953   4.210  12.056
 2245SOL    HW237230   5.955   4.243  11.896
 2246SOL     OW37231   5.915   6.131  11.984
 2246SOL    HW137232   5.953   6.072  12.056
 2246SOL    HW237233   5.955   6.105  11.896
 2247SOL     OW37234   0.076   1.562   0.863
 2247SOL    HW137235   0.030   1.644   0.829
 2247SOL    HW237236   0.174   1.581   0.872
 2248SOL     OW37237   0.076   3.424   0.863
 2248SOL    HW137238   0.030   3.506   0.829
 2248SOL    HW237239   0.174   3.443   0.872
 2249SOL     OW37240   0.076   5.286   0.863
 2249SOL    HW137241   0.030   5.368   0.829
 2249SOL    HW237242   0.174   5.305   0.872
 2250SOL     OW37243   1.938   1.562   0.863
 2250SOL    HW137244   1.892   1.644   0.829
 2250SOL    HW237245   2.036   1.581   0.872
 2251SOL     OW37246   1.938   3.424   0.863
 2251SOL    HW137247   1.892   3.506   0.829
 2251SOL    HW237248   2.036   3.443   0.872
 2252SOL     OW37249   1.938   5.286   0.863
 2252SOL    HW137250   1.892   5.368   0.829
 2252SOL    HW237251   2.036   5.305   0.872
 2253SOL     OW37252   3.800   1.562   0.863
 2253SOL    HW137253   3.754   1.644   0.829
 2253SOL    HW237254   3.898   1.581   0.872
 2254SOL     OW37255   3.800   3.424   0.863
 2254SOL    HW137256   3.754   3.506   0.829
 2254SOL    HW237257   3.898   3.443   0.872
 2255SOL     OW37258   3.800   5.286   0.863
 2255SOL    HW137259   3.754   5.368   0.829
 2255SOL    HW237260   3.898   5.305   0.872
 2256SOL     OW37261   5.662   1.562   0.863
 2256SOL    HW137262   5.616   1.644   0.829
 2256SOL    HW237263   5.760   1.581   0.872
 2257SOL     OW37264   5.662   3.424   0.863
 2257SOL    HW137265   5.616   3.506   0.829
 2257SOL    HW237266   5.760   3.443   0.872
 2258SOL     OW37267   5.662   5.286   0.863
 2258SOL    HW137268   5.616   5.368   0.829
 2258SOL    HW237269   5.760   5.305   0.872
 2259SOL     OW37270   1.472   1.503   0.871
 2259SOL    HW137271   1.496   1.597   0.897
 2259SOL    HW237272   1.456   1.449   0.953
 2260SOL     OW37273   1.472   3.365   0.871
 2260SOL    HW137274   1.496   3.459   0.897
 2260SOL    HW237275   1.456   3.311   0.953
 2261SOL     OW37276   1.472   5.227   0.871
 2261SOL    HW137277   1.496   5.321   0.897
 2261SOL    HW237278   1.456   5.173   0.953
 2262SOL     OW37279   3.334   1.503   0.871
 2262SOL    HW137280   3.358   1.597   0.897
 2262SOL    HW237281   3.318   1.449   0.953
 2263SOL     OW37282   3.334   3.365   0.871
 2263SOL    HW137283   3.358   3.459   0.897
 2263SOL    HW237284   3.318   3.311   0.953
 2264SOL     OW37285   3.334   5.227   0.871
 2264SOL    HW137286   3.358   5.321   0.897
 2264SOL    HW237287   3.318   5.173   0.953
 2265SOL     OW37288   5.196   1.503   0.871
 2265SOL    HW137289   5.220   1.597   0.897
 2265SOL    HW237290   5.180   1.449   0.953
 2266SOL     OW37291   5.196   3.365   0.871
 2266SOL    HW137292   5.220   3.459   0.897
 2266SOL    HW237293   5.180   3.311   0.953
 2267SOL     OW37294   5.196   5.227   0.871
 2267SOL    HW137295   5.220   5.321   0.897
 2267SOL    HW237296   5.180   5.173   0.953
 2268SOL     OW37297   1.076   1.345   0.872
 2268SOL    HW137298   0.996   1.322   0.927
 2268SOL    HW237299   1.159   1.319   0.921
 2269SOL     OW37300   1.076   3.207   0.872
 2269SOL    HW137301   0.996   3.184   0.927
 2269SOL    HW237302   1.159   3.181   0.921
 2270SOL     OW37303   1.076   5.069   0.872
 2270SOL    HW137304   0.996   5.046   0.927
 2270SOL    HW237305   1.159   5.043   0.921
 2271SOL     OW37306   2.938   1.345   0.872
 2271SOL    HW137307   2.858   1.322   0.927
 2271SOL    HW237308   3.021   1.319   0.921
 2272SOL     OW37309   2.938   3.207   0.872
 2272SOL    HW137310   2.858   3.184   0.927
 2272SOL    HW237311   3.021   3.181   0.921
 2273SOL     OW37312   2.938   5.069   0.872
 2273SOL    HW137313   2.858   5.046   0.927
 2273SOL    HW237314   3.021   5.043   0.921
 2274SOL     OW37315   4.800   1.345   0.872
 2274SOL    HW137316   4.720   1.322   0.927
 2274SOL    HW237317   4.883   1.319   0.921
 2275SOL     OW37318   4.800   3.207   0.872
 2275SOL    HW137319   4.720   3.184   0.927
 2275SOL    HW237320   4.883   3.181   0.921
 2276SOL     OW37321   4.800   5.069   0.872
 2276SOL    HW137322   4.720   5.046   0.927
 2276SOL    HW237323   4.883   5.043   0.921
 2277SOL     OW37324   0.683   0.462  11.973
 2277SOL    HW137325   0.649   0.373  11.943
 2277SOL    HW237326   0.709   0.516  11.893
 2278SOL     OW37327   0.683   2.324  11.973
 2278SOL    HW137328   0.649   2.235  11.943
 2278SOL    HW237329   0.709   2.378  11.893
 2279SOL     OW37330   0.683   4.186  11.973
 2279SOL    HW137331   0.649   4.097  11.943
 2279SOL    HW237332   0.709   4.240  11.893
 2280SOL     OW37333   0.683   6.048  11.973
 2280SOL    HW137334   0.649   5.959  11.943
 2280SOL    HW237335   0.709   6.102  11.893
 2281SOL     OW37336   2.545   0.462  11.973
 2281SOL    HW137337   2.511   0.373  11.943
 2281SOL    HW237338   2.571   0.516  11.893
 2282SOL     OW37339   2.545   2.324  11.973
 2282SOL    HW137340   2.511   2.235  11.943
 2282SOL    HW237341   2.571   2.378  11.893
 2283SOL     OW37342   2.545   4.186  11.973
 2283SOL    HW137343   2.511   4.097  11.943
 2283SOL    HW237344   2.571   4.240  11.893
 2284SOL     OW37345   2.545   6.048  11.973
 2284SOL    HW137346   2.511   5.959  11.943
 2284SOL    HW237347   2.571   6.102  11.893
 2285SOL     OW37348   4.407   0.462  11.973
 2285SOL    HW137349   4.373   0.373  11.943
 2285SOL    HW237350   4.433   0.516  11.893
 2286SOL     OW37351   4.407   2.324  11.973
 2286SOL    HW137352   4.373   2.235  11.943
 2286SOL    HW237353   4.433   2.378  11.893
 2287SOL     OW37354   4.407   4.186  11.973
 2287SOL    HW137355   4.373   4.097  11.943
 2287SOL    HW237356   4.433   4.240  11.893
 2288SOL     OW37357   4.407   6.048  11.973
 2288SOL    HW137358   4.373   5.959  11.943
 2288SOL    HW237359   4.433   6.102  11.893
 2289SOL     OW37360   6.269   0.462  11.973
 2289SOL    HW137361   6.235   0.373  11.943
 2289SOL    HW237362   6.295   0.516  11.893
 2290SOL     OW37363   6.269   2.324  11.973
 2290SOL    HW137364   6.235   2.235  11.943
 2290SOL    HW237365   6.295   2.378  11.893
 2291SOL     OW37366   6.269   4.186  11.973
 2291SOL    HW137367   6.235   4.097  11.943
 2291SOL    HW237368   6.295   4.240  11.893
 2292SOL     OW37369   6.269   6.048  11.973
 2292SOL    HW137370   6.235   5.959  11.943
 2292SOL    HW237371   6.295   6.102  11.893
 2293SOL     OW37372   0.209   0.974  11.968
 2293SOL    HW137373   0.298   0.929  11.954
 2293SOL    HW237374   0.136   0.909  11.949
 2294SOL     OW37375   0.209   2.836  11.968
 2294SOL    HW137376   0.298   2.791  11.954
 2294SOL    HW237377   0.136   2.771  11.949
 2295SOL     OW37378   0.209   4.698  11.968
 2295SOL    HW137379   0.298   4.653  11.954
 2295SOL    HW237380   0.136   4.633  11.949
 2296SOL     OW37381   2.071   0.974  11.968
 2296SOL    HW137382   2.160   0.929  11.954
 2296SOL    HW237383   1.998   0.909  11.949
 2297SOL     OW37384   2.071   2.836  11.968
 2297SOL    HW137385   2.160   2.791  11.954
 2297SOL    HW237386   1.998   2.771  11.949
 2298SOL     OW37387   2.071   4.698  11.968
 2298SOL    HW137388   2.160   4.653  11.954
 2298SOL    HW237389   1.998   4.633  11.949
 2299SOL     OW37390   3.933   0.974  11.968
 2299SOL    HW137391   4.022   0.929  11.954
 2299SOL    HW237392   3.860   0.909  11.949
 2300SOL     OW37393   3.933   2.836  11.968
 2300SOL    HW137394   4.022   2.791  11.954
 2300SOL    HW237395   3.860   2.771  11.949
 2301SOL     OW37396   3.933   4.698  11.968
 2301SOL    HW137397   4.022   4.653  11.954
 2301SOL    HW237398   3.860   4.633  11.949
 2302SOL     OW37399   5.795   0.974  11.968
 2302SOL    HW137400   5.884   0.929  11.954
 2302SOL    HW237401   5.722   0.909  11.949
 2303SOL     OW37402   5.795   2.836  11.968
 2303SOL    HW137403   5.884   2.791  11.954
 2303SOL    HW237404   5.722   2.771  11.949
 2304SOL     OW37405   5.795   4.698  11.968
 2304SOL    HW137406   5.884   4.653  11.954
 2304SOL    HW237407   5.722   4.633  11.949
 2305SOL     OW37408   1.286   0.384  11.966
 2305SOL    HW137409   1.307   0.458  12.030
 2305SOL    HW237410   1.197   0.401  11.923
 2306SOL     OW37411   1.286   2.246  11.966
 2306SOL    HW137412   1.307   2.320  12.030
 2306SOL    HW237413   1.197   2.263  11.923
 2307SOL     OW37414   1.286   4.108  11.966
 2307SOL    HW137415   1.307   4.182  12.030
 2307SOL    HW237416   1.197   4.125  11.923
 2308SOL     OW37417   1.286   5.970  11.966
 2308SOL    HW137418   1.307   6.044  12.030
 2308SOL    HW237419   1.197   5.987  11.923
 2309SOL     OW37420   3.148   0.384  11.966
 2309SOL    HW137421   3.169   0.458  12.030
 2309SOL    HW237422   3.059   0.401  11.923
 2310SOL     OW37423   3.148   2.246  11.966
 2310SOL    HW137424   3.169   2.320  12.030
 2310SOL    HW237425   3.059   2.263  11.923
 2311SOL     OW37426   3.148   4.108  11.966
 2311SOL    HW137427   3.169   4.182  12.030
 2311SOL    HW237428   3.059   4.125  11.923
 2312SOL     OW37429   3.148   5.970  11.966
 2312SOL    HW137430   3.169   6.044  12.030
 2312SOL    HW237431   3.059   5.987  11.923
 2313SOL     OW37432   5.010   0.384  11.966
 2313SOL    HW137433   5.031   0.458  12.030
 2313SOL    HW237434   4.921   0.401  11.923
 2314SOL     OW37435   5.010   2.246  11.966
 2314SOL    HW137436   5.031   2.320  12.030
 2314SOL    HW237437   4.921   2.263  11.923
 2315SOL     OW37438   5.010   4.108  11.966
 2315SOL    HW137439   5.031   4.182  12.030
 2315SOL    HW237440   4.921   4.125  11.923
 2316SOL     OW37441   5.010   5.970  11.966
 2316SOL    HW137442   5.031   6.044  12.030
 2316SOL    HW237443   4.921   5.987  11.923
 2317SOL     OW37444   1.686   0.881  11.958
 2317SOL    HW137445   1.659   0.792  11.921
 2317SOL    HW237446   1.687   0.949  11.885
 2318SOL     OW37447   1.686   2.743  11.958
 2318SOL    HW137448   1.659   2.654  11.921
 2318SOL    HW237449   1.687   2.811  11.885
 2319SOL     OW37450   1.686   4.605  11.958
 2319SOL    HW137451   1.659   4.516  11.921
 2319SOL    HW237452   1.687   4.673  11.885
 2320SOL     OW37453   1.686   0.017  11.958
 2320SOL    HW137454   1.659   6.378  11.921
 2320SOL    HW237455   1.687   0.085  11.885
 2321SOL     OW37456   3.548   0.881  11.958
 2321SOL    HW137457   3.521   0.792  11.921
 2321SOL    HW237458   3.549   0.949  11.885
 2322SOL     OW37459   3.548   2.743  11.958
 2322SOL    HW137460   3.521   2.654  11.921
 2322SOL    HW237461   3.549   2.811  11.885
 2323SOL     OW37462   3.548   4.605  11.958
 2323SOL    HW137463   3.521   4.516  11.921
 2323SOL    HW237464   3.549   4.673  11.885
 2324SOL     OW37465   3.548   0.017  11.958
 2324SOL    HW137466   3.521   6.378  11.921
 2324SOL    HW237467   3.549   0.085  11.885
 2325SOL     OW37468   5.410   0.881  11.958
 2325SOL    HW137469   5.383   0.792  11.921
 2325SOL    HW237470   5.411   0.949  11.885
 2326SOL     OW37471   5.410   2.743  11.958
 2326SOL    HW137472   5.383   2.654  11.921
 2326SOL    HW237473   5.411   2.811  11.885
 2327SOL     OW37474   5.410   4.605  11.958
 2327SOL    HW137475   5.383   4.516  11.921
 2327SOL    HW237476   5.411   4.673  11.885
 2328SOL     OW37477   5.410   0.017  11.958
 2328SOL    HW137478   5.383   6.378  11.921
 2328SOL    HW237479   5.411   0.085  11.885
 2329SOL     OW37480   0.422   0.811  11.955
 2329SOL    HW137481   0.508   0.823  12.005
 2329SOL    HW237482   0.380   0.724  11.982
 2330SOL     OW37483   0.422   2.673  11.955
 2330SOL    HW137484   0.508   2.685  12.005
 2330SOL    HW237485   0.380   2.586  11.982
 2331SOL     OW37486   0.422   4.535  11.955
 2331SOL    HW137487   0.508   4.547  12.005
 2331SOL    HW237488   0.380   4.448  11.982
 2332SOL     OW37489   0.422   6.397  11.955
 2332SOL    HW137490   0.508   6.409  12.005
 2332SOL    HW237491   0.380   6.310  11.982
 2333SOL     OW37492   2.284   0.811  11.955
 2333SOL    HW137493   2.370   0.823  12.005
 2333SOL    HW237494   2.242   0.724  11.982
 2334SOL     OW37495   2.284   2.673  11.955
 2334SOL    HW137496   2.370   2.685  12.005
 2334SOL    HW237497   2.242   2.586  11.982
 2335SOL     OW37498   2.284   4.535  11.955
 2335SOL    HW137499   2.370   4.547  12.005
 2335SOL    HW237500   2.242   4.448  11.982
 2336SOL     OW37501   2.284   6.397  11.955
 2336SOL    HW137502   2.370   6.409  12.005
 2336SOL    HW237503   2.242   6.310  11.982
 2337SOL     OW37504   4.146   0.811  11.955
 2337SOL    HW137505   4.232   0.823  12.005
 2337SOL    HW237506   4.104   0.724  11.982
 2338SOL     OW37507   4.146   2.673  11.955
 2338SOL    HW137508   4.232   2.685  12.005
 2338SOL    HW237509   4.104   2.586  11.982
 2339SOL     OW37510   4.146   4.535  11.955
 2339SOL    HW137511   4.232   4.547  12.005
 2339SOL    HW237512   4.104   4.448  11.982
 2340SOL     OW37513   4.146   6.397  11.955
 2340SOL    HW137514   4.232   6.409  12.005
 2340SOL    HW237515   4.104   6.310  11.982
 2341SOL     OW37516   6.008   0.811  11.955
 2341SOL    HW137517   6.094   0.823  12.005
 2341SOL    HW237518   5.966   0.724  11.982
 2342SOL     OW37519   6.008   2.673  11.955
 2342SOL    HW137520   6.094   2.685  12.005
 2342SOL    HW237521   5.966   2.586  11.982
 2343SOL     OW37522   6.008   4.535  11.955
 2343SOL    HW137523   6.094   4.547  12.005
 2343SOL    HW237524   5.966   4.448  11.982
 2344SOL     OW37525   6.008   6.397  11.955
 2344SOL    HW137526   6.094   6.409  12.005
 2344SOL    HW237527   5.966   6.310  11.982
 2345SOL     OW37528   1.003   0.408  11.946
 2345SOL    HW137529   0.926   0.442  12.000
 2345SOL    HW237530   0.969   0.357  11.867
 2346SOL     OW37531   1.003   2.270  11.946
 2346SOL    HW137532   0.926   2.304  12.000
 2346SOL    HW237533   0.969   2.219  11.867
 2347SOL     OW37534   1.003   4.132  11.946
 2347SOL    HW137535   0.926   4.166  12.000
 2347SOL    HW237536   0.969   4.081  11.867
 2348SOL     OW37537   1.003   5.994  11.946
 2348SOL    HW137538   0.926   6.028  12.000
 2348SOL    HW237539   0.969   5.943  11.867
 2349SOL     OW37540   2.865   0.408  11.946
 2349SOL    HW137541   2.788   0.442  12.000
 2349SOL    HW237542   2.831   0.357  11.867
 2350SOL     OW37543   2.865   2.270  11.946
 2350SOL    HW137544   2.788   2.304  12.000
 2350SOL    HW237545   2.831   2.219  11.867
 2351SOL     OW37546   2.865   4.132  11.946
 2351SOL    HW137547   2.788   4.166  12.000
 2351SOL    HW237548   2.831   4.081  11.867
 2352SOL     OW37549   2.865   5.994  11.946
 2352SOL    HW137550   2.788   6.028  12.000
 2352SOL    HW237551   2.831   5.943  11.867
 2353SOL     OW37552   4.727   0.408  11.946
 2353SOL    HW137553   4.650   0.442  12.000
 2353SOL    HW237554   4.693   0.357  11.867
 2354SOL     OW37555   4.727   2.270  11.946
 2354SOL    HW137556   4.650   2.304  12.000
 2354SOL    HW237557   4.693   2.219  11.867
 2355SOL     OW37558   4.727   4.132  11.946
 2355SOL    HW137559   4.650   4.166  12.000
 2355SOL    HW237560   4.693   4.081  11.867
 2356SOL     OW37561   4.727   5.994  11.946
 2356SOL    HW137562   4.650   6.028  12.000
 2356SOL    HW237563   4.693   5.943  11.867
 2357SOL     OW37564   0.261   1.783  11.945
 2357SOL    HW137565   0.318   1.718  11.995
 2357SOL    HW237566   0.245   1.750  11.852
 2358SOL     OW37567   0.261   3.645  11.945
 2358SOL    HW137568   0.318   3.580  11.995
 2358SOL    HW237569   0.245   3.612  11.852
 2359SOL     OW37570   0.261   5.507  11.945
 2359SOL    HW137571   0.318   5.442  11.995
 2359SOL    HW237572   0.245   5.474  11.852
 2360SOL     OW37573   2.123   1.783  11.945
 2360SOL    HW137574   2.180   1.718  11.995
 2360SOL    HW237575   2.107   1.750  11.852
 2361SOL     OW37576   2.123   3.645  11.945
 2361SOL    HW137577   2.180   3.580  11.995
 2361SOL    HW237578   2.107   3.612  11.852
 2362SOL     OW37579   2.123   5.507  11.945
 2362SOL    HW137580   2.180   5.442  11.995
 2362SOL    HW237581   2.107   5.474  11.852
 2363SOL     OW37582   3.985   1.783  11.945
 2363SOL    HW137583   4.042   1.718  11.995
 2363SOL    HW237584   3.969   1.750  11.852
 2364SOL     OW37585   3.985   3.645  11.945
 2364SOL    HW137586   4.042   3.580  11.995
 2364SOL    HW237587   3.969   3.612  11.852
 2365SOL     OW37588   3.985   5.507  11.945
 2365SOL    HW137589   4.042   5.442  11.995
 2365SOL    HW237590   3.969   5.474  11.852
 2366SOL     OW37591   5.847   1.783  11.945
 2366SOL    HW137592   5.904   1.718  11.995
 2366SOL    HW237593   5.831   1.750  11.852
 2367SOL     OW37594   5.847   3.645  11.945
 2367SOL    HW137595   5.904   3.580  11.995
 2367SOL    HW237596   5.831   3.612  11.852
 2368SOL     OW37597   5.847   5.507  11.945
 2368SOL    HW137598   5.904   5.442  11.995
 2368SOL    HW237599   5.831   5.474  11.852
 2369SOL     OW37600   1.014   0.794  11.942
 2369SOL    HW137601   1.055   0.762  12.028
 2369SOL    HW237602   0.918   0.767  11.939
 2370SOL     OW37603   1.014   2.656  11.942
 2370SOL    HW137604   1.055   2.624  12.028
 2370SOL    HW237605   0.918   2.629  11.939
 2371SOL     OW37606   1.014   4.518  11.942
 2371SOL    HW137607   1.055   4.486  12.028
 2371SOL    HW237608   0.918   4.491  11.939
 2372SOL     OW37609   2.876   0.794  11.942
 2372SOL    HW137610   2.917   0.762  12.028
 2372SOL    HW237611   2.780   0.767  11.939
 2373SOL     OW37612   2.876   2.656  11.942
 2373SOL    HW137613   2.917   2.624  12.028
 2373SOL    HW237614   2.780   2.629  11.939
 2374SOL     OW37615   2.876   4.518  11.942
 2374SOL    HW137616   2.917   4.486  12.028
 2374SOL    HW237617   2.780   4.491  11.939
 2375SOL     OW37618   4.738   0.794  11.942
 2375SOL    HW137619   4.779   0.762  12.028
 2375SOL    HW237620   4.642   0.767  11.939
 2376SOL     OW37621   4.738   2.656  11.942
 2376SOL    HW137622   4.779   2.624  12.028
 2376SOL    HW237623   4.642   2.629  11.939
 2377SOL     OW37624   4.738   4.518  11.942
 2377SOL    HW137625   4.779   4.486  12.028
 2377SOL    HW237626   4.642   4.491  11.939
 2378SOL     OW37627   0.834   1.000   0.904
 2378SOL    HW137628   0.874   0.999   0.812
 2378SOL    HW237629   0.844   1.092   0.944
 2379SOL     OW37630   0.834   2.862   0.904
 2379SOL    HW137631   0.874   2.861   0.812
 2379SOL    HW237632   0.844   2.954   0.944
 2380SOL     OW37633   0.834   4.724   0.904
 2380SOL    HW137634   0.874   4.723   0.812
 2380SOL    HW237635   0.844   4.816   0.944
 2381SOL     OW37636   2.696   1.000   0.904
 2381SOL    HW137637   2.736   0.999   0.812
 2381SOL    HW237638   2.706   1.092   0.944
 2382SOL     OW37639   2.696   2.862   0.904
 2382SOL    HW137640   2.736   2.861   0.812
 2382SOL    HW237641   2.706   2.954   0.944
 2383SOL     OW37642   2.696   4.724   0.904
 2383SOL    HW137643   2.736   4.723   0.812
 2383SOL    HW237644   2.706   4.816   0.944
 2384SOL     OW37645   4.558   1.000   0.904
 2384SOL    HW137646   4.598   0.999   0.812
 2384SOL    HW237647   4.568   1.092   0.944
 2385SOL     OW37648   4.558   2.862   0.904
 2385SOL    HW137649   4.598   2.861   0.812
 2385SOL    HW237650   4.568   2.954   0.944
 2386SOL     OW37651   4.558   4.724   0.904
 2386SOL    HW137652   4.598   4.723   0.812
 2386SOL    HW237653   4.568   4.816   0.944
 2387SOL     OW37654   6.420   1.000   0.904
 2387SOL    HW137655   0.010   0.999   0.812
 2387SOL    HW237656   6.430   1.092   0.944
 2388SOL     OW37657   6.420   2.862   0.904
 2388SOL    HW137658   0.010   2.861   0.812
 2388SOL    HW237659   6.430   2.954   0.944
 2389SOL     OW37660   6.420   4.724   0.904
 2389SOL    HW137661   0.010   4.723   0.812
 2389SOL    HW237662   6.430   4.816   0.944
 2390SOL     OW37663   1.359   1.057  11.938
 2390SOL    HW137664   1.383   0.994  11.864
 2390SOL    HW237665   1.269   1.097  11.920
 2391SOL     OW37666   1.359   2.919  11.938
 2391SOL    HW137667   1.383   2.856  11.864
 2391SOL    HW237668   1.269   2.959  11.920
 2392SOL     OW37669   1.359   4.781  11.938
 2392SOL    HW137670   1.383   4.718  11.864
 2392SOL    HW237671   1.269   4.821  11.920
 2393SOL     OW37672   3.221   1.057  11.938
 2393SOL    HW137673   3.245   0.994  11.864
 2393SOL    HW237674   3.131   1.097  11.920
 2394SOL     OW37675   3.221   2.919  11.938
 2394SOL    HW137676   3.245   2.856  11.864
 2394SOL    HW237677   3.131   2.959  11.920
 2395SOL     OW37678   3.221   4.781  11.938
 2395SOL    HW137679   3.245   4.718  11.864
 2395SOL    HW237680   3.131   4.821  11.920
 2396SOL     OW37681   5.083   1.057  11.938
 2396SOL    HW137682   5.107   0.994  11.864
 2396SOL    HW237683   4.993   1.097  11.920
 2397SOL     OW37684   5.083   2.919  11.938
 2397SOL    HW137685   5.107   2.856  11.864
 2397SOL    HW237686   4.993   2.959  11.920
 2398SOL     OW37687   5.083   4.781  11.938
 2398SOL    HW137688   5.107   4.718  11.864
 2398SOL    HW237689   4.993   4.821  11.920
 2399SOL     OW37690   0.319   0.211  11.935
 2399SOL    HW137691   0.296   0.248  12.025
 2399SOL    HW237692   0.289   0.116  11.929
 2400SOL     OW37693   0.319   2.073  11.935
 2400SOL    HW137694   0.296   2.110  12.025
 2400SOL    HW237695   0.289   1.978  11.929
 2401SOL     OW37696   0.319   3.935  11.935
 2401SOL    HW137697   0.296   3.972  12.025
 2401SOL    HW237698   0.289   3.840  11.929
 2402SOL     OW37699   0.319   5.797  11.935
 2402SOL    HW137700   0.296   5.834  12.025
 2402SOL    HW237701   0.289   5.702  11.929
 2403SOL     OW37702   2.181   0.211  11.935
 2403SOL    HW137703   2.158   0.248  12.025
 2403SOL    HW237704   2.151   0.116  11.929
 2404SOL     OW37705   2.181   2.073  11.935
 2404SOL    HW137706   2.158   2.110  12.025
 2404SOL    HW237707   2.151   1.978  11.929
 2405SOL     OW37708   2.181   3.935  11.935
 2405SOL    HW137709   2.158   3.972  12.025
 2405SOL    HW237710   2.151   3.840  11.929
 2406SOL     OW37711   2.181   5.797  11.935
 2406SOL    HW137712   2.158   5.834  12.025
 2406SOL    HW237713   2.151   5.702  11.929
 2407SOL     OW37714   4.043   0.211  11.935
 2407SOL    HW137715   4.020   0.248  12.025
 2407SOL    HW237716   4.013   0.116  11.929
 2408SOL     OW37717   4.043   2.073  11.935
 2408SOL    HW137718   4.020   2.110  12.025
 2408SOL    HW237719   4.013   1.978  11.929
 2409SOL     OW37720   4.043   3.935  11.935
 2409SOL    HW137721   4.020   3.972  12.025
 2409SOL    HW237722   4.013   3.840  11.929
 2410SOL     OW37723   4.043   5.797  11.935
 2410SOL    HW137724   4.020   5.834  12.025
 2410SOL    HW237725   4.013   5.702  11.929
 2411SOL     OW37726   5.905   0.211  11.935
 2411SOL    HW137727   5.882   0.248  12.025
 2411SOL    HW237728   5.875   0.116  11.929
 2412SOL     OW37729   5.905   2.073  11.935
 2412SOL    HW137730   5.882   2.110  12.025
 2412SOL    HW237731   5.875   1.978  11.929
 2413SOL     OW37732   5.905   3.935  11.935
 2413SOL    HW137733   5.882   3.972  12.025
 2413SOL    HW237734   5.875   3.840  11.929
 2414SOL     OW37735   5.905   5.797  11.935
 2414SOL    HW137736   5.882   5.834  12.025
 2414SOL    HW237737   5.875   5.702  11.929
 2415SOL     OW37738   1.721   0.383   0.913
 2415SOL    HW137739   1.794   0.452   0.917
 2415SOL    HW237740   1.749   0.308   0.854
 2416SOL     OW37741   1.721   2.245   0.913
 2416SOL    HW137742   1.794   2.314   0.917
 2416SOL    HW237743   1.749   2.170   0.854
 2417SOL     OW37744   1.721   4.107   0.913
 2417SOL    HW137745   1.794   4.176   0.917
 2417SOL    HW237746   1.749   4.032   0.854
 2418SOL     OW37747   1.721   5.969   0.913
 2418SOL    HW137748   1.794   6.038   0.917
 2418SOL    HW237749   1.749   5.894   0.854
 2419SOL     OW37750   3.583   0.383   0.913
 2419SOL    HW137751   3.656   0.452   0.917
 2419SOL    HW237752   3.611   0.308   0.854
 2420SOL     OW37753   3.583   2.245   0.913
 2420SOL    HW137754   3.656   2.314   0.917
 2420SOL    HW237755   3.611   2.170   0.854
 2421SOL     OW37756   3.583   4.107   0.913
 2421SOL    HW137757   3.656   4.176   0.917
 2421SOL    HW237758   3.611   4.032   0.854
 2422SOL     OW37759   3.583   5.969   0.913
 2422SOL    HW137760   3.656   6.038   0.917
 2422SOL    HW237761   3.611   5.894   0.854
 2423SOL     OW37762   5.445   0.383   0.913
 2423SOL    HW137763   5.518   0.452   0.917
 2423SOL    HW237764   5.473   0.308   0.854
 2424SOL     OW37765   5.445   2.245   0.913
 2424SOL    HW137766   5.518   2.314   0.917
 2424SOL    HW237767   5.473   2.170   0.854
 2425SOL     OW37768   5.445   4.107   0.913
 2425SOL    HW137769   5.518   4.176   0.917
 2425SOL    HW237770   5.473   4.032   0.854
 2426SOL     OW37771   5.445   5.969   0.913
 2426SOL    HW137772   5.518   6.038   0.917
 2426SOL    HW237773   5.473   5.894   0.854
 2427SOL     OW37774   1.836   0.190  11.931
 2427SOL    HW137775   1.832   0.100  11.975
 2427SOL    HW237776   1.839   0.179  11.832
 2428SOL     OW37777   1.836   2.052  11.931
 2428SOL    HW137778   1.832   1.962  11.975
 2428SOL    HW237779   1.839   2.041  11.832
 2429SOL     OW37780   1.836   3.914  11.931
 2429SOL    HW137781   1.832   3.824  11.975
 2429SOL    HW237782   1.839   3.903  11.832
 2430SOL     OW37783   1.836   5.776  11.931
 2430SOL    HW137784   1.832   5.686  11.975
 2430SOL    HW237785   1.839   5.765  11.832
 2431SOL     OW37786   3.698   0.190  11.931
 2431SOL    HW137787   3.694   0.100  11.975
 2431SOL    HW237788   3.701   0.179  11.832
 2432SOL     OW37789   3.698   2.052  11.931
 2432SOL    HW137790   3.694   1.962  11.975
 2432SOL    HW237791   3.701   2.041  11.832
 2433SOL     OW37792   3.698   3.914  11.931
 2433SOL    HW137793   3.694   3.824  11.975
 2433SOL    HW237794   3.701   3.903  11.832
 2434SOL     OW37795   3.698   5.776  11.931
 2434SOL    HW137796   3.694   5.686  11.975
 2434SOL    HW237797   3.701   5.765  11.832
 2435SOL     OW37798   5.560   0.190  11.931
 2435SOL    HW137799   5.556   0.100  11.975
 2435SOL    HW237800   5.563   0.179  11.832
 2436SOL     OW37801   5.560   2.052  11.931
 2436SOL    HW137802   5.556   1.962  11.975
 2436SOL    HW237803   5.563   2.041  11.832
 2437SOL     OW37804   5.560   3.914  11.931
 2437SOL    HW137805   5.556   3.824  11.975
 2437SOL    HW237806   5.563   3.903  11.832
 2438SOL     OW37807   5.560   5.776  11.931
 2438SOL    HW137808   5.556   5.686  11.975
 2438SOL    HW237809   5.563   5.765  11.832
 2439SOL     OW37810   0.090   0.554   0.918
 2439SOL    HW137811   0.182   0.553   0.877
 2439SOL    HW237812   0.084   0.628   0.985
 2440SOL     OW37813   0.090   2.416   0.918
 2440SOL    HW137814   0.182   2.415   0.877
 2440SOL    HW237815   0.084   2.490   0.985
 2441SOL     OW37816   0.090   4.278   0.918
 2441SOL    HW137817   0.182   4.277   0.877
 2441SOL    HW237818   0.084   4.352   0.985
 2442SOL     OW37819   0.090   6.140   0.918
 2442SOL    HW137820   0.182   6.139   0.877
 2442SOL    HW237821   0.084   6.214   0.985
 2443SOL     OW37822   1.952   0.554   0.918
 2443SOL    HW137823   2.044   0.553   0.877
 2443SOL    HW237824   1.946   0.628   0.985
 2444SOL     OW37825   1.952   2.416   0.918
 2444SOL    HW137826   2.044   2.415   0.877
 2444SOL    HW237827   1.946   2.490   0.985
 2445SOL     OW37828   1.952   4.278   0.918
 2445SOL    HW137829   2.044   4.277   0.877
 2445SOL    HW237830   1.946   4.352   0.985
 2446SOL     OW37831   1.952   6.140   0.918
 2446SOL    HW137832   2.044   6.139   0.877
 2446SOL    HW237833   1.946   6.214   0.985
 2447SOL     OW37834   3.814   0.554   0.918
 2447SOL    HW137835   3.906   0.553   0.877
 2447SOL    HW237836   3.808   0.628   0.985
 2448SOL     OW37837   3.814   2.416   0.918
 2448SOL    HW137838   3.906   2.415   0.877
 2448SOL    HW237839   3.808   2.490   0.985
 2449SOL     OW37840   3.814   4.278   0.918
 2449SOL    HW137841   3.906   4.277   0.877
 2449SOL    HW237842   3.808   4.352   0.985
 2450SOL     OW37843   3.814   6.140   0.918
 2450SOL    HW137844   3.906   6.139   0.877
 2450SOL    HW237845   3.808   6.214   0.985
 2451SOL     OW37846   5.676   0.554   0.918
 2451SOL    HW137847   5.768   0.553   0.877
 2451SOL    HW237848   5.670   0.628   0.985
 2452SOL     OW37849   5.676   2.416   0.918
 2452SOL    HW137850   5.768   2.415   0.877
 2452SOL    HW237851   5.670   2.490   0.985
 2453SOL     OW37852   5.676   4.278   0.918
 2453SOL    HW137853   5.768   4.277   0.877
 2453SOL    HW237854   5.670   4.352   0.985
 2454SOL     OW37855   5.676   6.140   0.918
 2454SOL    HW137856   5.768   6.139   0.877
 2454SOL    HW237857   5.670   6.214   0.985
 2455SOL     OW37858   1.662   1.718   0.926
 2455SOL    HW137859   1.715   1.728   0.842
 2455SOL    HW237860   1.635   1.808   0.960
 2456SOL     OW37861   1.662   3.580   0.926
 2456SOL    HW137862   1.715   3.590   0.842
 2456SOL    HW237863   1.635   3.670   0.960
 2457SOL     OW37864   1.662   5.442   0.926
 2457SOL    HW137865   1.715   5.452   0.842
 2457SOL    HW237866   1.635   5.532   0.960
 2458SOL     OW37867   3.524   1.718   0.926
 2458SOL    HW137868   3.577   1.728   0.842
 2458SOL    HW237869   3.497   1.808   0.960
 2459SOL     OW37870   3.524   3.580   0.926
 2459SOL    HW137871   3.577   3.590   0.842
 2459SOL    HW237872   3.497   3.670   0.960
 2460SOL     OW37873   3.524   5.442   0.926
 2460SOL    HW137874   3.577   5.452   0.842
 2460SOL    HW237875   3.497   5.532   0.960
 2461SOL     OW37876   5.386   1.718   0.926
 2461SOL    HW137877   5.439   1.728   0.842
 2461SOL    HW237878   5.359   1.808   0.960
 2462SOL     OW37879   5.386   3.580   0.926
 2462SOL    HW137880   5.439   3.590   0.842
 2462SOL    HW237881   5.359   3.670   0.960
 2463SOL     OW37882   5.386   5.442   0.926
 2463SOL    HW137883   5.439   5.452   0.842
 2463SOL    HW237884   5.359   5.532   0.960
 2464SOL     OW37885   1.452   0.854   0.930
 2464SOL    HW137886   1.395   0.906   0.867
 2464SOL    HW237887   1.548   0.866   0.906
 2465SOL     OW37888   1.452   2.716   0.930
 2465SOL    HW137889   1.395   2.768   0.867
 2465SOL    HW237890   1.548   2.728   0.906
 2466SOL     OW37891   1.452   4.578   0.930
 2466SOL    HW137892   1.395   4.630   0.867
 2466SOL    HW237893   1.548   4.590   0.906
 2467SOL     OW37894   1.452   6.440   0.930
 2467SOL    HW137895   1.395   0.042   0.867
 2467SOL    HW237896   1.548   0.002   0.906
 2468SOL     OW37897   3.314   0.854   0.930
 2468SOL    HW137898   3.257   0.906   0.867
 2468SOL    HW237899   3.410   0.866   0.906
 2469SOL     OW37900   3.314   2.716   0.930
 2469SOL    HW137901   3.257   2.768   0.867
 2469SOL    HW237902   3.410   2.728   0.906
 2470SOL     OW37903   3.314   4.578   0.930
 2470SOL    HW137904   3.257   4.630   0.867
 2470SOL    HW237905   3.410   4.590   0.906
 2471SOL     OW37906   3.314   6.440   0.930
 2471SOL    HW137907   3.257   0.042   0.867
 2471SOL    HW237908   3.410   0.002   0.906
 2472SOL     OW37909   5.176   0.854   0.930
 2472SOL    HW137910   5.119   0.906   0.867
 2472SOL    HW237911   5.272   0.866   0.906
 2473SOL     OW37912   5.176   2.716   0.930
 2473SOL    HW137913   5.119   2.768   0.867
 2473SOL    HW237914   5.272   2.728   0.906
 2474SOL     OW37915   5.176   4.578   0.930
 2474SOL    HW137916   5.119   4.630   0.867
 2474SOL    HW237917   5.272   4.590   0.906
 2475SOL     OW37918   5.176   6.440   0.930
 2475SOL    HW137919   5.119   0.042   0.867
 2475SOL    HW237920   5.272   0.002   0.906
 2476SOL     OW37921   0.927   0.087   0.934
 2476SOL    HW137922   0.952   0.067   0.839
 2476SOL    HW237923   0.999   0.143   0.976
 2477SOL     OW37924   0.927   1.949   0.934
 2477SOL    HW137925   0.952   1.929   0.839
 2477SOL    HW237926   0.999   2.005   0.976
 2478SOL     OW37927   0.927   3.811   0.934
 2478SOL    HW137928   0.952   3.791   0.839
 2478SOL    HW237929   0.999   3.867   0.976
 2479SOL     OW37930   0.927   5.673   0.934
 2479SOL    HW137931   0.952   5.653   0.839
 2479SOL    HW237932   0.999   5.729   0.976
 2480SOL     OW37933   2.789   0.087   0.934
 2480SOL    HW137934   2.814   0.067   0.839
 2480SOL    HW237935   2.861   0.143   0.976
 2481SOL     OW37936   2.789   1.949   0.934
 2481SOL    HW137937   2.814   1.929   0.839
 2481SOL    HW237938   2.861   2.005   0.976
 2482SOL     OW37939   2.789   3.811   0.934
 2482SOL    HW137940   2.814   3.791   0.839
 2482SOL    HW237941   2.861   3.867   0.976
 2483SOL     OW37942   2.789   5.673   0.934
 2483SOL    HW137943   2.814   5.653   0.839
 2483SOL    HW237944   2.861   5.729   0.976
 2484SOL     OW37945   4.651   0.087   0.934
 2484SOL    HW137946   4.676   0.067   0.839
 2484SOL    HW237947   4.723   0.143   0.976
 2485SOL     OW37948   4.651   1.949   0.934
 2485SOL    HW137949   4.676   1.929   0.839
 2485SOL    HW237950   4.723   2.005   0.976
 2486SOL     OW37951   4.651   3.811   0.934
 2486SOL    HW137952   4.676   3.791   0.839
 2486SOL    HW237953   4.723   3.867   0.976
 2487SOL     OW37954   4.651   5.673   0.934
 2487SOL    HW137955   4.676   5.653   0.839
 2487SOL    HW237956   4.723   5.729   0.976
 2488SOL     OW37957   0.063   0.087   0.934
 2488SOL    HW137958   0.088   0.067   0.839
 2488SOL    HW237959   0.135   0.143   0.976
 2489SOL     OW37960   0.063   1.949   0.934
 2489SOL    HW137961   0.088   1.929   0.839
 2489SOL    HW237962   0.135   2.005   0.976
 2490SOL     OW37963   0.063   3.811   0.934
 2490SOL    HW137964   0.088   3.791   0.839
 2490SOL    HW237965   0.135   3.867   0.976
 2491SOL     OW37966   0.063   5.673   0.934
 2491SOL    HW137967   0.088   5.653   0.839
 2491SOL    HW237968   0.135   5.729   0.976
 2492SOL     OW37969   1.669   0.602  11.910
 2492SOL    HW137970   1.631   0.533  11.972
 2492SOL    HW237971   1.751   0.566  11.866
 2493SOL     OW37972   1.669   2.464  11.910
 2493SOL    HW137973   1.631   2.395  11.972
 2493SOL    HW237974   1.751   2.428  11.866
 2494SOL     OW37975   1.669   4.326  11.910
 2494SOL    HW137976   1.631   4.257  11.972
 2494SOL    HW237977   1.751   4.290  11.866
 2495SOL     OW37978   1.669   6.188  11.910
 2495SOL    HW137979   1.631   6.119  11.972
 2495SOL    HW237980   1.751   6.152  11.866
 2496SOL     OW37981   3.531   0.602  11.910
 2496SOL    HW137982   3.493   0.533  11.972
 2496SOL    HW237983   3.613   0.566  11.866
 2497SOL     OW37984   3.531   2.464  11.910
 2497SOL    HW137985   3.493   2.395  11.972
 2497SOL    HW237986   3.613   2.428  11.866
 2498SOL     OW37987   3.531   4.326  11.910
 2498SOL    HW137988   3.493   4.257  11.972
 2498SOL    HW237989   3.613   4.290  11.866
 2499SOL     OW37990   3.531   6.188  11.910
 2499SOL    HW137991   3.493   6.119  11.972
 2499SOL    HW237992   3.613   6.152  11.866
 2500SOL     OW37993   5.393   0.602  11.910
 2500SOL    HW137994   5.355   0.533  11.972
 2500SOL    HW237995   5.475   0.566  11.866
 2501SOL     OW37996   5.393   2.464  11.910
 2501SOL    HW137997   5.355   2.395  11.972
 2501SOL    HW237998   5.475   2.428  11.866
 2502SOL     OW37999   5.393   4.326  11.910
 2502SOL    HW138000   5.355   4.257  11.972
 2502SOL    HW238001   5.475   4.290  11.866
 2503SOL     OW38002   5.393   6.188  11.910
 2503SOL    HW138003   5.355   6.119  11.972
 2503SOL    HW238004   5.475   6.152  11.866
 2504SOL     OW38005   0.900   1.512  11.899
 2504SOL    HW138006   0.877   1.487  11.805
 2504SOL    HW238007   0.961   1.443  11.938
 2505SOL     OW38008   0.900   3.374  11.899
 2505SOL    HW138009   0.877   3.349  11.805
 2505SOL    HW238010   0.961   3.305  11.938
 2506SOL     OW38011   0.900   5.236  11.899
 2506SOL    HW138012   0.877   5.211  11.805
 2506SOL    HW238013   0.961   5.167  11.938
 2507SOL     OW38014   2.762   1.512  11.899
 2507SOL    HW138015   2.739   1.487  11.805
 2507SOL    HW238016   2.823   1.443  11.938
 2508SOL     OW38017   2.762   3.374  11.899
 2508SOL    HW138018   2.739   3.349  11.805
 2508SOL    HW238019   2.823   3.305  11.938
 2509SOL     OW38020   2.762   5.236  11.899
 2509SOL    HW138021   2.739   5.211  11.805
 2509SOL    HW238022   2.823   5.167  11.938
 2510SOL     OW38023   4.624   1.512  11.899
 2510SOL    HW138024   4.601   1.487  11.805
 2510SOL    HW238025   4.685   1.443  11.938
 2511SOL     OW38026   4.624   3.374  11.899
 2511SOL    HW138027   4.601   3.349  11.805
 2511SOL    HW238028   4.685   3.305  11.938
 2512SOL     OW38029   4.624   5.236  11.899
 2512SOL    HW138030   4.601   5.211  11.805
 2512SOL    HW238031   4.685   5.167  11.938
 2513SOL     OW38032   0.842   1.271   0.954
 2513SOL    HW138033   0.837   1.304   1.049
 2513SOL    HW238034   0.756   1.290   0.908
 2514SOL     OW38035   0.842   3.133   0.954
 2514SOL    HW138036   0.837   3.166   1.049
 2514SOL    HW238037   0.756   3.152   0.908
 2515SOL     OW38038   0.842   4.995   0.954
 2515SOL    HW138039   0.837   5.028   1.049
 2515SOL    HW238040   0.756   5.014   0.908
 2516SOL     OW38041   2.704   1.271   0.954
 2516SOL    HW138042   2.699   1.304   1.049
 2516SOL    HW238043   2.618   1.290   0.908
 2517SOL     OW38044   2.704   3.133   0.954
 2517SOL    HW138045   2.699   3.166   1.049
 2517SOL    HW238046   2.618   3.152   0.908
 2518SOL     OW38047   2.704   4.995   0.954
 2518SOL    HW138048   2.699   5.028   1.049
 2518SOL    HW238049   2.618   5.014   0.908
 2519SOL     OW38050   4.566   1.271   0.954
 2519SOL    HW138051   4.561   1.304   1.049
 2519SOL    HW238052   4.480   1.290   0.908
 2520SOL     OW38053   4.566   3.133   0.954
 2520SOL    HW138054   4.561   3.166   1.049
 2520SOL    HW238055   4.480   3.152   0.908
 2521SOL     OW38056   4.566   4.995   0.954
 2521SOL    HW138057   4.561   5.028   1.049
 2521SOL    HW238058   4.480   5.014   0.908
 2522SOL     OW38059   1.305   1.226   0.955
 2522SOL    HW138060   1.342   1.153   0.897
 2522SOL    HW238061   1.357   1.231   1.040
 2523SOL     OW38062   1.305   3.088   0.955
 2523SOL    HW138063   1.342   3.015   0.897
 2523SOL    HW238064   1.357   3.093   1.040
 2524SOL     OW38065   1.305   4.950   0.955
 2524SOL    HW138066   1.342   4.877   0.897
 2524SOL    HW238067   1.357   4.955   1.040
 2525SOL     OW38068   3.167   1.226   0.955
 2525SOL    HW138069   3.204   1.153   0.897
 2525SOL    HW238070   3.219   1.231   1.040
 2526SOL     OW38071   3.167   3.088   0.955
 2526SOL    HW138072   3.204   3.015   0.897
 2526SOL    HW238073   3.219   3.093   1.040
 2527SOL     OW38074   3.167   4.950   0.955
 2527SOL    HW138075   3.204   4.877   0.897
 2527SOL    HW238076   3.219   4.955   1.040
 2528SOL     OW38077   5.029   1.226   0.955
 2528SOL    HW138078   5.066   1.153   0.897
 2528SOL    HW238079   5.081   1.231   1.040
 2529SOL     OW38080   5.029   3.088   0.955
 2529SOL    HW138081   5.066   3.015   0.897
 2529SOL    HW238082   5.081   3.093   1.040
 2530SOL     OW38083   5.029   4.950   0.955
 2530SOL    HW138084   5.066   4.877   0.897
 2530SOL    HW238085   5.081   4.955   1.040
 2531SOL     OW38086   0.625   0.840   0.963
 2531SOL    HW138087   0.681   0.921   0.946
 2531SOL    HW238088   0.684   0.760   0.966
 2532SOL     OW38089   0.625   2.702   0.963
 2532SOL    HW138090   0.681   2.783   0.946
 2532SOL    HW238091   0.684   2.622   0.966
 2533SOL     OW38092   0.625   4.564   0.963
 2533SOL    HW138093   0.681   4.645   0.946
 2533SOL    HW238094   0.684   4.484   0.966
 2534SOL     OW38095   0.625   6.426   0.963
 2534SOL    HW138096   0.681   0.057   0.946
 2534SOL    HW238097   0.684   6.346   0.966
 2535SOL     OW38098   2.487   0.840   0.963
 2535SOL    HW138099   2.543   0.921   0.946
 2535SOL    HW238100   2.546   0.760   0.966
 2536SOL     OW38101   2.487   2.702   0.963
 2536SOL    HW138102   2.543   2.783   0.946
 2536SOL    HW238103   2.546   2.622   0.966
 2537SOL     OW38104   2.487   4.564   0.963
 2537SOL    HW138105   2.543   4.645   0.946
 2537SOL    HW238106   2.546   4.484   0.966
 2538SOL     OW38107   2.487   6.426   0.963
 2538SOL    HW138108   2.543   0.057   0.946
 2538SOL    HW238109   2.546   6.346   0.966
 2539SOL     OW38110   4.349   0.840   0.963
 2539SOL    HW138111   4.405   0.921   0.946
 2539SOL    HW238112   4.408   0.760   0.966
 2540SOL     OW38113   4.349   2.702   0.963
 2540SOL    HW138114   4.405   2.783   0.946
 2540SOL    HW238115   4.408   2.622   0.966
 2541SOL     OW38116   4.349   4.564   0.963
 2541SOL    HW138117   4.405   4.645   0.946
 2541SOL    HW238118   4.408   4.484   0.966
 2542SOL     OW38119   4.349   6.426   0.963
 2542SOL    HW138120   4.405   0.057   0.946
 2542SOL    HW238121   4.408   6.346   0.966
 2543SOL     OW38122   6.211   0.840   0.963
 2543SOL    HW138123   6.267   0.921   0.946
 2543SOL    HW238124   6.270   0.760   0.966
 2544SOL     OW38125   6.211   2.702   0.963
 2544SOL    HW138126   6.267   2.783   0.946
 2544SOL    HW238127   6.270   2.622   0.966
 2545SOL     OW38128   6.211   4.564   0.963
 2545SOL    HW138129   6.267   4.645   0.946
 2545SOL    HW238130   6.270   4.484   0.966
 2546SOL     OW38131   6.211   6.426   0.963
 2546SOL    HW138132   6.267   0.057   0.946
 2546SOL    HW238133   6.270   6.346   0.966
 2547SOL     OW38134   1.363   0.588   0.965
 2547SOL    HW138135   1.391   0.545   1.050
 2547SOL    HW238136   1.388   0.684   0.966
 2548SOL     OW38137   1.363   2.450   0.965
 2548SOL    HW138138   1.391   2.407   1.050
 2548SOL    HW238139   1.388   2.546   0.966
 2549SOL     OW38140   1.363   4.312   0.965
 2549SOL    HW138141   1.391   4.269   1.050
 2549SOL    HW238142   1.388   4.408   0.966
 2550SOL     OW38143   1.363   6.174   0.965
 2550SOL    HW138144   1.391   6.131   1.050
 2550SOL    HW238145   1.388   6.270   0.966
 2551SOL     OW38146   3.225   0.588   0.965
 2551SOL    HW138147   3.253   0.545   1.050
 2551SOL    HW238148   3.250   0.684   0.966
 2552SOL     OW38149   3.225   2.450   0.965
 2552SOL    HW138150   3.253   2.407   1.050
 2552SOL    HW238151   3.250   2.546   0.966
 2553SOL     OW38152   3.225   4.312   0.965
 2553SOL    HW138153   3.253   4.269   1.050
 2553SOL    HW238154   3.250   4.408   0.966
 2554SOL     OW38155   3.225   6.174   0.965
 2554SOL    HW138156   3.253   6.131   1.050
 2554SOL    HW238157   3.250   6.270   0.966
 2555SOL     OW38158   5.087   0.588   0.965
 2555SOL    HW138159   5.115   0.545   1.050
 2555SOL    HW238160   5.112   0.684   0.966
 2556SOL     OW38161   5.087   2.450   0.965
 2556SOL    HW138162   5.115   2.407   1.050
 2556SOL    HW238163   5.112   2.546   0.966
 2557SOL     OW38164   5.087   4.312   0.965
 2557SOL    HW138165   5.115   4.269   1.050
 2557SOL    HW238166   5.112   4.408   0.966
 2558SOL     OW38167   5.087   6.174   0.965
 2558SOL    HW138168   5.115   6.131   1.050
 2558SOL    HW238169   5.112   6.270   0.966
 2559SOL     OW38170   0.632   1.784   0.971
 2559SOL    HW138171   0.540   1.767   1.006
 2559SOL    HW238172   0.660   1.876   0.997
 2560SOL     OW38173   0.632   3.646   0.971
 2560SOL    HW138174   0.540   3.629   1.006
 2560SOL    HW238175   0.660   3.738   0.997
 2561SOL     OW38176   0.632   5.508   0.971
 2561SOL    HW138177   0.540   5.491   1.006
 2561SOL    HW238178   0.660   5.600   0.997
 2562SOL     OW38179   2.494   1.784   0.971
 2562SOL    HW138180   2.402   1.767   1.006
 2562SOL    HW238181   2.522   1.876   0.997
 2563SOL     OW38182   2.494   3.646   0.971
 2563SOL    HW138183   2.402   3.629   1.006
 2563SOL    HW238184   2.522   3.738   0.997
 2564SOL     OW38185   2.494   5.508   0.971
 2564SOL    HW138186   2.402   5.491   1.006
 2564SOL    HW238187   2.522   5.600   0.997
 2565SOL     OW38188   4.356   1.784   0.971
 2565SOL    HW138189   4.264   1.767   1.006
 2565SOL    HW238190   4.384   1.876   0.997
 2566SOL     OW38191   4.356   3.646   0.971
 2566SOL    HW138192   4.264   3.629   1.006
 2566SOL    HW238193   4.384   3.738   0.997
 2567SOL     OW38194   4.356   5.508   0.971
 2567SOL    HW138195   4.264   5.491   1.006
 2567SOL    HW238196   4.384   5.600   0.997
 2568SOL     OW38197   6.218   1.784   0.971
 2568SOL    HW138198   6.126   1.767   1.006
 2568SOL    HW238199   6.246   1.876   0.997
 2569SOL     OW38200   6.218   3.646   0.971
 2569SOL    HW138201   6.126   3.629   1.006
 2569SOL    HW238202   6.246   3.738   0.997
 2570SOL     OW38203   6.218   5.508   0.971
 2570SOL    HW138204   6.126   5.491   1.006
 2570SOL    HW238205   6.246   5.600   0.997
 2571SOL     OW38206   0.581   1.273  11.869
 2571SOL    HW138207   0.488   1.266  11.832
 2571SOL    HW238208   0.592   1.362  11.913
 2572SOL     OW38209   0.581   3.135  11.869
 2572SOL    HW138210   0.488   3.128  11.832
 2572SOL    HW238211   0.592   3.224  11.913
 2573SOL     OW38212   0.581   4.997  11.869
 2573SOL    HW138213   0.488   4.990  11.832
 2573SOL    HW238214   0.592   5.086  11.913
 2574SOL     OW38215   2.443   1.273  11.869
 2574SOL    HW138216   2.350   1.266  11.832
 2574SOL    HW238217   2.454   1.362  11.913
 2575SOL     OW38218   2.443   3.135  11.869
 2575SOL    HW138219   2.350   3.128  11.832
 2575SOL    HW238220   2.454   3.224  11.913
 2576SOL     OW38221   2.443   4.997  11.869
 2576SOL    HW138222   2.350   4.990  11.832
 2576SOL    HW238223   2.454   5.086  11.913
 2577SOL     OW38224   4.305   1.273  11.869
 2577SOL    HW138225   4.212   1.266  11.832
 2577SOL    HW238226   4.316   1.362  11.913
 2578SOL     OW38227   4.305   3.135  11.869
 2578SOL    HW138228   4.212   3.128  11.832
 2578SOL    HW238229   4.316   3.224  11.913
 2579SOL     OW38230   4.305   4.997  11.869
 2579SOL    HW138231   4.212   4.990  11.832
 2579SOL    HW238232   4.316   5.086  11.913
 2580SOL     OW38233   6.167   1.273  11.869
 2580SOL    HW138234   6.074   1.266  11.832
 2580SOL    HW238235   6.178   1.362  11.913
 2581SOL     OW38236   6.167   3.135  11.869
 2581SOL    HW138237   6.074   3.128  11.832
 2581SOL    HW238238   6.178   3.224  11.913
 2582SOL     OW38239   6.167   4.997  11.869
 2582SOL    HW138240   6.074   4.990  11.832
 2582SOL    HW238241   6.178   5.086  11.913
 2583SOL     OW38242   1.771   1.745  11.858
 2583SOL    HW138243   1.832   1.775  11.785
 2583SOL    HW238244   1.733   1.656  11.836
 2584SOL     OW38245   1.013   0.032  11.858
 2584SOL    HW138246   0.950   6.410  11.827
 2584SOL    HW238247   1.106   6.446  11.858
 2585SOL     OW38248   1.771   3.607  11.858
 2585SOL    HW138249   1.832   3.637  11.785
 2585SOL    HW238250   1.733   3.518  11.836
 2586SOL     OW38251   1.013   1.894  11.858
 2586SOL    HW138252   0.950   1.822  11.827
 2586SOL    HW238253   1.106   1.858  11.858
 2587SOL     OW38254   1.771   5.469  11.858
 2587SOL    HW138255   1.832   5.499  11.785
 2587SOL    HW238256   1.733   5.380  11.836
 2588SOL     OW38257   1.013   3.756  11.858
 2588SOL    HW138258   0.950   3.684  11.827
 2588SOL    HW238259   1.106   3.720  11.858
 2589SOL     OW38260   1.013   5.618  11.858
 2589SOL    HW138261   0.950   5.546  11.827
 2589SOL    HW238262   1.106   5.582  11.858
 2590SOL     OW38263   3.633   1.745  11.858
 2590SOL    HW138264   3.694   1.775  11.785
 2590SOL    HW238265   3.595   1.656  11.836
 2591SOL     OW38266   2.875   0.032  11.858
 2591SOL    HW138267   2.812   6.410  11.827
 2591SOL    HW238268   2.968   6.446  11.858
 2592SOL     OW38269   3.633   3.607  11.858
 2592SOL    HW138270   3.694   3.637  11.785
 2592SOL    HW238271   3.595   3.518  11.836
 2593SOL     OW38272   2.875   1.894  11.858
 2593SOL    HW138273   2.812   1.822  11.827
 2593SOL    HW238274   2.968   1.858  11.858
 2594SOL     OW38275   3.633   5.469  11.858
 2594SOL    HW138276   3.694   5.499  11.785
 2594SOL    HW238277   3.595   5.380  11.836
 2595SOL     OW38278   2.875   3.756  11.858
 2595SOL    HW138279   2.812   3.684  11.827
 2595SOL    HW238280   2.968   3.720  11.858
 2596SOL     OW38281   2.875   5.618  11.858
 2596SOL    HW138282   2.812   5.546  11.827
 2596SOL    HW238283   2.968   5.582  11.858
 2597SOL     OW38284   5.495   1.745  11.858
 2597SOL    HW138285   5.556   1.775  11.785
 2597SOL    HW238286   5.457   1.656  11.836
 2598SOL     OW38287   4.737   0.032  11.858
 2598SOL    HW138288   4.674   6.410  11.827
 2598SOL    HW238289   4.830   6.446  11.858
 2599SOL     OW38290   5.495   3.607  11.858
 2599SOL    HW138291   5.556   3.637  11.785
 2599SOL    HW238292   5.457   3.518  11.836
 2600SOL     OW38293   4.737   1.894  11.858
 2600SOL    HW138294   4.674   1.822  11.827
 2600SOL    HW238295   4.830   1.858  11.858
 2601SOL     OW38296   5.495   5.469  11.858
 2601SOL    HW138297   5.556   5.499  11.785
 2601SOL    HW238298   5.457   5.380  11.836
 2602SOL     OW38299   4.737   3.756  11.858
 2602SOL    HW138300   4.674   3.684  11.827
 2602SOL    HW238301   4.830   3.720  11.858
 2603SOL     OW38302   4.737   5.618  11.858
 2603SOL    HW138303   4.674   5.546  11.827
 2603SOL    HW238304   4.830   5.582  11.858
 2604SOL     OW38305   0.149   0.032  11.858
 2604SOL    HW138306   0.086   6.410  11.827
 2604SOL    HW238307   0.242   6.446  11.858
 2605SOL     OW38308   0.573   0.220  11.851
 2605SOL    HW138309   0.611   0.136  11.888
 2605SOL    HW238310   0.485   0.239  11.895
 2606SOL     OW38311   0.573   2.082  11.851
 2606SOL    HW138312   0.611   1.998  11.888
 2606SOL    HW238313   0.485   2.101  11.895
 2607SOL     OW38314   0.573   3.944  11.851
 2607SOL    HW138315   0.611   3.860  11.888
 2607SOL    HW238316   0.485   3.963  11.895
 2608SOL     OW38317   0.573   5.806  11.851
 2608SOL    HW138318   0.611   5.722  11.888
 2608SOL    HW238319   0.485   5.825  11.895
 2609SOL     OW38320   2.435   0.220  11.851
 2609SOL    HW138321   2.473   0.136  11.888
 2609SOL    HW238322   2.347   0.239  11.895
 2610SOL     OW38323   2.435   2.082  11.851
 2610SOL    HW138324   2.473   1.998  11.888
 2610SOL    HW238325   2.347   2.101  11.895
 2611SOL     OW38326   2.435   3.944  11.851
 2611SOL    HW138327   2.473   3.860  11.888
 2611SOL    HW238328   2.347   3.963  11.895
 2612SOL     OW38329   2.435   5.806  11.851
 2612SOL    HW138330   2.473   5.722  11.888
 2612SOL    HW238331   2.347   5.825  11.895
 2613SOL     OW38332   4.297   0.220  11.851
 2613SOL    HW138333   4.335   0.136  11.888
 2613SOL    HW238334   4.209   0.239  11.895
 2614SOL     OW38335   4.297   2.082  11.851
 2614SOL    HW138336   4.335   1.998  11.888
 2614SOL    HW238337   4.209   2.101  11.895
 2615SOL     OW38338   4.297   3.944  11.851
 2615SOL    HW138339   4.335   3.860  11.888
 2615SOL    HW238340   4.209   3.963  11.895
 2616SOL     OW38341   4.297   5.806  11.851
 2616SOL    HW138342   4.335   5.722  11.888
 2616SOL    HW238343   4.209   5.825  11.895
 2617SOL     OW38344   6.159   0.220  11.851
 2617SOL    HW138345   6.197   0.136  11.888
 2617SOL    HW238346   6.071   0.239  11.895
 2618SOL     OW38347   6.159   2.082  11.851
 2618SOL    HW138348   6.197   1.998  11.888
 2618SOL    HW238349   6.071   2.101  11.895
 2619SOL     OW38350   6.159   3.944  11.851
 2619SOL    HW138351   6.197   3.860  11.888
 2619SOL    HW238352   6.071   3.963  11.895
 2620SOL     OW38353   6.159   5.806  11.851
 2620SOL    HW138354   6.197   5.722  11.888
 2620SOL    HW238355   6.071   5.825  11.895
 2621SOL     OW38356   1.088   0.681   0.996
 2621SOL    HW138357   1.008   0.620   0.999
 2621SOL    HW238358   1.169   0.628   0.972
 2622SOL     OW38359   1.088   2.543   0.996
 2622SOL    HW138360   1.008   2.482   0.999
 2622SOL    HW238361   1.169   2.490   0.972
 2623SOL     OW38362   1.088   4.405   0.996
 2623SOL    HW138363   1.008   4.344   0.999
 2623SOL    HW238364   1.169   4.352   0.972
 2624SOL     OW38365   1.088   6.267   0.996
 2624SOL    HW138366   1.008   6.206   0.999
 2624SOL    HW238367   1.169   6.214   0.972
 2625SOL     OW38368   2.950   0.681   0.996
 2625SOL    HW138369   2.870   0.620   0.999
 2625SOL    HW238370   3.031   0.628   0.972
 2626SOL     OW38371   2.950   2.543   0.996
 2626SOL    HW138372   2.870   2.482   0.999
 2626SOL    HW238373   3.031   2.490   0.972
 2627SOL     OW38374   2.950   4.405   0.996
 2627SOL    HW138375   2.870   4.344   0.999
 2627SOL    HW238376   3.031   4.352   0.972
 2628SOL     OW38377   2.950   6.267   0.996
 2628SOL    HW138378   2.870   6.206   0.999
 2628SOL    HW238379   3.031   6.214   0.972
 2629SOL     OW38380   4.812   0.681   0.996
 2629SOL    HW138381   4.732   0.620   0.999
 2629SOL    HW238382   4.893   0.628   0.972
 2630SOL     OW38383   4.812   2.543   0.996
 2630SOL    HW138384   4.732   2.482   0.999
 2630SOL    HW238385   4.893   2.490   0.972
 2631SOL     OW38386   4.812   4.405   0.996
 2631SOL    HW138387   4.732   4.344   0.999
 2631SOL    HW238388   4.893   4.352   0.972
 2632SOL     OW38389   4.812   6.267   0.996
 2632SOL    HW138390   4.732   6.206   0.999
 2632SOL    HW238391   4.893   6.214   0.972
 2633SOL     OW38392   0.819   0.603   0.997
 2633SOL    HW138393   0.772   0.600   1.086
 2633SOL    HW238394   0.768   0.548   0.931
 2634SOL     OW38395   0.942   1.676   0.997
 2634SOL    HW138396   0.918   1.658   0.902
 2634SOL    HW238397   0.972   1.770   1.007
 2635SOL     OW38398   0.819   2.465   0.997
 2635SOL    HW138399   0.772   2.462   1.086
 2635SOL    HW238400   0.768   2.410   0.931
 2636SOL     OW38401   0.942   3.538   0.997
 2636SOL    HW138402   0.918   3.520   0.902
 2636SOL    HW238403   0.972   3.632   1.007
 2637SOL     OW38404   0.819   4.327   0.997
 2637SOL    HW138405   0.772   4.324   1.086
 2637SOL    HW238406   0.768   4.272   0.931
 2638SOL     OW38407   0.942   5.400   0.997
 2638SOL    HW138408   0.918   5.382   0.902
 2638SOL    HW238409   0.972   5.494   1.007
 2639SOL     OW38410   0.819   6.189   0.997
 2639SOL    HW138411   0.772   6.186   1.086
 2639SOL    HW238412   0.768   6.134   0.931
 2640SOL     OW38413   2.681   0.603   0.997
 2640SOL    HW138414   2.634   0.600   1.086
 2640SOL    HW238415   2.630   0.548   0.931
 2641SOL     OW38416   2.804   1.676   0.997
 2641SOL    HW138417   2.780   1.658   0.902
 2641SOL    HW238418   2.834   1.770   1.007
 2642SOL     OW38419   2.681   2.465   0.997
 2642SOL    HW138420   2.634   2.462   1.086
 2642SOL    HW238421   2.630   2.410   0.931
 2643SOL     OW38422   2.804   3.538   0.997
 2643SOL    HW138423   2.780   3.520   0.902
 2643SOL    HW238424   2.834   3.632   1.007
 2644SOL     OW38425   2.681   4.327   0.997
 2644SOL    HW138426   2.634   4.324   1.086
 2644SOL    HW238427   2.630   4.272   0.931
 2645SOL     OW38428   2.804   5.400   0.997
 2645SOL    HW138429   2.780   5.382   0.902
 2645SOL    HW238430   2.834   5.494   1.007
 2646SOL     OW38431   2.681   6.189   0.997
 2646SOL    HW138432   2.634   6.186   1.086
 2646SOL    HW238433   2.630   6.134   0.931
 2647SOL     OW38434   4.543   0.603   0.997
 2647SOL    HW138435   4.496   0.600   1.086
 2647SOL    HW238436   4.492   0.548   0.931
 2648SOL     OW38437   4.666   1.676   0.997
 2648SOL    HW138438   4.642   1.658   0.902
 2648SOL    HW238439   4.696   1.770   1.007
 2649SOL     OW38440   4.543   2.465   0.997
 2649SOL    HW138441   4.496   2.462   1.086
 2649SOL    HW238442   4.492   2.410   0.931
 2650SOL     OW38443   4.666   3.538   0.997
 2650SOL    HW138444   4.642   3.520   0.902
 2650SOL    HW238445   4.696   3.632   1.007
 2651SOL     OW38446   4.543   4.327   0.997
 2651SOL    HW138447   4.496   4.324   1.086
 2651SOL    HW238448   4.492   4.272   0.931
 2652SOL     OW38449   4.666   5.400   0.997
 2652SOL    HW138450   4.642   5.382   0.902
 2652SOL    HW238451   4.696   5.494   1.007
 2653SOL     OW38452   4.543   6.189   0.997
 2653SOL    HW138453   4.496   6.186   1.086
 2653SOL    HW238454   4.492   6.134   0.931
 2654SOL     OW38455   0.171   1.135   0.998
 2654SOL    HW138456   0.193   1.074   1.074
 2654SOL    HW238457   0.181   1.086   0.912
 2655SOL     OW38458   0.171   2.997   0.998
 2655SOL    HW138459   0.193   2.936   1.074
 2655SOL    HW238460   0.181   2.948   0.912
 2656SOL     OW38461   0.171   4.859   0.998
 2656SOL    HW138462   0.193   4.798   1.074
 2656SOL    HW238463   0.181   4.810   0.912
 2657SOL     OW38464   2.033   1.135   0.998
 2657SOL    HW138465   2.055   1.074   1.074
 2657SOL    HW238466   2.043   1.086   0.912
 2658SOL     OW38467   2.033   2.997   0.998
 2658SOL    HW138468   2.055   2.936   1.074
 2658SOL    HW238469   2.043   2.948   0.912
 2659SOL     OW38470   2.033   4.859   0.998
 2659SOL    HW138471   2.055   4.798   1.074
 2659SOL    HW238472   2.043   4.810   0.912
 2660SOL     OW38473   3.895   1.135   0.998
 2660SOL    HW138474   3.917   1.074   1.074
 2660SOL    HW238475   3.905   1.086   0.912
 2661SOL     OW38476   3.895   2.997   0.998
 2661SOL    HW138477   3.917   2.936   1.074
 2661SOL    HW238478   3.905   2.948   0.912
 2662SOL     OW38479   3.895   4.859   0.998
 2662SOL    HW138480   3.917   4.798   1.074
 2662SOL    HW238481   3.905   4.810   0.912
 2663SOL     OW38482   5.757   1.135   0.998
 2663SOL    HW138483   5.779   1.074   1.074
 2663SOL    HW238484   5.767   1.086   0.912
 2664SOL     OW38485   5.757   2.997   0.998
 2664SOL    HW138486   5.779   2.936   1.074
 2664SOL    HW238487   5.767   2.948   0.912
 2665SOL     OW38488   5.757   4.859   0.998
 2665SOL    HW138489   5.779   4.798   1.074
 2665SOL    HW238490   5.767   4.810   0.912
 2666SOL     OW38491   1.284   1.443  11.846
 2666SOL    HW138492   1.331   1.456  11.933
 2666SOL    HW238493   1.218   1.369  11.855
 2667SOL     OW38494   1.284   3.305  11.846
 2667SOL    HW138495   1.331   3.318  11.933
 2667SOL    HW238496   1.218   3.231  11.855
 2668SOL     OW38497   1.284   5.167  11.846
 2668SOL    HW138498   1.331   5.180  11.933
 2668SOL    HW238499   1.218   5.093  11.855
 2669SOL     OW38500   3.146   1.443  11.846
 2669SOL    HW138501   3.193   1.456  11.933
 2669SOL    HW238502   3.080   1.369  11.855
 2670SOL     OW38503   3.146   3.305  11.846
 2670SOL    HW138504   3.193   3.318  11.933
 2670SOL    HW238505   3.080   3.231  11.855
 2671SOL     OW38506   3.146   5.167  11.846
 2671SOL    HW138507   3.193   5.180  11.933
 2671SOL    HW238508   3.080   5.093  11.855
 2672SOL     OW38509   5.008   1.443  11.846
 2672SOL    HW138510   5.055   1.456  11.933
 2672SOL    HW238511   4.942   1.369  11.855
 2673SOL     OW38512   5.008   3.305  11.846
 2673SOL    HW138513   5.055   3.318  11.933
 2673SOL    HW238514   4.942   3.231  11.855
 2674SOL     OW38515   5.008   5.167  11.846
 2674SOL    HW138516   5.055   5.180  11.933
 2674SOL    HW238517   4.942   5.093  11.855
 2675SOL     OW38518   1.172   0.205   1.009
 2675SOL    HW138519   1.172   0.269   1.086
 2675SOL    HW238520   1.200   0.253   0.926
 2676SOL     OW38521   1.172   2.067   1.009
 2676SOL    HW138522   1.172   2.131   1.086
 2676SOL    HW238523   1.200   2.115   0.926
 2677SOL     OW38524   1.172   3.929   1.009
 2677SOL    HW138525   1.172   3.993   1.086
 2677SOL    HW238526   1.200   3.977   0.926
 2678SOL     OW38527   1.172   5.791   1.009
 2678SOL    HW138528   1.172   5.855   1.086
 2678SOL    HW238529   1.200   5.839   0.926
 2679SOL     OW38530   3.034   0.205   1.009
 2679SOL    HW138531   3.034   0.269   1.086
 2679SOL    HW238532   3.062   0.253   0.926
 2680SOL     OW38533   3.034   2.067   1.009
 2680SOL    HW138534   3.034   2.131   1.086
 2680SOL    HW238535   3.062   2.115   0.926
 2681SOL     OW38536   3.034   3.929   1.009
 2681SOL    HW138537   3.034   3.993   1.086
 2681SOL    HW238538   3.062   3.977   0.926
 2682SOL     OW38539   3.034   5.791   1.009
 2682SOL    HW138540   3.034   5.855   1.086
 2682SOL    HW238541   3.062   5.839   0.926
 2683SOL     OW38542   4.896   0.205   1.009
 2683SOL    HW138543   4.896   0.269   1.086
 2683SOL    HW238544   4.924   0.253   0.926
 2684SOL     OW38545   4.896   2.067   1.009
 2684SOL    HW138546   4.896   2.131   1.086
 2684SOL    HW238547   4.924   2.115   0.926
 2685SOL     OW38548   4.896   3.929   1.009
 2685SOL    HW138549   4.896   3.993   1.086
 2685SOL    HW238550   4.924   3.977   0.926
 2686SOL     OW38551   4.896   5.791   1.009
 2686SOL    HW138552   4.896   5.855   1.086
 2686SOL    HW238553   4.924   5.839   0.926
 2687SOL     OW38554   1.606   0.112   1.012
 2687SOL    HW138555   1.588   0.179   0.940
 2687SOL    HW238556   1.603   0.158   1.101
 2688SOL     OW38557   1.606   1.974   1.012
 2688SOL    HW138558   1.588   2.041   0.940
 2688SOL    HW238559   1.603   2.020   1.101
 2689SOL     OW38560   1.606   3.836   1.012
 2689SOL    HW138561   1.588   3.903   0.940
 2689SOL    HW238562   1.603   3.882   1.101
 2690SOL     OW38563   1.606   5.698   1.012
 2690SOL    HW138564   1.588   5.765   0.940
 2690SOL    HW238565   1.603   5.744   1.101
 2691SOL     OW38566   3.468   0.112   1.012
 2691SOL    HW138567   3.450   0.179   0.940
 2691SOL    HW238568   3.465   0.158   1.101
 2692SOL     OW38569   3.468   1.974   1.012
 2692SOL    HW138570   3.450   2.041   0.940
 2692SOL    HW238571   3.465   2.020   1.101
 2693SOL     OW38572   3.468   3.836   1.012
 2693SOL    HW138573   3.450   3.903   0.940
 2693SOL    HW238574   3.465   3.882   1.101
 2694SOL     OW38575   3.468   5.698   1.012
 2694SOL    HW138576   3.450   5.765   0.940
 2694SOL    HW238577   3.465   5.744   1.101
 2695SOL     OW38578   5.330   0.112   1.012
 2695SOL    HW138579   5.312   0.179   0.940
 2695SOL    HW238580   5.327   0.158   1.101
 2696SOL     OW38581   5.330   1.974   1.012
 2696SOL    HW138582   5.312   2.041   0.940
 2696SOL    HW238583   5.327   2.020   1.101
 2697SOL     OW38584   5.330   3.836   1.012
 2697SOL    HW138585   5.312   3.903   0.940
 2697SOL    HW238586   5.327   3.882   1.101
 2698SOL     OW38587   5.330   5.698   1.012
 2698SOL    HW138588   5.312   5.765   0.940
 2698SOL    HW238589   5.327   5.744   1.101
 2699SOL     OW38590   1.264   1.729  11.832
 2699SOL    HW138591   1.348   1.734  11.778
 2699SOL    HW238592   1.241   1.633  11.850
 2700SOL     OW38593   1.264   3.591  11.832
 2700SOL    HW138594   1.348   3.596  11.778
 2700SOL    HW238595   1.241   3.495  11.850
 2701SOL     OW38596   1.264   5.453  11.832
 2701SOL    HW138597   1.348   5.458  11.778
 2701SOL    HW238598   1.241   5.357  11.850
 2702SOL     OW38599   3.126   1.729  11.832
 2702SOL    HW138600   3.210   1.734  11.778
 2702SOL    HW238601   3.103   1.633  11.850
 2703SOL     OW38602   3.126   3.591  11.832
 2703SOL    HW138603   3.210   3.596  11.778
 2703SOL    HW238604   3.103   3.495  11.850
 2704SOL     OW38605   3.126   5.453  11.832
 2704SOL    HW138606   3.210   5.458  11.778
 2704SOL    HW238607   3.103   5.357  11.850
 2705SOL     OW38608   4.988   1.729  11.832
 2705SOL    HW138609   5.072   1.734  11.778
 2705SOL    HW238610   4.965   1.633  11.850
 2706SOL     OW38611   4.988   3.591  11.832
 2706SOL    HW138612   5.072   3.596  11.778
 2706SOL    HW238613   4.965   3.495  11.850
 2707SOL     OW38614   4.988   5.453  11.832
 2707SOL    HW138615   5.072   5.458  11.778
 2707SOL    HW238616   4.965   5.357  11.850
 2708SOL     OW38617   0.684   0.201   1.021
 2708SOL    HW138618   0.774   0.185   0.981
 2708SOL    HW238619   0.692   0.206   1.120
 2709SOL     OW38620   0.684   2.063   1.021
 2709SOL    HW138621   0.774   2.047   0.981
 2709SOL    HW238622   0.692   2.068   1.120
 2710SOL     OW38623   0.684   3.925   1.021
 2710SOL    HW138624   0.774   3.909   0.981
 2710SOL    HW238625   0.692   3.930   1.120
 2711SOL     OW38626   0.684   5.787   1.021
 2711SOL    HW138627   0.774   5.771   0.981
 2711SOL    HW238628   0.692   5.792   1.120
 2712SOL     OW38629   2.546   0.201   1.021
 2712SOL    HW138630   2.636   0.185   0.981
 2712SOL    HW238631   2.554   0.206   1.120
 2713SOL     OW38632   2.546   2.063   1.021
 2713SOL    HW138633   2.636   2.047   0.981
 2713SOL    HW238634   2.554   2.068   1.120
 2714SOL     OW38635   2.546   3.925   1.021
 2714SOL    HW138636   2.636   3.909   0.981
 2714SOL    HW238637   2.554   3.930   1.120
 2715SOL     OW38638   2.546   5.787   1.021
 2715SOL    HW138639   2.636   5.771   0.981
 2715SOL    HW238640   2.554   5.792   1.120
 2716SOL     OW38641   4.408   0.201   1.021
 2716SOL    HW138642   4.498   0.185   0.981
 2716SOL    HW238643   4.416   0.206   1.120
 2717SOL     OW38644   4.408   2.063   1.021
 2717SOL    HW138645   4.498   2.047   0.981
 2717SOL    HW238646   4.416   2.068   1.120
 2718SOL     OW38647   4.408   3.925   1.021
 2718SOL    HW138648   4.498   3.909   0.981
 2718SOL    HW238649   4.416   3.930   1.120
 2719SOL     OW38650   4.408   5.787   1.021
 2719SOL    HW138651   4.498   5.771   0.981
 2719SOL    HW238652   4.416   5.792   1.120
 2720SOL     OW38653   6.270   0.201   1.021
 2720SOL    HW138654   6.360   0.185   0.981
 2720SOL    HW238655   6.278   0.206   1.120
 2721SOL     OW38656   6.270   2.063   1.021
 2721SOL    HW138657   6.360   2.047   0.981
 2721SOL    HW238658   6.278   2.068   1.120
 2722SOL     OW38659   6.270   3.925   1.021
 2722SOL    HW138660   6.360   3.909   0.981
 2722SOL    HW238661   6.278   3.930   1.120
 2723SOL     OW38662   6.270   5.787   1.021
 2723SOL    HW138663   6.360   5.771   0.981
 2723SOL    HW238664   6.278   5.792   1.120
 2724SOL     OW38665   0.384   1.286   1.022
 2724SOL    HW138666   0.371   1.379   0.988
 2724SOL    HW238667   0.300   1.234   1.009
 2725SOL     OW38668   0.384   3.148   1.022
 2725SOL    HW138669   0.371   3.241   0.988
 2725SOL    HW238670   0.300   3.096   1.009
 2726SOL     OW38671   0.384   5.010   1.022
 2726SOL    HW138672   0.371   5.103   0.988
 2726SOL    HW238673   0.300   4.958   1.009
 2727SOL     OW38674   2.246   1.286   1.022
 2727SOL    HW138675   2.233   1.379   0.988
 2727SOL    HW238676   2.162   1.234   1.009
 2728SOL     OW38677   2.246   3.148   1.022
 2728SOL    HW138678   2.233   3.241   0.988
 2728SOL    HW238679   2.162   3.096   1.009
 2729SOL     OW38680   2.246   5.010   1.022
 2729SOL    HW138681   2.233   5.103   0.988
 2729SOL    HW238682   2.162   4.958   1.009
 2730SOL     OW38683   4.108   1.286   1.022
 2730SOL    HW138684   4.095   1.379   0.988
 2730SOL    HW238685   4.024   1.234   1.009
 2731SOL     OW38686   4.108   3.148   1.022
 2731SOL    HW138687   4.095   3.241   0.988
 2731SOL    HW238688   4.024   3.096   1.009
 2732SOL     OW38689   4.108   5.010   1.022
 2732SOL    HW138690   4.095   5.103   0.988
 2732SOL    HW238691   4.024   4.958   1.009
 2733SOL     OW38692   5.970   1.286   1.022
 2733SOL    HW138693   5.957   1.379   0.988
 2733SOL    HW238694   5.886   1.234   1.009
 2734SOL     OW38695   5.970   3.148   1.022
 2734SOL    HW138696   5.957   3.241   0.988
 2734SOL    HW238697   5.886   3.096   1.009
 2735SOL     OW38698   5.970   5.010   1.022
 2735SOL    HW138699   5.957   5.103   0.988
 2735SOL    HW238700   5.886   4.958   1.009
 2736SOL     OW38701   0.052   0.542  11.818
 2736SOL    HW138702   0.137   0.509  11.777
 2736SOL    HW238703   0.065   0.557  11.916
 2737SOL     OW38704   0.052   2.404  11.818
 2737SOL    HW138705   0.137   2.371  11.777
 2737SOL    HW238706   0.065   2.419  11.916
 2738SOL     OW38707   0.052   4.266  11.818
 2738SOL    HW138708   0.137   4.233  11.777
 2738SOL    HW238709   0.065   4.281  11.916
 2739SOL     OW38710   0.052   6.128  11.818
 2739SOL    HW138711   0.137   6.095  11.777
 2739SOL    HW238712   0.065   6.143  11.916
 2740SOL     OW38713   1.914   0.542  11.818
 2740SOL    HW138714   1.999   0.509  11.777
 2740SOL    HW238715   1.927   0.557  11.916
 2741SOL     OW38716   1.914   2.404  11.818
 2741SOL    HW138717   1.999   2.371  11.777
 2741SOL    HW238718   1.927   2.419  11.916
 2742SOL     OW38719   1.914   4.266  11.818
 2742SOL    HW138720   1.999   4.233  11.777
 2742SOL    HW238721   1.927   4.281  11.916
 2743SOL     OW38722   1.914   6.128  11.818
 2743SOL    HW138723   1.999   6.095  11.777
 2743SOL    HW238724   1.927   6.143  11.916
 2744SOL     OW38725   3.776   0.542  11.818
 2744SOL    HW138726   3.861   0.509  11.777
 2744SOL    HW238727   3.789   0.557  11.916
 2745SOL     OW38728   3.776   2.404  11.818
 2745SOL    HW138729   3.861   2.371  11.777
 2745SOL    HW238730   3.789   2.419  11.916
 2746SOL     OW38731   3.776   4.266  11.818
 2746SOL    HW138732   3.861   4.233  11.777
 2746SOL    HW238733   3.789   4.281  11.916
 2747SOL     OW38734   3.776   6.128  11.818
 2747SOL    HW138735   3.861   6.095  11.777
 2747SOL    HW238736   3.789   6.143  11.916
 2748SOL     OW38737   5.638   0.542  11.818
 2748SOL    HW138738   5.723   0.509  11.777
 2748SOL    HW238739   5.651   0.557  11.916
 2749SOL     OW38740   5.638   2.404  11.818
 2749SOL    HW138741   5.723   2.371  11.777
 2749SOL    HW238742   5.651   2.419  11.916
 2750SOL     OW38743   5.638   4.266  11.818
 2750SOL    HW138744   5.723   4.233  11.777
 2750SOL    HW238745   5.651   4.281  11.916
 2751SOL     OW38746   5.638   6.128  11.818
 2751SOL    HW138747   5.723   6.095  11.777
 2751SOL    HW238748   5.651   6.143  11.916
 2752SOL     OW38749   1.436   0.212  11.816
 2752SOL    HW138750   1.488   0.147  11.871
 2752SOL    HW238751   1.387   0.275  11.877
 2753SOL     OW38752   1.436   2.074  11.816
 2753SOL    HW138753   1.488   2.009  11.871
 2753SOL    HW238754   1.387   2.137  11.877
 2754SOL     OW38755   1.436   3.936  11.816
 2754SOL    HW138756   1.488   3.871  11.871
 2754SOL    HW238757   1.387   3.999  11.877
 2755SOL     OW38758   1.436   5.798  11.816
 2755SOL    HW138759   1.488   5.733  11.871
 2755SOL    HW238760   1.387   5.861  11.877
 2756SOL     OW38761   3.298   0.212  11.816
 2756SOL    HW138762   3.350   0.147  11.871
 2756SOL    HW238763   3.249   0.275  11.877
 2757SOL     OW38764   3.298   2.074  11.816
 2757SOL    HW138765   3.350   2.009  11.871
 2757SOL    HW238766   3.249   2.137  11.877
 2758SOL     OW38767   3.298   3.936  11.816
 2758SOL    HW138768   3.350   3.871  11.871
 2758SOL    HW238769   3.249   3.999  11.877
 2759SOL     OW38770   3.298   5.798  11.816
 2759SOL    HW138771   3.350   5.733  11.871
 2759SOL    HW238772   3.249   5.861  11.877
 2760SOL     OW38773   5.160   0.212  11.816
 2760SOL    HW138774   5.212   0.147  11.871
 2760SOL    HW238775   5.111   0.275  11.877
 2761SOL     OW38776   5.160   2.074  11.816
 2761SOL    HW138777   5.212   2.009  11.871
 2761SOL    HW238778   5.111   2.137  11.877
 2762SOL     OW38779   5.160   3.936  11.816
 2762SOL    HW138780   5.212   3.871  11.871
 2762SOL    HW238781   5.111   3.999  11.877
 2763SOL     OW38782   5.160   5.798  11.816
 2763SOL    HW138783   5.212   5.733  11.871
 2763SOL    HW238784   5.111   5.861  11.877
 2764SOL     OW38785   0.214   0.283   1.030
 2764SOL    HW138786   0.134   0.343   1.017
 2764SOL    HW238787   0.204   0.234   1.116
 2765SOL     OW38788   0.214   2.145   1.030
 2765SOL    HW138789   0.134   2.205   1.017
 2765SOL    HW238790   0.204   2.096   1.116
 2766SOL     OW38791   0.214   4.007   1.030
 2766SOL    HW138792   0.134   4.067   1.017
 2766SOL    HW238793   0.204   3.958   1.116
 2767SOL     OW38794   0.214   5.869   1.030
 2767SOL    HW138795   0.134   5.929   1.017
 2767SOL    HW238796   0.204   5.820   1.116
 2768SOL     OW38797   2.076   0.283   1.030
 2768SOL    HW138798   1.996   0.343   1.017
 2768SOL    HW238799   2.066   0.234   1.116
 2769SOL     OW38800   2.076   2.145   1.030
 2769SOL    HW138801   1.996   2.205   1.017
 2769SOL    HW238802   2.066   2.096   1.116
 2770SOL     OW38803   2.076   4.007   1.030
 2770SOL    HW138804   1.996   4.067   1.017
 2770SOL    HW238805   2.066   3.958   1.116
 2771SOL     OW38806   2.076   5.869   1.030
 2771SOL    HW138807   1.996   5.929   1.017
 2771SOL    HW238808   2.066   5.820   1.116
 2772SOL     OW38809   3.938   0.283   1.030
 2772SOL    HW138810   3.858   0.343   1.017
 2772SOL    HW238811   3.928   0.234   1.116
 2773SOL     OW38812   3.938   2.145   1.030
 2773SOL    HW138813   3.858   2.205   1.017
 2773SOL    HW238814   3.928   2.096   1.116
 2774SOL     OW38815   3.938   4.007   1.030
 2774SOL    HW138816   3.858   4.067   1.017
 2774SOL    HW238817   3.928   3.958   1.116
 2775SOL     OW38818   3.938   5.869   1.030
 2775SOL    HW138819   3.858   5.929   1.017
 2775SOL    HW238820   3.928   5.820   1.116
 2776SOL     OW38821   5.800   0.283   1.030
 2776SOL    HW138822   5.720   0.343   1.017
 2776SOL    HW238823   5.790   0.234   1.116
 2777SOL     OW38824   5.800   2.145   1.030
 2777SOL    HW138825   5.720   2.205   1.017
 2777SOL    HW238826   5.790   2.096   1.116
 2778SOL     OW38827   5.800   4.007   1.030
 2778SOL    HW138828   5.720   4.067   1.017
 2778SOL    HW238829   5.790   3.958   1.116
 2779SOL     OW38830   5.800   5.869   1.030
 2779SOL    HW138831   5.720   5.929   1.017
 2779SOL    HW238832   5.790   5.820   1.116
 2780SOL     OW38833   0.450   0.390   1.031
 2780SOL    HW138834   0.532   0.334   1.040
 2780SOL    HW238835   0.369   0.332   1.035
 2781SOL     OW38836   0.450   2.252   1.031
 2781SOL    HW138837   0.532   2.196   1.040
 2781SOL    HW238838   0.369   2.194   1.035
 2782SOL     OW38839   0.450   4.114   1.031
 2782SOL    HW138840   0.532   4.058   1.040
 2782SOL    HW238841   0.369   4.056   1.035
 2783SOL     OW38842   0.450   5.976   1.031
 2783SOL    HW138843   0.532   5.920   1.040
 2783SOL    HW238844   0.369   5.918   1.035
 2784SOL     OW38845   2.312   0.390   1.031
 2784SOL    HW138846   2.394   0.334   1.040
 2784SOL    HW238847   2.231   0.332   1.035
 2785SOL     OW38848   2.312   2.252   1.031
 2785SOL    HW138849   2.394   2.196   1.040
 2785SOL    HW238850   2.231   2.194   1.035
 2786SOL     OW38851   2.312   4.114   1.031
 2786SOL    HW138852   2.394   4.058   1.040
 2786SOL    HW238853   2.231   4.056   1.035
 2787SOL     OW38854   2.312   5.976   1.031
 2787SOL    HW138855   2.394   5.920   1.040
 2787SOL    HW238856   2.231   5.918   1.035
 2788SOL     OW38857   4.174   0.390   1.031
 2788SOL    HW138858   4.256   0.334   1.040
 2788SOL    HW238859   4.093   0.332   1.035
 2789SOL     OW38860   4.174   2.252   1.031
 2789SOL    HW138861   4.256   2.196   1.040
 2789SOL    HW238862   4.093   2.194   1.035
 2790SOL     OW38863   4.174   4.114   1.031
 2790SOL    HW138864   4.256   4.058   1.040
 2790SOL    HW238865   4.093   4.056   1.035
 2791SOL     OW38866   4.174   5.976   1.031
 2791SOL    HW138867   4.256   5.920   1.040
 2791SOL    HW238868   4.093   5.918   1.035
 2792SOL     OW38869   6.036   0.390   1.031
 2792SOL    HW138870   6.118   0.334   1.040
 2792SOL    HW238871   5.955   0.332   1.035
 2793SOL     OW38872   6.036   2.252   1.031
 2793SOL    HW138873   6.118   2.196   1.040
 2793SOL    HW238874   5.955   2.194   1.035
 2794SOL     OW38875   6.036   4.114   1.031
 2794SOL    HW138876   6.118   4.058   1.040
 2794SOL    HW238877   5.955   4.056   1.035
 2795SOL     OW38878   6.036   5.976   1.031
 2795SOL    HW138879   6.118   5.920   1.040
 2795SOL    HW238880   5.955   5.918   1.035
 2796SOL     OW38881   1.717   1.485  11.808
 2796SOL    HW138882   1.624   1.460  11.781
 2796SOL    HW238883   1.743   1.435  11.890
 2797SOL     OW38884   1.717   3.347  11.808
 2797SOL    HW138885   1.624   3.322  11.781
 2797SOL    HW238886   1.743   3.297  11.890
 2798SOL     OW38887   1.717   5.209  11.808
 2798SOL    HW138888   1.624   5.184  11.781
 2798SOL    HW238889   1.743   5.159  11.890
 2799SOL     OW38890   3.579   1.485  11.808
 2799SOL    HW138891   3.486   1.460  11.781
 2799SOL    HW238892   3.605   1.435  11.890
 2800SOL     OW38893   3.579   3.347  11.808
 2800SOL    HW138894   3.486   3.322  11.781
 2800SOL    HW238895   3.605   3.297  11.890
 2801SOL     OW38896   3.579   5.209  11.808
 2801SOL    HW138897   3.486   5.184  11.781
 2801SOL    HW238898   3.605   5.159  11.890
 2802SOL     OW38899   5.441   1.485  11.808
 2802SOL    HW138900   5.348   1.460  11.781
 2802SOL    HW238901   5.467   1.435  11.890
 2803SOL     OW38902   5.441   3.347  11.808
 2803SOL    HW138903   5.348   3.322  11.781
 2803SOL    HW238904   5.467   3.297  11.890
 2804SOL     OW38905   5.441   5.209  11.808
 2804SOL    HW138906   5.348   5.184  11.781
 2804SOL    HW238907   5.467   5.159  11.890
 2805SOL     OW38908   1.239   1.548   1.038
 2805SOL    HW138909   1.245   1.471   1.102
 2805SOL    HW238910   1.187   1.522   0.958
 2806SOL     OW38911   1.239   3.410   1.038
 2806SOL    HW138912   1.245   3.333   1.102
 2806SOL    HW238913   1.187   3.384   0.958
 2807SOL     OW38914   1.239   5.272   1.038
 2807SOL    HW138915   1.245   5.195   1.102
 2807SOL    HW238916   1.187   5.246   0.958
 2808SOL     OW38917   3.101   1.548   1.038
 2808SOL    HW138918   3.107   1.471   1.102
 2808SOL    HW238919   3.049   1.522   0.958
 2809SOL     OW38920   3.101   3.410   1.038
 2809SOL    HW138921   3.107   3.333   1.102
 2809SOL    HW238922   3.049   3.384   0.958
 2810SOL     OW38923   3.101   5.272   1.038
 2810SOL    HW138924   3.107   5.195   1.102
 2810SOL    HW238925   3.049   5.246   0.958
 2811SOL     OW38926   4.963   1.548   1.038
 2811SOL    HW138927   4.969   1.471   1.102
 2811SOL    HW238928   4.911   1.522   0.958
 2812SOL     OW38929   4.963   3.410   1.038
 2812SOL    HW138930   4.969   3.333   1.102
 2812SOL    HW238931   4.911   3.384   0.958
 2813SOL     OW38932   4.963   5.272   1.038
 2813SOL    HW138933   4.969   5.195   1.102
 2813SOL    HW238934   4.911   5.246   0.958
 2814SOL     OW38935   1.123   1.193  11.804
 2814SOL    HW138936   1.083   1.237  11.885
 2814SOL    HW238937   1.082   1.230  11.721
 2815SOL     OW38938   1.123   3.055  11.804
 2815SOL    HW138939   1.083   3.099  11.885
 2815SOL    HW238940   1.082   3.092  11.721
 2816SOL     OW38941   1.123   4.917  11.804
 2816SOL    HW138942   1.083   4.961  11.885
 2816SOL    HW238943   1.082   4.954  11.721
 2817SOL     OW38944   2.985   1.193  11.804
 2817SOL    HW138945   2.945   1.237  11.885
 2817SOL    HW238946   2.944   1.230  11.721
 2818SOL     OW38947   2.985   3.055  11.804
 2818SOL    HW138948   2.945   3.099  11.885
 2818SOL    HW238949   2.944   3.092  11.721
 2819SOL     OW38950   2.985   4.917  11.804
 2819SOL    HW138951   2.945   4.961  11.885
 2819SOL    HW238952   2.944   4.954  11.721
 2820SOL     OW38953   4.847   1.193  11.804
 2820SOL    HW138954   4.807   1.237  11.885
 2820SOL    HW238955   4.806   1.230  11.721
 2821SOL     OW38956   4.847   3.055  11.804
 2821SOL    HW138957   4.807   3.099  11.885
 2821SOL    HW238958   4.806   3.092  11.721
 2822SOL     OW38959   4.847   4.917  11.804
 2822SOL    HW138960   4.807   4.961  11.885
 2822SOL    HW238961   4.806   4.954  11.721
 2823SOL     OW38962   1.742   0.932   1.049
 2823SOL    HW138963   1.780   1.023   1.064
 2823SOL    HW238964   1.734   0.915   0.950
 2824SOL     OW38965   1.742   2.794   1.049
 2824SOL    HW138966   1.780   2.885   1.064
 2824SOL    HW238967   1.734   2.777   0.950
 2825SOL     OW38968   1.742   4.656   1.049
 2825SOL    HW138969   1.780   4.747   1.064
 2825SOL    HW238970   1.734   4.639   0.950
 2826SOL     OW38971   3.604   0.932   1.049
 2826SOL    HW138972   3.642   1.023   1.064
 2826SOL    HW238973   3.596   0.915   0.950
 2827SOL     OW38974   3.604   2.794   1.049
 2827SOL    HW138975   3.642   2.885   1.064
 2827SOL    HW238976   3.596   2.777   0.950
 2828SOL     OW38977   3.604   4.656   1.049
 2828SOL    HW138978   3.642   4.747   1.064
 2828SOL    HW238979   3.596   4.639   0.950
 2829SOL     OW38980   5.466   0.932   1.049
 2829SOL    HW138981   5.504   1.023   1.064
 2829SOL    HW238982   5.458   0.915   0.950
 2830SOL     OW38983   5.466   2.794   1.049
 2830SOL    HW138984   5.504   2.885   1.064
 2830SOL    HW238985   5.458   2.777   0.950
 2831SOL     OW38986   5.466   4.656   1.049
 2831SOL    HW138987   5.504   4.747   1.064
 2831SOL    HW238988   5.458   4.639   0.950
 2832SOL     OW38989   1.650   1.097  11.783
 2832SOL    HW138990   1.655   1.178  11.842
 2832SOL    HW238991   1.564   1.099  11.732
 2833SOL     OW38992   1.650   2.959  11.783
 2833SOL    HW138993   1.655   3.040  11.842
 2833SOL    HW238994   1.564   2.961  11.732
 2834SOL     OW38995   1.650   4.821  11.783
 2834SOL    HW138996   1.655   4.902  11.842
 2834SOL    HW238997   1.564   4.823  11.732
 2835SOL     OW38998   3.512   1.097  11.783
 2835SOL    HW138999   3.517   1.178  11.842
 2835SOL    HW239000   3.426   1.099  11.732
 2836SOL     OW39001   3.512   2.959  11.783
 2836SOL    HW139002   3.517   3.040  11.842
 2836SOL    HW239003   3.426   2.961  11.732
 2837SOL     OW39004   3.512   4.821  11.783
 2837SOL    HW139005   3.517   4.902  11.842
 2837SOL    HW239006   3.426   4.823  11.732
 2838SOL     OW39007   5.374   1.097  11.783
 2838SOL    HW139008   5.379   1.178  11.842
 2838SOL    HW239009   5.288   1.099  11.732
 2839SOL     OW39010   5.374   2.959  11.783
 2839SOL    HW139011   5.379   3.040  11.842
 2839SOL    HW239012   5.288   2.961  11.732
 2840SOL     OW39013   5.374   4.821  11.783
 2840SOL    HW139014   5.379   4.902  11.842
 2840SOL    HW239015   5.288   4.823  11.732
 2841SOL     OW39016   0.744   0.632  11.768
 2841SOL    HW139017   0.803   0.606  11.692
 2841SOL    HW239018   0.716   0.728  11.757
 2842SOL     OW39019   0.744   2.494  11.768
 2842SOL    HW139020   0.803   2.468  11.692
 2842SOL    HW239021   0.716   2.590  11.757
 2843SOL     OW39022   0.744   4.356  11.768
 2843SOL    HW139023   0.803   4.330  11.692
 2843SOL    HW239024   0.716   4.452  11.757
 2844SOL     OW39025   0.744   6.218  11.768
 2844SOL    HW139026   0.803   6.192  11.692
 2844SOL    HW239027   0.716   6.314  11.757
 2845SOL     OW39028   2.606   0.632  11.768
 2845SOL    HW139029   2.665   0.606  11.692
 2845SOL    HW239030   2.578   0.728  11.757
 2846SOL     OW39031   2.606   2.494  11.768
 2846SOL    HW139032   2.665   2.468  11.692
 2846SOL    HW239033   2.578   2.590  11.757
 2847SOL     OW39034   2.606   4.356  11.768
 2847SOL    HW139035   2.665   4.330  11.692
 2847SOL    HW239036   2.578   4.452  11.757
 2848SOL     OW39037   2.606   6.218  11.768
 2848SOL    HW139038   2.665   6.192  11.692
 2848SOL    HW239039   2.578   6.314  11.757
 2849SOL     OW39040   4.468   0.632  11.768
 2849SOL    HW139041   4.527   0.606  11.692
 2849SOL    HW239042   4.440   0.728  11.757
 2850SOL     OW39043   4.468   2.494  11.768
 2850SOL    HW139044   4.527   2.468  11.692
 2850SOL    HW239045   4.440   2.590  11.757
 2851SOL     OW39046   4.468   4.356  11.768
 2851SOL    HW139047   4.527   4.330  11.692
 2851SOL    HW239048   4.440   4.452  11.757
 2852SOL     OW39049   4.468   6.218  11.768
 2852SOL    HW139050   4.527   6.192  11.692
 2852SOL    HW239051   4.440   6.314  11.757
 2853SOL     OW39052   6.330   0.632  11.768
 2853SOL    HW139053   6.389   0.606  11.692
 2853SOL    HW239054   6.302   0.728  11.757
 2854SOL     OW39055   6.330   2.494  11.768
 2854SOL    HW139056   6.389   2.468  11.692
 2854SOL    HW239057   6.302   2.590  11.757
 2855SOL     OW39058   6.330   4.356  11.768
 2855SOL    HW139059   6.389   4.330  11.692
 2855SOL    HW239060   6.302   4.452  11.757
 2856SOL     OW39061   6.330   6.218  11.768
 2856SOL    HW139062   6.389   6.192  11.692
 2856SOL    HW239063   6.302   6.314  11.757
 2857SOL     OW39064   0.347   1.433  11.765
 2857SOL    HW139065   0.269   1.402  11.712
 2857SOL    HW239066   0.405   1.491  11.708
 2858SOL     OW39067   0.347   3.295  11.765
 2858SOL    HW139068   0.269   3.264  11.712
 2858SOL    HW239069   0.405   3.353  11.708
 2859SOL     OW39070   0.347   5.157  11.765
 2859SOL    HW139071   0.269   5.126  11.712
 2859SOL    HW239072   0.405   5.215  11.708
 2860SOL     OW39073   2.209   1.433  11.765
 2860SOL    HW139074   2.131   1.402  11.712
 2860SOL    HW239075   2.267   1.491  11.708
 2861SOL     OW39076   2.209   3.295  11.765
 2861SOL    HW139077   2.131   3.264  11.712
 2861SOL    HW239078   2.267   3.353  11.708
 2862SOL     OW39079   2.209   5.157  11.765
 2862SOL    HW139080   2.131   5.126  11.712
 2862SOL    HW239081   2.267   5.215  11.708
 2863SOL     OW39082   4.071   1.433  11.765
 2863SOL    HW139083   3.993   1.402  11.712
 2863SOL    HW239084   4.129   1.491  11.708
 2864SOL     OW39085   4.071   3.295  11.765
 2864SOL    HW139086   3.993   3.264  11.712
 2864SOL    HW239087   4.129   3.353  11.708
 2865SOL     OW39088   4.071   5.157  11.765
 2865SOL    HW139089   3.993   5.126  11.712
 2865SOL    HW239090   4.129   5.215  11.708
 2866SOL     OW39091   5.933   1.433  11.765
 2866SOL    HW139092   5.855   1.402  11.712
 2866SOL    HW239093   5.991   1.491  11.708
 2867SOL     OW39094   5.933   3.295  11.765
 2867SOL    HW139095   5.855   3.264  11.712
 2867SOL    HW239096   5.991   3.353  11.708
 2868SOL     OW39097   5.933   5.157  11.765
 2868SOL    HW139098   5.855   5.126  11.712
 2868SOL    HW239099   5.991   5.215  11.708
 2869SOL     OW39100   0.402   1.739   1.092
 2869SOL    HW139101   0.311   1.780   1.090
 2869SOL    HW239102   0.395   1.645   1.124
 2870SOL     OW39103   0.402   3.601   1.092
 2870SOL    HW139104   0.311   3.642   1.090
 2870SOL    HW239105   0.395   3.507   1.124
 2871SOL     OW39106   0.402   5.463   1.092
 2871SOL    HW139107   0.311   5.504   1.090
 2871SOL    HW239108   0.395   5.369   1.124
 2872SOL     OW39109   2.264   1.739   1.092
 2872SOL    HW139110   2.173   1.780   1.090
 2872SOL    HW239111   2.257   1.645   1.124
 2873SOL     OW39112   2.264   3.601   1.092
 2873SOL    HW139113   2.173   3.642   1.090
 2873SOL    HW239114   2.257   3.507   1.124
 2874SOL     OW39115   2.264   5.463   1.092
 2874SOL    HW139116   2.173   5.504   1.090
 2874SOL    HW239117   2.257   5.369   1.124
 2875SOL     OW39118   4.126   1.739   1.092
 2875SOL    HW139119   4.035   1.780   1.090
 2875SOL    HW239120   4.119   1.645   1.124
 2876SOL     OW39121   4.126   3.601   1.092
 2876SOL    HW139122   4.035   3.642   1.090
 2876SOL    HW239123   4.119   3.507   1.124
 2877SOL     OW39124   4.126   5.463   1.092
 2877SOL    HW139125   4.035   5.504   1.090
 2877SOL    HW239126   4.119   5.369   1.124
 2878SOL     OW39127   5.988   1.739   1.092
 2878SOL    HW139128   5.897   1.780   1.090
 2878SOL    HW239129   5.981   1.645   1.124
 2879SOL     OW39130   5.988   3.601   1.092
 2879SOL    HW139131   5.897   3.642   1.090
 2879SOL    HW239132   5.981   3.507   1.124
 2880SOL     OW39133   5.988   5.463   1.092
 2880SOL    HW139134   5.897   5.504   1.090
 2880SOL    HW239135   5.981   5.369   1.124
 2881SOL     OW39136   1.372   0.860  11.749
 2881SOL    HW139137   1.297   0.860  11.683
 2881SOL    HW239138   1.409   0.768  11.758
 2882SOL     OW39139   1.372   2.722  11.749
 2882SOL    HW139140   1.297   2.722  11.683
 2882SOL    HW239141   1.409   2.630  11.758
 2883SOL     OW39142   1.372   4.584  11.749
 2883SOL    HW139143   1.297   4.584  11.683
 2883SOL    HW239144   1.409   4.492  11.758
 2884SOL     OW39145   1.372   6.446  11.749
 2884SOL    HW139146   1.297   6.446  11.683
 2884SOL    HW239147   1.409   6.354  11.758
 2885SOL     OW39148   3.234   0.860  11.749
 2885SOL    HW139149   3.159   0.860  11.683
 2885SOL    HW239150   3.271   0.768  11.758
 2886SOL     OW39151   3.234   2.722  11.749
 2886SOL    HW139152   3.159   2.722  11.683
 2886SOL    HW239153   3.271   2.630  11.758
 2887SOL     OW39154   3.234   4.584  11.749
 2887SOL    HW139155   3.159   4.584  11.683
 2887SOL    HW239156   3.271   4.492  11.758
 2888SOL     OW39157   3.234   6.446  11.749
 2888SOL    HW139158   3.159   6.446  11.683
 2888SOL    HW239159   3.271   6.354  11.758
 2889SOL     OW39160   5.096   0.860  11.749
 2889SOL    HW139161   5.021   0.860  11.683
 2889SOL    HW239162   5.133   0.768  11.758
 2890SOL     OW39163   5.096   2.722  11.749
 2890SOL    HW139164   5.021   2.722  11.683
 2890SOL    HW239165   5.133   2.630  11.758
 2891SOL     OW39166   5.096   4.584  11.749
 2891SOL    HW139167   5.021   4.584  11.683
 2891SOL    HW239168   5.133   4.492  11.758
 2892SOL     OW39169   5.096   6.446  11.749
 2892SOL    HW139170   5.021   6.446  11.683
 2892SOL    HW239171   5.133   6.354  11.758
 2893SOL     OW39172   0.142   1.819   1.103
 2893SOL    HW139173   0.132   1.804   1.202
 2893SOL    HW239174   0.056   1.855   1.067
 2894SOL     OW39175   0.142   3.681   1.103
 2894SOL    HW139176   0.132   3.666   1.202
 2894SOL    HW239177   0.056   3.717   1.067
 2895SOL     OW39178   0.142   5.543   1.103
 2895SOL    HW139179   0.132   5.528   1.202
 2895SOL    HW239180   0.056   5.579   1.067
 2896SOL     OW39181   2.004   1.819   1.103
 2896SOL    HW139182   1.994   1.804   1.202
 2896SOL    HW239183   1.918   1.855   1.067
 2897SOL     OW39184   2.004   3.681   1.103
 2897SOL    HW139185   1.994   3.666   1.202
 2897SOL    HW239186   1.918   3.717   1.067
 2898SOL     OW39187   2.004   5.543   1.103
 2898SOL    HW139188   1.994   5.528   1.202
 2898SOL    HW239189   1.918   5.579   1.067
 2899SOL     OW39190   3.866   1.819   1.103
 2899SOL    HW139191   3.856   1.804   1.202
 2899SOL    HW239192   3.780   1.855   1.067
 2900SOL     OW39193   3.866   3.681   1.103
 2900SOL    HW139194   3.856   3.666   1.202
 2900SOL    HW239195   3.780   3.717   1.067
 2901SOL     OW39196   3.866   5.543   1.103
 2901SOL    HW139197   3.856   5.528   1.202
 2901SOL    HW239198   3.780   5.579   1.067
 2902SOL     OW39199   5.728   1.819   1.103
 2902SOL    HW139200   5.718   1.804   1.202
 2902SOL    HW239201   5.642   1.855   1.067
 2903SOL     OW39202   5.728   3.681   1.103
 2903SOL    HW139203   5.718   3.666   1.202
 2903SOL    HW239204   5.642   3.717   1.067
 2904SOL     OW39205   5.728   5.543   1.103
 2904SOL    HW139206   5.718   5.528   1.202
 2904SOL    HW239207   5.642   5.579   1.067
 2905SOL     OW39208   0.985   0.888   1.104
 2905SOL    HW139209   1.031   0.804   1.075
 2905SOL    HW239210   0.929   0.922   1.029
 2906SOL     OW39211   0.985   2.750   1.104
 2906SOL    HW139212   1.031   2.666   1.075
 2906SOL    HW239213   0.929   2.784   1.029
 2907SOL     OW39214   0.985   4.612   1.104
 2907SOL    HW139215   1.031   4.528   1.075
 2907SOL    HW239216   0.929   4.646   1.029
 2908SOL     OW39217   2.847   0.888   1.104
 2908SOL    HW139218   2.893   0.804   1.075
 2908SOL    HW239219   2.791   0.922   1.029
 2909SOL     OW39220   2.847   2.750   1.104
 2909SOL    HW139221   2.893   2.666   1.075
 2909SOL    HW239222   2.791   2.784   1.029
 2910SOL     OW39223   2.847   4.612   1.104
 2910SOL    HW139224   2.893   4.528   1.075
 2910SOL    HW239225   2.791   4.646   1.029
 2911SOL     OW39226   4.709   0.888   1.104
 2911SOL    HW139227   4.755   0.804   1.075
 2911SOL    HW239228   4.653   0.922   1.029
 2912SOL     OW39229   4.709   2.750   1.104
 2912SOL    HW139230   4.755   2.666   1.075
 2912SOL    HW239231   4.653   2.784   1.029
 2913SOL     OW39232   4.709   4.612   1.104
 2913SOL    HW139233   4.755   4.528   1.075
 2913SOL    HW239234   4.653   4.646   1.029
 2914SOL     OW39235   0.585   0.868  11.733
 2914SOL    HW139236   0.629   0.957  11.724
 2914SOL    HW239237   0.522   0.868  11.810
 2915SOL     OW39238   0.585   2.730  11.733
 2915SOL    HW139239   0.629   2.819  11.724
 2915SOL    HW239240   0.522   2.730  11.810
 2916SOL     OW39241   0.585   4.592  11.733
 2916SOL    HW139242   0.629   4.681  11.724
 2916SOL    HW239243   0.522   4.592  11.810
 2917SOL     OW39244   2.447   0.868  11.733
 2917SOL    HW139245   2.491   0.957  11.724
 2917SOL    HW239246   2.384   0.868  11.810
 2918SOL     OW39247   2.447   2.730  11.733
 2918SOL    HW139248   2.491   2.819  11.724
 2918SOL    HW239249   2.384   2.730  11.810
 2919SOL     OW39250   2.447   4.592  11.733
 2919SOL    HW139251   2.491   4.681  11.724
 2919SOL    HW239252   2.384   4.592  11.810
 2920SOL     OW39253   4.309   0.868  11.733
 2920SOL    HW139254   4.353   0.957  11.724
 2920SOL    HW239255   4.246   0.868  11.810
 2921SOL     OW39256   4.309   2.730  11.733
 2921SOL    HW139257   4.353   2.819  11.724
 2921SOL    HW239258   4.246   2.730  11.810
 2922SOL     OW39259   4.309   4.592  11.733
 2922SOL    HW139260   4.353   4.681  11.724
 2922SOL    HW239261   4.246   4.592  11.810
 2923SOL     OW39262   6.171   0.868  11.733
 2923SOL    HW139263   6.215   0.957  11.724
 2923SOL    HW239264   6.108   0.868  11.810
 2924SOL     OW39265   6.171   2.730  11.733
 2924SOL    HW139266   6.215   2.819  11.724
 2924SOL    HW239267   6.108   2.730  11.810
 2925SOL     OW39268   6.171   4.592  11.733
 2925SOL    HW139269   6.215   4.681  11.724
 2925SOL    HW239270   6.108   4.592  11.810
 2926SOL     OW39271   0.780   1.142  11.727
 2926SOL    HW139272   0.702   1.159  11.787
 2926SOL    HW239273   0.814   1.229  11.691
 2927SOL     OW39274   0.780   3.004  11.727
 2927SOL    HW139275   0.702   3.021  11.787
 2927SOL    HW239276   0.814   3.091  11.691
 2928SOL     OW39277   0.780   4.866  11.727
 2928SOL    HW139278   0.702   4.883  11.787
 2928SOL    HW239279   0.814   4.953  11.691
 2929SOL     OW39280   2.642   1.142  11.727
 2929SOL    HW139281   2.564   1.159  11.787
 2929SOL    HW239282   2.676   1.229  11.691
 2930SOL     OW39283   2.642   3.004  11.727
 2930SOL    HW139284   2.564   3.021  11.787
 2930SOL    HW239285   2.676   3.091  11.691
 2931SOL     OW39286   2.642   4.866  11.727
 2931SOL    HW139287   2.564   4.883  11.787
 2931SOL    HW239288   2.676   4.953  11.691
 2932SOL     OW39289   4.504   1.142  11.727
 2932SOL    HW139290   4.426   1.159  11.787
 2932SOL    HW239291   4.538   1.229  11.691
 2933SOL     OW39292   4.504   3.004  11.727
 2933SOL    HW139293   4.426   3.021  11.787
 2933SOL    HW239294   4.538   3.091  11.691
 2934SOL     OW39295   4.504   4.866  11.727
 2934SOL    HW139296   4.426   4.883  11.787
 2934SOL    HW239297   4.538   4.953  11.691
 2935SOL     OW39298   0.095   1.256  11.726
 2935SOL    HW139299   0.090   1.255  11.826
 2935SOL    HW239300   0.012   1.215  11.688
 2936SOL     OW39301   0.095   3.118  11.726
 2936SOL    HW139302   0.090   3.117  11.826
 2936SOL    HW239303   0.012   3.077  11.688
 2937SOL     OW39304   0.095   4.980  11.726
 2937SOL    HW139305   0.090   4.979  11.826
 2937SOL    HW239306   0.012   4.939  11.688
 2938SOL     OW39307   1.957   1.256  11.726
 2938SOL    HW139308   1.952   1.255  11.826
 2938SOL    HW239309   1.874   1.215  11.688
 2939SOL     OW39310   1.957   3.118  11.726
 2939SOL    HW139311   1.952   3.117  11.826
 2939SOL    HW239312   1.874   3.077  11.688
 2940SOL     OW39313   1.957   4.980  11.726
 2940SOL    HW139314   1.952   4.979  11.826
 2940SOL    HW239315   1.874   4.939  11.688
 2941SOL     OW39316   3.819   1.256  11.726
 2941SOL    HW139317   3.814   1.255  11.826
 2941SOL    HW239318   3.736   1.215  11.688
 2942SOL     OW39319   3.819   3.118  11.726
 2942SOL    HW139320   3.814   3.117  11.826
 2942SOL    HW239321   3.736   3.077  11.688
 2943SOL     OW39322   3.819   4.980  11.726
 2943SOL    HW139323   3.814   4.979  11.826
 2943SOL    HW239324   3.736   4.939  11.688
 2944SOL     OW39325   5.681   1.256  11.726
 2944SOL    HW139326   5.676   1.255  11.826
 2944SOL    HW239327   5.598   1.215  11.688
 2945SOL     OW39328   5.681   3.118  11.726
 2945SOL    HW139329   5.676   3.117  11.826
 2945SOL    HW239330   5.598   3.077  11.688
 2946SOL     OW39331   5.681   4.980  11.726
 2946SOL    HW139332   5.676   4.979  11.826
 2946SOL    HW239333   5.598   4.939  11.688
 2947SOL     OW39334   1.766   1.221   1.120
 2947SOL    HW139335   1.857   1.182   1.107
 2947SOL    HW239336   1.774   1.317   1.144
 2948SOL     OW39337   1.766   3.083   1.120
 2948SOL    HW139338   1.857   3.044   1.107
 2948SOL    HW239339   1.774   3.179   1.144
 2949SOL     OW39340   1.766   4.945   1.120
 2949SOL    HW139341   1.857   4.906   1.107
 2949SOL    HW239342   1.774   5.041   1.144
 2950SOL     OW39343   3.628   1.221   1.120
 2950SOL    HW139344   3.719   1.182   1.107
 2950SOL    HW239345   3.636   1.317   1.144
 2951SOL     OW39346   3.628   3.083   1.120
 2951SOL    HW139347   3.719   3.044   1.107
 2951SOL    HW239348   3.636   3.179   1.144
 2952SOL     OW39349   3.628   4.945   1.120
 2952SOL    HW139350   3.719   4.906   1.107
 2952SOL    HW239351   3.636   5.041   1.144
 2953SOL     OW39352   5.490   1.221   1.120
 2953SOL    HW139353   5.581   1.182   1.107
 2953SOL    HW239354   5.498   1.317   1.144
 2954SOL     OW39355   5.490   3.083   1.120
 2954SOL    HW139356   5.581   3.044   1.107
 2954SOL    HW239357   5.498   3.179   1.144
 2955SOL     OW39358   5.490   4.945   1.120
 2955SOL    HW139359   5.581   4.906   1.107
 2955SOL    HW239360   5.498   5.041   1.144
 2956SOL     OW39361   0.125   0.735   1.129
 2956SOL    HW139362   0.213   0.722   1.174
 2956SOL    HW239363   0.112   0.832   1.107
 2957SOL     OW39364   0.125   2.597   1.129
 2957SOL    HW139365   0.213   2.584   1.174
 2957SOL    HW239366   0.112   2.694   1.107
 2958SOL     OW39367   0.125   4.459   1.129
 2958SOL    HW139368   0.213   4.446   1.174
 2958SOL    HW239369   0.112   4.556   1.107
 2959SOL     OW39370   0.125   6.321   1.129
 2959SOL    HW139371   0.213   6.308   1.174
 2959SOL    HW239372   0.112   6.418   1.107
 2960SOL     OW39373   1.987   0.735   1.129
 2960SOL    HW139374   2.075   0.722   1.174
 2960SOL    HW239375   1.974   0.832   1.107
 2961SOL     OW39376   1.987   2.597   1.129
 2961SOL    HW139377   2.075   2.584   1.174
 2961SOL    HW239378   1.974   2.694   1.107
 2962SOL     OW39379   1.987   4.459   1.129
 2962SOL    HW139380   2.075   4.446   1.174
 2962SOL    HW239381   1.974   4.556   1.107
 2963SOL     OW39382   1.987   6.321   1.129
 2963SOL    HW139383   2.075   6.308   1.174
 2963SOL    HW239384   1.974   6.418   1.107
 2964SOL     OW39385   3.849   0.735   1.129
 2964SOL    HW139386   3.937   0.722   1.174
 2964SOL    HW239387   3.836   0.832   1.107
 2965SOL     OW39388   3.849   2.597   1.129
 2965SOL    HW139389   3.937   2.584   1.174
 2965SOL    HW239390   3.836   2.694   1.107
 2966SOL     OW39391   3.849   4.459   1.129
 2966SOL    HW139392   3.937   4.446   1.174
 2966SOL    HW239393   3.836   4.556   1.107
 2967SOL     OW39394   3.849   6.321   1.129
 2967SOL    HW139395   3.937   6.308   1.174
 2967SOL    HW239396   3.836   6.418   1.107
 2968SOL     OW39397   5.711   0.735   1.129
 2968SOL    HW139398   5.799   0.722   1.174
 2968SOL    HW239399   5.698   0.832   1.107
 2969SOL     OW39400   5.711   2.597   1.129
 2969SOL    HW139401   5.799   2.584   1.174
 2969SOL    HW239402   5.698   2.694   1.107
 2970SOL     OW39403   5.711   4.459   1.129
 2970SOL    HW139404   5.799   4.446   1.174
 2970SOL    HW239405   5.698   4.556   1.107
 2971SOL     OW39406   5.711   6.321   1.129
 2971SOL    HW139407   5.799   6.308   1.174
 2971SOL    HW239408   5.698   6.418   1.107
 2972SOL     OW39409   0.414   0.749   1.130
 2972SOL    HW139410   0.482   0.804   1.083
 2972SOL    HW239411   0.454   0.661   1.157
 2973SOL     OW39412   0.414   2.611   1.130
 2973SOL    HW139413   0.482   2.666   1.083
 2973SOL    HW239414   0.454   2.523   1.157
 2974SOL     OW39415   0.414   4.473   1.130
 2974SOL    HW139416   0.482   4.528   1.083
 2974SOL    HW239417   0.454   4.385   1.157
 2975SOL     OW39418   2.276   0.749   1.130
 2975SOL    HW139419   2.344   0.804   1.083
 2975SOL    HW239420   2.316   0.661   1.157
 2976SOL     OW39421   2.276   2.611   1.130
 2976SOL    HW139422   2.344   2.666   1.083
 2976SOL    HW239423   2.316   2.523   1.157
 2977SOL     OW39424   2.276   4.473   1.130
 2977SOL    HW139425   2.344   4.528   1.083
 2977SOL    HW239426   2.316   4.385   1.157
 2978SOL     OW39427   4.138   0.749   1.130
 2978SOL    HW139428   4.206   0.804   1.083
 2978SOL    HW239429   4.178   0.661   1.157
 2979SOL     OW39430   4.138   2.611   1.130
 2979SOL    HW139431   4.206   2.666   1.083
 2979SOL    HW239432   4.178   2.523   1.157
 2980SOL     OW39433   4.138   4.473   1.130
 2980SOL    HW139434   4.206   4.528   1.083
 2980SOL    HW239435   4.178   4.385   1.157
 2981SOL     OW39436   6.000   0.749   1.130
 2981SOL    HW139437   6.068   0.804   1.083
 2981SOL    HW239438   6.040   0.661   1.157
 2982SOL     OW39439   6.000   2.611   1.130
 2982SOL    HW139440   6.068   2.666   1.083
 2982SOL    HW239441   6.040   2.523   1.157
 2983SOL     OW39442   6.000   4.473   1.130
 2983SOL    HW139443   6.068   4.528   1.083
 2983SOL    HW239444   6.040   4.385   1.157
 2984SOL     OW39445   0.351   0.507  11.710
 2984SOL    HW139446   0.299   0.424  11.693
 2984SOL    HW239447   0.428   0.512  11.646
 2985SOL     OW39448   0.351   2.369  11.710
 2985SOL    HW139449   0.299   2.286  11.693
 2985SOL    HW239450   0.428   2.374  11.646
 2986SOL     OW39451   0.351   4.231  11.710
 2986SOL    HW139452   0.299   4.148  11.693
 2986SOL    HW239453   0.428   4.236  11.646
 2987SOL     OW39454   0.351   6.093  11.710
 2987SOL    HW139455   0.299   6.010  11.693
 2987SOL    HW239456   0.428   6.098  11.646
 2988SOL     OW39457   2.213   0.507  11.710
 2988SOL    HW139458   2.161   0.424  11.693
 2988SOL    HW239459   2.290   0.512  11.646
 2989SOL     OW39460   2.213   2.369  11.710
 2989SOL    HW139461   2.161   2.286  11.693
 2989SOL    HW239462   2.290   2.374  11.646
 2990SOL     OW39463   2.213   4.231  11.710
 2990SOL    HW139464   2.161   4.148  11.693
 2990SOL    HW239465   2.290   4.236  11.646
 2991SOL     OW39466   2.213   6.093  11.710
 2991SOL    HW139467   2.161   6.010  11.693
 2991SOL    HW239468   2.290   6.098  11.646
 2992SOL     OW39469   4.075   0.507  11.710
 2992SOL    HW139470   4.023   0.424  11.693
 2992SOL    HW239471   4.152   0.512  11.646
 2993SOL     OW39472   4.075   2.369  11.710
 2993SOL    HW139473   4.023   2.286  11.693
 2993SOL    HW239474   4.152   2.374  11.646
 2994SOL     OW39475   4.075   4.231  11.710
 2994SOL    HW139476   4.023   4.148  11.693
 2994SOL    HW239477   4.152   4.236  11.646
 2995SOL     OW39478   4.075   6.093  11.710
 2995SOL    HW139479   4.023   6.010  11.693
 2995SOL    HW239480   4.152   6.098  11.646
 2996SOL     OW39481   5.937   0.507  11.710
 2996SOL    HW139482   5.885   0.424  11.693
 2996SOL    HW239483   6.014   0.512  11.646
 2997SOL     OW39484   5.937   2.369  11.710
 2997SOL    HW139485   5.885   2.286  11.693
 2997SOL    HW239486   6.014   2.374  11.646
 2998SOL     OW39487   5.937   4.231  11.710
 2998SOL    HW139488   5.885   4.148  11.693
 2998SOL    HW239489   6.014   4.236  11.646
 2999SOL     OW39490   5.937   6.093  11.710
 2999SOL    HW139491   5.885   6.010  11.693
 2999SOL    HW239492   6.014   6.098  11.646
 3000SOL     OW39493   1.871   1.516   1.137
 3000SOL    HW139494   1.885   1.543   1.042
 3000SOL    HW239495   1.954   1.538   1.190
 3001SOL     OW39496   1.871   3.378   1.137
 3001SOL    HW139497   1.885   3.405   1.042
 3001SOL    HW239498   1.954   3.400   1.190
 3002SOL     OW39499   1.871   5.240   1.137
 3002SOL    HW139500   1.885   5.267   1.042
 3002SOL    HW239501   1.954   5.262   1.190
 3003SOL     OW39502   3.733   1.516   1.137
 3003SOL    HW139503   3.747   1.543   1.042
 3003SOL    HW239504   3.816   1.538   1.190
 3004SOL     OW39505   3.733   3.378   1.137
 3004SOL    HW139506   3.747   3.405   1.042
 3004SOL    HW239507   3.816   3.400   1.190
 3005SOL     OW39508   3.733   5.240   1.137
 3005SOL    HW139509   3.747   5.267   1.042
 3005SOL    HW239510   3.816   5.262   1.190
 3006SOL     OW39511   5.595   1.516   1.137
 3006SOL    HW139512   5.609   1.543   1.042
 3006SOL    HW239513   5.678   1.538   1.190
 3007SOL     OW39514   5.595   3.378   1.137
 3007SOL    HW139515   5.609   3.405   1.042
 3007SOL    HW239516   5.678   3.400   1.190
 3008SOL     OW39517   5.595   5.240   1.137
 3008SOL    HW139518   5.609   5.267   1.042
 3008SOL    HW239519   5.678   5.262   1.190
 3009SOL     OW39520   0.237   0.273  11.700
 3009SOL    HW139521   0.272   0.256  11.792
 3009SOL    HW239522   0.149   0.228  11.688
 3010SOL     OW39523   0.237   2.135  11.700
 3010SOL    HW139524   0.272   2.118  11.792
 3010SOL    HW239525   0.149   2.090  11.688
 3011SOL     OW39526   0.237   3.997  11.700
 3011SOL    HW139527   0.272   3.980  11.792
 3011SOL    HW239528   0.149   3.952  11.688
 3012SOL     OW39529   0.237   5.859  11.700
 3012SOL    HW139530   0.272   5.842  11.792
 3012SOL    HW239531   0.149   5.814  11.688
 3013SOL     OW39532   2.099   0.273  11.700
 3013SOL    HW139533   2.134   0.256  11.792
 3013SOL    HW239534   2.011   0.228  11.688
 3014SOL     OW39535   2.099   2.135  11.700
 3014SOL    HW139536   2.134   2.118  11.792
 3014SOL    HW239537   2.011   2.090  11.688
 3015SOL     OW39538   2.099   3.997  11.700
 3015SOL    HW139539   2.134   3.980  11.792
 3015SOL    HW239540   2.011   3.952  11.688
 3016SOL     OW39541   2.099   5.859  11.700
 3016SOL    HW139542   2.134   5.842  11.792
 3016SOL    HW239543   2.011   5.814  11.688
 3017SOL     OW39544   3.961   0.273  11.700
 3017SOL    HW139545   3.996   0.256  11.792
 3017SOL    HW239546   3.873   0.228  11.688
 3018SOL     OW39547   3.961   2.135  11.700
 3018SOL    HW139548   3.996   2.118  11.792
 3018SOL    HW239549   3.873   2.090  11.688
 3019SOL     OW39550   3.961   3.997  11.700
 3019SOL    HW139551   3.996   3.980  11.792
 3019SOL    HW239552   3.873   3.952  11.688
 3020SOL     OW39553   3.961   5.859  11.700
 3020SOL    HW139554   3.996   5.842  11.792
 3020SOL    HW239555   3.873   5.814  11.688
 3021SOL     OW39556   5.823   0.273  11.700
 3021SOL    HW139557   5.858   0.256  11.792
 3021SOL    HW239558   5.735   0.228  11.688
 3022SOL     OW39559   5.823   2.135  11.700
 3022SOL    HW139560   5.858   2.118  11.792
 3022SOL    HW239561   5.735   2.090  11.688
 3023SOL     OW39562   5.823   3.997  11.700
 3023SOL    HW139563   5.858   3.980  11.792
 3023SOL    HW239564   5.735   3.952  11.688
 3024SOL     OW39565   5.823   5.859  11.700
 3024SOL    HW139566   5.858   5.842  11.792
 3024SOL    HW239567   5.735   5.814  11.688
 3025SOL     OW39568   1.199   1.790   1.148
 3025SOL    HW139569   1.223   1.850   1.072
 3025SOL    HW239570   1.206   1.695   1.118
 3026SOL     OW39571   1.199   3.652   1.148
 3026SOL    HW139572   1.223   3.712   1.072
 3026SOL    HW239573   1.206   3.557   1.118
 3027SOL     OW39574   1.199   5.514   1.148
 3027SOL    HW139575   1.223   5.574   1.072
 3027SOL    HW239576   1.206   5.419   1.118
 3028SOL     OW39577   3.061   1.790   1.148
 3028SOL    HW139578   3.085   1.850   1.072
 3028SOL    HW239579   3.068   1.695   1.118
 3029SOL     OW39580   3.061   3.652   1.148
 3029SOL    HW139581   3.085   3.712   1.072
 3029SOL    HW239582   3.068   3.557   1.118
 3030SOL     OW39583   3.061   5.514   1.148
 3030SOL    HW139584   3.085   5.574   1.072
 3030SOL    HW239585   3.068   5.419   1.118
 3031SOL     OW39586   4.923   1.790   1.148
 3031SOL    HW139587   4.947   1.850   1.072
 3031SOL    HW239588   4.930   1.695   1.118
 3032SOL     OW39589   4.923   3.652   1.148
 3032SOL    HW139590   4.947   3.712   1.072
 3032SOL    HW239591   4.930   3.557   1.118
 3033SOL     OW39592   4.923   5.514   1.148
 3033SOL    HW139593   4.947   5.574   1.072
 3033SOL    HW239594   4.930   5.419   1.118
 3034SOL     OW39595   1.478   0.588  11.696
 3034SOL    HW139596   1.448   0.493  11.703
 3034SOL    HW239597   1.551   0.604  11.762
 3035SOL     OW39598   1.478   2.450  11.696
 3035SOL    HW139599   1.448   2.355  11.703
 3035SOL    HW239600   1.551   2.466  11.762
 3036SOL     OW39601   1.478   4.312  11.696
 3036SOL    HW139602   1.448   4.217  11.703
 3036SOL    HW239603   1.551   4.328  11.762
 3037SOL     OW39604   1.478   6.174  11.696
 3037SOL    HW139605   1.448   6.079  11.703
 3037SOL    HW239606   1.551   6.190  11.762
 3038SOL     OW39607   3.340   0.588  11.696
 3038SOL    HW139608   3.310   0.493  11.703
 3038SOL    HW239609   3.413   0.604  11.762
 3039SOL     OW39610   3.340   2.450  11.696
 3039SOL    HW139611   3.310   2.355  11.703
 3039SOL    HW239612   3.413   2.466  11.762
 3040SOL     OW39613   3.340   4.312  11.696
 3040SOL    HW139614   3.310   4.217  11.703
 3040SOL    HW239615   3.413   4.328  11.762
 3041SOL     OW39616   3.340   6.174  11.696
 3041SOL    HW139617   3.310   6.079  11.703
 3041SOL    HW239618   3.413   6.190  11.762
 3042SOL     OW39619   5.202   0.588  11.696
 3042SOL    HW139620   5.172   0.493  11.703
 3042SOL    HW239621   5.275   0.604  11.762
 3043SOL     OW39622   5.202   2.450  11.696
 3043SOL    HW139623   5.172   2.355  11.703
 3043SOL    HW239624   5.275   2.466  11.762
 3044SOL     OW39625   5.202   4.312  11.696
 3044SOL    HW139626   5.172   4.217  11.703
 3044SOL    HW239627   5.275   4.328  11.762
 3045SOL     OW39628   5.202   6.174  11.696
 3045SOL    HW139629   5.172   6.079  11.703
 3045SOL    HW239630   5.275   6.190  11.762
 3046SOL     OW39631   0.684   1.389   1.156
 3046SOL    HW139632   0.606   1.339   1.194
 3046SOL    HW239633   0.681   1.484   1.187
 3047SOL     OW39634   0.684   3.251   1.156
 3047SOL    HW139635   0.606   3.201   1.194
 3047SOL    HW239636   0.681   3.346   1.187
 3048SOL     OW39637   0.684   5.113   1.156
 3048SOL    HW139638   0.606   5.063   1.194
 3048SOL    HW239639   0.681   5.208   1.187
 3049SOL     OW39640   2.546   1.389   1.156
 3049SOL    HW139641   2.468   1.339   1.194
 3049SOL    HW239642   2.543   1.484   1.187
 3050SOL     OW39643   2.546   3.251   1.156
 3050SOL    HW139644   2.468   3.201   1.194
 3050SOL    HW239645   2.543   3.346   1.187
 3051SOL     OW39646   2.546   5.113   1.156
 3051SOL    HW139647   2.468   5.063   1.194
 3051SOL    HW239648   2.543   5.208   1.187
 3052SOL     OW39649   4.408   1.389   1.156
 3052SOL    HW139650   4.330   1.339   1.194
 3052SOL    HW239651   4.405   1.484   1.187
 3053SOL     OW39652   4.408   3.251   1.156
 3053SOL    HW139653   4.330   3.201   1.194
 3053SOL    HW239654   4.405   3.346   1.187
 3054SOL     OW39655   4.408   5.113   1.156
 3054SOL    HW139656   4.330   5.063   1.194
 3054SOL    HW239657   4.405   5.208   1.187
 3055SOL     OW39658   6.270   1.389   1.156
 3055SOL    HW139659   6.192   1.339   1.194
 3055SOL    HW239660   6.267   1.484   1.187
 3056SOL     OW39661   6.270   3.251   1.156
 3056SOL    HW139662   6.192   3.201   1.194
 3056SOL    HW239663   6.267   3.346   1.187
 3057SOL     OW39664   6.270   5.113   1.156
 3057SOL    HW139665   6.192   5.063   1.194
 3057SOL    HW239666   6.267   5.208   1.187
 3058SOL     OW39667   1.604   1.627   1.157
 3058SOL    HW139668   1.631   1.661   1.067
 3058SOL    HW239669   1.683   1.589   1.203
 3059SOL     OW39670   1.604   3.489   1.157
 3059SOL    HW139671   1.631   3.523   1.067
 3059SOL    HW239672   1.683   3.451   1.203
 3060SOL     OW39673   1.604   5.351   1.157
 3060SOL    HW139674   1.631   5.385   1.067
 3060SOL    HW239675   1.683   5.313   1.203
 3061SOL     OW39676   3.466   1.627   1.157
 3061SOL    HW139677   3.493   1.661   1.067
 3061SOL    HW239678   3.545   1.589   1.203
 3062SOL     OW39679   3.466   3.489   1.157
 3062SOL    HW139680   3.493   3.523   1.067
 3062SOL    HW239681   3.545   3.451   1.203
 3063SOL     OW39682   3.466   5.351   1.157
 3063SOL    HW139683   3.493   5.385   1.067
 3063SOL    HW239684   3.545   5.313   1.203
 3064SOL     OW39685   5.328   1.627   1.157
 3064SOL    HW139686   5.355   1.661   1.067
 3064SOL    HW239687   5.407   1.589   1.203
 3065SOL     OW39688   5.328   3.489   1.157
 3065SOL    HW139689   5.355   3.523   1.067
 3065SOL    HW239690   5.407   3.451   1.203
 3066SOL     OW39691   5.328   5.351   1.157
 3066SOL    HW139692   5.355   5.385   1.067
 3066SOL    HW239693   5.407   5.313   1.203
 3067SOL     OW39694   1.462   1.218   1.165
 3067SOL    HW139695   1.453   1.208   1.264
 3067SOL    HW239696   1.558   1.211   1.139
 3068SOL     OW39697   1.462   3.080   1.165
 3068SOL    HW139698   1.453   3.070   1.264
 3068SOL    HW239699   1.558   3.073   1.139
 3069SOL     OW39700   1.462   4.942   1.165
 3069SOL    HW139701   1.453   4.932   1.264
 3069SOL    HW239702   1.558   4.935   1.139
 3070SOL     OW39703   3.324   1.218   1.165
 3070SOL    HW139704   3.315   1.208   1.264
 3070SOL    HW239705   3.420   1.211   1.139
 3071SOL     OW39706   3.324   3.080   1.165
 3071SOL    HW139707   3.315   3.070   1.264
 3071SOL    HW239708   3.420   3.073   1.139
 3072SOL     OW39709   3.324   4.942   1.165
 3072SOL    HW139710   3.315   4.932   1.264
 3072SOL    HW239711   3.420   4.935   1.139
 3073SOL     OW39712   5.186   1.218   1.165
 3073SOL    HW139713   5.177   1.208   1.264
 3073SOL    HW239714   5.282   1.211   1.139
 3074SOL     OW39715   5.186   3.080   1.165
 3074SOL    HW139716   5.177   3.070   1.264
 3074SOL    HW239717   5.282   3.073   1.139
 3075SOL     OW39718   5.186   4.942   1.165
 3075SOL    HW139719   5.177   4.932   1.264
 3075SOL    HW239720   5.282   4.935   1.139
 3076SOL     OW39721   1.026   0.234  11.675
 3076SOL    HW139722   1.018   0.198  11.582
 3076SOL    HW239723   1.024   0.158  11.740
 3077SOL     OW39724   1.026   2.096  11.675
 3077SOL    HW139725   1.018   2.060  11.582
 3077SOL    HW239726   1.024   2.020  11.740
 3078SOL     OW39727   1.026   3.958  11.675
 3078SOL    HW139728   1.018   3.922  11.582
 3078SOL    HW239729   1.024   3.882  11.740
 3079SOL     OW39730   1.026   5.820  11.675
 3079SOL    HW139731   1.018   5.784  11.582
 3079SOL    HW239732   1.024   5.744  11.740
 3080SOL     OW39733   2.888   0.234  11.675
 3080SOL    HW139734   2.880   0.198  11.582
 3080SOL    HW239735   2.886   0.158  11.740
 3081SOL     OW39736   2.888   2.096  11.675
 3081SOL    HW139737   2.880   2.060  11.582
 3081SOL    HW239738   2.886   2.020  11.740
 3082SOL     OW39739   2.888   3.958  11.675
 3082SOL    HW139740   2.880   3.922  11.582
 3082SOL    HW239741   2.886   3.882  11.740
 3083SOL     OW39742   2.888   5.820  11.675
 3083SOL    HW139743   2.880   5.784  11.582
 3083SOL    HW239744   2.886   5.744  11.740
 3084SOL     OW39745   4.750   0.234  11.675
 3084SOL    HW139746   4.742   0.198  11.582
 3084SOL    HW239747   4.748   0.158  11.740
 3085SOL     OW39748   4.750   2.096  11.675
 3085SOL    HW139749   4.742   2.060  11.582
 3085SOL    HW239750   4.748   2.020  11.740
 3086SOL     OW39751   4.750   3.958  11.675
 3086SOL    HW139752   4.742   3.922  11.582
 3086SOL    HW239753   4.748   3.882  11.740
 3087SOL     OW39754   4.750   5.820  11.675
 3087SOL    HW139755   4.742   5.784  11.582
 3087SOL    HW239756   4.748   5.744  11.740
 3088SOL     OW39757   1.789   0.340   1.174
 3088SOL    HW139758   1.772   0.371   1.080
 3088SOL    HW239759   1.705   0.303   1.212
 3089SOL     OW39760   1.789   2.202   1.174
 3089SOL    HW139761   1.772   2.233   1.080
 3089SOL    HW239762   1.705   2.165   1.212
 3090SOL     OW39763   1.789   4.064   1.174
 3090SOL    HW139764   1.772   4.095   1.080
 3090SOL    HW239765   1.705   4.027   1.212
 3091SOL     OW39766   1.789   5.926   1.174
 3091SOL    HW139767   1.772   5.957   1.080
 3091SOL    HW239768   1.705   5.889   1.212
 3092SOL     OW39769   3.651   0.340   1.174
 3092SOL    HW139770   3.634   0.371   1.080
 3092SOL    HW239771   3.567   0.303   1.212
 3093SOL     OW39772   3.651   2.202   1.174
 3093SOL    HW139773   3.634   2.233   1.080
 3093SOL    HW239774   3.567   2.165   1.212
 3094SOL     OW39775   3.651   4.064   1.174
 3094SOL    HW139776   3.634   4.095   1.080
 3094SOL    HW239777   3.567   4.027   1.212
 3095SOL     OW39778   3.651   5.926   1.174
 3095SOL    HW139779   3.634   5.957   1.080
 3095SOL    HW239780   3.567   5.889   1.212
 3096SOL     OW39781   5.513   0.340   1.174
 3096SOL    HW139782   5.496   0.371   1.080
 3096SOL    HW239783   5.429   0.303   1.212
 3097SOL     OW39784   5.513   2.202   1.174
 3097SOL    HW139785   5.496   2.233   1.080
 3097SOL    HW239786   5.429   2.165   1.212
 3098SOL     OW39787   5.513   4.064   1.174
 3098SOL    HW139788   5.496   4.095   1.080
 3098SOL    HW239789   5.429   4.027   1.212
 3099SOL     OW39790   5.513   5.926   1.174
 3099SOL    HW139791   5.496   5.957   1.080
 3099SOL    HW239792   5.429   5.889   1.212
 3100SOL     OW39793   1.035   0.764  11.670
 3100SOL    HW139794   1.050   0.785  11.766
 3100SOL    HW239795   1.005   0.669  11.661
 3101SOL     OW39796   1.035   2.626  11.670
 3101SOL    HW139797   1.050   2.647  11.766
 3101SOL    HW239798   1.005   2.531  11.661
 3102SOL     OW39799   1.035   4.488  11.670
 3102SOL    HW139800   1.050   4.509  11.766
 3102SOL    HW239801   1.005   4.393  11.661
 3103SOL     OW39802   2.897   0.764  11.670
 3103SOL    HW139803   2.912   0.785  11.766
 3103SOL    HW239804   2.867   0.669  11.661
 3104SOL     OW39805   2.897   2.626  11.670
 3104SOL    HW139806   2.912   2.647  11.766
 3104SOL    HW239807   2.867   2.531  11.661
 3105SOL     OW39808   2.897   4.488  11.670
 3105SOL    HW139809   2.912   4.509  11.766
 3105SOL    HW239810   2.867   4.393  11.661
 3106SOL     OW39811   4.759   0.764  11.670
 3106SOL    HW139812   4.774   0.785  11.766
 3106SOL    HW239813   4.729   0.669  11.661
 3107SOL     OW39814   4.759   2.626  11.670
 3107SOL    HW139815   4.774   2.647  11.766
 3107SOL    HW239816   4.729   2.531  11.661
 3108SOL     OW39817   4.759   4.488  11.670
 3108SOL    HW139818   4.774   4.509  11.766
 3108SOL    HW239819   4.729   4.393  11.661
 3109SOL     OW39820   1.853   0.173  11.667
 3109SOL    HW139821   1.892   0.088  11.631
 3109SOL    HW239822   1.755   0.175  11.648
 3110SOL     OW39823   1.853   2.035  11.667
 3110SOL    HW139824   1.892   1.950  11.631
 3110SOL    HW239825   1.755   2.037  11.648
 3111SOL     OW39826   1.853   3.897  11.667
 3111SOL    HW139827   1.892   3.812  11.631
 3111SOL    HW239828   1.755   3.899  11.648
 3112SOL     OW39829   1.853   5.759  11.667
 3112SOL    HW139830   1.892   5.674  11.631
 3112SOL    HW239831   1.755   5.761  11.648
 3113SOL     OW39832   3.715   0.173  11.667
 3113SOL    HW139833   3.754   0.088  11.631
 3113SOL    HW239834   3.617   0.175  11.648
 3114SOL     OW39835   3.715   2.035  11.667
 3114SOL    HW139836   3.754   1.950  11.631
 3114SOL    HW239837   3.617   2.037  11.648
 3115SOL     OW39838   3.715   3.897  11.667
 3115SOL    HW139839   3.754   3.812  11.631
 3115SOL    HW239840   3.617   3.899  11.648
 3116SOL     OW39841   3.715   5.759  11.667
 3116SOL    HW139842   3.754   5.674  11.631
 3116SOL    HW239843   3.617   5.761  11.648
 3117SOL     OW39844   5.577   0.173  11.667
 3117SOL    HW139845   5.616   0.088  11.631
 3117SOL    HW239846   5.479   0.175  11.648
 3118SOL     OW39847   5.577   2.035  11.667
 3118SOL    HW139848   5.616   1.950  11.631
 3118SOL    HW239849   5.479   2.037  11.648
 3119SOL     OW39850   5.577   3.897  11.667
 3119SOL    HW139851   5.616   3.812  11.631
 3119SOL    HW239852   5.479   3.899  11.648
 3120SOL     OW39853   5.577   5.759  11.667
 3120SOL    HW139854   5.616   5.674  11.631
 3120SOL    HW239855   5.479   5.761  11.648
 3121SOL     OW39856   1.505   1.765  11.663
 3121SOL    HW139857   1.538   1.829  11.594
 3121SOL    HW239858   1.571   1.759  11.738
 3122SOL     OW39859   1.505   3.627  11.663
 3122SOL    HW139860   1.538   3.691  11.594
 3122SOL    HW239861   1.571   3.621  11.738
 3123SOL     OW39862   1.505   5.489  11.663
 3123SOL    HW139863   1.538   5.553  11.594
 3123SOL    HW239864   1.571   5.483  11.738
 3124SOL     OW39865   3.367   1.765  11.663
 3124SOL    HW139866   3.400   1.829  11.594
 3124SOL    HW239867   3.433   1.759  11.738
 3125SOL     OW39868   3.367   3.627  11.663
 3125SOL    HW139869   3.400   3.691  11.594
 3125SOL    HW239870   3.433   3.621  11.738
 3126SOL     OW39871   3.367   5.489  11.663
 3126SOL    HW139872   3.400   5.553  11.594
 3126SOL    HW239873   3.433   5.483  11.738
 3127SOL     OW39874   5.229   1.765  11.663
 3127SOL    HW139875   5.262   1.829  11.594
 3127SOL    HW239876   5.295   1.759  11.738
 3128SOL     OW39877   5.229   3.627  11.663
 3128SOL    HW139878   5.262   3.691  11.594
 3128SOL    HW239879   5.295   3.621  11.738
 3129SOL     OW39880   5.229   5.489  11.663
 3129SOL    HW139881   5.262   5.553  11.594
 3129SOL    HW239882   5.295   5.483  11.738
 3130SOL     OW39883   1.478   1.415  11.657
 3130SOL    HW139884   1.419   1.421  11.737
 3130SOL    HW239885   1.463   1.327  11.611
 3131SOL     OW39886   0.673   1.788  11.657
 3131SOL    HW139887   0.627   1.876  11.644
 3131SOL    HW239888   0.772   1.800  11.650
 3132SOL     OW39889   1.478   3.277  11.657
 3132SOL    HW139890   1.419   3.283  11.737
 3132SOL    HW239891   1.463   3.189  11.611
 3133SOL     OW39892   0.673   3.650  11.657
 3133SOL    HW139893   0.627   3.738  11.644
 3133SOL    HW239894   0.772   3.662  11.650
 3134SOL     OW39895   1.478   5.139  11.657
 3134SOL    HW139896   1.419   5.145  11.737
 3134SOL    HW239897   1.463   5.051  11.611
 3135SOL     OW39898   0.673   5.512  11.657
 3135SOL    HW139899   0.627   5.600  11.644
 3135SOL    HW239900   0.772   5.524  11.650
 3136SOL     OW39901   3.340   1.415  11.657
 3136SOL    HW139902   3.281   1.421  11.737
 3136SOL    HW239903   3.325   1.327  11.611
 3137SOL     OW39904   2.535   1.788  11.657
 3137SOL    HW139905   2.489   1.876  11.644
 3137SOL    HW239906   2.634   1.800  11.650
 3138SOL     OW39907   3.340   3.277  11.657
 3138SOL    HW139908   3.281   3.283  11.737
 3138SOL    HW239909   3.325   3.189  11.611
 3139SOL     OW39910   2.535   3.650  11.657
 3139SOL    HW139911   2.489   3.738  11.644
 3139SOL    HW239912   2.634   3.662  11.650
 3140SOL     OW39913   3.340   5.139  11.657
 3140SOL    HW139914   3.281   5.145  11.737
 3140SOL    HW239915   3.325   5.051  11.611
 3141SOL     OW39916   2.535   5.512  11.657
 3141SOL    HW139917   2.489   5.600  11.644
 3141SOL    HW239918   2.634   5.524  11.650
 3142SOL     OW39919   5.202   1.415  11.657
 3142SOL    HW139920   5.143   1.421  11.737
 3142SOL    HW239921   5.187   1.327  11.611
 3143SOL     OW39922   4.397   1.788  11.657
 3143SOL    HW139923   4.351   1.876  11.644
 3143SOL    HW239924   4.496   1.800  11.650
 3144SOL     OW39925   5.202   3.277  11.657
 3144SOL    HW139926   5.143   3.283  11.737
 3144SOL    HW239927   5.187   3.189  11.611
 3145SOL     OW39928   4.397   3.650  11.657
 3145SOL    HW139929   4.351   3.738  11.644
 3145SOL    HW239930   4.496   3.662  11.650
 3146SOL     OW39931   5.202   5.139  11.657
 3146SOL    HW139932   5.143   5.145  11.737
 3146SOL    HW239933   5.187   5.051  11.611
 3147SOL     OW39934   4.397   5.512  11.657
 3147SOL    HW139935   4.351   5.600  11.644
 3147SOL    HW239936   4.496   5.524  11.650
 3148SOL     OW39937   6.259   1.788  11.657
 3148SOL    HW139938   6.213   1.876  11.644
 3148SOL    HW239939   6.358   1.800  11.650
 3149SOL     OW39940   6.259   3.650  11.657
 3149SOL    HW139941   6.213   3.738  11.644
 3149SOL    HW239942   6.358   3.662  11.650
 3150SOL     OW39943   6.259   5.512  11.657
 3150SOL    HW139944   6.213   5.600  11.644
 3150SOL    HW239945   6.358   5.524  11.650
 3151SOL     OW39946   1.381   0.948   1.192
 3151SOL    HW139947   1.420   1.037   1.212
 3151SOL    HW239948   1.391   0.928   1.095
 3152SOL     OW39949   1.381   2.810   1.192
 3152SOL    HW139950   1.420   2.899   1.212
 3152SOL    HW239951   1.391   2.790   1.095
 3153SOL     OW39952   1.381   4.672   1.192
 3153SOL    HW139953   1.420   4.761   1.212
 3153SOL    HW239954   1.391   4.652   1.095
 3154SOL     OW39955   3.243   0.948   1.192
 3154SOL    HW139956   3.282   1.037   1.212
 3154SOL    HW239957   3.253   0.928   1.095
 3155SOL     OW39958   3.243   2.810   1.192
 3155SOL    HW139959   3.282   2.899   1.212
 3155SOL    HW239960   3.253   2.790   1.095
 3156SOL     OW39961   3.243   4.672   1.192
 3156SOL    HW139962   3.282   4.761   1.212
 3156SOL    HW239963   3.253   4.652   1.095
 3157SOL     OW39964   5.105   0.948   1.192
 3157SOL    HW139965   5.144   1.037   1.212
 3157SOL    HW239966   5.115   0.928   1.095
 3158SOL     OW39967   5.105   2.810   1.192
 3158SOL    HW139968   5.144   2.899   1.212
 3158SOL    HW239969   5.115   2.790   1.095
 3159SOL     OW39970   5.105   4.672   1.192
 3159SOL    HW139971   5.144   4.761   1.212
 3159SOL    HW239972   5.115   4.652   1.095
 3160SOL     OW39973   0.331   0.808  11.653
 3160SOL    HW139974   0.424   0.844  11.658
 3160SOL    HW239975   0.325   0.723  11.705
 3161SOL     OW39976   0.331   2.670  11.653
 3161SOL    HW139977   0.424   2.706  11.658
 3161SOL    HW239978   0.325   2.585  11.705
 3162SOL     OW39979   0.331   4.532  11.653
 3162SOL    HW139980   0.424   4.568  11.658
 3162SOL    HW239981   0.325   4.447  11.705
 3163SOL     OW39982   0.331   6.394  11.653
 3163SOL    HW139983   0.424   6.430  11.658
 3163SOL    HW239984   0.325   6.309  11.705
 3164SOL     OW39985   2.193   0.808  11.653
 3164SOL    HW139986   2.286   0.844  11.658
 3164SOL    HW239987   2.187   0.723  11.705
 3165SOL     OW39988   2.193   2.670  11.653
 3165SOL    HW139989   2.286   2.706  11.658
 3165SOL    HW239990   2.187   2.585  11.705
 3166SOL     OW39991   2.193   4.532  11.653
 3166SOL    HW139992   2.286   4.568  11.658
 3166SOL    HW239993   2.187   4.447  11.705
 3167SOL     OW39994   2.193   6.394  11.653
 3167SOL    HW139995   2.286   6.430  11.658
 3167SOL    HW239996   2.187   6.309  11.705
 3168SOL     OW39997   4.055   0.808  11.653
 3168SOL    HW139998   4.148   0.844  11.658
 3168SOL    HW239999   4.049   0.723  11.705
 3169SOL     OW40000   4.055   2.670  11.653
 3169SOL    HW140001   4.148   2.706  11.658
 3169SOL    HW240002   4.049   2.585  11.705
 3170SOL     OW40003   4.055   4.532  11.653
 3170SOL    HW140004   4.148   4.568  11.658
 3170SOL    HW240005   4.049   4.447  11.705
 3171SOL     OW40006   4.055   6.394  11.653
 3171SOL    HW140007   4.148   6.430  11.658
 3171SOL    HW240008   4.049   6.309  11.705
 3172SOL     OW40009   5.917   0.808  11.653
 3172SOL    HW140010   6.010   0.844  11.658
 3172SOL    HW240011   5.911   0.723  11.705
 3173SOL     OW40012   5.917   2.670  11.653
 3173SOL    HW140013   6.010   2.706  11.658
 3173SOL    HW240014   5.911   2.585  11.705
 3174SOL     OW40015   5.917   4.532  11.653
 3174SOL    HW140016   6.010   4.568  11.658
 3174SOL    HW240017   5.911   4.447  11.705
 3175SOL     OW40018   5.917   6.394  11.653
 3175SOL    HW140019   6.010   6.430  11.658
 3175SOL    HW240020   5.911   6.309  11.705
 3176SOL     OW40021   1.293   0.343  11.648
 3176SOL    HW140022   1.207   0.293  11.635
 3176SOL    HW240023   1.355   0.289  11.704
 3177SOL     OW40024   1.293   2.205  11.648
 3177SOL    HW140025   1.207   2.155  11.635
 3177SOL    HW240026   1.355   2.151  11.704
 3178SOL     OW40027   1.293   4.067  11.648
 3178SOL    HW140028   1.207   4.017  11.635
 3178SOL    HW240029   1.355   4.013  11.704
 3179SOL     OW40030   1.293   5.929  11.648
 3179SOL    HW140031   1.207   5.879  11.635
 3179SOL    HW240032   1.355   5.875  11.704
 3180SOL     OW40033   3.155   0.343  11.648
 3180SOL    HW140034   3.069   0.293  11.635
 3180SOL    HW240035   3.217   0.289  11.704
 3181SOL     OW40036   3.155   2.205  11.648
 3181SOL    HW140037   3.069   2.155  11.635
 3181SOL    HW240038   3.217   2.151  11.704
 3182SOL     OW40039   3.155   4.067  11.648
 3182SOL    HW140040   3.069   4.017  11.635
 3182SOL    HW240041   3.217   4.013  11.704
 3183SOL     OW40042   3.155   5.929  11.648
 3183SOL    HW140043   3.069   5.879  11.635
 3183SOL    HW240044   3.217   5.875  11.704
 3184SOL     OW40045   5.017   0.343  11.648
 3184SOL    HW140046   4.931   0.293  11.635
 3184SOL    HW240047   5.079   0.289  11.704
 3185SOL     OW40048   5.017   2.205  11.648
 3185SOL    HW140049   4.931   2.155  11.635
 3185SOL    HW240050   5.079   2.151  11.704
 3186SOL     OW40051   5.017   4.067  11.648
 3186SOL    HW140052   4.931   4.017  11.635
 3186SOL    HW240053   5.079   4.013  11.704
 3187SOL     OW40054   5.017   5.929  11.648
 3187SOL    HW140055   4.931   5.879  11.635
 3187SOL    HW240056   5.079   5.875  11.704
 3188SOL     OW40057   1.599   0.777   1.202
 3188SOL    HW140058   1.507   0.815   1.197
 3188SOL    HW240059   1.659   0.824   1.137
 3189SOL     OW40060   1.599   2.639   1.202
 3189SOL    HW140061   1.507   2.677   1.197
 3189SOL    HW240062   1.659   2.686   1.137
 3190SOL     OW40063   1.599   4.501   1.202
 3190SOL    HW140064   1.507   4.539   1.197
 3190SOL    HW240065   1.659   4.548   1.137
 3191SOL     OW40066   1.599   6.363   1.202
 3191SOL    HW140067   1.507   6.401   1.197
 3191SOL    HW240068   1.659   6.410   1.137
 3192SOL     OW40069   3.461   0.777   1.202
 3192SOL    HW140070   3.369   0.815   1.197
 3192SOL    HW240071   3.521   0.824   1.137
 3193SOL     OW40072   3.461   2.639   1.202
 3193SOL    HW140073   3.369   2.677   1.197
 3193SOL    HW240074   3.521   2.686   1.137
 3194SOL     OW40075   3.461   4.501   1.202
 3194SOL    HW140076   3.369   4.539   1.197
 3194SOL    HW240077   3.521   4.548   1.137
 3195SOL     OW40078   3.461   6.363   1.202
 3195SOL    HW140079   3.369   6.401   1.197
 3195SOL    HW240080   3.521   6.410   1.137
 3196SOL     OW40081   5.323   0.777   1.202
 3196SOL    HW140082   5.231   0.815   1.197
 3196SOL    HW240083   5.383   0.824   1.137
 3197SOL     OW40084   5.323   2.639   1.202
 3197SOL    HW140085   5.231   2.677   1.197
 3197SOL    HW240086   5.383   2.686   1.137
 3198SOL     OW40087   5.323   4.501   1.202
 3198SOL    HW140088   5.231   4.539   1.197
 3198SOL    HW240089   5.383   4.548   1.137
 3199SOL     OW40090   5.323   6.363   1.202
 3199SOL    HW140091   5.231   6.401   1.197
 3199SOL    HW240092   5.383   6.410   1.137
 3200SOL     OW40093   1.406   0.467   1.206
 3200SOL    HW140094   1.386   0.510   1.294
 3200SOL    HW240095   1.484   0.405   1.215
 3201SOL     OW40096   1.406   2.329   1.206
 3201SOL    HW140097   1.386   2.372   1.294
 3201SOL    HW240098   1.484   2.267   1.215
 3202SOL     OW40099   1.406   4.191   1.206
 3202SOL    HW140100   1.386   4.234   1.294
 3202SOL    HW240101   1.484   4.129   1.215
 3203SOL     OW40102   1.406   6.053   1.206
 3203SOL    HW140103   1.386   6.096   1.294
 3203SOL    HW240104   1.484   5.991   1.215
 3204SOL     OW40105   3.268   0.467   1.206
 3204SOL    HW140106   3.248   0.510   1.294
 3204SOL    HW240107   3.346   0.405   1.215
 3205SOL     OW40108   3.268   2.329   1.206
 3205SOL    HW140109   3.248   2.372   1.294
 3205SOL    HW240110   3.346   2.267   1.215
 3206SOL     OW40111   3.268   4.191   1.206
 3206SOL    HW140112   3.248   4.234   1.294
 3206SOL    HW240113   3.346   4.129   1.215
 3207SOL     OW40114   3.268   6.053   1.206
 3207SOL    HW140115   3.248   6.096   1.294
 3207SOL    HW240116   3.346   5.991   1.215
 3208SOL     OW40117   5.130   0.467   1.206
 3208SOL    HW140118   5.110   0.510   1.294
 3208SOL    HW240119   5.208   0.405   1.215
 3209SOL     OW40120   5.130   2.329   1.206
 3209SOL    HW140121   5.110   2.372   1.294
 3209SOL    HW240122   5.208   2.267   1.215
 3210SOL     OW40123   5.130   4.191   1.206
 3210SOL    HW140124   5.110   4.234   1.294
 3210SOL    HW240125   5.208   4.129   1.215
 3211SOL     OW40126   5.130   6.053   1.206
 3211SOL    HW140127   5.110   6.096   1.294
 3211SOL    HW240128   5.208   5.991   1.215
 3212SOL     OW40129   1.150   0.378   1.210
 3212SOL    HW140130   1.105   0.441   1.274
 3212SOL    HW240131   1.243   0.409   1.193
 3213SOL     OW40132   1.150   2.240   1.210
 3213SOL    HW140133   1.105   2.303   1.274
 3213SOL    HW240134   1.243   2.271   1.193
 3214SOL     OW40135   1.150   4.102   1.210
 3214SOL    HW140136   1.105   4.165   1.274
 3214SOL    HW240137   1.243   4.133   1.193
 3215SOL     OW40138   1.150   5.964   1.210
 3215SOL    HW140139   1.105   6.027   1.274
 3215SOL    HW240140   1.243   5.995   1.193
 3216SOL     OW40141   3.012   0.378   1.210
 3216SOL    HW140142   2.967   0.441   1.274
 3216SOL    HW240143   3.105   0.409   1.193
 3217SOL     OW40144   3.012   2.240   1.210
 3217SOL    HW140145   2.967   2.303   1.274
 3217SOL    HW240146   3.105   2.271   1.193
 3218SOL     OW40147   3.012   4.102   1.210
 3218SOL    HW140148   2.967   4.165   1.274
 3218SOL    HW240149   3.105   4.133   1.193
 3219SOL     OW40150   3.012   5.964   1.210
 3219SOL    HW140151   2.967   6.027   1.274
 3219SOL    HW240152   3.105   5.995   1.193
 3220SOL     OW40153   4.874   0.378   1.210
 3220SOL    HW140154   4.829   0.441   1.274
 3220SOL    HW240155   4.967   0.409   1.193
 3221SOL     OW40156   4.874   2.240   1.210
 3221SOL    HW140157   4.829   2.303   1.274
 3221SOL    HW240158   4.967   2.271   1.193
 3222SOL     OW40159   4.874   4.102   1.210
 3222SOL    HW140160   4.829   4.165   1.274
 3222SOL    HW240161   4.967   4.133   1.193
 3223SOL     OW40162   4.874   5.964   1.210
 3223SOL    HW140163   4.829   6.027   1.274
 3223SOL    HW240164   4.967   5.995   1.193
 3224SOL     OW40165   0.100   1.799  11.631
 3224SOL    HW140166   0.058   1.713  11.604
 3224SOL    HW240167   0.194   1.802  11.597
 3225SOL     OW40168   0.100   3.661  11.631
 3225SOL    HW140169   0.058   3.575  11.604
 3225SOL    HW240170   0.194   3.664  11.597
 3226SOL     OW40171   0.100   5.523  11.631
 3226SOL    HW140172   0.058   5.437  11.604
 3226SOL    HW240173   0.194   5.526  11.597
 3227SOL     OW40174   1.962   1.799  11.631
 3227SOL    HW140175   1.920   1.713  11.604
 3227SOL    HW240176   2.056   1.802  11.597
 3228SOL     OW40177   1.962   3.661  11.631
 3228SOL    HW140178   1.920   3.575  11.604
 3228SOL    HW240179   2.056   3.664  11.597
 3229SOL     OW40180   1.962   5.523  11.631
 3229SOL    HW140181   1.920   5.437  11.604
 3229SOL    HW240182   2.056   5.526  11.597
 3230SOL     OW40183   3.824   1.799  11.631
 3230SOL    HW140184   3.782   1.713  11.604
 3230SOL    HW240185   3.918   1.802  11.597
 3231SOL     OW40186   3.824   3.661  11.631
 3231SOL    HW140187   3.782   3.575  11.604
 3231SOL    HW240188   3.918   3.664  11.597
 3232SOL     OW40189   3.824   5.523  11.631
 3232SOL    HW140190   3.782   5.437  11.604
 3232SOL    HW240191   3.918   5.526  11.597
 3233SOL     OW40192   5.686   1.799  11.631
 3233SOL    HW140193   5.644   1.713  11.604
 3233SOL    HW240194   5.780   1.802  11.597
 3234SOL     OW40195   5.686   3.661  11.631
 3234SOL    HW140196   5.644   3.575  11.604
 3234SOL    HW240197   5.780   3.664  11.597
 3235SOL     OW40198   5.686   5.523  11.631
 3235SOL    HW140199   5.644   5.437  11.604
 3235SOL    HW240200   5.780   5.526  11.597
 3236SOL     OW40201   0.815   1.400  11.628
 3236SOL    HW140202   0.905   1.414  11.586
 3236SOL    HW240203   0.744   1.402  11.557
 3237SOL     OW40204   0.815   3.262  11.628
 3237SOL    HW140205   0.905   3.276  11.586
 3237SOL    HW240206   0.744   3.264  11.557
 3238SOL     OW40207   0.815   5.124  11.628
 3238SOL    HW140208   0.905   5.138  11.586
 3238SOL    HW240209   0.744   5.126  11.557
 3239SOL     OW40210   2.677   1.400  11.628
 3239SOL    HW140211   2.767   1.414  11.586
 3239SOL    HW240212   2.606   1.402  11.557
 3240SOL     OW40213   2.677   3.262  11.628
 3240SOL    HW140214   2.767   3.276  11.586
 3240SOL    HW240215   2.606   3.264  11.557
 3241SOL     OW40216   2.677   5.124  11.628
 3241SOL    HW140217   2.767   5.138  11.586
 3241SOL    HW240218   2.606   5.126  11.557
 3242SOL     OW40219   4.539   1.400  11.628
 3242SOL    HW140220   4.629   1.414  11.586
 3242SOL    HW240221   4.468   1.402  11.557
 3243SOL     OW40222   4.539   3.262  11.628
 3243SOL    HW140223   4.629   3.276  11.586
 3243SOL    HW240224   4.468   3.264  11.557
 3244SOL     OW40225   4.539   5.124  11.628
 3244SOL    HW140226   4.629   5.138  11.586
 3244SOL    HW240227   4.468   5.126  11.557
 3245SOL     OW40228   6.401   1.400  11.628
 3245SOL    HW140229   0.041   1.414  11.586
 3245SOL    HW240230   6.330   1.402  11.557
 3246SOL     OW40231   6.401   3.262  11.628
 3246SOL    HW140232   0.041   3.276  11.586
 3246SOL    HW240233   6.330   3.264  11.557
 3247SOL     OW40234   6.401   5.124  11.628
 3247SOL    HW140235   0.041   5.138  11.586
 3247SOL    HW240236   6.330   5.126  11.557
 3248SOL     OW40237   1.139   1.339   1.222
 3248SOL    HW140238   1.186   1.339   1.310
 3248SOL    HW240239   1.091   1.252   1.211
 3249SOL     OW40240   1.139   3.201   1.222
 3249SOL    HW140241   1.186   3.201   1.310
 3249SOL    HW240242   1.091   3.114   1.211
 3250SOL     OW40243   1.139   5.063   1.222
 3250SOL    HW140244   1.186   5.063   1.310
 3250SOL    HW240245   1.091   4.976   1.211
 3251SOL     OW40246   3.001   1.339   1.222
 3251SOL    HW140247   3.048   1.339   1.310
 3251SOL    HW240248   2.953   1.252   1.211
 3252SOL     OW40249   3.001   3.201   1.222
 3252SOL    HW140250   3.048   3.201   1.310
 3252SOL    HW240251   2.953   3.114   1.211
 3253SOL     OW40252   3.001   5.063   1.222
 3253SOL    HW140253   3.048   5.063   1.310
 3253SOL    HW240254   2.953   4.976   1.211
 3254SOL     OW40255   4.863   1.339   1.222
 3254SOL    HW140256   4.910   1.339   1.310
 3254SOL    HW240257   4.815   1.252   1.211
 3255SOL     OW40258   4.863   3.201   1.222
 3255SOL    HW140259   4.910   3.201   1.310
 3255SOL    HW240260   4.815   3.114   1.211
 3256SOL     OW40261   4.863   5.063   1.222
 3256SOL    HW140262   4.910   5.063   1.310
 3256SOL    HW240263   4.815   4.976   1.211
 3257SOL     OW40264   0.516   1.566  11.614
 3257SOL    HW140265   0.582   1.640  11.623
 3257SOL    HW240266   0.560   1.487  11.572
 3258SOL     OW40267   0.516   3.428  11.614
 3258SOL    HW140268   0.582   3.502  11.623
 3258SOL    HW240269   0.560   3.349  11.572
 3259SOL     OW40270   0.516   5.290  11.614
 3259SOL    HW140271   0.582   5.364  11.623
 3259SOL    HW240272   0.560   5.211  11.572
 3260SOL     OW40273   2.378   1.566  11.614
 3260SOL    HW140274   2.444   1.640  11.623
 3260SOL    HW240275   2.422   1.487  11.572
 3261SOL     OW40276   2.378   3.428  11.614
 3261SOL    HW140277   2.444   3.502  11.623
 3261SOL    HW240278   2.422   3.349  11.572
 3262SOL     OW40279   2.378   5.290  11.614
 3262SOL    HW140280   2.444   5.364  11.623
 3262SOL    HW240281   2.422   5.211  11.572
 3263SOL     OW40282   4.240   1.566  11.614
 3263SOL    HW140283   4.306   1.640  11.623
 3263SOL    HW240284   4.284   1.487  11.572
 3264SOL     OW40285   4.240   3.428  11.614
 3264SOL    HW140286   4.306   3.502  11.623
 3264SOL    HW240287   4.284   3.349  11.572
 3265SOL     OW40288   4.240   5.290  11.614
 3265SOL    HW140289   4.306   5.364  11.623
 3265SOL    HW240290   4.284   5.211  11.572
 3266SOL     OW40291   6.102   1.566  11.614
 3266SOL    HW140292   6.168   1.640  11.623
 3266SOL    HW240293   6.146   1.487  11.572
 3267SOL     OW40294   6.102   3.428  11.614
 3267SOL    HW140295   6.168   3.502  11.623
 3267SOL    HW240296   6.146   3.349  11.572
 3268SOL     OW40297   6.102   5.290  11.614
 3268SOL    HW140298   6.168   5.364  11.623
 3268SOL    HW240299   6.146   5.211  11.572
 3269SOL     OW40300   0.992   1.571   1.232
 3269SOL    HW140301   0.972   1.615   1.144
 3269SOL    HW240302   1.031   1.480   1.216
 3270SOL     OW40303   0.992   3.433   1.232
 3270SOL    HW140304   0.972   3.477   1.144
 3270SOL    HW240305   1.031   3.342   1.216
 3271SOL     OW40306   0.992   5.295   1.232
 3271SOL    HW140307   0.972   5.339   1.144
 3271SOL    HW240308   1.031   5.204   1.216
 3272SOL     OW40309   2.854   1.571   1.232
 3272SOL    HW140310   2.834   1.615   1.144
 3272SOL    HW240311   2.893   1.480   1.216
 3273SOL     OW40312   2.854   3.433   1.232
 3273SOL    HW140313   2.834   3.477   1.144
 3273SOL    HW240314   2.893   3.342   1.216
 3274SOL     OW40315   2.854   5.295   1.232
 3274SOL    HW140316   2.834   5.339   1.144
 3274SOL    HW240317   2.893   5.204   1.216
 3275SOL     OW40318   4.716   1.571   1.232
 3275SOL    HW140319   4.696   1.615   1.144
 3275SOL    HW240320   4.755   1.480   1.216
 3276SOL     OW40321   4.716   3.433   1.232
 3276SOL    HW140322   4.696   3.477   1.144
 3276SOL    HW240323   4.755   3.342   1.216
 3277SOL     OW40324   4.716   5.295   1.232
 3277SOL    HW140325   4.696   5.339   1.144
 3277SOL    HW240326   4.755   5.204   1.216
 3278SOL     OW40327   0.952   1.696  11.608
 3278SOL    HW140328   1.032   1.639  11.629
 3278SOL    HW240329   0.903   1.656  11.531
 3279SOL     OW40330   0.952   3.558  11.608
 3279SOL    HW140331   1.032   3.501  11.629
 3279SOL    HW240332   0.903   3.518  11.531
 3280SOL     OW40333   0.952   5.420  11.608
 3280SOL    HW140334   1.032   5.363  11.629
 3280SOL    HW240335   0.903   5.380  11.531
 3281SOL     OW40336   2.814   1.696  11.608
 3281SOL    HW140337   2.894   1.639  11.629
 3281SOL    HW240338   2.765   1.656  11.531
 3282SOL     OW40339   2.814   3.558  11.608
 3282SOL    HW140340   2.894   3.501  11.629
 3282SOL    HW240341   2.765   3.518  11.531
 3283SOL     OW40342   2.814   5.420  11.608
 3283SOL    HW140343   2.894   5.363  11.629
 3283SOL    HW240344   2.765   5.380  11.531
 3284SOL     OW40345   4.676   1.696  11.608
 3284SOL    HW140346   4.756   1.639  11.629
 3284SOL    HW240347   4.627   1.656  11.531
 3285SOL     OW40348   4.676   3.558  11.608
 3285SOL    HW140349   4.756   3.501  11.629
 3285SOL    HW240350   4.627   3.518  11.531
 3286SOL     OW40351   4.676   5.420  11.608
 3286SOL    HW140352   4.756   5.363  11.629
 3286SOL    HW240353   4.627   5.380  11.531
 3287SOL     OW40354   0.728   0.563   1.240
 3287SOL    HW140355   0.747   0.628   1.314
 3287SOL    HW240356   0.788   0.483   1.249
 3288SOL     OW40357   0.728   2.425   1.240
 3288SOL    HW140358   0.747   2.490   1.314
 3288SOL    HW240359   0.788   2.345   1.249
 3289SOL     OW40360   0.728   4.287   1.240
 3289SOL    HW140361   0.747   4.352   1.314
 3289SOL    HW240362   0.788   4.207   1.249
 3290SOL     OW40363   0.728   6.149   1.240
 3290SOL    HW140364   0.747   6.214   1.314
 3290SOL    HW240365   0.788   6.069   1.249
 3291SOL     OW40366   2.590   0.563   1.240
 3291SOL    HW140367   2.609   0.628   1.314
 3291SOL    HW240368   2.650   0.483   1.249
 3292SOL     OW40369   2.590   2.425   1.240
 3292SOL    HW140370   2.609   2.490   1.314
 3292SOL    HW240371   2.650   2.345   1.249
 3293SOL     OW40372   2.590   4.287   1.240
 3293SOL    HW140373   2.609   4.352   1.314
 3293SOL    HW240374   2.650   4.207   1.249
 3294SOL     OW40375   2.590   6.149   1.240
 3294SOL    HW140376   2.609   6.214   1.314
 3294SOL    HW240377   2.650   6.069   1.249
 3295SOL     OW40378   4.452   0.563   1.240
 3295SOL    HW140379   4.471   0.628   1.314
 3295SOL    HW240380   4.512   0.483   1.249
 3296SOL     OW40381   4.452   2.425   1.240
 3296SOL    HW140382   4.471   2.490   1.314
 3296SOL    HW240383   4.512   2.345   1.249
 3297SOL     OW40384   4.452   4.287   1.240
 3297SOL    HW140385   4.471   4.352   1.314
 3297SOL    HW240386   4.512   4.207   1.249
 3298SOL     OW40387   4.452   6.149   1.240
 3298SOL    HW140388   4.471   6.214   1.314
 3298SOL    HW240389   4.512   6.069   1.249
 3299SOL     OW40390   6.314   0.563   1.240
 3299SOL    HW140391   6.333   0.628   1.314
 3299SOL    HW240392   6.374   0.483   1.249
 3300SOL     OW40393   6.314   2.425   1.240
 3300SOL    HW140394   6.333   2.490   1.314
 3300SOL    HW240395   6.374   2.345   1.249
 3301SOL     OW40396   6.314   4.287   1.240
 3301SOL    HW140397   6.333   4.352   1.314
 3301SOL    HW240398   6.374   4.207   1.249
 3302SOL     OW40399   6.314   6.149   1.240
 3302SOL    HW140400   6.333   6.214   1.314
 3302SOL    HW240401   6.374   6.069   1.249
 3303SOL     OW40402   0.934   0.501  11.603
 3303SOL    HW140403   0.909   0.492  11.507
 3303SOL    HW240404   0.982   0.419  11.634
 3304SOL     OW40405   0.934   2.363  11.603
 3304SOL    HW140406   0.909   2.354  11.507
 3304SOL    HW240407   0.982   2.281  11.634
 3305SOL     OW40408   0.934   4.225  11.603
 3305SOL    HW140409   0.909   4.216  11.507
 3305SOL    HW240410   0.982   4.143  11.634
 3306SOL     OW40411   0.934   6.087  11.603
 3306SOL    HW140412   0.909   6.078  11.507
 3306SOL    HW240413   0.982   6.005  11.634
 3307SOL     OW40414   2.796   0.501  11.603
 3307SOL    HW140415   2.771   0.492  11.507
 3307SOL    HW240416   2.844   0.419  11.634
 3308SOL     OW40417   2.796   2.363  11.603
 3308SOL    HW140418   2.771   2.354  11.507
 3308SOL    HW240419   2.844   2.281  11.634
 3309SOL     OW40420   2.796   4.225  11.603
 3309SOL    HW140421   2.771   4.216  11.507
 3309SOL    HW240422   2.844   4.143  11.634
 3310SOL     OW40423   2.796   6.087  11.603
 3310SOL    HW140424   2.771   6.078  11.507
 3310SOL    HW240425   2.844   6.005  11.634
 3311SOL     OW40426   4.658   0.501  11.603
 3311SOL    HW140427   4.633   0.492  11.507
 3311SOL    HW240428   4.706   0.419  11.634
 3312SOL     OW40429   4.658   2.363  11.603
 3312SOL    HW140430   4.633   2.354  11.507
 3312SOL    HW240431   4.706   2.281  11.634
 3313SOL     OW40432   4.658   4.225  11.603
 3313SOL    HW140433   4.633   4.216  11.507
 3313SOL    HW240434   4.706   4.143  11.634
 3314SOL     OW40435   4.658   6.087  11.603
 3314SOL    HW140436   4.633   6.078  11.507
 3314SOL    HW240437   4.706   6.005  11.634
 3315SOL     OW40438   0.070   0.501  11.603
 3315SOL    HW140439   0.045   0.492  11.507
 3315SOL    HW240440   0.118   0.419  11.634
 3316SOL     OW40441   0.070   2.363  11.603
 3316SOL    HW140442   0.045   2.354  11.507
 3316SOL    HW240443   0.118   2.281  11.634
 3317SOL     OW40444   0.070   4.225  11.603
 3317SOL    HW140445   0.045   4.216  11.507
 3317SOL    HW240446   0.118   4.143  11.634
 3318SOL     OW40447   0.070   6.087  11.603
 3318SOL    HW140448   0.045   6.078  11.507
 3318SOL    HW240449   0.118   6.005  11.634
 3319SOL     OW40450   0.700   1.660   1.248
 3319SOL    HW140451   0.644   1.741   1.257
 3319SOL    HW240452   0.752   1.664   1.162
 3320SOL     OW40453   0.700   3.522   1.248
 3320SOL    HW140454   0.644   3.603   1.257
 3320SOL    HW240455   0.752   3.526   1.162
 3321SOL     OW40456   0.700   5.384   1.248
 3321SOL    HW140457   0.644   5.465   1.257
 3321SOL    HW240458   0.752   5.388   1.162
 3322SOL     OW40459   2.562   1.660   1.248
 3322SOL    HW140460   2.506   1.741   1.257
 3322SOL    HW240461   2.614   1.664   1.162
 3323SOL     OW40462   2.562   3.522   1.248
 3323SOL    HW140463   2.506   3.603   1.257
 3323SOL    HW240464   2.614   3.526   1.162
 3324SOL     OW40465   2.562   5.384   1.248
 3324SOL    HW140466   2.506   5.465   1.257
 3324SOL    HW240467   2.614   5.388   1.162
 3325SOL     OW40468   4.424   1.660   1.248
 3325SOL    HW140469   4.368   1.741   1.257
 3325SOL    HW240470   4.476   1.664   1.162
 3326SOL     OW40471   4.424   3.522   1.248
 3326SOL    HW140472   4.368   3.603   1.257
 3326SOL    HW240473   4.476   3.526   1.162
 3327SOL     OW40474   4.424   5.384   1.248
 3327SOL    HW140475   4.368   5.465   1.257
 3327SOL    HW240476   4.476   5.388   1.162
 3328SOL     OW40477   6.286   1.660   1.248
 3328SOL    HW140478   6.230   1.741   1.257
 3328SOL    HW240479   6.338   1.664   1.162
 3329SOL     OW40480   6.286   3.522   1.248
 3329SOL    HW140481   6.230   3.603   1.257
 3329SOL    HW240482   6.338   3.526   1.162
 3330SOL     OW40483   6.286   5.384   1.248
 3330SOL    HW140484   6.230   5.465   1.257
 3330SOL    HW240485   6.338   5.388   1.162
 3331SOL     OW40486   0.992   1.114   1.251
 3331SOL    HW140487   0.893   1.120   1.261
 3331SOL    HW240488   1.015   1.034   1.195
 3332SOL     OW40489   0.992   2.976   1.251
 3332SOL    HW140490   0.893   2.982   1.261
 3332SOL    HW240491   1.015   2.896   1.195
 3333SOL     OW40492   0.992   4.838   1.251
 3333SOL    HW140493   0.893   4.844   1.261
 3333SOL    HW240494   1.015   4.758   1.195
 3334SOL     OW40495   2.854   1.114   1.251
 3334SOL    HW140496   2.755   1.120   1.261
 3334SOL    HW240497   2.877   1.034   1.195
 3335SOL     OW40498   2.854   2.976   1.251
 3335SOL    HW140499   2.755   2.982   1.261
 3335SOL    HW240500   2.877   2.896   1.195
 3336SOL     OW40501   2.854   4.838   1.251
 3336SOL    HW140502   2.755   4.844   1.261
 3336SOL    HW240503   2.877   4.758   1.195
 3337SOL     OW40504   4.716   1.114   1.251
 3337SOL    HW140505   4.617   1.120   1.261
 3337SOL    HW240506   4.739   1.034   1.195
 3338SOL     OW40507   4.716   2.976   1.251
 3338SOL    HW140508   4.617   2.982   1.261
 3338SOL    HW240509   4.739   2.896   1.195
 3339SOL     OW40510   4.716   4.838   1.251
 3339SOL    HW140511   4.617   4.844   1.261
 3339SOL    HW240512   4.739   4.758   1.195
 3340SOL     OW40513   0.201   0.518   1.254
 3340SOL    HW140514   0.260   0.478   1.184
 3340SOL    HW240515   0.143   0.589   1.213
 3341SOL     OW40516   0.201   2.380   1.254
 3341SOL    HW140517   0.260   2.340   1.184
 3341SOL    HW240518   0.143   2.451   1.213
 3342SOL     OW40519   0.201   4.242   1.254
 3342SOL    HW140520   0.260   4.202   1.184
 3342SOL    HW240521   0.143   4.313   1.213
 3343SOL     OW40522   0.201   6.104   1.254
 3343SOL    HW140523   0.260   6.064   1.184
 3343SOL    HW240524   0.143   6.175   1.213
 3344SOL     OW40525   2.063   0.518   1.254
 3344SOL    HW140526   2.122   0.478   1.184
 3344SOL    HW240527   2.005   0.589   1.213
 3345SOL     OW40528   2.063   2.380   1.254
 3345SOL    HW140529   2.122   2.340   1.184
 3345SOL    HW240530   2.005   2.451   1.213
 3346SOL     OW40531   2.063   4.242   1.254
 3346SOL    HW140532   2.122   4.202   1.184
 3346SOL    HW240533   2.005   4.313   1.213
 3347SOL     OW40534   2.063   6.104   1.254
 3347SOL    HW140535   2.122   6.064   1.184
 3347SOL    HW240536   2.005   6.175   1.213
 3348SOL     OW40537   3.925   0.518   1.254
 3348SOL    HW140538   3.984   0.478   1.184
 3348SOL    HW240539   3.867   0.589   1.213
 3349SOL     OW40540   3.925   4.242   1.254
 3349SOL    HW140541   3.984   4.202   1.184
 3349SOL    HW240542   3.867   4.313   1.213
 3350SOL     OW40543   3.925   6.104   1.254
 3350SOL    HW140544   3.984   6.064   1.184
 3350SOL    HW240545   3.867   6.175   1.213
 3351SOL     OW40546   5.787   0.518   1.254
 3351SOL    HW140547   5.846   0.478   1.184
 3351SOL    HW240548   5.729   0.589   1.213
 3352SOL     OW40549   5.787   2.380   1.254
 3352SOL    HW140550   5.846   2.340   1.184
 3352SOL    HW240551   5.729   2.451   1.213
 3353SOL     OW40552   5.787   4.242   1.254
 3353SOL    HW140553   5.846   4.202   1.184
 3353SOL    HW240554   5.729   4.313   1.213
 3354SOL     OW40555   5.787   6.104   1.254
 3354SOL    HW140556   5.846   6.064   1.184
 3354SOL    HW240557   5.729   6.175   1.213
 3355SOL     OW40558   0.252   1.089  11.590
 3355SOL    HW140559   0.266   1.005  11.642
 3355SOL    HW240560   0.197   1.153  11.645
 3356SOL     OW40561   0.252   2.951  11.590
 3356SOL    HW140562   0.266   2.867  11.642
 3356SOL    HW240563   0.197   3.015  11.645
 3357SOL     OW40564   0.252   4.813  11.590
 3357SOL    HW140565   0.266   4.729  11.642
 3357SOL    HW240566   0.197   4.877  11.645
 3358SOL     OW40567   2.114   1.089  11.590
 3358SOL    HW140568   2.128   1.005  11.642
 3358SOL    HW240569   2.059   1.153  11.645
 3359SOL     OW40570   2.114   2.951  11.590
 3359SOL    HW140571   2.128   2.867  11.642
 3359SOL    HW240572   2.059   3.015  11.645
 3360SOL     OW40573   2.114   4.813  11.590
 3360SOL    HW140574   2.128   4.729  11.642
 3360SOL    HW240575   2.059   4.877  11.645
 3361SOL     OW40576   3.976   1.089  11.590
 3361SOL    HW140577   3.990   1.005  11.642
 3361SOL    HW240578   3.921   1.153  11.645
 3362SOL     OW40579   3.976   2.951  11.590
 3362SOL    HW140580   3.990   2.867  11.642
 3362SOL    HW240581   3.921   3.015  11.645
 3363SOL     OW40582   3.976   4.813  11.590
 3363SOL    HW140583   3.990   4.729  11.642
 3363SOL    HW240584   3.921   4.877  11.645
 3364SOL     OW40585   5.838   1.089  11.590
 3364SOL    HW140586   5.852   1.005  11.642
 3364SOL    HW240587   5.783   1.153  11.645
 3365SOL     OW40588   5.838   2.951  11.590
 3365SOL    HW140589   5.852   2.867  11.642
 3365SOL    HW240590   5.783   3.015  11.645
 3366SOL     OW40591   5.838   4.813  11.590
 3366SOL    HW140592   5.852   4.729  11.642
 3366SOL    HW240593   5.783   4.877  11.645
 3367SOL     OW40594   0.562   0.194  11.589
 3367SOL    HW140595   0.557   0.189  11.689
 3367SOL    HW240596   0.564   0.290  11.560
 3368SOL     OW40597   0.562   2.056  11.589
 3368SOL    HW140598   0.557   2.051  11.689
 3368SOL    HW240599   0.564   2.152  11.560
 3369SOL     OW40600   0.562   3.918  11.589
 3369SOL    HW140601   0.557   3.913  11.689
 3369SOL    HW240602   0.564   4.014  11.560
 3370SOL     OW40603   0.562   5.780  11.589
 3370SOL    HW140604   0.557   5.775  11.689
 3370SOL    HW240605   0.564   5.876  11.560
 3371SOL     OW40606   2.424   0.194  11.589
 3371SOL    HW140607   2.419   0.189  11.689
 3371SOL    HW240608   2.426   0.290  11.560
 3372SOL     OW40609   2.424   2.056  11.589
 3372SOL    HW140610   2.419   2.051  11.689
 3372SOL    HW240611   2.426   2.152  11.560
 3373SOL     OW40612   2.424   3.918  11.589
 3373SOL    HW140613   2.419   3.913  11.689
 3373SOL    HW240614   2.426   4.014  11.560
 3374SOL     OW40615   2.424   5.780  11.589
 3374SOL    HW140616   2.419   5.775  11.689
 3374SOL    HW240617   2.426   5.876  11.560
 3375SOL     OW40618   4.286   0.194  11.589
 3375SOL    HW140619   4.281   0.189  11.689
 3375SOL    HW240620   4.288   0.290  11.560
 3376SOL     OW40621   4.286   2.056  11.589
 3376SOL    HW140622   4.281   2.051  11.689
 3376SOL    HW240623   4.288   2.152  11.560
 3377SOL     OW40624   4.286   3.918  11.589
 3377SOL    HW140625   4.281   3.913  11.689
 3377SOL    HW240626   4.288   4.014  11.560
 3378SOL     OW40627   4.286   5.780  11.589
 3378SOL    HW140628   4.281   5.775  11.689
 3378SOL    HW240629   4.288   5.876  11.560
 3379SOL     OW40630   6.148   0.194  11.589
 3379SOL    HW140631   6.143   0.189  11.689
 3379SOL    HW240632   6.150   0.290  11.560
 3380SOL     OW40633   6.148   2.056  11.589
 3380SOL    HW140634   6.143   2.051  11.689
 3380SOL    HW240635   6.150   2.152  11.560
 3381SOL     OW40636   6.148   3.918  11.589
 3381SOL    HW140637   6.143   3.913  11.689
 3381SOL    HW240638   6.150   4.014  11.560
 3382SOL     OW40639   6.148   5.780  11.589
 3382SOL    HW140640   6.143   5.775  11.689
 3382SOL    HW240641   6.150   5.876  11.560
 3383SOL     OW40642   0.117   1.011   1.258
 3383SOL    HW140643   0.040   0.978   1.312
 3383SOL    HW240644   0.202   0.981   1.300
 3384SOL     OW40645   0.117   2.873   1.258
 3384SOL    HW140646   0.040   2.840   1.312
 3384SOL    HW240647   0.202   2.843   1.300
 3385SOL     OW40648   0.117   4.735   1.258
 3385SOL    HW140649   0.040   4.702   1.312
 3385SOL    HW240650   0.202   4.705   1.300
 3386SOL     OW40651   0.117   0.147   1.258
 3386SOL    HW140652   0.040   0.114   1.312
 3386SOL    HW240653   0.202   0.117   1.300
 3387SOL     OW40654   1.979   1.011   1.258
 3387SOL    HW140655   1.902   0.978   1.312
 3387SOL    HW240656   2.064   0.981   1.300
 3388SOL     OW40657   1.979   2.873   1.258
 3388SOL    HW140658   1.902   2.840   1.312
 3388SOL    HW240659   2.064   2.843   1.300
 3389SOL     OW40660   1.979   4.735   1.258
 3389SOL    HW140661   1.902   4.702   1.312
 3389SOL    HW240662   2.064   4.705   1.300
 3390SOL     OW40663   1.979   0.147   1.258
 3390SOL    HW140664   1.902   0.114   1.312
 3390SOL    HW240665   2.064   0.117   1.300
 3391SOL     OW40666   3.841   1.011   1.258
 3391SOL    HW140667   3.764   0.978   1.312
 3391SOL    HW240668   3.926   0.981   1.300
 3392SOL     OW40669   3.841   2.873   1.258
 3392SOL    HW140670   3.764   2.840   1.312
 3392SOL    HW240671   3.926   2.843   1.300
 3393SOL     OW40672   3.841   4.735   1.258
 3393SOL    HW140673   3.764   4.702   1.312
 3393SOL    HW240674   3.926   4.705   1.300
 3394SOL     OW40675   3.841   0.147   1.258
 3394SOL    HW140676   3.764   0.114   1.312
 3394SOL    HW240677   3.926   0.117   1.300
 3395SOL     OW40678   5.703   1.011   1.258
 3395SOL    HW140679   5.626   0.978   1.312
 3395SOL    HW240680   5.788   0.981   1.300
 3396SOL     OW40681   5.703   2.873   1.258
 3396SOL    HW140682   5.626   2.840   1.312
 3396SOL    HW240683   5.788   2.843   1.300
 3397SOL     OW40684   5.703   4.735   1.258
 3397SOL    HW140685   5.626   4.702   1.312
 3397SOL    HW240686   5.788   4.705   1.300
 3398SOL     OW40687   5.703   0.147   1.258
 3398SOL    HW140688   5.626   0.114   1.312
 3398SOL    HW240689   5.788   0.117   1.300
 3399SOL     OW40690   0.473   1.264   1.259
 3399SOL    HW140691   0.423   1.265   1.173
 3399SOL    HW240692   0.410   1.246   1.335
 3400SOL     OW40693   0.473   3.126   1.259
 3400SOL    HW140694   0.423   3.127   1.173
 3400SOL    HW240695   0.410   3.108   1.335
 3401SOL     OW40696   2.335   1.264   1.259
 3401SOL    HW140697   2.285   1.265   1.173
 3401SOL    HW240698   2.272   1.246   1.335
 3402SOL     OW40699   2.335   3.126   1.259
 3402SOL    HW140700   2.285   3.127   1.173
 3402SOL    HW240701   2.272   3.108   1.335
 3403SOL     OW40702   2.335   4.988   1.259
 3403SOL    HW140703   2.285   4.989   1.173
 3403SOL    HW240704   2.272   4.970   1.335
 3404SOL     OW40705   4.197   1.264   1.259
 3404SOL    HW140706   4.147   1.265   1.173
 3404SOL    HW240707   4.134   1.246   1.335
 3405SOL     OW40708   4.197   3.126   1.259
 3405SOL    HW140709   4.147   3.127   1.173
 3405SOL    HW240710   4.134   3.108   1.335
 3406SOL     OW40711   4.197   4.988   1.259
 3406SOL    HW140712   4.147   4.989   1.173
 3406SOL    HW240713   4.134   4.970   1.335
 3407SOL     OW40714   6.059   1.264   1.259
 3407SOL    HW140715   6.009   1.265   1.173
 3407SOL    HW240716   5.996   1.246   1.335
 3408SOL     OW40717   6.059   3.126   1.259
 3408SOL    HW140718   6.009   3.127   1.173
 3408SOL    HW240719   5.996   3.108   1.335
 3409SOL     OW40720   6.059   4.988   1.259
 3409SOL    HW140721   6.009   4.989   1.173
 3409SOL    HW240722   5.996   4.970   1.335
 3410SOL     OW40723   1.605   0.219  11.586
 3410SOL    HW140724   1.521   0.218  11.640
 3410SOL    HW240725   1.607   0.302  11.530
 3411SOL     OW40726   1.605   2.081  11.586
 3411SOL    HW140727   1.521   2.080  11.640
 3411SOL    HW240728   1.607   2.164  11.530
 3412SOL     OW40729   1.605   3.943  11.586
 3412SOL    HW140730   1.521   3.942  11.640
 3412SOL    HW240731   1.607   4.026  11.530
 3413SOL     OW40732   1.605   5.805  11.586
 3413SOL    HW140733   1.521   5.804  11.640
 3413SOL    HW240734   1.607   5.888  11.530
 3414SOL     OW40735   3.467   0.219  11.586
 3414SOL    HW140736   3.383   0.218  11.640
 3414SOL    HW240737   3.469   0.302  11.530
 3415SOL     OW40738   3.467   2.081  11.586
 3415SOL    HW140739   3.383   2.080  11.640
 3415SOL    HW240740   3.469   2.164  11.530
 3416SOL     OW40741   3.467   3.943  11.586
 3416SOL    HW140742   3.383   3.942  11.640
 3416SOL    HW240743   3.469   4.026  11.530
 3417SOL     OW40744   3.467   5.805  11.586
 3417SOL    HW140745   3.383   5.804  11.640
 3417SOL    HW240746   3.469   5.888  11.530
 3418SOL     OW40747   5.329   0.219  11.586
 3418SOL    HW140748   5.245   0.218  11.640
 3418SOL    HW240749   5.331   0.302  11.530
 3419SOL     OW40750   5.329   2.081  11.586
 3419SOL    HW140751   5.245   2.080  11.640
 3419SOL    HW240752   5.331   2.164  11.530
 3420SOL     OW40753   5.329   3.943  11.586
 3420SOL    HW140754   5.245   3.942  11.640
 3420SOL    HW240755   5.331   4.026  11.530
 3421SOL     OW40756   5.329   5.805  11.586
 3421SOL    HW140757   5.245   5.804  11.640
 3421SOL    HW240758   5.331   5.888  11.530
 3422SOL     OW40759   1.559   0.220   1.261
 3422SOL    HW140760   1.554   0.257   1.353
 3422SOL    HW240761   1.487   0.151   1.249
 3423SOL     OW40762   1.559   2.082   1.261
 3423SOL    HW140763   1.554   2.119   1.353
 3423SOL    HW240764   1.487   2.013   1.249
 3424SOL     OW40765   1.559   3.944   1.261
 3424SOL    HW140766   1.554   3.981   1.353
 3424SOL    HW240767   1.487   3.875   1.249
 3425SOL     OW40768   1.559   5.806   1.261
 3425SOL    HW140769   1.554   5.843   1.353
 3425SOL    HW240770   1.487   5.737   1.249
 3426SOL     OW40771   3.421   0.220   1.261
 3426SOL    HW140772   3.416   0.257   1.353
 3426SOL    HW240773   3.349   0.151   1.249
 3427SOL     OW40774   3.421   2.082   1.261
 3427SOL    HW140775   3.416   2.119   1.353
 3427SOL    HW240776   3.349   2.013   1.249
 3428SOL     OW40777   3.421   3.944   1.261
 3428SOL    HW140778   3.416   3.981   1.353
 3428SOL    HW240779   3.349   3.875   1.249
 3429SOL     OW40780   3.421   5.806   1.261
 3429SOL    HW140781   3.416   5.843   1.353
 3429SOL    HW240782   3.349   5.737   1.249
 3430SOL     OW40783   5.283   0.220   1.261
 3430SOL    HW140784   5.278   0.257   1.353
 3430SOL    HW240785   5.211   0.151   1.249
 3431SOL     OW40786   5.283   2.082   1.261
 3431SOL    HW140787   5.278   2.119   1.353
 3431SOL    HW240788   5.211   2.013   1.249
 3432SOL     OW40789   5.283   3.944   1.261
 3432SOL    HW140790   5.278   3.981   1.353
 3432SOL    HW240791   5.211   3.875   1.249
 3433SOL     OW40792   5.283   5.806   1.261
 3433SOL    HW140793   5.278   5.843   1.353
 3433SOL    HW240794   5.211   5.737   1.249
 3434SOL     OW40795   1.807   1.064  11.577
 3434SOL    HW140796   1.745   1.049  11.501
 3434SOL    HW240797   1.755   1.075  11.662
 3435SOL     OW40798   1.807   2.926  11.577
 3435SOL    HW140799   1.745   2.911  11.501
 3435SOL    HW240800   1.755   2.937  11.662
 3436SOL     OW40801   1.807   4.788  11.577
 3436SOL    HW140802   1.745   4.773  11.501
 3436SOL    HW240803   1.755   4.799  11.662
 3437SOL     OW40804   3.669   1.064  11.577
 3437SOL    HW140805   3.607   1.049  11.501
 3437SOL    HW240806   3.617   1.075  11.662
 3438SOL     OW40807   3.669   2.926  11.577
 3438SOL    HW140808   3.607   2.911  11.501
 3438SOL    HW240809   3.617   2.937  11.662
 3439SOL     OW40810   3.669   4.788  11.577
 3439SOL    HW140811   3.607   4.773  11.501
 3439SOL    HW240812   3.617   4.799  11.662
 3440SOL     OW40813   5.531   1.064  11.577
 3440SOL    HW140814   5.469   1.049  11.501
 3440SOL    HW240815   5.479   1.075  11.662
 3441SOL     OW40816   5.531   2.926  11.577
 3441SOL    HW140817   5.469   2.911  11.501
 3441SOL    HW240818   5.479   2.937  11.662
 3442SOL     OW40819   5.531   4.788  11.577
 3442SOL    HW140820   5.469   4.773  11.501
 3442SOL    HW240821   5.479   4.799  11.662
 3443SOL     OW40822   0.516   0.048   1.272
 3443SOL    HW140823   0.474   6.441   1.202
 3443SOL    HW240824   0.450   0.117   1.304
 3444SOL     OW40825   0.516   1.910   1.272
 3444SOL    HW140826   0.474   1.853   1.202
 3444SOL    HW240827   0.450   1.979   1.304
 3445SOL     OW40828   0.516   3.772   1.272
 3445SOL    HW140829   0.474   3.715   1.202
 3445SOL    HW240830   0.450   3.841   1.304
 3446SOL     OW40831   0.516   5.634   1.272
 3446SOL    HW140832   0.474   5.577   1.202
 3446SOL    HW240833   0.450   5.703   1.304
 3447SOL     OW40834   2.378   0.048   1.272
 3447SOL    HW140835   2.336   6.441   1.202
 3447SOL    HW240836   2.312   0.117   1.304
 3448SOL     OW40837   2.378   1.910   1.272
 3448SOL    HW140838   2.336   1.853   1.202
 3448SOL    HW240839   2.312   1.979   1.304
 3449SOL     OW40840   2.378   3.772   1.272
 3449SOL    HW140841   2.336   3.715   1.202
 3449SOL    HW240842   2.312   3.841   1.304
 3450SOL     OW40843   2.378   5.634   1.272
 3450SOL    HW140844   2.336   5.577   1.202
 3450SOL    HW240845   2.312   5.703   1.304
 3451SOL     OW40846   4.240   0.048   1.272
 3451SOL    HW140847   4.198   6.441   1.202
 3451SOL    HW240848   4.174   0.117   1.304
 3452SOL     OW40849   4.240   1.910   1.272
 3452SOL    HW140850   4.198   1.853   1.202
 3452SOL    HW240851   4.174   1.979   1.304
 3453SOL     OW40852   4.240   3.772   1.272
 3453SOL    HW140853   4.198   3.715   1.202
 3453SOL    HW240854   4.174   3.841   1.304
 3454SOL     OW40855   4.240   5.634   1.272
 3454SOL    HW140856   4.198   5.577   1.202
 3454SOL    HW240857   4.174   5.703   1.304
 3455SOL     OW40858   6.102   0.048   1.272
 3455SOL    HW140859   6.060   6.441   1.202
 3455SOL    HW240860   6.036   0.117   1.304
 3456SOL     OW40861   6.102   1.910   1.272
 3456SOL    HW140862   6.060   1.853   1.202
 3456SOL    HW240863   6.036   1.979   1.304
 3457SOL     OW40864   6.102   3.772   1.272
 3457SOL    HW140865   6.060   3.715   1.202
 3457SOL    HW240866   6.036   3.841   1.304
 3458SOL     OW40867   6.102   5.634   1.272
 3458SOL    HW140868   6.060   5.577   1.202
 3458SOL    HW240869   6.036   5.703   1.304
 3459SOL     OW40870   1.441   1.171  11.571
 3459SOL    HW140871   1.386   1.087  11.564
 3459SOL    HW240872   1.467   1.200  11.479
 3460SOL     OW40873   1.441   3.033  11.571
 3460SOL    HW140874   1.386   2.949  11.564
 3460SOL    HW240875   1.467   3.062  11.479
 3461SOL     OW40876   1.441   4.895  11.571
 3461SOL    HW140877   1.386   4.811  11.564
 3461SOL    HW240878   1.467   4.924  11.479
 3462SOL     OW40879   3.303   1.171  11.571
 3462SOL    HW140880   3.248   1.087  11.564
 3462SOL    HW240881   3.329   1.200  11.479
 3463SOL     OW40882   3.303   3.033  11.571
 3463SOL    HW140883   3.248   2.949  11.564
 3463SOL    HW240884   3.329   3.062  11.479
 3464SOL     OW40885   3.303   4.895  11.571
 3464SOL    HW140886   3.248   4.811  11.564
 3464SOL    HW240887   3.329   4.924  11.479
 3465SOL     OW40888   5.165   1.171  11.571
 3465SOL    HW140889   5.110   1.087  11.564
 3465SOL    HW240890   5.191   1.200  11.479
 3466SOL     OW40891   5.165   3.033  11.571
 3466SOL    HW140892   5.110   2.949  11.564
 3466SOL    HW240893   5.191   3.062  11.479
 3467SOL     OW40894   5.165   4.895  11.571
 3467SOL    HW140895   5.110   4.811  11.564
 3467SOL    HW240896   5.191   4.924  11.479
 3468SOL     OW40897   0.264   1.562   1.276
 3468SOL    HW140898   0.234   1.619   1.352
 3468SOL    HW240899   0.257   1.465   1.302
 3469SOL     OW40900   0.264   3.424   1.276
 3469SOL    HW140901   0.234   3.481   1.352
 3469SOL    HW240902   0.257   3.327   1.302
 3470SOL     OW40903   0.264   5.286   1.276
 3470SOL    HW140904   0.234   5.343   1.352
 3470SOL    HW240905   0.257   5.189   1.302
 3471SOL     OW40906   2.126   1.562   1.276
 3471SOL    HW140907   2.096   1.619   1.352
 3471SOL    HW240908   2.119   1.465   1.302
 3472SOL     OW40909   2.126   3.424   1.276
 3472SOL    HW140910   2.096   3.481   1.352
 3472SOL    HW240911   2.119   3.327   1.302
 3473SOL     OW40912   2.126   5.286   1.276
 3473SOL    HW140913   2.096   5.343   1.352
 3473SOL    HW240914   2.119   5.189   1.302
 3474SOL     OW40915   3.988   1.562   1.276
 3474SOL    HW140916   3.958   1.619   1.352
 3474SOL    HW240917   3.981   1.465   1.302
 3475SOL     OW40918   3.988   3.424   1.276
 3475SOL    HW140919   3.958   3.481   1.352
 3475SOL    HW240920   3.981   3.327   1.302
 3476SOL     OW40921   3.988   5.286   1.276
 3476SOL    HW140922   3.958   5.343   1.352
 3476SOL    HW240923   3.981   5.189   1.302
 3477SOL     OW40924   5.850   1.562   1.276
 3477SOL    HW140925   5.820   1.619   1.352
 3477SOL    HW240926   5.843   1.465   1.302
 3478SOL     OW40927   5.850   3.424   1.276
 3478SOL    HW140928   5.820   3.481   1.352
 3478SOL    HW240929   5.843   3.327   1.302
 3479SOL     OW40930   5.850   5.286   1.276
 3479SOL    HW140931   5.820   5.343   1.352
 3479SOL    HW240932   5.843   5.189   1.302
 3480SOL     OW40933   0.578   0.535  11.569
 3480SOL    HW140934   0.590   0.601  11.495
 3480SOL    HW240935   0.624   0.569  11.652
 3481SOL     OW40936   0.578   2.397  11.569
 3481SOL    HW140937   0.590   2.463  11.495
 3481SOL    HW240938   0.624   2.431  11.652
 3482SOL     OW40939   0.578   4.259  11.569
 3482SOL    HW140940   0.590   4.325  11.495
 3482SOL    HW240941   0.624   4.293  11.652
 3483SOL     OW40942   0.578   6.121  11.569
 3483SOL    HW140943   0.590   6.187  11.495
 3483SOL    HW240944   0.624   6.155  11.652
 3484SOL     OW40945   2.440   0.535  11.569
 3484SOL    HW140946   2.452   0.601  11.495
 3484SOL    HW240947   2.486   0.569  11.652
 3485SOL     OW40948   2.440   2.397  11.569
 3485SOL    HW140949   2.452   2.463  11.495
 3485SOL    HW240950   2.486   2.431  11.652
 3486SOL     OW40951   2.440   4.259  11.569
 3486SOL    HW140952   2.452   4.325  11.495
 3486SOL    HW240953   2.486   4.293  11.652
 3487SOL     OW40954   2.440   6.121  11.569
 3487SOL    HW140955   2.452   6.187  11.495
 3487SOL    HW240956   2.486   6.155  11.652
 3488SOL     OW40957   4.302   0.535  11.569
 3488SOL    HW140958   4.314   0.601  11.495
 3488SOL    HW240959   4.348   0.569  11.652
 3489SOL     OW40960   4.302   2.397  11.569
 3489SOL    HW140961   4.314   2.463  11.495
 3489SOL    HW240962   4.348   2.431  11.652
 3490SOL     OW40963   4.302   4.259  11.569
 3490SOL    HW140964   4.314   4.325  11.495
 3490SOL    HW240965   4.348   4.293  11.652
 3491SOL     OW40966   4.302   6.121  11.569
 3491SOL    HW140967   4.314   6.187  11.495
 3491SOL    HW240968   4.348   6.155  11.652
 3492SOL     OW40969   6.164   0.535  11.569
 3492SOL    HW140970   6.176   0.601  11.495
 3492SOL    HW240971   6.210   0.569  11.652
 3493SOL     OW40972   6.164   2.397  11.569
 3493SOL    HW140973   6.176   2.463  11.495
 3493SOL    HW240974   6.210   2.431  11.652
 3494SOL     OW40975   6.164   4.259  11.569
 3494SOL    HW140976   6.176   4.325  11.495
 3494SOL    HW240977   6.210   4.293  11.652
 3495SOL     OW40978   6.164   6.121  11.569
 3495SOL    HW140979   6.176   6.187  11.495
 3495SOL    HW240980   6.210   6.155  11.652
 3496SOL     OW40981   0.871   0.954  11.565
 3496SOL    HW140982   0.925   0.885  11.613
 3496SOL    HW240983   0.839   1.023  11.631
 3497SOL     OW40984   0.871   2.816  11.565
 3497SOL    HW140985   0.925   2.747  11.613
 3497SOL    HW240986   0.839   2.885  11.631
 3498SOL     OW40987   0.871   4.678  11.565
 3498SOL    HW140988   0.925   4.609  11.613
 3498SOL    HW240989   0.839   4.747  11.631
 3499SOL     OW40990   2.733   0.954  11.565
 3499SOL    HW140991   2.787   0.885  11.613
 3499SOL    HW240992   2.701   1.023  11.631
 3500SOL     OW40993   2.733   2.816  11.565
 3500SOL    HW140994   2.787   2.747  11.613
 3500SOL    HW240995   2.701   2.885  11.631
 3501SOL     OW40996   2.733   4.678  11.565
 3501SOL    HW140997   2.787   4.609  11.613
 3501SOL    HW240998   2.701   4.747  11.631
 3502SOL     OW40999   4.595   0.954  11.565
 3502SOL    HW141000   4.649   0.885  11.613
 3502SOL    HW241001   4.563   1.023  11.631
 3503SOL     OW41002   4.595   2.816  11.565
 3503SOL    HW141003   4.649   2.747  11.613
 3503SOL    HW241004   4.563   2.885  11.631
 3504SOL     OW41005   4.595   4.678  11.565
 3504SOL    HW141006   4.649   4.609  11.613
 3504SOL    HW241007   4.563   4.747  11.631
 3505SOL     OW41008   0.793   0.262   1.281
 3505SOL    HW141009   0.860   0.201   1.324
 3505SOL    HW241010   0.720   0.281   1.346
 3506SOL     OW41011   0.793   2.124   1.281
 3506SOL    HW141012   0.860   2.063   1.324
 3506SOL    HW241013   0.720   2.143   1.346
 3507SOL     OW41014   0.793   3.986   1.281
 3507SOL    HW141015   0.860   3.925   1.324
 3507SOL    HW241016   0.720   4.005   1.346
 3508SOL     OW41017   0.793   5.848   1.281
 3508SOL    HW141018   0.860   5.787   1.324
 3508SOL    HW241019   0.720   5.867   1.346
 3509SOL     OW41020   2.655   0.262   1.281
 3509SOL    HW141021   2.722   0.201   1.324
 3509SOL    HW241022   2.582   0.281   1.346
 3510SOL     OW41023   2.655   2.124   1.281
 3510SOL    HW141024   2.722   2.063   1.324
 3510SOL    HW241025   2.582   2.143   1.346
 3511SOL     OW41026   2.655   3.986   1.281
 3511SOL    HW141027   2.722   3.925   1.324
 3511SOL    HW241028   2.582   4.005   1.346
 3512SOL     OW41029   2.655   5.848   1.281
 3512SOL    HW141030   2.722   5.787   1.324
 3512SOL    HW241031   2.582   5.867   1.346
 3513SOL     OW41032   4.517   0.262   1.281
 3513SOL    HW141033   4.584   0.201   1.324
 3513SOL    HW241034   4.444   0.281   1.346
 3514SOL     OW41035   4.517   2.124   1.281
 3514SOL    HW141036   4.584   2.063   1.324
 3514SOL    HW241037   4.444   2.143   1.346
 3515SOL     OW41038   4.517   3.986   1.281
 3515SOL    HW141039   4.584   3.925   1.324
 3515SOL    HW241040   4.444   4.005   1.346
 3516SOL     OW41041   4.517   5.848   1.281
 3516SOL    HW141042   4.584   5.787   1.324
 3516SOL    HW241043   4.444   5.867   1.346
 3517SOL     OW41044   0.363   1.799  11.557
 3517SOL    HW141045   0.413   1.713  11.563
 3517SOL    HW241046   0.428   1.876  11.554
 3518SOL     OW41047   0.363   3.661  11.557
 3518SOL    HW141048   0.413   3.575  11.563
 3518SOL    HW241049   0.428   3.738  11.554
 3519SOL     OW41050   0.363   5.523  11.557
 3519SOL    HW141051   0.413   5.437  11.563
 3519SOL    HW241052   0.428   5.600  11.554
 3520SOL     OW41053   2.225   1.799  11.557
 3520SOL    HW141054   2.275   1.713  11.563
 3520SOL    HW241055   2.290   1.876  11.554
 3521SOL     OW41056   2.225   3.661  11.557
 3521SOL    HW141057   2.275   3.575  11.563
 3521SOL    HW241058   2.290   3.738  11.554
 3522SOL     OW41059   2.225   5.523  11.557
 3522SOL    HW141060   2.275   5.437  11.563
 3522SOL    HW241061   2.290   5.600  11.554
 3523SOL     OW41062   4.087   1.799  11.557
 3523SOL    HW141063   4.137   1.713  11.563
 3523SOL    HW241064   4.152   1.876  11.554
 3524SOL     OW41065   4.087   3.661  11.557
 3524SOL    HW141066   4.137   3.575  11.563
 3524SOL    HW241067   4.152   3.738  11.554
 3525SOL     OW41068   4.087   5.523  11.557
 3525SOL    HW141069   4.137   5.437  11.563
 3525SOL    HW241070   4.152   5.600  11.554
 3526SOL     OW41071   5.949   1.799  11.557
 3526SOL    HW141072   5.999   1.713  11.563
 3526SOL    HW241073   6.014   1.876  11.554
 3527SOL     OW41074   5.949   3.661  11.557
 3527SOL    HW141075   5.999   3.575  11.563
 3527SOL    HW241076   6.014   3.738  11.554
 3528SOL     OW41077   5.949   5.523  11.557
 3528SOL    HW141078   5.999   5.437  11.563
 3528SOL    HW241079   6.014   5.600  11.554
 3529SOL     OW41080   1.873   1.567  11.555
 3529SOL    HW141081   1.802   1.555  11.485
 3529SOL    HW241082   1.874   1.488  11.615
 3530SOL     OW41083   1.873   3.429  11.555
 3530SOL    HW141084   1.802   3.417  11.485
 3530SOL    HW241085   1.874   3.350  11.615
 3531SOL     OW41086   1.873   5.291  11.555
 3531SOL    HW141087   1.802   5.279  11.485
 3531SOL    HW241088   1.874   5.212  11.615
 3532SOL     OW41089   3.735   1.567  11.555
 3532SOL    HW141090   3.664   1.555  11.485
 3532SOL    HW241091   3.736   1.488  11.615
 3533SOL     OW41092   3.735   3.429  11.555
 3533SOL    HW141093   3.664   3.417  11.485
 3533SOL    HW241094   3.736   3.350  11.615
 3534SOL     OW41095   3.735   5.291  11.555
 3534SOL    HW141096   3.664   5.279  11.485
 3534SOL    HW241097   3.736   5.212  11.615
 3535SOL     OW41098   5.597   1.567  11.555
 3535SOL    HW141099   5.526   1.555  11.485
 3535SOL    HW241100   5.598   1.488  11.615
 3536SOL     OW41101   5.597   3.429  11.555
 3536SOL    HW141102   5.526   3.417  11.485
 3536SOL    HW241103   5.598   3.350  11.615
 3537SOL     OW41104   5.597   5.291  11.555
 3537SOL    HW141105   5.526   5.279  11.485
 3537SOL    HW241106   5.598   5.212  11.615
 3538SOL     OW41107   1.080   1.331  11.553
 3538SOL    HW141108   1.087   1.247  11.498
 3538SOL    HW241109   1.142   1.400  11.517
 3539SOL     OW41110   1.080   3.193  11.553
 3539SOL    HW141111   1.087   3.109  11.498
 3539SOL    HW241112   1.142   3.262  11.517
 3540SOL     OW41113   1.080   5.055  11.553
 3540SOL    HW141114   1.087   4.971  11.498
 3540SOL    HW241115   1.142   5.124  11.517
 3541SOL     OW41116   2.942   1.331  11.553
 3541SOL    HW141117   2.949   1.247  11.498
 3541SOL    HW241118   3.004   1.400  11.517
 3542SOL     OW41119   2.942   3.193  11.553
 3542SOL    HW141120   2.949   3.109  11.498
 3542SOL    HW241121   3.004   3.262  11.517
 3543SOL     OW41122   2.942   5.055  11.553
 3543SOL    HW141123   2.949   4.971  11.498
 3543SOL    HW241124   3.004   5.124  11.517
 3544SOL     OW41125   4.804   1.331  11.553
 3544SOL    HW141126   4.811   1.247  11.498
 3544SOL    HW241127   4.866   1.400  11.517
 3545SOL     OW41128   4.804   3.193  11.553
 3545SOL    HW141129   4.811   3.109  11.498
 3545SOL    HW241130   4.866   3.262  11.517
 3546SOL     OW41131   4.804   5.055  11.553
 3546SOL    HW141132   4.811   4.971  11.498
 3546SOL    HW241133   4.866   5.124  11.517
 3547SOL     OW41134   0.216   1.331  11.553
 3547SOL    HW141135   0.223   1.247  11.498
 3547SOL    HW241136   0.278   1.400  11.517
 3548SOL     OW41137   0.216   3.193  11.553
 3548SOL    HW141138   0.223   3.109  11.498
 3548SOL    HW241139   0.278   3.262  11.517
 3549SOL     OW41140   0.216   5.055  11.553
 3549SOL    HW141141   0.223   4.971  11.498
 3549SOL    HW241142   0.278   5.124  11.517
 3550SOL     OW41143   1.025   0.103   1.302
 3550SOL    HW141144   1.031   0.188   1.250
 3550SOL    HW241145   1.057   0.027   1.245
 3551SOL     OW41146   1.025   1.965   1.302
 3551SOL    HW141147   1.031   2.050   1.250
 3551SOL    HW241148   1.057   1.889   1.245
 3552SOL     OW41149   1.025   3.827   1.302
 3552SOL    HW141150   1.031   3.912   1.250
 3552SOL    HW241151   1.057   3.751   1.245
 3553SOL     OW41152   1.025   5.689   1.302
 3553SOL    HW141153   1.031   5.774   1.250
 3553SOL    HW241154   1.057   5.613   1.245
 3554SOL     OW41155   2.887   0.103   1.302
 3554SOL    HW141156   2.893   0.188   1.250
 3554SOL    HW241157   2.919   0.027   1.245
 3555SOL     OW41158   2.887   1.965   1.302
 3555SOL    HW141159   2.893   2.050   1.250
 3555SOL    HW241160   2.919   1.889   1.245
 3556SOL     OW41161   2.887   3.827   1.302
 3556SOL    HW141162   2.893   3.912   1.250
 3556SOL    HW241163   2.919   3.751   1.245
 3557SOL     OW41164   2.887   5.689   1.302
 3557SOL    HW141165   2.893   5.774   1.250
 3557SOL    HW241166   2.919   5.613   1.245
 3558SOL     OW41167   4.749   0.103   1.302
 3558SOL    HW141168   4.755   0.188   1.250
 3558SOL    HW241169   4.781   0.027   1.245
 3559SOL     OW41170   4.749   1.965   1.302
 3559SOL    HW141171   4.755   2.050   1.250
 3559SOL    HW241172   4.781   1.889   1.245
 3560SOL     OW41173   4.749   3.827   1.302
 3560SOL    HW141174   4.755   3.912   1.250
 3560SOL    HW241175   4.781   3.751   1.245
 3561SOL     OW41176   4.749   5.689   1.302
 3561SOL    HW141177   4.755   5.774   1.250
 3561SOL    HW241178   4.781   5.613   1.245
 3562SOL     OW41179   0.329   0.249   1.333
 3562SOL    HW141180   0.400   0.320   1.339
 3562SOL    HW241181   0.241   0.288   1.361
 3563SOL     OW41182   0.329   2.111   1.333
 3563SOL    HW141183   0.400   2.182   1.339
 3563SOL    HW241184   0.241   2.150   1.361
 3564SOL     OW41185   0.329   3.973   1.333
 3564SOL    HW141186   0.400   4.044   1.339
 3564SOL    HW241187   0.241   4.012   1.361
 3565SOL     OW41188   0.329   5.835   1.333
 3565SOL    HW141189   0.400   5.906   1.339
 3565SOL    HW241190   0.241   5.874   1.361
 3566SOL     OW41191   2.191   0.249   1.333
 3566SOL    HW141192   2.262   0.320   1.339
 3566SOL    HW241193   2.103   0.288   1.361
 3567SOL     OW41194   2.191   2.111   1.333
 3567SOL    HW141195   2.262   2.182   1.339
 3567SOL    HW241196   2.103   2.150   1.361
 3568SOL     OW41197   2.191   3.973   1.333
 3568SOL    HW141198   2.262   4.044   1.339
 3568SOL    HW241199   2.103   4.012   1.361
 3569SOL     OW41200   2.191   5.835   1.333
 3569SOL    HW141201   2.262   5.906   1.339
 3569SOL    HW241202   2.103   5.874   1.361
 3570SOL     OW41203   4.053   0.249   1.333
 3570SOL    HW141204   4.124   0.320   1.339
 3570SOL    HW241205   3.965   0.288   1.361
 3571SOL     OW41206   4.053   2.111   1.333
 3571SOL    HW141207   4.124   2.182   1.339
 3571SOL    HW241208   3.965   2.150   1.361
 3572SOL     OW41209   4.053   3.973   1.333
 3572SOL    HW141210   4.124   4.044   1.339
 3572SOL    HW241211   3.965   4.012   1.361
 3573SOL     OW41212   4.053   5.835   1.333
 3573SOL    HW141213   4.124   5.906   1.339
 3573SOL    HW241214   3.965   5.874   1.361
 3574SOL     OW41215   5.915   0.249   1.333
 3574SOL    HW141216   5.986   0.320   1.339
 3574SOL    HW241217   5.827   0.288   1.361
 3575SOL     OW41218   5.915   2.111   1.333
 3575SOL    HW141219   5.986   2.182   1.339
 3575SOL    HW241220   5.827   2.150   1.361
 3576SOL     OW41221   5.915   3.973   1.333
 3576SOL    HW141222   5.986   4.044   1.339
 3576SOL    HW241223   5.827   4.012   1.361
 3577SOL     OW41224   5.915   5.835   1.333
 3577SOL    HW141225   5.986   5.906   1.339
 3577SOL    HW241226   5.827   5.874   1.361
 3578SOL     OW41227   0.698   1.159   1.335
 3578SOL    HW141228   0.758   1.238   1.349
 3578SOL    HW241229   0.612   1.190   1.294
 3579SOL     OW41230   0.698   3.021   1.335
 3579SOL    HW141231   0.758   3.100   1.349
 3579SOL    HW241232   0.612   3.052   1.294
 3580SOL     OW41233   0.698   4.883   1.335
 3580SOL    HW141234   0.758   4.962   1.349
 3580SOL    HW241235   0.612   4.914   1.294
 3581SOL     OW41236   2.560   1.159   1.335
 3581SOL    HW141237   2.620   1.238   1.349
 3581SOL    HW241238   2.474   1.190   1.294
 3582SOL     OW41239   2.560   3.021   1.335
 3582SOL    HW141240   2.620   3.100   1.349
 3582SOL    HW241241   2.474   3.052   1.294
 3583SOL     OW41242   2.560   4.883   1.335
 3583SOL    HW141243   2.620   4.962   1.349
 3583SOL    HW241244   2.474   4.914   1.294
 3584SOL     OW41245   4.422   1.159   1.335
 3584SOL    HW141246   4.482   1.238   1.349
 3584SOL    HW241247   4.336   1.190   1.294
 3585SOL     OW41248   4.422   3.021   1.335
 3585SOL    HW141249   4.482   3.100   1.349
 3585SOL    HW241250   4.336   3.052   1.294
 3586SOL     OW41251   4.422   4.883   1.335
 3586SOL    HW141252   4.482   4.962   1.349
 3586SOL    HW241253   4.336   4.914   1.294
 3587SOL     OW41254   6.284   1.159   1.335
 3587SOL    HW141255   6.344   1.238   1.349
 3587SOL    HW241256   6.198   1.190   1.294
 3588SOL     OW41257   6.284   3.021   1.335
 3588SOL    HW141258   6.344   3.100   1.349
 3588SOL    HW241259   6.198   3.052   1.294
 3589SOL     OW41260   6.284   4.883   1.335
 3589SOL    HW141261   6.344   4.962   1.349
 3589SOL    HW241262   6.198   4.914   1.294
 3590SOL     OW41263   0.362   0.896   1.336
 3590SOL    HW141264   0.438   0.940   1.384
 3590SOL    HW241265   0.397   0.849   1.254
 3591SOL     OW41266   0.362   2.758   1.336
 3591SOL    HW141267   0.438   2.802   1.384
 3591SOL    HW241268   0.397   2.711   1.254
 3592SOL     OW41269   0.362   4.620   1.336
 3592SOL    HW141270   0.438   4.664   1.384
 3592SOL    HW241271   0.397   4.573   1.254
 3593SOL     OW41272   2.224   0.896   1.336
 3593SOL    HW141273   2.300   0.940   1.384
 3593SOL    HW241274   2.259   0.849   1.254
 3594SOL     OW41275   2.224   2.758   1.336
 3594SOL    HW141276   2.300   2.802   1.384
 3594SOL    HW241277   2.259   2.711   1.254
 3595SOL     OW41278   2.224   4.620   1.336
 3595SOL    HW141279   2.300   4.664   1.384
 3595SOL    HW241280   2.259   4.573   1.254
 3596SOL     OW41281   4.086   0.896   1.336
 3596SOL    HW141282   4.162   0.940   1.384
 3596SOL    HW241283   4.121   0.849   1.254
 3597SOL     OW41284   4.086   4.620   1.336
 3597SOL    HW141285   4.162   4.664   1.384
 3597SOL    HW241286   4.121   4.573   1.254
 3598SOL     OW41287   5.948   0.896   1.336
 3598SOL    HW141288   6.024   0.940   1.384
 3598SOL    HW241289   5.983   0.849   1.254
 3599SOL     OW41290   5.948   2.758   1.336
 3599SOL    HW141291   6.024   2.802   1.384
 3599SOL    HW241292   5.983   2.711   1.254
 3600SOL     OW41293   5.948   4.620   1.336
 3600SOL    HW141294   6.024   4.664   1.384
 3600SOL    HW241295   5.983   4.573   1.254
 3601SOL     OW41296   1.239   1.568  11.497
 3601SOL    HW141297   1.260   1.642  11.432
 3601SOL    HW241298   1.307   1.568  11.570
 3602SOL     OW41299   1.239   3.430  11.497
 3602SOL    HW141300   1.260   3.504  11.432
 3602SOL    HW241301   1.307   3.430  11.570
 3603SOL     OW41302   1.239   5.292  11.497
 3603SOL    HW141303   1.260   5.366  11.432
 3603SOL    HW241304   1.307   5.292  11.570
 3604SOL     OW41305   3.101   1.568  11.497
 3604SOL    HW141306   3.122   1.642  11.432
 3604SOL    HW241307   3.169   1.568  11.570
 3605SOL     OW41308   3.101   3.430  11.497
 3605SOL    HW141309   3.122   3.504  11.432
 3605SOL    HW241310   3.169   3.430  11.570
 3606SOL     OW41311   3.101   5.292  11.497
 3606SOL    HW141312   3.122   5.366  11.432
 3606SOL    HW241313   3.169   5.292  11.570
 3607SOL     OW41314   4.963   1.568  11.497
 3607SOL    HW141315   4.984   1.642  11.432
 3607SOL    HW241316   5.031   1.568  11.570
 3608SOL     OW41317   4.963   3.430  11.497
 3608SOL    HW141318   4.984   3.504  11.432
 3608SOL    HW241319   5.031   3.430  11.570
 3609SOL     OW41320   4.963   5.292  11.497
 3609SOL    HW141321   4.984   5.366  11.432
 3609SOL    HW241322   5.031   5.292  11.570
 3610SOL     OW41323   0.088   0.809  11.493
 3610SOL    HW141324   0.187   0.797  11.502
 3610SOL    HW241325   0.064   0.904  11.514
 3611SOL     OW41326   0.088   2.671  11.493
 3611SOL    HW141327   0.187   2.659  11.502
 3611SOL    HW241328   0.064   2.766  11.514
 3612SOL     OW41329   0.088   4.533  11.493
 3612SOL    HW141330   0.187   4.521  11.502
 3612SOL    HW241331   0.064   4.628  11.514
 3613SOL     OW41332   0.088   6.395  11.493
 3613SOL    HW141333   0.187   6.383  11.502
 3613SOL    HW241334   0.064   0.040  11.514
 3614SOL     OW41335   1.950   0.809  11.493
 3614SOL    HW141336   2.049   0.797  11.502
 3614SOL    HW241337   1.926   0.904  11.514
 3615SOL     OW41338   1.950   2.671  11.493
 3615SOL    HW141339   2.049   2.659  11.502
 3615SOL    HW241340   1.926   2.766  11.514
 3616SOL     OW41341   1.950   4.533  11.493
 3616SOL    HW141342   2.049   4.521  11.502
 3616SOL    HW241343   1.926   4.628  11.514
 3617SOL     OW41344   3.812   0.809  11.493
 3617SOL    HW141345   3.911   0.797  11.502
 3617SOL    HW241346   3.788   0.904  11.514
 3618SOL     OW41347   3.812   2.671  11.493
 3618SOL    HW141348   3.911   2.659  11.502
 3618SOL    HW241349   3.788   2.766  11.514
 3619SOL     OW41350   3.812   4.533  11.493
 3619SOL    HW141351   3.911   4.521  11.502
 3619SOL    HW241352   3.788   4.628  11.514
 3620SOL     OW41353   5.674   0.809  11.493
 3620SOL    HW141354   5.773   0.797  11.502
 3620SOL    HW241355   5.650   0.904  11.514
 3621SOL     OW41356   5.674   2.671  11.493
 3621SOL    HW141357   5.773   2.659  11.502
 3621SOL    HW241358   5.650   2.766  11.514
 3622SOL     OW41359   5.674   4.533  11.493
 3622SOL    HW141360   5.773   4.521  11.502
 3622SOL    HW241361   5.650   4.628  11.514
 3623SOL     OW41362   0.862   0.796   1.355
 3623SOL    HW141363   0.858   0.872   1.420
 3623SOL    HW241364   0.884   0.832   1.264
 3624SOL     OW41365   0.862   2.658   1.355
 3624SOL    HW141366   0.858   2.734   1.420
 3624SOL    HW241367   0.884   2.694   1.264
 3625SOL     OW41368   0.862   4.520   1.355
 3625SOL    HW141369   0.858   4.596   1.420
 3625SOL    HW241370   0.884   4.556   1.264
 3626SOL     OW41371   0.862   6.382   1.355
 3626SOL    HW141372   0.858   0.008   1.420
 3626SOL    HW241373   0.884   6.418   1.264
 3627SOL     OW41374   2.724   0.796   1.355
 3627SOL    HW141375   2.720   0.872   1.420
 3627SOL    HW241376   2.746   0.832   1.264
 3628SOL     OW41377   2.724   2.658   1.355
 3628SOL    HW141378   2.720   2.734   1.420
 3628SOL    HW241379   2.746   2.694   1.264
 3629SOL     OW41380   2.724   4.520   1.355
 3629SOL    HW141381   2.720   4.596   1.420
 3629SOL    HW241382   2.746   4.556   1.264
 3630SOL     OW41383   2.724   6.382   1.355
 3630SOL    HW141384   2.720   0.008   1.420
 3630SOL    HW241385   2.746   6.418   1.264
 3631SOL     OW41386   4.586   0.796   1.355
 3631SOL    HW141387   4.582   0.872   1.420
 3631SOL    HW241388   4.608   0.832   1.264
 3632SOL     OW41389   4.586   2.658   1.355
 3632SOL    HW141390   4.582   2.734   1.420
 3632SOL    HW241391   4.608   2.694   1.264
 3633SOL     OW41392   4.586   4.520   1.355
 3633SOL    HW141393   4.582   4.596   1.420
 3633SOL    HW241394   4.608   4.556   1.264
 3634SOL     OW41395   4.586   6.382   1.355
 3634SOL    HW141396   4.582   0.008   1.420
 3634SOL    HW241397   4.608   6.418   1.264
 3635SOL     OW41398   6.448   0.796   1.355
 3635SOL    HW141399   6.444   0.872   1.420
 3635SOL    HW241400   0.020   0.832   1.264
 3636SOL     OW41401   6.448   2.658   1.355
 3636SOL    HW141402   6.444   2.734   1.420
 3636SOL    HW241403   0.020   2.694   1.264
 3637SOL     OW41404   6.448   4.520   1.355
 3637SOL    HW141405   6.444   4.596   1.420
 3637SOL    HW241406   0.020   4.556   1.264
 3638SOL     OW41407   1.731   0.583   1.363
 3638SOL    HW141408   1.705   0.672   1.327
 3638SOL    HW241409   1.729   0.515   1.290
 3639SOL     OW41410   1.731   2.445   1.363
 3639SOL    HW141411   1.705   2.534   1.327
 3639SOL    HW241412   1.729   2.377   1.290
 3640SOL     OW41413   1.731   4.307   1.363
 3640SOL    HW141414   1.705   4.396   1.327
 3640SOL    HW241415   1.729   4.239   1.290
 3641SOL     OW41416   1.731   6.169   1.363
 3641SOL    HW141417   1.705   6.258   1.327
 3641SOL    HW241418   1.729   6.101   1.290
 3642SOL     OW41419   3.593   0.583   1.363
 3642SOL    HW141420   3.567   0.672   1.327
 3642SOL    HW241421   3.591   0.515   1.290
 3643SOL     OW41422   3.593   2.445   1.363
 3643SOL    HW141423   3.567   2.534   1.327
 3643SOL    HW241424   3.591   2.377   1.290
 3644SOL     OW41425   3.593   4.307   1.363
 3644SOL    HW141426   3.567   4.396   1.327
 3644SOL    HW241427   3.591   4.239   1.290
 3645SOL     OW41428   3.593   6.169   1.363
 3645SOL    HW141429   3.567   6.258   1.327
 3645SOL    HW241430   3.591   6.101   1.290
 3646SOL     OW41431   5.455   0.583   1.363
 3646SOL    HW141432   5.429   0.672   1.327
 3646SOL    HW241433   5.453   0.515   1.290
 3647SOL     OW41434   5.455   2.445   1.363
 3647SOL    HW141435   5.429   2.534   1.327
 3647SOL    HW241436   5.453   2.377   1.290
 3648SOL     OW41437   5.455   4.307   1.363
 3648SOL    HW141438   5.429   4.396   1.327
 3648SOL    HW241439   5.453   4.239   1.290
 3649SOL     OW41440   5.455   6.169   1.363
 3649SOL    HW141441   5.429   6.258   1.327
 3649SOL    HW241442   5.453   6.101   1.290
 3650SOL     OW41443   0.233   1.312   1.376
 3650SOL    HW141444   0.168   1.239   1.355
 3650SOL    HW241445   0.237   1.326   1.474
 3651SOL     OW41446   0.233   3.174   1.376
 3651SOL    HW141447   0.168   3.101   1.355
 3651SOL    HW241448   0.237   3.188   1.474
 3652SOL     OW41449   0.233   5.036   1.376
 3652SOL    HW141450   0.168   4.963   1.355
 3652SOL    HW241451   0.237   5.050   1.474
 3653SOL     OW41452   2.095   1.312   1.376
 3653SOL    HW141453   2.030   1.239   1.355
 3653SOL    HW241454   2.099   1.326   1.474
 3654SOL     OW41455   2.095   3.174   1.376
 3654SOL    HW141456   2.030   3.101   1.355
 3654SOL    HW241457   2.099   3.188   1.474
 3655SOL     OW41458   2.095   5.036   1.376
 3655SOL    HW141459   2.030   4.963   1.355
 3655SOL    HW241460   2.099   5.050   1.474
 3656SOL     OW41461   3.957   1.312   1.376
 3656SOL    HW141462   3.892   1.239   1.355
 3656SOL    HW241463   3.961   1.326   1.474
 3657SOL     OW41464   3.957   3.174   1.376
 3657SOL    HW141465   3.892   3.101   1.355
 3657SOL    HW241466   3.961   3.188   1.474
 3658SOL     OW41467   5.819   1.312   1.376
 3658SOL    HW141468   5.754   1.239   1.355
 3658SOL    HW241469   5.823   1.326   1.474
 3659SOL     OW41470   5.819   3.174   1.376
 3659SOL    HW141471   5.754   3.101   1.355
 3659SOL    HW241472   5.823   3.188   1.474
 3660SOL     OW41473   5.819   5.036   1.376
 3660SOL    HW141474   5.754   4.963   1.355
 3660SOL    HW241475   5.823   5.050   1.474
 3661SOL     OW41476   0.142   1.792   1.383
 3661SOL    HW141477   0.101   1.718   1.436
 3661SOL    HW241478   0.206   1.843   1.441
 3662SOL     OW41479   0.142   3.654   1.383
 3662SOL    HW141480   0.101   3.580   1.436
 3662SOL    HW241481   0.206   3.705   1.441
 3663SOL     OW41482   0.142   5.516   1.383
 3663SOL    HW141483   0.101   5.442   1.436
 3663SOL    HW241484   0.206   5.567   1.441
 3664SOL     OW41485   2.004   1.792   1.383
 3664SOL    HW141486   1.963   1.718   1.436
 3664SOL    HW241487   2.068   1.843   1.441
 3665SOL     OW41488   2.004   3.654   1.383
 3665SOL    HW141489   1.963   3.580   1.436
 3665SOL    HW241490   2.068   3.705   1.441
 3666SOL     OW41491   2.004   5.516   1.383
 3666SOL    HW141492   1.963   5.442   1.436
 3666SOL    HW241493   2.068   5.567   1.441
 3667SOL     OW41494   3.866   1.792   1.383
 3667SOL    HW141495   3.825   1.718   1.436
 3667SOL    HW241496   3.930   1.843   1.441
 3668SOL     OW41497   3.866   5.516   1.383
 3668SOL    HW141498   3.825   5.442   1.436
 3668SOL    HW241499   3.930   5.567   1.441
 3669SOL     OW41500   5.728   1.792   1.383
 3669SOL    HW141501   5.687   1.718   1.436
 3669SOL    HW241502   5.792   1.843   1.441
 3670SOL     OW41503   5.728   5.516   1.383
 3670SOL    HW141504   5.687   5.442   1.436
 3670SOL    HW241505   5.792   5.567   1.441
 3671SOL     OW41506   1.740   0.933   1.386
 3671SOL    HW141507   1.694   0.926   1.297
 3671SOL    HW241508   1.678   0.977   1.452
 3672SOL     OW41509   1.740   4.657   1.386
 3672SOL    HW141510   1.694   4.650   1.297
 3672SOL    HW241511   1.678   4.701   1.452
 3673SOL     OW41512   1.740   0.069   1.386
 3673SOL    HW141513   1.694   0.062   1.297
 3673SOL    HW241514   1.678   0.113   1.452
 3674SOL     OW41515   3.602   0.933   1.386
 3674SOL    HW141516   3.556   0.926   1.297
 3674SOL    HW241517   3.540   0.977   1.452
 3675SOL     OW41518   3.602   2.795   1.386
 3675SOL    HW141519   3.556   2.788   1.297
 3675SOL    HW241520   3.540   2.839   1.452
 3676SOL     OW41521   3.602   4.657   1.386
 3676SOL    HW141522   3.556   4.650   1.297
 3676SOL    HW241523   3.540   4.701   1.452
 3677SOL     OW41524   3.602   0.069   1.386
 3677SOL    HW141525   3.556   0.062   1.297
 3677SOL    HW241526   3.540   0.113   1.452
 3678SOL     OW41527   5.464   0.933   1.386
 3678SOL    HW141528   5.418   0.926   1.297
 3678SOL    HW241529   5.402   0.977   1.452
 3679SOL     OW41530   5.464   2.795   1.386
 3679SOL    HW141531   5.418   2.788   1.297
 3679SOL    HW241532   5.402   2.839   1.452
 3680SOL     OW41533   5.464   4.657   1.386
 3680SOL    HW141534   5.418   4.650   1.297
 3680SOL    HW241535   5.402   4.701   1.452
 3681SOL     OW41536   5.464   0.069   1.386
 3681SOL    HW141537   5.418   0.062   1.297
 3681SOL    HW241538   5.402   0.113   1.452
 3682SOL     OW41539   1.029   0.037  11.457
 3682SOL    HW141540   0.957   0.042  11.388
 3682SOL    HW241541   1.005   6.418  11.526
 3683SOL     OW41542   1.029   1.899  11.457
 3683SOL    HW141543   0.957   1.904  11.388
 3683SOL    HW241544   1.005   1.830  11.526
 3684SOL     OW41545   1.029   3.761  11.457
 3684SOL    HW141546   0.957   3.766  11.388
 3684SOL    HW241547   1.005   3.692  11.526
 3685SOL     OW41548   1.029   5.623  11.457
 3685SOL    HW141549   0.957   5.628  11.388
 3685SOL    HW241550   1.005   5.554  11.526
 3686SOL     OW41551   2.891   0.037  11.457
 3686SOL    HW141552   2.819   0.042  11.388
 3686SOL    HW241553   2.867   6.418  11.526
 3687SOL     OW41554   2.891   1.899  11.457
 3687SOL    HW141555   2.819   1.904  11.388
 3687SOL    HW241556   2.867   1.830  11.526
 3688SOL     OW41557   2.891   3.761  11.457
 3688SOL    HW141558   2.819   3.766  11.388
 3688SOL    HW241559   2.867   3.692  11.526
 3689SOL     OW41560   2.891   5.623  11.457
 3689SOL    HW141561   2.819   5.628  11.388
 3689SOL    HW241562   2.867   5.554  11.526
 3690SOL     OW41563   4.753   0.037  11.457
 3690SOL    HW141564   4.681   0.042  11.388
 3690SOL    HW241565   4.729   6.418  11.526
 3691SOL     OW41566   4.753   1.899  11.457
 3691SOL    HW141567   4.681   1.904  11.388
 3691SOL    HW241568   4.729   1.830  11.526
 3692SOL     OW41569   4.753   3.761  11.457
 3692SOL    HW141570   4.681   3.766  11.388
 3692SOL    HW241571   4.729   3.692  11.526
 3693SOL     OW41572   4.753   5.623  11.457
 3693SOL    HW141573   4.681   5.628  11.388
 3693SOL    HW241574   4.729   5.554  11.526
 3694SOL     OW41575   0.471   1.150  11.445
 3694SOL    HW141576   0.400   1.123  11.510
 3694SOL    HW241577   0.445   1.122  11.352
 3695SOL     OW41578   0.471   3.012  11.445
 3695SOL    HW141579   0.400   2.985  11.510
 3695SOL    HW241580   0.445   2.984  11.352
 3696SOL     OW41581   0.471   4.874  11.445
 3696SOL    HW141582   0.400   4.847  11.510
 3696SOL    HW241583   0.445   4.846  11.352
 3697SOL     OW41584   2.333   1.150  11.445
 3697SOL    HW141585   2.262   1.123  11.510
 3697SOL    HW241586   2.307   1.122  11.352
 3698SOL     OW41587   2.333   3.012  11.445
 3698SOL    HW141588   2.262   2.985  11.510
 3698SOL    HW241589   2.307   2.984  11.352
 3699SOL     OW41590   2.333   4.874  11.445
 3699SOL    HW141591   2.262   4.847  11.510
 3699SOL    HW241592   2.307   4.846  11.352
 3700SOL     OW41593   4.195   1.150  11.445
 3700SOL    HW141594   4.124   1.123  11.510
 3700SOL    HW241595   4.169   1.122  11.352
 3701SOL     OW41596   4.195   3.012  11.445
 3701SOL    HW141597   4.124   2.985  11.510
 3701SOL    HW241598   4.169   2.984  11.352
 3702SOL     OW41599   4.195   4.874  11.445
 3702SOL    HW141600   4.124   4.847  11.510
 3702SOL    HW241601   4.169   4.846  11.352
 3703SOL     OW41602   6.057   1.150  11.445
 3703SOL    HW141603   5.986   1.123  11.510
 3703SOL    HW241604   6.031   1.122  11.352
 3704SOL     OW41605   1.615   0.445  11.441
 3704SOL    HW141606   1.541   0.491  11.391
 3704SOL    HW241607   1.666   0.513  11.494
 3705SOL     OW41608   1.615   2.307  11.441
 3705SOL    HW141609   1.541   2.353  11.391
 3705SOL    HW241610   1.666   2.375  11.494
 3706SOL     OW41611   1.615   4.169  11.441
 3706SOL    HW141612   1.541   4.215  11.391
 3706SOL    HW241613   1.666   4.237  11.494
 3707SOL     OW41614   1.615   6.031  11.441
 3707SOL    HW141615   1.541   6.077  11.391
 3707SOL    HW241616   1.666   6.099  11.494
 3708SOL     OW41617   3.477   0.445  11.441
 3708SOL    HW141618   3.403   0.491  11.391
 3708SOL    HW241619   3.528   0.513  11.494
 3709SOL     OW41620   3.477   2.307  11.441
 3709SOL    HW141621   3.403   2.353  11.391
 3709SOL    HW241622   3.528   2.375  11.494
 3710SOL     OW41623   3.477   6.031  11.441
 3710SOL    HW141624   3.403   6.077  11.391
 3710SOL    HW241625   3.528   6.099  11.494
 3711SOL     OW41626   5.339   0.445  11.441
 3711SOL    HW141627   5.265   0.491  11.391
 3711SOL    HW241628   5.390   0.513  11.494
 3712SOL     OW41629   5.339   2.307  11.441
 3712SOL    HW141630   5.265   2.353  11.391
 3712SOL    HW241631   5.390   2.375  11.494
 3713SOL     OW41632   5.339   4.169  11.441
 3713SOL    HW141633   5.265   4.215  11.391
 3713SOL    HW241634   5.390   4.237  11.494
 3714SOL     OW41635   5.339   6.031  11.441
 3714SOL    HW141636   5.265   6.077  11.391
 3714SOL    HW241637   5.390   6.099  11.494
 3715SOL     OW41638   1.044   0.547   1.410
 3715SOL    HW141639   1.003   0.629   1.371
 3715SOL    HW241640   1.108   0.573   1.483
 3716SOL     OW41641   0.871   1.372   1.410
 3716SOL    HW141642   0.825   1.387   1.498
 3716SOL    HW241643   0.915   1.457   1.380
 3717SOL     OW41644   1.044   2.409   1.410
 3717SOL    HW141645   1.003   2.491   1.371
 3717SOL    HW241646   1.108   2.435   1.483
 3718SOL     OW41647   0.871   3.234   1.410
 3718SOL    HW141648   0.825   3.249   1.498
 3718SOL    HW241649   0.915   3.319   1.380
 3719SOL     OW41650   1.044   4.271   1.410
 3719SOL    HW141651   1.003   4.353   1.371
 3719SOL    HW241652   1.108   4.297   1.483
 3720SOL     OW41653   0.871   5.096   1.410
 3720SOL    HW141654   0.825   5.111   1.498
 3720SOL    HW241655   0.915   5.181   1.380
 3721SOL     OW41656   1.044   6.133   1.410
 3721SOL    HW141657   1.003   6.215   1.371
 3721SOL    HW241658   1.108   6.159   1.483
 3722SOL     OW41659   2.733   1.372   1.410
 3722SOL    HW141660   2.687   1.387   1.498
 3722SOL    HW241661   2.777   1.457   1.380
 3723SOL     OW41662   2.906   2.409   1.410
 3723SOL    HW141663   2.865   2.491   1.371
 3723SOL    HW241664   2.970   2.435   1.483
 3724SOL     OW41665   2.906   4.271   1.410
 3724SOL    HW141666   2.865   4.353   1.371
 3724SOL    HW241667   2.970   4.297   1.483
 3725SOL     OW41668   2.733   5.096   1.410
 3725SOL    HW141669   2.687   5.111   1.498
 3725SOL    HW241670   2.777   5.181   1.380
 3726SOL     OW41671   2.906   6.133   1.410
 3726SOL    HW141672   2.865   6.215   1.371
 3726SOL    HW241673   2.970   6.159   1.483
 3727SOL     OW41674   4.768   0.547   1.410
 3727SOL    HW141675   4.727   0.629   1.371
 3727SOL    HW241676   4.832   0.573   1.483
 3728SOL     OW41677   4.595   1.372   1.410
 3728SOL    HW141678   4.549   1.387   1.498
 3728SOL    HW241679   4.639   1.457   1.380
 3729SOL     OW41680   4.768   2.409   1.410
 3729SOL    HW141681   4.727   2.491   1.371
 3729SOL    HW241682   4.832   2.435   1.483
 3730SOL     OW41683   4.595   3.234   1.410
 3730SOL    HW141684   4.549   3.249   1.498
 3730SOL    HW241685   4.639   3.319   1.380
 3731SOL     OW41686   4.768   4.271   1.410
 3731SOL    HW141687   4.727   4.353   1.371
 3731SOL    HW241688   4.832   4.297   1.483
 3732SOL     OW41689   4.595   5.096   1.410
 3732SOL    HW141690   4.549   5.111   1.498
 3732SOL    HW241691   4.639   5.181   1.380
 3733SOL     OW41692   4.768   6.133   1.410
 3733SOL    HW141693   4.727   6.215   1.371
 3733SOL    HW241694   4.832   6.159   1.483
 3734SOL     OW41695   1.470   0.733  11.432
 3734SOL    HW141696   1.465   0.668  11.507
 3734SOL    HW241697   1.550   0.792  11.445
 3735SOL     OW41698   1.470   2.595  11.432
 3735SOL    HW141699   1.465   2.530  11.507
 3735SOL    HW241700   1.550   2.654  11.445
 3736SOL     OW41701   1.470   4.457  11.432
 3736SOL    HW141702   1.465   4.392  11.507
 3736SOL    HW241703   1.550   4.516  11.445
 3737SOL     OW41704   1.470   6.319  11.432
 3737SOL    HW141705   1.465   6.254  11.507
 3737SOL    HW241706   1.550   6.378  11.445
 3738SOL     OW41707   3.332   0.733  11.432
 3738SOL    HW141708   3.327   0.668  11.507
 3738SOL    HW241709   3.412   0.792  11.445
 3739SOL     OW41710   3.332   2.595  11.432
 3739SOL    HW141711   3.327   2.530  11.507
 3739SOL    HW241712   3.412   2.654  11.445
 3740SOL     OW41713   3.332   4.457  11.432
 3740SOL    HW141714   3.327   4.392  11.507
 3740SOL    HW241715   3.412   4.516  11.445
 3741SOL     OW41716   3.332   6.319  11.432
 3741SOL    HW141717   3.327   6.254  11.507
 3741SOL    HW241718   3.412   6.378  11.445
 3742SOL     OW41719   5.194   0.733  11.432
 3742SOL    HW141720   5.189   0.668  11.507
 3742SOL    HW241721   5.274   0.792  11.445
 3743SOL     OW41722   5.194   2.595  11.432
 3743SOL    HW141723   5.189   2.530  11.507
 3743SOL    HW241724   5.274   2.654  11.445
 3744SOL     OW41725   5.194   6.319  11.432
 3744SOL    HW141726   5.189   6.254  11.507
 3744SOL    HW241727   5.274   6.378  11.445
 3745SOL     OW41728   0.625   1.363  11.430
 3745SOL    HW141729   0.576   1.276  11.439
 3745SOL    HW241730   0.602   1.406  11.343
 3746SOL     OW41731   0.625   3.225  11.430
 3746SOL    HW141732   0.576   3.138  11.439
 3746SOL    HW241733   0.602   3.268  11.343
 3747SOL     OW41734   0.625   5.087  11.430
 3747SOL    HW141735   0.576   5.000  11.439
 3747SOL    HW241736   0.602   5.130  11.343
 3748SOL     OW41737   2.487   1.363  11.430
 3748SOL    HW141738   2.438   1.276  11.439
 3748SOL    HW241739   2.464   1.406  11.343
 3749SOL     OW41740   2.487   3.225  11.430
 3749SOL    HW141741   2.438   3.138  11.439
 3749SOL    HW241742   2.464   3.268  11.343
 3750SOL     OW41743   2.487   5.087  11.430
 3750SOL    HW141744   2.438   5.000  11.439
 3750SOL    HW241745   2.464   5.130  11.343
 3751SOL     OW41746   4.349   1.363  11.430
 3751SOL    HW141747   4.300   1.276  11.439
 3751SOL    HW241748   4.326   1.406  11.343
 3752SOL     OW41749   4.349   3.225  11.430
 3752SOL    HW141750   4.300   3.138  11.439
 3752SOL    HW241751   4.326   3.268  11.343
 3753SOL     OW41752   6.211   1.363  11.430
 3753SOL    HW141753   6.162   1.276  11.439
 3753SOL    HW241754   6.188   1.406  11.343
 3754SOL     OW41755   6.211   5.087  11.430
 3754SOL    HW141756   6.162   5.000  11.439
 3754SOL    HW241757   6.188   5.130  11.343
 3755SOL     OW41758   0.275   0.324  11.424
 3755SOL    HW141759   0.196   0.375  11.390
 3755SOL    HW241760   0.266   0.309  11.522
 3756SOL     OW41761   0.275   2.186  11.424
 3756SOL    HW141762   0.196   2.237  11.390
 3756SOL    HW241763   0.266   2.171  11.522
 3757SOL     OW41764   0.275   4.048  11.424
 3757SOL    HW141765   0.196   4.099  11.390
 3757SOL    HW241766   0.266   4.033  11.522
 3758SOL     OW41767   0.275   5.910  11.424
 3758SOL    HW141768   0.196   5.961  11.390
 3758SOL    HW241769   0.266   5.895  11.522
 3759SOL     OW41770   2.137   0.324  11.424
 3759SOL    HW141771   2.058   0.375  11.390
 3759SOL    HW241772   2.128   0.309  11.522
 3760SOL     OW41773   2.137   2.186  11.424
 3760SOL    HW141774   2.058   2.237  11.390
 3760SOL    HW241775   2.128   2.171  11.522
 3761SOL     OW41776   2.137   5.910  11.424
 3761SOL    HW141777   2.058   5.961  11.390
 3761SOL    HW241778   2.128   5.895  11.522
 3762SOL     OW41779   3.999   0.324  11.424
 3762SOL    HW141780   3.920   0.375  11.390
 3762SOL    HW241781   3.990   0.309  11.522
 3763SOL     OW41782   3.999   2.186  11.424
 3763SOL    HW141783   3.920   2.237  11.390
 3763SOL    HW241784   3.990   2.171  11.522
 3764SOL     OW41785   3.999   4.048  11.424
 3764SOL    HW141786   3.920   4.099  11.390
 3764SOL    HW241787   3.990   4.033  11.522
 3765SOL     OW41788   3.999   5.910  11.424
 3765SOL    HW141789   3.920   5.961  11.390
 3765SOL    HW241790   3.990   5.895  11.522
 3766SOL     OW41791   5.861   0.324  11.424
 3766SOL    HW141792   5.782   0.375  11.390
 3766SOL    HW241793   5.852   0.309  11.522
 3767SOL     OW41794   5.861   2.186  11.424
 3767SOL    HW141795   5.782   2.237  11.390
 3767SOL    HW241796   5.852   2.171  11.522
 3768SOL     OW41797   5.861   4.048  11.424
 3768SOL    HW141798   5.782   4.099  11.390
 3768SOL    HW241799   5.852   4.033  11.522
 3769SOL     OW41800   1.147   0.701  11.421
 3769SOL    HW141801   1.204   0.779  11.396
 3769SOL    HW241802   1.087   0.727  11.497
 3770SOL     OW41803   1.147   2.563  11.421
 3770SOL    HW141804   1.204   2.641  11.396
 3770SOL    HW241805   1.087   2.589  11.497
 3771SOL     OW41806   3.009   0.701  11.421
 3771SOL    HW141807   3.066   0.779  11.396
 3771SOL    HW241808   2.949   0.727  11.497
 3772SOL     OW41809   3.009   2.563  11.421
 3772SOL    HW141810   3.066   2.641  11.396
 3772SOL    HW241811   2.949   2.589  11.497
 3773SOL     OW41812   3.009   4.425  11.421
 3773SOL    HW141813   3.066   4.503  11.396
 3773SOL    HW241814   2.949   4.451  11.497
 3774SOL     OW41815   4.871   0.701  11.421
 3774SOL    HW141816   4.928   0.779  11.396
 3774SOL    HW241817   4.811   0.727  11.497
 3775SOL     OW41818   4.871   2.563  11.421
 3775SOL    HW141819   4.928   2.641  11.396
 3775SOL    HW241820   4.811   2.589  11.497
 3776SOL     OW41821   4.871   4.425  11.421
 3776SOL    HW141822   4.928   4.503  11.396
 3776SOL    HW241823   4.811   4.451  11.497
 3777SOL     OW41824   1.206   1.610   1.425
 3777SOL    HW141825   1.212   1.517   1.462
 3777SOL    HW241826   1.147   1.610   1.345
 3778SOL     OW41827   1.206   3.472   1.425
 3778SOL    HW141828   1.212   3.379   1.462
 3778SOL    HW241829   1.147   3.472   1.345
 3779SOL     OW41830   1.206   5.334   1.425
 3779SOL    HW141831   1.212   5.241   1.462
 3779SOL    HW241832   1.147   5.334   1.345
 3780SOL     OW41833   3.068   1.610   1.425
 3780SOL    HW141834   3.074   1.517   1.462
 3780SOL    HW241835   3.009   1.610   1.345
 3781SOL     OW41836   3.068   3.472   1.425
 3781SOL    HW141837   3.074   3.379   1.462
 3781SOL    HW241838   3.009   3.472   1.345
 3782SOL     OW41839   3.068   5.334   1.425
 3782SOL    HW141840   3.074   5.241   1.462
 3782SOL    HW241841   3.009   5.334   1.345
 3783SOL     OW41842   4.930   1.610   1.425
 3783SOL    HW141843   4.936   1.517   1.462
 3783SOL    HW241844   4.871   1.610   1.345
 3784SOL     OW41845   4.930   3.472   1.425
 3784SOL    HW141846   4.936   3.379   1.462
 3784SOL    HW241847   4.871   3.472   1.345
 3785SOL     OW41848   4.930   5.334   1.425
 3785SOL    HW141849   4.936   5.241   1.462
 3785SOL    HW241850   4.871   5.334   1.345
 3786SOL     OW41851   0.087   2.205   1.427
 3786SOL    HW141852   6.445   2.177   1.398
 3786SOL    HW241853   0.118   2.282   1.371
 3787SOL     OW41854   0.087   4.067   1.427
 3787SOL    HW141855   6.445   4.039   1.398
 3787SOL    HW241856   0.118   4.144   1.371
 3788SOL     OW41857   0.087   5.929   1.427
 3788SOL    HW141858   6.445   5.901   1.398
 3788SOL    HW241859   0.118   6.006   1.371
 3789SOL     OW41860   1.949   0.343   1.427
 3789SOL    HW141861   1.857   0.315   1.398
 3789SOL    HW241862   1.980   0.420   1.371
 3790SOL     OW41863   1.949   2.205   1.427
 3790SOL    HW141864   1.857   2.177   1.398
 3790SOL    HW241865   1.980   2.282   1.371
 3791SOL     OW41866   1.949   4.067   1.427
 3791SOL    HW141867   1.857   4.039   1.398
 3791SOL    HW241868   1.980   4.144   1.371
 3792SOL     OW41869   1.949   5.929   1.427
 3792SOL    HW141870   1.857   5.901   1.398
 3792SOL    HW241871   1.980   6.006   1.371
 3793SOL     OW41872   3.811   0.343   1.427
 3793SOL    HW141873   3.719   0.315   1.398
 3793SOL    HW241874   3.842   0.420   1.371
 3794SOL     OW41875   3.811   4.067   1.427
 3794SOL    HW141876   3.719   4.039   1.398
 3794SOL    HW241877   3.842   4.144   1.371
 3795SOL     OW41878   5.673   0.343   1.427
 3795SOL    HW141879   5.581   0.315   1.398
 3795SOL    HW241880   5.704   0.420   1.371
 3796SOL     OW41881   5.673   4.067   1.427
 3796SOL    HW141882   5.581   4.039   1.398
 3796SOL    HW241883   5.704   4.144   1.371
 3797SOL     OW41884   5.673   5.929   1.427
 3797SOL    HW141885   5.581   5.901   1.398
 3797SOL    HW241886   5.704   6.006   1.371
 3798SOL     OW41887   1.446   1.186   1.435
 3798SOL    HW141888   1.478   1.110   1.492
 3798SOL    HW241889   1.354   1.213   1.465
 3799SOL     OW41890   1.446   4.910   1.435
 3799SOL    HW141891   1.478   4.834   1.492
 3799SOL    HW241892   1.354   4.937   1.465
 3800SOL     OW41893   3.308   3.048   1.435
 3800SOL    HW141894   3.340   2.972   1.492
 3800SOL    HW241895   3.216   3.075   1.465
 3801SOL     OW41896   3.308   4.910   1.435
 3801SOL    HW141897   3.340   4.834   1.492
 3801SOL    HW241898   3.216   4.937   1.465
 3802SOL     OW41899   5.170   1.186   1.435
 3802SOL    HW141900   5.202   1.110   1.492
 3802SOL    HW241901   5.078   1.213   1.465
 3803SOL     OW41902   5.170   3.048   1.435
 3803SOL    HW141903   5.202   2.972   1.492
 3803SOL    HW241904   5.078   3.075   1.465
 3804SOL     OW41905   5.170   4.910   1.435
 3804SOL    HW141906   5.202   4.834   1.492
 3804SOL    HW241907   5.078   4.937   1.465
 3805SOL     OW41908   1.315   0.836   1.436
 3805SOL    HW141909   1.349   0.743   1.451
 3805SOL    HW241910   1.333   0.863   1.341
 3806SOL     OW41911   1.315   2.698   1.436
 3806SOL    HW141912   1.349   2.605   1.451
 3806SOL    HW241913   1.333   2.725   1.341
 3807SOL     OW41914   1.315   4.560   1.436
 3807SOL    HW141915   1.349   4.467   1.451
 3807SOL    HW241916   1.333   4.587   1.341
 3808SOL     OW41917   3.177   0.836   1.436
 3808SOL    HW141918   3.211   0.743   1.451
 3808SOL    HW241919   3.195   0.863   1.341
 3809SOL     OW41920   3.177   2.698   1.436
 3809SOL    HW141921   3.211   2.605   1.451
 3809SOL    HW241922   3.195   2.725   1.341
 3810SOL     OW41923   3.177   4.560   1.436
 3810SOL    HW141924   3.211   4.467   1.451
 3810SOL    HW241925   3.195   4.587   1.341
 3811SOL     OW41926   5.039   0.836   1.436
 3811SOL    HW141927   5.073   0.743   1.451
 3811SOL    HW241928   5.057   0.863   1.341
 3812SOL     OW41929   5.039   4.560   1.436
 3812SOL    HW141930   5.073   4.467   1.451
 3812SOL    HW241931   5.057   4.587   1.341
 3813SOL     OW41932   1.516   1.605   1.438
 3813SOL    HW141933   1.424   1.642   1.445
 3813SOL    HW241934   1.554   1.625   1.348
 3814SOL     OW41935   1.516   3.467   1.438
 3814SOL    HW141936   1.424   3.504   1.445
 3814SOL    HW241937   1.554   3.487   1.348
 3815SOL     OW41938   1.516   5.329   1.438
 3815SOL    HW141939   1.424   5.366   1.445
 3815SOL    HW241940   1.554   5.349   1.348
 3816SOL     OW41941   3.378   1.605   1.438
 3816SOL    HW141942   3.286   1.642   1.445
 3816SOL    HW241943   3.416   1.625   1.348
 3817SOL     OW41944   3.378   3.467   1.438
 3817SOL    HW141945   3.286   3.504   1.445
 3817SOL    HW241946   3.416   3.487   1.348
 3818SOL     OW41947   3.378   5.329   1.438
 3818SOL    HW141948   3.286   5.366   1.445
 3818SOL    HW241949   3.416   5.349   1.348
 3819SOL     OW41950   5.240   1.605   1.438
 3819SOL    HW141951   5.148   1.642   1.445
 3819SOL    HW241952   5.278   1.625   1.348
 3820SOL     OW41953   5.240   5.329   1.438
 3820SOL    HW141954   5.148   5.366   1.445
 3820SOL    HW241955   5.278   5.349   1.348
 3821SOL     OW41956   1.567   1.509  11.407
 3821SOL    HW141957   1.510   1.493  11.488
 3821SOL    HW241958   1.508   1.519  11.327
 3822SOL     OW41959   1.567   3.371  11.407
 3822SOL    HW141960   1.510   3.355  11.488
 3822SOL    HW241961   1.508   3.381  11.327
 3823SOL     OW41962   1.567   5.233  11.407
 3823SOL    HW141963   1.510   5.217  11.488
 3823SOL    HW241964   1.508   5.243  11.327
 3824SOL     OW41965   3.429   1.509  11.407
 3824SOL    HW141966   3.372   1.493  11.488
 3824SOL    HW241967   3.370   1.519  11.327
 3825SOL     OW41968   3.429   5.233  11.407
 3825SOL    HW141969   3.372   5.217  11.488
 3825SOL    HW241970   3.370   5.243  11.327
 3826SOL     OW41971   5.291   1.509  11.407
 3826SOL    HW141972   5.234   1.493  11.488
 3826SOL    HW241973   5.232   1.519  11.327
 3827SOL     OW41974   5.291   5.233  11.407
 3827SOL    HW141975   5.234   5.217  11.488
 3827SOL    HW241976   5.232   5.243  11.327
 3828SOL     OW41977   1.051   1.096  11.400
 3828SOL    HW141978   0.981   1.049  11.454
 3828SOL    HW241979   1.110   1.028  11.357
 3829SOL     OW41980   1.051   2.958  11.400
 3829SOL    HW141981   0.981   2.911  11.454
 3829SOL    HW241982   1.110   2.890  11.357
 3830SOL     OW41983   1.051   4.820  11.400
 3830SOL    HW141984   0.981   4.773  11.454
 3830SOL    HW241985   1.110   4.752  11.357
 3831SOL     OW41986   2.913   1.096  11.400
 3831SOL    HW141987   2.843   1.049  11.454
 3831SOL    HW241988   2.972   1.028  11.357
 3832SOL     OW41989   2.913   2.958  11.400
 3832SOL    HW141990   2.843   2.911  11.454
 3832SOL    HW241991   2.972   2.890  11.357
 3833SOL     OW41992   2.913   4.820  11.400
 3833SOL    HW141993   2.843   4.773  11.454
 3833SOL    HW241994   2.972   4.752  11.357
 3834SOL     OW41995   4.775   1.096  11.400
 3834SOL    HW141996   4.705   1.049  11.454
 3834SOL    HW241997   4.834   1.028  11.357
 3835SOL     OW41998   4.775   2.958  11.400
 3835SOL    HW141999   4.705   2.911  11.454
 3835SOL    HW242000   4.834   2.890  11.357
 3836SOL     OW42001   4.775   4.820  11.400
 3836SOL    HW142002   4.705   4.773  11.454
 3836SOL    HW242003   4.834   4.752  11.357
 3837SOL     OW42004   1.312   0.451  11.395
 3837SOL    HW142005   1.253   0.531  11.399
 3837SOL    HW242006   1.327   0.416  11.488
 3838SOL     OW42007   1.312   4.175  11.395
 3838SOL    HW142008   1.253   4.255  11.399
 3838SOL    HW242009   1.327   4.140  11.488
 3839SOL     OW42010   1.312   6.037  11.395
 3839SOL    HW142011   1.253   6.117  11.399
 3839SOL    HW242012   1.327   6.002  11.488
 3840SOL     OW42013   3.174   0.451  11.395
 3840SOL    HW142014   3.115   0.531  11.399
 3840SOL    HW242015   3.189   0.416  11.488
 3841SOL     OW42016   3.174   2.313  11.395
 3841SOL    HW142017   3.115   2.393  11.399
 3841SOL    HW242018   3.189   2.278  11.488
 3842SOL     OW42019   3.174   4.175  11.395
 3842SOL    HW142020   3.115   4.255  11.399
 3842SOL    HW242021   3.189   4.140  11.488
 3843SOL     OW42022   3.174   6.037  11.395
 3843SOL    HW142023   3.115   6.117  11.399
 3843SOL    HW242024   3.189   6.002  11.488
 3844SOL     OW42025   5.036   2.313  11.395
 3844SOL    HW142026   4.977   2.393  11.399
 3844SOL    HW242027   5.051   2.278  11.488
 3845SOL     OW42028   5.036   6.037  11.395
 3845SOL    HW142029   4.977   6.117  11.399
 3845SOL    HW242030   5.051   6.002  11.488
 3846SOL     OW42031   0.824   1.584  11.391
 3846SOL    HW142032   0.856   1.594  11.297
 3846SOL    HW242033   0.745   1.522  11.393
 3847SOL     OW42034   0.824   3.446  11.391
 3847SOL    HW142035   0.856   3.456  11.297
 3847SOL    HW242036   0.745   3.384  11.393
 3848SOL     OW42037   0.824   5.308  11.391
 3848SOL    HW142038   0.856   5.318  11.297
 3848SOL    HW242039   0.745   5.246  11.393
 3849SOL     OW42040   2.686   1.584  11.391
 3849SOL    HW142041   2.718   1.594  11.297
 3849SOL    HW242042   2.607   1.522  11.393
 3850SOL     OW42043   2.686   3.446  11.391
 3850SOL    HW142044   2.718   3.456  11.297
 3850SOL    HW242045   2.607   3.384  11.393
 3851SOL     OW42046   2.686   5.308  11.391
 3851SOL    HW142047   2.718   5.318  11.297
 3851SOL    HW242048   2.607   5.246  11.393
 3852SOL     OW42049   4.548   3.446  11.391
 3852SOL    HW142050   4.580   3.456  11.297
 3852SOL    HW242051   4.469   3.384  11.393
 3853SOL     OW42052   4.548   5.308  11.391
 3853SOL    HW142053   4.580   5.318  11.297
 3853SOL    HW242054   4.469   5.246  11.393
 3854SOL     OW42055   6.410   1.584  11.391
 3854SOL    HW142056   6.442   1.594  11.297
 3854SOL    HW242057   6.331   1.522  11.393
 3855SOL     OW42058   6.410   3.446  11.391
 3855SOL    HW142059   6.442   3.456  11.297
 3855SOL    HW242060   6.331   3.384  11.393
 3856SOL     OW42061   6.410   5.308  11.391
 3856SOL    HW142062   6.442   5.318  11.297
 3856SOL    HW242063   6.331   5.246  11.393
 3857SOL     OW42064   1.292   0.925  11.376
 3857SOL    HW142065   1.352   0.844  11.378
 3857SOL    HW242066   1.332   0.994  11.316
 3858SOL     OW42067   1.292   2.787  11.376
 3858SOL    HW142068   1.352   2.706  11.378
 3858SOL    HW242069   1.332   2.856  11.316
 3859SOL     OW42070   1.292   0.061  11.376
 3859SOL    HW142071   1.352   6.430  11.378
 3859SOL    HW242072   1.332   0.130  11.316
 3860SOL     OW42073   3.154   0.925  11.376
 3860SOL    HW142074   3.214   0.844  11.378
 3860SOL    HW242075   3.194   0.994  11.316
 3861SOL     OW42076   3.154   2.787  11.376
 3861SOL    HW142077   3.214   2.706  11.378
 3861SOL    HW242078   3.194   2.856  11.316
 3862SOL     OW42079   3.154   0.061  11.376
 3862SOL    HW142080   3.214   6.430  11.378
 3862SOL    HW242081   3.194   0.130  11.316
 3863SOL     OW42082   5.016   0.925  11.376
 3863SOL    HW142083   5.076   0.844  11.378
 3863SOL    HW242084   5.056   0.994  11.316
 3864SOL     OW42085   5.016   2.787  11.376
 3864SOL    HW142086   5.076   2.706  11.378
 3864SOL    HW242087   5.056   2.856  11.316
 3865SOL     OW42088   5.016   0.061  11.376
 3865SOL    HW142089   5.076   6.430  11.378
 3865SOL    HW242090   5.056   0.130  11.316
 3866SOL     OW42091   1.402   0.573   1.472
 3866SOL    HW142092   1.348   0.552   1.553
 3866SOL    HW242093   1.493   0.532   1.481
 3867SOL     OW42094   1.402   2.435   1.472
 3867SOL    HW142095   1.348   2.414   1.553
 3867SOL    HW242096   1.493   2.394   1.481
 3868SOL     OW42097   1.402   6.159   1.472
 3868SOL    HW142098   1.348   6.138   1.553
 3868SOL    HW242099   1.493   6.118   1.481
 3869SOL     OW42100   3.264   2.435   1.472
 3869SOL    HW142101   3.210   2.414   1.553
 3869SOL    HW242102   3.355   2.394   1.481
 3870SOL     OW42103   5.126   0.573   1.472
 3870SOL    HW142104   5.072   0.552   1.553
 3870SOL    HW242105   5.217   0.532   1.481
 3871SOL     OW42106   5.126   2.435   1.472
 3871SOL    HW142107   5.072   2.414   1.553
 3871SOL    HW242108   5.217   2.394   1.481
 3872SOL     OW42109   5.126   4.297   1.472
 3872SOL    HW142110   5.072   4.276   1.553
 3872SOL    HW242111   5.217   4.256   1.481
 3873SOL     OW42112   1.644   3.237   1.475
 3873SOL    HW142113   1.612   3.331   1.465
 3873SOL    HW242114   1.568   3.174   1.463
 3874SOL     OW42115   1.644   5.099   1.475
 3874SOL    HW142116   1.612   5.193   1.465
 3874SOL    HW242117   1.568   5.036   1.463
 3875SOL     OW42118   3.506   1.375   1.475
 3875SOL    HW142119   3.474   1.469   1.465
 3875SOL    HW242120   3.430   1.312   1.463
 3876SOL     OW42121   3.506   3.237   1.475
 3876SOL    HW142122   3.474   3.331   1.465
 3876SOL    HW242123   3.430   3.174   1.463
 3877SOL     OW42124   3.506   5.099   1.475
 3877SOL    HW142125   3.474   5.193   1.465
 3877SOL    HW242126   3.430   5.036   1.463
 3878SOL     OW42127   5.368   5.099   1.475
 3878SOL    HW142128   5.336   5.193   1.465
 3878SOL    HW242129   5.292   5.036   1.463
 3879SOL     OW42130   0.697   1.010  11.369
 3879SOL    HW142131   0.766   0.994  11.439
 3879SOL    HW242132   0.624   1.067  11.407
 3880SOL     OW42133   0.697   2.872  11.369
 3880SOL    HW142134   0.766   2.856  11.439
 3880SOL    HW242135   0.624   2.929  11.407
 3881SOL     OW42136   0.697   4.734  11.369
 3881SOL    HW142137   0.766   4.718  11.439
 3881SOL    HW242138   0.624   4.791  11.407
 3882SOL     OW42139   0.697   0.146  11.369
 3882SOL    HW142140   0.766   0.130  11.439
 3882SOL    HW242141   0.624   0.203  11.407
 3883SOL     OW42142   2.559   1.010  11.369
 3883SOL    HW142143   2.628   0.994  11.439
 3883SOL    HW242144   2.486   1.067  11.407
 3884SOL     OW42145   2.559   2.872  11.369
 3884SOL    HW142146   2.628   2.856  11.439
 3884SOL    HW242147   2.486   2.929  11.407
 3885SOL     OW42148   2.559   4.734  11.369
 3885SOL    HW142149   2.628   4.718  11.439
 3885SOL    HW242150   2.486   4.791  11.407
 3886SOL     OW42151   2.559   0.146  11.369
 3886SOL    HW142152   2.628   0.130  11.439
 3886SOL    HW242153   2.486   0.203  11.407
 3887SOL     OW42154   4.421   1.010  11.369
 3887SOL    HW142155   4.490   0.994  11.439
 3887SOL    HW242156   4.348   1.067  11.407
 3888SOL     OW42157   4.421   2.872  11.369
 3888SOL    HW142158   4.490   2.856  11.439
 3888SOL    HW242159   4.348   2.929  11.407
 3889SOL     OW42160   4.421   0.146  11.369
 3889SOL    HW142161   4.490   0.130  11.439
 3889SOL    HW242162   4.348   0.203  11.407
 3890SOL     OW42163   6.283   1.010  11.369
 3890SOL    HW142164   6.352   0.994  11.439
 3890SOL    HW242165   6.210   1.067  11.407
 3891SOL     OW42166   6.283   4.734  11.369
 3891SOL    HW142167   6.352   4.718  11.439
 3891SOL    HW242168   6.210   4.791  11.407
 3892SOL     OW42169   6.283   0.146  11.369
 3892SOL    HW142170   6.352   0.130  11.439
 3892SOL    HW242171   6.210   0.203  11.407
 3893SOL     OW42172   1.095   0.982   1.481
 3893SOL    HW142173   1.072   1.035   1.399
 3893SOL    HW242174   1.176   0.926   1.462
 3894SOL     OW42175   1.095   4.706   1.481
 3894SOL    HW142176   1.072   4.759   1.399
 3894SOL    HW242177   1.176   4.650   1.462
 3895SOL     OW42178   2.957   0.982   1.481
 3895SOL    HW142179   2.934   1.035   1.399
 3895SOL    HW242180   3.038   0.926   1.462
 3896SOL     OW42181   2.957   2.844   1.481
 3896SOL    HW142182   2.934   2.897   1.399
 3896SOL    HW242183   3.038   2.788   1.462
 3897SOL     OW42184   2.957   4.706   1.481
 3897SOL    HW142185   2.934   4.759   1.399
 3897SOL    HW242186   3.038   4.650   1.462
 3898SOL     OW42187   4.819   2.844   1.481
 3898SOL    HW142188   4.796   2.897   1.399
 3898SOL    HW242189   4.900   2.788   1.462
 3899SOL     OW42190   4.819   4.706   1.481
 3899SOL    HW142191   4.796   4.759   1.399
 3899SOL    HW242192   4.900   4.650   1.462
 3900SOL     OW42193   1.676   1.278  11.361
 3900SOL    HW142194   1.775   1.286  11.375
 3900SOL    HW242195   1.631   1.362  11.392
 3901SOL     OW42196   1.676   3.140  11.361
 3901SOL    HW142197   1.775   3.148  11.375
 3901SOL    HW242198   1.631   3.224  11.392
 3902SOL     OW42199   1.676   5.002  11.361
 3902SOL    HW142200   1.775   5.010  11.375
 3902SOL    HW242201   1.631   5.086  11.392
 3903SOL     OW42202   3.538   1.278  11.361
 3903SOL    HW142203   3.637   1.286  11.375
 3903SOL    HW242204   3.493   1.362  11.392
 3904SOL     OW42205   3.538   5.002  11.361
 3904SOL    HW142206   3.637   5.010  11.375
 3904SOL    HW242207   3.493   5.086  11.392
 3905SOL     OW42208   5.400   1.278  11.361
 3905SOL    HW142209   5.499   1.286  11.375
 3905SOL    HW242210   5.355   1.362  11.392
 3906SOL     OW42211   5.400   3.140  11.361
 3906SOL    HW142212   5.499   3.148  11.375
 3906SOL    HW242213   5.355   3.224  11.392
 3907SOL     OW42214   5.400   5.002  11.361
 3907SOL    HW142215   5.499   5.010  11.375
 3907SOL    HW242216   5.355   5.086  11.392
 3908SOL     OW42217   0.091   1.238  11.357
 3908SOL    HW142218   0.090   1.191  11.445
 3908SOL    HW242219   0.173   1.210  11.306
 3909SOL     OW42220   0.091   4.962  11.357
 3909SOL    HW142221   0.090   4.915  11.445
 3909SOL    HW242222   0.173   4.934  11.306
 3910SOL     OW42223   1.953   3.100  11.357
 3910SOL    HW142224   1.952   3.053  11.445
 3910SOL    HW242225   2.035   3.072  11.306
 3911SOL     OW42226   1.953   4.962  11.357
 3911SOL    HW142227   1.952   4.915  11.445
 3911SOL    HW242228   2.035   4.934  11.306
 3912SOL     OW42229   3.815   1.238  11.357
 3912SOL    HW142230   3.814   1.191  11.445
 3912SOL    HW242231   3.897   1.210  11.306
 3913SOL     OW42232   3.815   3.100  11.357
 3913SOL    HW142233   3.814   3.053  11.445
 3913SOL    HW242234   3.897   3.072  11.306
 3914SOL     OW42235   3.815   4.962  11.357
 3914SOL    HW142236   3.814   4.915  11.445
 3914SOL    HW242237   3.897   4.934  11.306
 3915SOL     OW42238   5.677   1.238  11.357
 3915SOL    HW142239   5.676   1.191  11.445
 3915SOL    HW242240   5.759   1.210  11.306
 3916SOL     OW42241   5.677   3.100  11.357
 3916SOL    HW142242   5.676   3.053  11.445
 3916SOL    HW242243   5.759   3.072  11.306
 3917SOL     OW42244   5.677   4.962  11.357
 3917SOL    HW142245   5.676   4.915  11.445
 3917SOL    HW242246   5.759   4.934  11.306
 3918SOL     OW42247   0.606   0.743  11.356
 3918SOL    HW142248   0.656   0.828  11.337
 3918SOL    HW242249   0.518   0.745  11.308
 3919SOL     OW42250   0.606   2.605  11.356
 3919SOL    HW142251   0.656   2.690  11.337
 3919SOL    HW242252   0.518   2.607  11.308
 3920SOL     OW42253   0.606   4.467  11.356
 3920SOL    HW142254   0.656   4.552  11.337
 3920SOL    HW242255   0.518   4.469  11.308
 3921SOL     OW42256   2.468   2.605  11.356
 3921SOL    HW142257   2.518   2.690  11.337
 3921SOL    HW242258   2.380   2.607  11.308
 3922SOL     OW42259   2.468   4.467  11.356
 3922SOL    HW142260   2.518   4.552  11.337
 3922SOL    HW242261   2.380   4.469  11.308
 3923SOL     OW42262   4.330   2.605  11.356
 3923SOL    HW142263   4.380   2.690  11.337
 3923SOL    HW242264   4.242   2.607  11.308
 3924SOL     OW42265   4.330   4.467  11.356
 3924SOL    HW142266   4.380   4.552  11.337
 3924SOL    HW242267   4.242   4.469  11.308
 3925SOL     OW42268   4.330   6.329  11.356
 3925SOL    HW142269   4.380   6.414  11.337
 3925SOL    HW242270   4.242   6.331  11.308
 3926SOL     OW42271   6.192   0.743  11.356
 3926SOL    HW142272   6.242   0.828  11.337
 3926SOL    HW242273   6.104   0.745  11.308
 3927SOL     OW42274   6.192   4.467  11.356
 3927SOL    HW142275   6.242   4.552  11.337
 3927SOL    HW242276   6.104   4.469  11.308
 3928SOL     OW42277   0.031   0.366  11.351
 3928SOL    HW142278   6.399   0.409  11.390
 3928SOL    HW242279   0.003   0.293  11.288
 3929SOL     OW42280   0.031   2.228  11.351
 3929SOL    HW142281   6.399   2.271  11.390
 3929SOL    HW242282   0.003   2.155  11.288
 3930SOL     OW42283   0.031   4.090  11.351
 3930SOL    HW142284   6.399   4.133  11.390
 3930SOL    HW242285   0.003   4.017  11.288
 3931SOL     OW42286   0.031   5.952  11.351
 3931SOL    HW142287   6.399   5.995  11.390
 3931SOL    HW242288   0.003   5.879  11.288
 3932SOL     OW42289   1.893   0.366  11.351
 3932SOL    HW142290   1.811   0.409  11.390
 3932SOL    HW242291   1.865   0.293  11.288
 3933SOL     OW42292   1.893   2.228  11.351
 3933SOL    HW142293   1.811   2.271  11.390
 3933SOL    HW242294   1.865   2.155  11.288
 3934SOL     OW42295   1.893   5.952  11.351
 3934SOL    HW142296   1.811   5.995  11.390
 3934SOL    HW242297   1.865   5.879  11.288
 3935SOL     OW42298   3.755   0.366  11.351
 3935SOL    HW142299   3.673   0.409  11.390
 3935SOL    HW242300   3.727   0.293  11.288
 3936SOL     OW42301   3.755   2.228  11.351
 3936SOL    HW142302   3.673   2.271  11.390
 3936SOL    HW242303   3.727   2.155  11.288
 3937SOL     OW42304   3.755   5.952  11.351
 3937SOL    HW142305   3.673   5.995  11.390
 3937SOL    HW242306   3.727   5.879  11.288
 3938SOL     OW42307   5.617   0.366  11.351
 3938SOL    HW142308   5.535   0.409  11.390
 3938SOL    HW242309   5.589   0.293  11.288
 3939SOL     OW42310   5.617   5.952  11.351
 3939SOL    HW142311   5.535   5.995  11.390
 3939SOL    HW242312   5.589   5.879  11.288
 3940SOL     OW42313   0.878   0.452  11.346
 3940SOL    HW142314   0.846   0.524  11.284
 3940SOL    HW242315   0.902   0.371  11.293
 3941SOL     OW42316   0.878   2.314  11.346
 3941SOL    HW142317   0.846   2.386  11.284
 3941SOL    HW242318   0.902   2.233  11.293
 3942SOL     OW42319   0.878   4.176  11.346
 3942SOL    HW142320   0.846   4.248  11.284
 3942SOL    HW242321   0.902   4.095  11.293
 3943SOL     OW42322   0.878   6.038  11.346
 3943SOL    HW142323   0.846   6.110  11.284
 3943SOL    HW242324   0.902   5.957  11.293
 3944SOL     OW42325   2.740   4.176  11.346
 3944SOL    HW142326   2.708   4.248  11.284
 3944SOL    HW242327   2.764   4.095  11.293
 3945SOL     OW42328   4.602   2.314  11.346
 3945SOL    HW142329   4.570   2.386  11.284
 3945SOL    HW242330   4.626   2.233  11.293
 3946SOL     OW42331   4.602   6.038  11.346
 3946SOL    HW142332   4.570   6.110  11.284
 3946SOL    HW242333   4.626   5.957  11.293
 3947SOL     OW42334   0.242   0.626   1.507
 3947SOL    HW142335   0.149   0.624   1.544
 3947SOL    HW242336   0.243   0.587   1.415
 3948SOL     OW42337   0.242   2.488   1.507
 3948SOL    HW142338   0.149   2.486   1.544
 3948SOL    HW242339   0.243   2.449   1.415
 3949SOL     OW42340   0.242   4.350   1.507
 3949SOL    HW142341   0.149   4.348   1.544
 3949SOL    HW242342   0.243   4.311   1.415
 3950SOL     OW42343   0.242   6.212   1.507
 3950SOL    HW142344   0.149   6.210   1.544
 3950SOL    HW242345   0.243   6.173   1.415
 3951SOL     OW42346   2.104   0.626   1.507
 3951SOL    HW142347   2.011   0.624   1.544
 3951SOL    HW242348   2.105   0.587   1.415
 3952SOL     OW42349   2.104   6.212   1.507
 3952SOL    HW142350   2.011   6.210   1.544
 3952SOL    HW242351   2.105   6.173   1.415
 3953SOL     OW42352   3.966   4.350   1.507
 3953SOL    HW142353   3.873   4.348   1.544
 3953SOL    HW242354   3.967   4.311   1.415
 3954SOL     OW42355   3.966   6.212   1.507
 3954SOL    HW142356   3.873   6.210   1.544
 3954SOL    HW242357   3.967   6.173   1.415
 3955SOL     OW42358   5.828   0.626   1.507
 3955SOL    HW142359   5.735   0.624   1.544
 3955SOL    HW242360   5.829   0.587   1.415
 3956SOL     OW42361   5.828   2.488   1.507
 3956SOL    HW142362   5.735   2.486   1.544
 3956SOL    HW242363   5.829   2.449   1.415
 3957SOL     OW42364   5.828   6.212   1.507
 3957SOL    HW142365   5.735   6.210   1.544
 3957SOL    HW242366   5.829   6.173   1.415
 3958SOL     OW42367   0.626   0.120   1.511
 3958SOL    HW142368   0.724   0.098   1.518
 3958SOL    HW242369   0.595   0.103   1.418
 3959SOL     OW42370   0.626   1.982   1.511
 3959SOL    HW142371   0.724   1.960   1.518
 3959SOL    HW242372   0.595   1.965   1.418
 3960SOL     OW42373   0.626   3.844   1.511
 3960SOL    HW142374   0.724   3.822   1.518
 3960SOL    HW242375   0.595   3.827   1.418
 3961SOL     OW42376   1.901   1.594   1.511
 3961SOL    HW142377   1.882   1.498   1.532
 3961SOL    HW242378   1.868   1.652   1.586
 3962SOL     OW42379   1.901   3.456   1.511
 3962SOL    HW142380   1.882   3.360   1.532
 3962SOL    HW242381   1.868   3.514   1.586
 3963SOL     OW42382   2.488   1.982   1.511
 3963SOL    HW142383   2.586   1.960   1.518
 3963SOL    HW242384   2.457   1.965   1.418
 3964SOL     OW42385   1.901   5.318   1.511
 3964SOL    HW142386   1.882   5.222   1.532
 3964SOL    HW242387   1.868   5.376   1.586
 3965SOL     OW42388   2.488   3.844   1.511
 3965SOL    HW142389   2.586   3.822   1.518
 3965SOL    HW242390   2.457   3.827   1.418
 3966SOL     OW42391   2.488   5.706   1.511
 3966SOL    HW142392   2.586   5.684   1.518
 3966SOL    HW242393   2.457   5.689   1.418
 3967SOL     OW42394   3.763   1.594   1.511
 3967SOL    HW142395   3.744   1.498   1.532
 3967SOL    HW242396   3.730   1.652   1.586
 3968SOL     OW42397   4.350   0.120   1.511
 3968SOL    HW142398   4.448   0.098   1.518
 3968SOL    HW242399   4.319   0.103   1.418
 3969SOL     OW42400   4.350   1.982   1.511
 3969SOL    HW142401   4.448   1.960   1.518
 3969SOL    HW242402   4.319   1.965   1.418
 3970SOL     OW42403   4.350   3.844   1.511
 3970SOL    HW142404   4.448   3.822   1.518
 3970SOL    HW242405   4.319   3.827   1.418
 3971SOL     OW42406   4.350   5.706   1.511
 3971SOL    HW142407   4.448   5.684   1.518
 3971SOL    HW242408   4.319   5.689   1.418
 3972SOL     OW42409   6.212   1.982   1.511
 3972SOL    HW142410   6.310   1.960   1.518
 3972SOL    HW242411   6.181   1.965   1.418
 3973SOL     OW42412   5.625   5.318   1.511
 3973SOL    HW142413   5.606   5.222   1.532
 3973SOL    HW242414   5.592   5.376   1.586
 3974SOL     OW42415   6.212   3.844   1.511
 3974SOL    HW142416   6.310   3.822   1.518
 3974SOL    HW242417   6.181   3.827   1.418
 3975SOL     OW42418   1.195   1.333   1.513
 3975SOL    HW142419   1.096   1.322   1.515
 3975SOL    HW242420   1.229   1.348   1.606
 3976SOL     OW42421   1.195   3.195   1.513
 3976SOL    HW142422   1.096   3.184   1.515
 3976SOL    HW242423   1.229   3.210   1.606
 3977SOL     OW42424   1.195   5.057   1.513
 3977SOL    HW142425   1.096   5.046   1.515
 3977SOL    HW242426   1.229   5.072   1.606
 3978SOL     OW42427   3.057   1.333   1.513
 3978SOL    HW142428   2.958   1.322   1.515
 3978SOL    HW242429   3.091   1.348   1.606
 3979SOL     OW42430   3.057   3.195   1.513
 3979SOL    HW142431   2.958   3.184   1.515
 3979SOL    HW242432   3.091   3.210   1.606
 3980SOL     OW42433   3.057   5.057   1.513
 3980SOL    HW142434   2.958   5.046   1.515
 3980SOL    HW242435   3.091   5.072   1.606
 3981SOL     OW42436   0.618   4.686   1.517
 3981SOL    HW142437   0.625   4.770   1.463
 3981SOL    HW242438   0.664   4.699   1.605
 3982SOL     OW42439   2.480   0.962   1.517
 3982SOL    HW142440   2.487   1.046   1.463
 3982SOL    HW242441   2.526   0.975   1.605
 3983SOL     OW42442   2.480   2.824   1.517
 3983SOL    HW142443   2.487   2.908   1.463
 3983SOL    HW242444   2.526   2.837   1.605
 3984SOL     OW42445   2.480   4.686   1.517
 3984SOL    HW142446   2.487   4.770   1.463
 3984SOL    HW242447   2.526   4.699   1.605
 3985SOL     OW42448   4.342   0.962   1.517
 3985SOL    HW142449   4.349   1.046   1.463
 3985SOL    HW242450   4.388   0.975   1.605
 3986SOL     OW42451   4.342   2.824   1.517
 3986SOL    HW142452   4.349   2.908   1.463
 3986SOL    HW242453   4.388   2.837   1.605
 3987SOL     OW42454   4.342   4.686   1.517
 3987SOL    HW142455   4.349   4.770   1.463
 3987SOL    HW242456   4.388   4.699   1.605
 3988SOL     OW42457   6.204   4.686   1.517
 3988SOL    HW142458   6.211   4.770   1.463
 3988SOL    HW242459   6.250   4.699   1.605
 3989SOL     OW42460   1.552   3.996   1.519
 3989SOL    HW142461   1.491   3.921   1.542
 3989SOL    HW242462   1.574   4.048   1.602
 3990SOL     OW42463   3.414   2.134   1.519
 3990SOL    HW142464   3.353   2.059   1.542
 3990SOL    HW242465   3.436   2.186   1.602
 3991SOL     OW42466   3.414   5.858   1.519
 3991SOL    HW142467   3.353   5.783   1.542
 3991SOL    HW242468   3.436   5.910   1.602
 3992SOL     OW42469   5.276   0.272   1.519
 3992SOL    HW142470   5.215   0.197   1.542
 3992SOL    HW242471   5.298   0.324   1.602
 3993SOL     OW42472   5.276   2.134   1.519
 3993SOL    HW142473   5.215   2.059   1.542
 3993SOL    HW242474   5.298   2.186   1.602
 3994SOL     OW42475   5.276   3.996   1.519
 3994SOL    HW142476   5.215   3.921   1.542
 3994SOL    HW242477   5.298   4.048   1.602
 3995SOL     OW42478   5.276   5.858   1.519
 3995SOL    HW142479   5.215   5.783   1.542
 3995SOL    HW242480   5.298   5.910   1.602
 3996SOL     OW42481   0.319   0.061  11.322
 3996SOL    HW142482   0.308   0.155  11.355
 3996SOL    HW242483   0.314   6.448  11.399
 3997SOL     OW42484   0.319   1.923  11.322
 3997SOL    HW142485   0.308   2.017  11.355
 3997SOL    HW242486   0.314   1.860  11.399
 3998SOL     OW42487   0.319   3.785  11.322
 3998SOL    HW142488   0.308   3.879  11.355
 3998SOL    HW242489   0.314   3.722  11.399
 3999SOL     OW42490   0.319   5.647  11.322
 3999SOL    HW142491   0.308   5.741  11.355
 3999SOL    HW242492   0.314   5.584  11.399
 4000SOL     OW42493   2.181   1.923  11.322
 4000SOL    HW142494   2.170   2.017  11.355
 4000SOL    HW242495   2.176   1.860  11.399
 4001SOL     OW42496   4.043   0.061  11.322
 4001SOL    HW142497   4.032   0.155  11.355
 4001SOL    HW242498   4.038   6.448  11.399
 4002SOL     OW42499   5.905   0.061  11.322
 4002SOL    HW142500   5.894   0.155  11.355
 4002SOL    HW242501   5.900   6.448  11.399
 4003SOL     OW42502   5.905   1.923  11.322
 4003SOL    HW142503   5.894   2.017  11.355
 4003SOL    HW242504   5.900   1.860  11.399
 4004SOL     OW42505   5.905   3.785  11.322
 4004SOL    HW142506   5.894   3.879  11.355
 4004SOL    HW242507   5.900   3.722  11.399
 4005SOL     OW42508   0.051   0.084   1.527
 4005SOL    HW142509   0.102   0.085   1.441
 4005SOL    HW242510   0.107   0.042   1.598
 4006SOL     OW42511   0.051   3.808   1.527
 4006SOL    HW142512   0.102   3.809   1.441
 4006SOL    HW242513   0.107   3.766   1.598
 4007SOL     OW42514   0.051   5.670   1.527
 4007SOL    HW142515   0.102   5.671   1.441
 4007SOL    HW242516   0.107   5.628   1.598
 4008SOL     OW42517   1.701   2.782  11.316
 4008SOL    HW142518   1.796   2.753  11.324
 4008SOL    HW242519   1.693   2.847  11.241
 4009SOL     OW42520   1.701   4.644  11.316
 4009SOL    HW142521   1.796   4.615  11.324
 4009SOL    HW242522   1.693   4.709  11.241
 4010SOL     OW42523   3.563   4.644  11.316
 4010SOL    HW142524   3.658   4.615  11.324
 4010SOL    HW242525   3.555   4.709  11.241
 4011SOL     OW42526   5.425   0.920  11.316
 4011SOL    HW142527   5.520   0.891  11.324
 4011SOL    HW242528   5.417   0.985  11.241
 4012SOL     OW42529   5.425   2.782  11.316
 4012SOL    HW142530   5.520   2.753  11.324
 4012SOL    HW242531   5.417   2.847  11.241
 4013SOL     OW42532   2.546   1.614   1.548
 4013SOL    HW142533   2.555   1.624   1.449
 4013SOL    HW242534   2.506   1.525   1.569
 4014SOL     OW42535   2.546   5.338   1.548
 4014SOL    HW142536   2.555   5.348   1.449
 4014SOL    HW242537   2.506   5.249   1.569
 4015SOL     OW42538   4.408   1.614   1.548
 4015SOL    HW142539   4.417   1.624   1.449
 4015SOL    HW242540   4.368   1.525   1.569
 4016SOL     OW42541   4.408   3.476   1.548
 4016SOL    HW142542   4.417   3.486   1.449
 4016SOL    HW242543   4.368   3.387   1.569
 4017SOL     OW42544   4.408   5.338   1.548
 4017SOL    HW142545   4.417   5.348   1.449
 4017SOL    HW242546   4.368   5.249   1.569
 4018SOL     OW42547   6.270   1.614   1.548
 4018SOL    HW142548   6.279   1.624   1.449
 4018SOL    HW242549   6.230   1.525   1.569
 4019SOL     OW42550   6.270   5.338   1.548
 4019SOL    HW142551   6.279   5.348   1.449
 4019SOL    HW242552   6.230   5.249   1.569
 4020SOL     OW42553   1.283   3.657  11.295
 4020SOL    HW142554   1.327   3.721  11.231
 4020SOL    HW242555   1.233   3.709  11.365
 4021SOL     OW42556   3.145   1.795  11.295
 4021SOL    HW142557   3.189   1.859  11.231
 4021SOL    HW242558   3.095   1.847  11.365
 4022SOL     OW42559   5.007   1.795  11.295
 4022SOL    HW142560   5.051   1.859  11.231
 4022SOL    HW242561   4.957   1.847  11.365
 4023SOL     OW42562   5.007   3.657  11.295
 4023SOL    HW142563   5.051   3.721  11.231
 4023SOL    HW242564   4.957   3.709  11.365
 4024SOL     OW42565   1.364   0.050   1.562
 4024SOL    HW142566   1.399   0.009   1.478
 4024SOL    HW242567   1.274   0.012   1.582
 4025SOL     OW42568   1.364   3.774   1.562
 4025SOL    HW142569   1.399   3.733   1.478
 4025SOL    HW242570   1.274   3.736   1.582
 4026SOL     OW42571   1.364   5.636   1.562
 4026SOL    HW142572   1.399   5.595   1.478
 4026SOL    HW242573   1.274   5.598   1.582
 4027SOL     OW42574   3.226   0.050   1.562
 4027SOL    HW142575   3.261   0.009   1.478
 4027SOL    HW242576   3.136   0.012   1.582
 4028SOL     OW42577   3.226   1.912   1.562
 4028SOL    HW142578   3.261   1.871   1.478
 4028SOL    HW242579   3.136   1.874   1.582
 4029SOL     OW42580   3.226   5.636   1.562
 4029SOL    HW142581   3.261   5.595   1.478
 4029SOL    HW242582   3.136   5.598   1.582
 4030SOL     OW42583   5.088   0.050   1.562
 4030SOL    HW142584   5.123   0.009   1.478
 4030SOL    HW242585   4.998   0.012   1.582
 4031SOL     OW42586   5.088   1.912   1.562
 4031SOL    HW142587   5.123   1.871   1.478
 4031SOL    HW242588   4.998   1.874   1.582
 4032SOL     OW42589   5.088   3.774   1.562
 4032SOL    HW142590   5.123   3.733   1.478
 4032SOL    HW242591   4.998   3.736   1.582
 4033SOL     OW42592   5.088   5.636   1.562
 4033SOL    HW142593   5.123   5.595   1.478
 4033SOL    HW242594   4.998   5.598   1.582
 4034SOL     OW42595   0.309   0.033   1.565
 4034SOL    HW142596   0.358   0.117   1.544
 4034SOL    HW242597   0.371   6.418   1.610
 4035SOL     OW42598   0.309   3.757   1.565
 4035SOL    HW142599   0.358   3.841   1.544
 4035SOL    HW242600   0.371   3.692   1.610
 4036SOL     OW42601   2.171   3.757   1.565
 4036SOL    HW142602   2.220   3.841   1.544
 4036SOL    HW242603   2.233   3.692   1.610
 4037SOL     OW42604   2.171   5.619   1.565
 4037SOL    HW142605   2.220   5.703   1.544
 4037SOL    HW242606   2.233   5.554   1.610
 4038SOL     OW42607   4.033   0.033   1.565
 4038SOL    HW142608   4.082   0.117   1.544
 4038SOL    HW242609   4.095   6.418   1.610
 4039SOL     OW42610   4.033   5.619   1.565
 4039SOL    HW142611   4.082   5.703   1.544
 4039SOL    HW242612   4.095   5.554   1.610
 4040SOL     OW42613   5.895   5.619   1.565
 4040SOL    HW142614   5.944   5.703   1.544
 4040SOL    HW242615   5.957   5.554   1.610
 4041SOL     OW42616   0.500   1.383   1.568
 4041SOL    HW142617   0.413   1.368   1.615
 4041SOL    HW242618   0.483   1.409   1.473
 4042SOL     OW42619   0.500   3.245   1.568
 4042SOL    HW142620   0.413   3.230   1.615
 4042SOL    HW242621   0.483   3.271   1.473
 4043SOL     OW42622   2.362   3.245   1.568
 4043SOL    HW142623   2.275   3.230   1.615
 4043SOL    HW242624   2.345   3.271   1.473
 4044SOL     OW42625   4.224   1.383   1.568
 4044SOL    HW142626   4.137   1.368   1.615
 4044SOL    HW242627   4.207   1.409   1.473
 4045SOL     OW42628   4.224   3.245   1.568
 4045SOL    HW142629   4.137   3.230   1.615
 4045SOL    HW242630   4.207   3.271   1.473
 4046SOL     OW42631   4.224   5.107   1.568
 4046SOL    HW142632   4.137   5.092   1.615
 4046SOL    HW242633   4.207   5.133   1.473
 4047SOL     OW42634   6.086   1.383   1.568
 4047SOL    HW142635   5.999   1.368   1.615
 4047SOL    HW242636   6.069   1.409   1.473
 4048SOL     OW42637   6.086   3.245   1.568
 4048SOL    HW142638   5.999   3.230   1.615
 4048SOL    HW242639   6.069   3.271   1.473
 4049SOL     OW42640   6.086   5.107   1.568
 4049SOL    HW142641   5.999   5.092   1.615
 4049SOL    HW242642   6.069   5.133   1.473
 4050SOL     OW42643   1.679   1.712  11.276
 4050SOL    HW142644   1.638   1.689  11.188
 4050SOL    HW242645   1.661   1.638  11.341
 4051SOL     OW42646   1.679   3.574  11.276
 4051SOL    HW142647   1.638   3.551  11.188
 4051SOL    HW242648   1.661   3.500  11.341
 4052SOL     OW42649   1.679   5.436  11.276
 4052SOL    HW142650   1.638   5.413  11.188
 4052SOL    HW242651   1.661   5.362  11.341
 4053SOL     OW42652   3.541   1.712  11.276
 4053SOL    HW142653   3.500   1.689  11.188
 4053SOL    HW242654   3.523   1.638  11.341
 4054SOL     OW42655   5.403   1.712  11.276
 4054SOL    HW142656   5.362   1.689  11.188
 4054SOL    HW242657   5.385   1.638  11.341
 4055SOL     OW42658   5.403   3.574  11.276
 4055SOL    HW142659   5.362   3.551  11.188
 4055SOL    HW242660   5.385   3.500  11.341
 4056SOL     OW42661   0.134   2.503  11.267
 4056SOL    HW142662   0.089   2.415  11.284
 4056SOL    HW242663   0.133   2.557  11.351
 4057SOL     OW42664   0.134   4.365  11.267
 4057SOL    HW142665   0.089   4.277  11.284
 4057SOL    HW242666   0.133   4.419  11.351
 4058SOL     OW42667   0.134   6.227  11.267
 4058SOL    HW142668   0.089   6.139  11.284
 4058SOL    HW242669   0.133   6.281  11.351
 4059SOL     OW42670   1.996   0.641  11.267
 4059SOL    HW142671   1.951   0.553  11.284
 4059SOL    HW242672   1.995   0.695  11.351
 4060SOL     OW42673   1.996   4.365  11.267
 4060SOL    HW142674   1.951   4.277  11.284
 4060SOL    HW242675   1.995   4.419  11.351
 4061SOL     OW42676   1.996   6.227  11.267
 4061SOL    HW142677   1.951   6.139  11.284
 4061SOL    HW242678   1.995   6.281  11.351
 4062SOL     OW42679   3.858   2.503  11.267
 4062SOL    HW142680   3.813   2.415  11.284
 4062SOL    HW242681   3.857   2.557  11.351
 4063SOL     OW42682   3.858   4.365  11.267
 4063SOL    HW142683   3.813   4.277  11.284
 4063SOL    HW242684   3.857   4.419  11.351
 4064SOL     OW42685   3.858   6.227  11.267
 4064SOL    HW142686   3.813   6.139  11.284
 4064SOL    HW242687   3.857   6.281  11.351
 4065SOL     OW42688   5.720   4.365  11.267
 4065SOL    HW142689   5.675   4.277  11.284
 4065SOL    HW242690   5.719   4.419  11.351
 4066SOL     OW42691   5.720   6.227  11.267
 4066SOL    HW142692   5.675   6.139  11.284
 4066SOL    HW242693   5.719   6.281  11.351
 4067SOL     OW42694   1.537   4.721   1.584
 4067SOL    HW142695   1.474   4.645   1.597
 4067SOL    HW242696   1.585   4.739   1.670
 4068SOL     OW42697   3.399   4.721   1.584
 4068SOL    HW142698   3.336   4.645   1.597
 4068SOL    HW242699   3.447   4.739   1.670
 4069SOL     OW42700   5.261   0.997   1.584
 4069SOL    HW142701   5.198   0.921   1.597
 4069SOL    HW242702   5.309   1.015   1.670
 4070SOL     OW42703   5.261   2.859   1.584
 4070SOL    HW142704   5.198   2.783   1.597
 4070SOL    HW242705   5.309   2.877   1.670
 4071SOL     OW42706   5.261   4.721   1.584
 4071SOL    HW142707   5.198   4.645   1.597
 4071SOL    HW242708   5.309   4.739   1.670
 4072SOL     OW42709   0.485   0.498   1.585
 4072SOL    HW142710   0.546   0.578   1.589
 4072SOL    HW242711   0.390   0.529   1.592
 4073SOL     OW42712   0.485   2.360   1.585
 4073SOL    HW142713   0.546   2.440   1.589
 4073SOL    HW242714   0.390   2.391   1.592
 4074SOL     OW42715   0.485   4.222   1.585
 4074SOL    HW142716   0.546   4.302   1.589
 4074SOL    HW242717   0.390   4.253   1.592
 4075SOL     OW42718   2.347   0.498   1.585
 4075SOL    HW142719   2.408   0.578   1.589
 4075SOL    HW242720   2.252   0.529   1.592
 4076SOL     OW42721   2.347   6.084   1.585
 4076SOL    HW142722   2.408   6.164   1.589
 4076SOL    HW242723   2.252   6.115   1.592
 4077SOL     OW42724   6.071   0.498   1.585
 4077SOL    HW142725   6.132   0.578   1.589
 4077SOL    HW242726   5.976   0.529   1.592
 4078SOL     OW42727   6.071   6.084   1.585
 4078SOL    HW142728   6.132   6.164   1.589
 4078SOL    HW242729   5.976   6.115   1.592
 4079SOL     OW42730   0.877   2.208   1.589
 4079SOL    HW142731   0.936   2.271   1.540
 4079SOL    HW242732   0.896   2.114   1.560
 4080SOL     OW42733   0.877   4.070   1.589
 4080SOL    HW142734   0.936   4.133   1.540
 4080SOL    HW242735   0.896   3.976   1.560
 4081SOL     OW42736   2.739   0.346   1.589
 4081SOL    HW142737   2.798   0.409   1.540
 4081SOL    HW242738   2.758   0.252   1.560
 4082SOL     OW42739   2.739   4.070   1.589
 4082SOL    HW142740   2.798   4.133   1.540
 4082SOL    HW242741   2.758   3.976   1.560
 4083SOL     OW42742   2.739   5.932   1.589
 4083SOL    HW142743   2.798   5.995   1.540
 4083SOL    HW242744   2.758   5.838   1.560
 4084SOL     OW42745   4.601   0.346   1.589
 4084SOL    HW142746   4.660   0.409   1.540
 4084SOL    HW242747   4.620   0.252   1.560
 4085SOL     OW42748   4.601   2.208   1.589
 4085SOL    HW142749   4.660   2.271   1.540
 4085SOL    HW242750   4.620   2.114   1.560
 4086SOL     OW42751   4.601   4.070   1.589
 4086SOL    HW142752   4.660   4.133   1.540
 4086SOL    HW242753   4.620   3.976   1.560
 4087SOL     OW42754   0.020   1.324   1.594
 4087SOL    HW142755   6.377   1.345   1.563
 4087SOL    HW242756   0.030   1.225   1.607
 4088SOL     OW42757   0.020   3.186   1.594
 4088SOL    HW142758   6.377   3.207   1.563
 4088SOL    HW242759   0.030   3.087   1.607
 4089SOL     OW42760   0.020   5.048   1.594
 4089SOL    HW142761   6.377   5.069   1.563
 4089SOL    HW242762   0.030   4.949   1.607
 4090SOL     OW42763   1.882   3.186   1.594
 4090SOL    HW142764   1.789   3.207   1.563
 4090SOL    HW242765   1.892   3.087   1.607
 4091SOL     OW42766   1.882   5.048   1.594
 4091SOL    HW142767   1.789   5.069   1.563
 4091SOL    HW242768   1.892   4.949   1.607
 4092SOL     OW42769   3.744   1.324   1.594
 4092SOL    HW142770   3.651   1.345   1.563
 4092SOL    HW242771   3.754   1.225   1.607
 4093SOL     OW42772   3.744   3.186   1.594
 4093SOL    HW142773   3.651   3.207   1.563
 4093SOL    HW242774   3.754   3.087   1.607
 4094SOL     OW42775   1.374   3.004  11.249
 4094SOL    HW142776   1.457   2.975  11.201
 4094SOL    HW242777   1.325   3.071  11.193
 4095SOL     OW42778   3.236   1.142  11.249
 4095SOL    HW142779   3.319   1.113  11.201
 4095SOL    HW242780   3.187   1.209  11.193
 4096SOL     OW42781   5.098   3.004  11.249
 4096SOL    HW142782   5.181   2.975  11.201
 4096SOL    HW242783   5.049   3.071  11.193
 4097SOL     OW42784   0.242   5.156  11.242
 4097SOL    HW142785   0.216   5.252  11.242
 4097SOL    HW242786   0.171   5.102  11.287
 4098SOL     OW42787   2.104   5.156  11.242
 4098SOL    HW142788   2.078   5.252  11.242
 4098SOL    HW242789   2.033   5.102  11.287
 4099SOL     OW42790   3.966   1.432  11.242
 4099SOL    HW142791   3.940   1.528  11.242
 4099SOL    HW242792   3.895   1.378  11.287
 4100SOL     OW42793   3.966   5.156  11.242
 4100SOL    HW142794   3.940   5.252  11.242
 4100SOL    HW242795   3.895   5.102  11.287
 4101SOL     OW42796   5.828   1.432  11.242
 4101SOL    HW142797   5.802   1.528  11.242
 4101SOL    HW242798   5.757   1.378  11.287
 4102SOL     OW42799   5.828   3.294  11.242
 4102SOL    HW142800   5.802   3.390  11.242
 4102SOL    HW242801   5.757   3.240  11.287
 4103SOL     OW42802   5.828   5.156  11.242
 4103SOL    HW142803   5.802   5.252  11.242
 4103SOL    HW242804   5.757   5.102  11.287
 4104SOL     OW42805   1.738   1.995  11.227
 4104SOL    HW142806   1.811   1.978  11.160
 4104SOL    HW242807   1.707   1.908  11.265
 4105SOL     OW42808   1.738   3.857  11.227
 4105SOL    HW142809   1.811   3.840  11.160
 4105SOL    HW242810   1.707   3.770  11.265
 4106SOL     OW42811   1.738   5.719  11.227
 4106SOL    HW142812   1.811   5.702  11.160
 4106SOL    HW242813   1.707   5.632  11.265
 4107SOL     OW42814   3.600   1.995  11.227
 4107SOL    HW142815   3.673   1.978  11.160
 4107SOL    HW242816   3.569   1.908  11.265
 4108SOL     OW42817   5.462   1.995  11.227
 4108SOL    HW142818   5.535   1.978  11.160
 4108SOL    HW242819   5.431   1.908  11.265
 4109SOL     OW42820   5.462   5.719  11.227
 4109SOL    HW142821   5.535   5.702  11.160
 4109SOL    HW242822   5.431   5.632  11.265
 4110SOL     OW42823   0.440   0.422  11.224
 4110SOL    HW142824   0.470   0.350  11.162
 4110SOL    HW242825   0.401   0.382  11.307
 4111SOL     OW42826   2.302   0.422  11.224
 4111SOL    HW142827   2.332   0.350  11.162
 4111SOL    HW242828   2.263   0.382  11.307
 4112SOL     OW42829   2.302   2.284  11.224
 4112SOL    HW142830   2.332   2.212  11.162
 4112SOL    HW242831   2.263   2.244  11.307
 4113SOL     OW42832   4.164   0.422  11.224
 4113SOL    HW142833   4.194   0.350  11.162
 4113SOL    HW242834   4.125   0.382  11.307
 4114SOL     OW42835   6.026   0.422  11.224
 4114SOL    HW142836   6.056   0.350  11.162
 4114SOL    HW242837   5.987   0.382  11.307
 4115SOL     OW42838   6.026   2.284  11.224
 4115SOL    HW142839   6.056   2.212  11.162
 4115SOL    HW242840   5.987   2.244  11.307
 4116SOL     OW42841   1.767   0.605   1.625
 4116SOL    HW142842   1.755   0.592   1.526
 4116SOL    HW242843   1.737   0.524   1.674
 4117SOL     OW42844   1.767   6.191   1.625
 4117SOL    HW142845   1.755   6.178   1.526
 4117SOL    HW242846   1.737   6.110   1.674
 4118SOL     OW42847   3.629   0.605   1.625
 4118SOL    HW142848   3.617   0.592   1.526
 4118SOL    HW242849   3.599   0.524   1.674
 4119SOL     OW42850   3.629   2.467   1.625
 4119SOL    HW142851   3.617   2.454   1.526
 4119SOL    HW242852   3.599   2.386   1.674
 4120SOL     OW42853   3.629   6.191   1.625
 4120SOL    HW142854   3.617   6.178   1.526
 4120SOL    HW242855   3.599   6.110   1.674
 4121SOL     OW42856   5.491   0.605   1.625
 4121SOL    HW142857   5.479   0.592   1.526
 4121SOL    HW242858   5.461   0.524   1.674
 4122SOL     OW42859   5.491   2.467   1.625
 4122SOL    HW142860   5.479   2.454   1.526
 4122SOL    HW242861   5.461   2.386   1.674
 4123SOL     OW42862   5.491   4.329   1.625
 4123SOL    HW142863   5.479   4.316   1.526
 4123SOL    HW242864   5.461   4.248   1.674
 4124SOL     OW42865   0.551   1.924  11.216
 4124SOL    HW142866   0.470   1.925  11.274
 4124SOL    HW242867   0.554   2.007  11.161
 4125SOL     OW42868   2.413   0.062  11.216
 4125SOL    HW142869   2.332   0.063  11.274
 4125SOL    HW242870   2.416   0.145  11.161
 4126SOL     OW42871   2.413   1.924  11.216
 4126SOL    HW142872   2.332   1.925  11.274
 4126SOL    HW242873   2.416   2.007  11.161
 4127SOL     OW42874   4.275   0.062  11.216
 4127SOL    HW142875   4.194   0.063  11.274
 4127SOL    HW242876   4.278   0.145  11.161
 4128SOL     OW42877   6.137   0.062  11.216
 4128SOL    HW142878   6.056   0.063  11.274
 4128SOL    HW242879   6.140   0.145  11.161
 4129SOL     OW42880   6.137   1.924  11.216
 4129SOL    HW142881   6.056   1.925  11.274
 4129SOL    HW242882   6.140   2.007  11.161
 4130SOL     OW42883   1.123   1.774   1.631
 4130SOL    HW142884   1.063   1.712   1.681
 4130SOL    HW242885   1.154   1.730   1.546
 4131SOL     OW42886   1.123   5.498   1.631
 4131SOL    HW142887   1.063   5.436   1.681
 4131SOL    HW242888   1.154   5.454   1.546
 4132SOL     OW42889   2.985   1.774   1.631
 4132SOL    HW142890   2.925   1.712   1.681
 4132SOL    HW242891   3.016   1.730   1.546
 4133SOL     OW42892   2.985   3.636   1.631
 4133SOL    HW142893   2.925   3.574   1.681
 4133SOL    HW242894   3.016   3.592   1.546
 4134SOL     OW42895   4.847   5.498   1.631
 4134SOL    HW142896   4.787   5.436   1.681
 4134SOL    HW242897   4.878   5.454   1.546
 4135SOL     OW42898   0.333   0.941   1.636
 4135SOL    HW142899   0.415   0.980   1.594
 4135SOL    HW242900   0.306   0.859   1.587
 4136SOL     OW42901   0.333   2.803   1.636
 4136SOL    HW142902   0.415   2.842   1.594
 4136SOL    HW242903   0.306   2.721   1.587
 4137SOL     OW42904   0.333   4.665   1.636
 4137SOL    HW142905   0.415   4.704   1.594
 4137SOL    HW242906   0.306   4.583   1.587
 4138SOL     OW42907   2.195   0.941   1.636
 4138SOL    HW142908   2.277   0.980   1.594
 4138SOL    HW242909   2.168   0.859   1.587
 4139SOL     OW42910   2.195   2.803   1.636
 4139SOL    HW142911   2.277   2.842   1.594
 4139SOL    HW242912   2.168   2.721   1.587
 4140SOL     OW42913   4.057   4.665   1.636
 4140SOL    HW142914   4.139   4.704   1.594
 4140SOL    HW242915   4.030   4.583   1.587
 4141SOL     OW42916   5.919   0.941   1.636
 4141SOL    HW142917   6.001   0.980   1.594
 4141SOL    HW242918   5.892   0.859   1.587
 4142SOL     OW42919   5.919   4.665   1.636
 4142SOL    HW142920   6.001   4.704   1.594
 4142SOL    HW242921   5.892   4.583   1.587
 4143SOL     OW42922   0.821   1.864  11.206
 4143SOL    HW142923   0.861   1.955  11.197
 4143SOL    HW242924   0.721   1.872  11.212
 4144SOL     OW42925   0.821   3.726  11.206
 4144SOL    HW142926   0.861   3.817  11.197
 4144SOL    HW242927   0.721   3.734  11.212
 4145SOL     OW42928   0.821   5.588  11.206
 4145SOL    HW142929   0.861   5.679  11.197
 4145SOL    HW242930   0.721   5.596  11.212
 4146SOL     OW42931   4.545   0.002  11.206
 4146SOL    HW142932   4.585   0.093  11.197
 4146SOL    HW242933   4.445   0.010  11.212
 4147SOL     OW42934   6.407   0.002  11.206
 4147SOL    HW142935   6.447   0.093  11.197
 4147SOL    HW242936   6.307   0.010  11.212
 4148SOL     OW42937   6.407   1.864  11.206
 4148SOL    HW142938   6.447   1.955  11.197
 4148SOL    HW242939   6.307   1.872  11.212
 4149SOL     OW42940   6.407   5.588  11.206
 4149SOL    HW142941   6.447   5.679  11.197
 4149SOL    HW242942   6.307   5.596  11.212
 4150SOL     OW42943   0.379   4.822  11.205
 4150SOL    HW142944   0.372   4.905  11.149
 4150SOL    HW242945   0.383   4.742  11.145
 4151SOL     OW42946   2.241   1.098  11.205
 4151SOL    HW142947   2.234   1.181  11.149
 4151SOL    HW242948   2.245   1.018  11.145
 4152SOL     OW42949   4.103   1.098  11.205
 4152SOL    HW142950   4.096   1.181  11.149
 4152SOL    HW242951   4.107   1.018  11.145
 4153SOL     OW42952   0.602   1.485  11.195
 4153SOL    HW142953   0.644   1.427  11.125
 4153SOL    HW242954   0.558   1.564  11.151
 4154SOL     OW42955   0.602   3.347  11.195
 4154SOL    HW142956   0.644   3.289  11.125
 4154SOL    HW242957   0.558   3.426  11.151
 4155SOL     OW42958   0.243   3.573  11.187
 4155SOL    HW142959   0.277   3.650  11.241
 4155SOL    HW242960   0.287   3.573  11.097
 4156SOL     OW42961   2.105   1.711  11.187
 4156SOL    HW142962   2.139   1.788  11.241
 4156SOL    HW242963   2.149   1.711  11.097
 4157SOL     OW42964   3.967   1.711  11.187
 4157SOL    HW142965   4.001   1.788  11.241
 4157SOL    HW242966   4.011   1.711  11.097
 4158SOL     OW42967   3.967   3.573  11.187
 4158SOL    HW142968   4.001   3.650  11.241
 4158SOL    HW242969   4.011   3.573  11.097
 4159SOL     OW42970   3.967   5.435  11.187
 4159SOL    HW142971   4.001   5.512  11.241
 4159SOL    HW242972   4.011   5.435  11.097
 4160SOL     OW42973   0.947   0.234  11.184
 4160SOL    HW142974   0.899   0.275  11.106
 4160SOL    HW242975   1.046   0.232  11.165
 4161SOL     OW42976   0.394   2.560  11.184
 4161SOL    HW142977   0.439   2.470  11.181
 4161SOL    HW242978   0.300   2.549  11.217
 4162SOL     OW42979   0.394   4.422  11.184
 4162SOL    HW142980   0.439   4.332  11.181
 4162SOL    HW242981   0.300   4.411  11.217
 4163SOL     OW42982   0.947   3.958  11.184
 4163SOL    HW142983   0.899   3.999  11.106
 4163SOL    HW242984   1.046   3.956  11.165
 4164SOL     OW42985   2.256   0.698  11.184
 4164SOL    HW142986   2.301   0.608  11.181
 4164SOL    HW242987   2.162   0.687  11.217
 4165SOL     OW42988   2.809   0.234  11.184
 4165SOL    HW142989   2.761   0.275  11.106
 4165SOL    HW242990   2.908   0.232  11.165
 4166SOL     OW42991   4.671   0.234  11.184
 4166SOL    HW142992   4.623   0.275  11.106
 4166SOL    HW242993   4.770   0.232  11.165
 4167SOL     OW42994   4.118   2.560  11.184
 4167SOL    HW142995   4.163   2.470  11.181
 4167SOL    HW242996   4.024   2.549  11.217
 4168SOL     OW42997   4.671   2.096  11.184
 4168SOL    HW142998   4.623   2.137  11.106
 4168SOL    HW242999   4.770   2.094  11.165
 4169SOL     OW43000   4.118   6.284  11.184
 4169SOL    HW143001   4.163   6.194  11.181
 4169SOL    HW243002   4.024   6.273  11.217
 4170SOL     OW43003   4.671   5.820  11.184
 4170SOL    HW143004   4.623   5.861  11.106
 4170SOL    HW243005   4.770   5.818  11.165
 4171SOL     OW43006   5.980   4.422  11.184
 4171SOL    HW143007   6.025   4.332  11.181
 4171SOL    HW243008   5.886   4.411  11.217
 4172SOL     OW43009   0.610   2.589   1.664
 4172SOL    HW143010   0.634   2.658   1.596
 4172SOL    HW243011   0.532   2.622   1.718
 4173SOL     OW43012   0.610   4.451   1.664
 4173SOL    HW143013   0.634   4.520   1.596
 4173SOL    HW243014   0.532   4.484   1.718
 4174SOL     OW43015   0.610   6.313   1.664
 4174SOL    HW143016   0.634   6.382   1.596
 4174SOL    HW243017   0.532   6.346   1.718
 4175SOL     OW43018   2.472   0.727   1.664
 4175SOL    HW143019   2.496   0.796   1.596
 4175SOL    HW243020   2.394   0.760   1.718
 4176SOL     OW43021   4.334   0.727   1.664
 4176SOL    HW143022   4.358   0.796   1.596
 4176SOL    HW243023   4.256   0.760   1.718
 4177SOL     OW43024   4.334   2.589   1.664
 4177SOL    HW143025   4.358   2.658   1.596
 4177SOL    HW243026   4.256   2.622   1.718
 4178SOL     OW43027   4.334   6.313   1.664
 4178SOL    HW143028   4.358   6.382   1.596
 4178SOL    HW243029   4.256   6.346   1.718
 4179SOL     OW43030   6.196   6.313   1.664
 4179SOL    HW143031   6.220   6.382   1.596
 4179SOL    HW243032   6.118   6.346   1.718
 4180SOL     OW43033   1.400   3.433  11.181
 4180SOL    HW143034   1.467   3.445  11.107
 4180SOL    HW243035   1.360   3.522  11.204
 4181SOL     OW43036   1.020   5.178  11.181
 4181SOL    HW143037   0.974   5.250  11.129
 4181SOL    HW243038   1.016   5.198  11.279
 4182SOL     OW43039   4.744   3.316  11.181
 4182SOL    HW143040   4.698   3.388  11.129
 4182SOL    HW243041   4.740   3.336  11.279
 4183SOL     OW43042   4.744   5.178  11.181
 4183SOL    HW143043   4.698   5.250  11.129
 4183SOL    HW243044   4.740   5.198  11.279
 4184SOL     OW43045   1.221   0.523   1.669
 4184SOL    HW143046   1.234   0.439   1.723
 4184SOL    HW243047   1.192   0.597   1.729
 4185SOL     OW43048   1.221   6.109   1.669
 4185SOL    HW143049   1.234   6.025   1.723
 4185SOL    HW243050   1.192   6.183   1.729
 4186SOL     OW43051   3.083   2.385   1.669
 4186SOL    HW143052   3.096   2.301   1.723
 4186SOL    HW243053   3.054   2.459   1.729
 4187SOL     OW43054   4.945   0.523   1.669
 4187SOL    HW143055   4.958   0.439   1.723
 4187SOL    HW243056   4.916   0.597   1.729
 4188SOL     OW43057   1.594   2.499  11.176
 4188SOL    HW143058   1.563   2.560  11.249
 4188SOL    HW243059   1.644   2.551  11.107
 4189SOL     OW43060   1.594   4.361  11.176
 4189SOL    HW143061   1.563   4.422  11.249
 4189SOL    HW243062   1.644   4.413  11.107
 4190SOL     OW43063   3.456   0.637  11.176
 4190SOL    HW143064   3.425   0.698  11.249
 4190SOL    HW243065   3.506   0.689  11.107
 4191SOL     OW43066   0.267   1.346   1.684
 4191SOL    HW143067   0.171   1.347   1.657
 4191SOL    HW243068   0.279   1.399   1.768
 4192SOL     OW43069   0.267   3.208   1.684
 4192SOL    HW143070   0.171   3.209   1.657
 4192SOL    HW243071   0.279   3.261   1.768
 4193SOL     OW43072   2.129   1.346   1.684
 4193SOL    HW143073   2.033   1.347   1.657
 4193SOL    HW243074   2.141   1.399   1.768
 4194SOL     OW43075   2.129   3.208   1.684
 4194SOL    HW143076   2.033   3.209   1.657
 4194SOL    HW243077   2.141   3.261   1.768
 4195SOL     OW43078   0.928   4.632   1.685
 4195SOL    HW143079   0.991   4.670   1.617
 4195SOL    HW243080   0.968   4.549   1.724
 4196SOL     OW43081   2.790   0.908   1.685
 4196SOL    HW143082   2.853   0.946   1.617
 4196SOL    HW243083   2.830   0.825   1.724
 4197SOL     OW43084   2.790   2.770   1.685
 4197SOL    HW143085   2.853   2.808   1.617
 4197SOL    HW243086   2.830   2.687   1.724
 4198SOL     OW43087   2.790   4.632   1.685
 4198SOL    HW143088   2.853   4.670   1.617
 4198SOL    HW243089   2.830   4.549   1.724
 4199SOL     OW43090   4.652   2.770   1.685
 4199SOL    HW143091   4.715   2.808   1.617
 4199SOL    HW243092   4.692   2.687   1.724
 4200SOL     OW43093   4.652   4.632   1.685
 4200SOL    HW143094   4.715   4.670   1.617
 4200SOL    HW243095   4.692   4.549   1.724
 4201SOL     OW43096   4.652   0.044   1.685
 4201SOL    HW143097   4.715   0.082   1.617
 4201SOL    HW243098   4.692   6.411   1.724
 4202SOL     OW43099   3.099   0.323  11.153
 4202SOL    HW143100   3.164   0.249  11.142
 4202SOL    HW243101   3.119   0.373  11.237
 4203SOL     OW43102   3.099   2.185  11.153
 4203SOL    HW143103   3.164   2.111  11.142
 4203SOL    HW243104   3.119   2.235  11.237
 4204SOL     OW43105   4.961   2.185  11.153
 4204SOL    HW143106   5.026   2.111  11.142
 4204SOL    HW243107   4.981   2.235  11.237
 4205SOL     OW43108   4.961   5.909  11.153
 4205SOL    HW143109   5.026   5.835  11.142
 4205SOL    HW243110   4.981   5.959  11.237
 4206SOL     OW43111   0.051   4.799   1.694
 4206SOL    HW143112   0.150   4.788   1.685
 4206SOL    HW243113   0.011   4.713   1.726
 4207SOL     OW43114   1.913   1.075   1.694
 4207SOL    HW143115   2.012   1.064   1.685
 4207SOL    HW243116   1.873   0.989   1.726
 4208SOL     OW43117   1.913   2.937   1.694
 4208SOL    HW143118   2.012   2.926   1.685
 4208SOL    HW243119   1.873   2.851   1.726
 4209SOL     OW43120   1.913   4.799   1.694
 4209SOL    HW143121   2.012   4.788   1.685
 4209SOL    HW243122   1.873   4.713   1.726
 4210SOL     OW43123   3.775   2.937   1.694
 4210SOL    HW143124   3.874   2.926   1.685
 4210SOL    HW243125   3.735   2.851   1.726
 4211SOL     OW43126   0.782   1.328   1.695
 4211SOL    HW143127   0.736   1.241   1.712
 4211SOL    HW243128   0.873   1.325   1.736
 4212SOL     OW43129   4.506   1.328   1.695
 4212SOL    HW143130   4.460   1.241   1.712
 4212SOL    HW243131   4.597   1.325   1.736
 4213SOL     OW43132   4.506   3.190   1.695
 4213SOL    HW143133   4.460   3.103   1.712
 4213SOL    HW243134   4.597   3.187   1.736
 4214SOL     OW43135   1.588   5.384   1.701
 4214SOL    HW143136   1.677   5.430   1.704
 4214SOL    HW243137   1.567   5.360   1.606
 4215SOL     OW43138   5.312   5.384   1.701
 4215SOL    HW143139   5.401   5.430   1.704
 4215SOL    HW243140   5.291   5.360   1.606
 4216SOL     OW43141   1.314   4.577   1.703
 4216SOL    HW143142   1.228   4.546   1.745
 4216SOL    HW243143   1.310   4.563   1.604
 4217SOL     OW43144   3.176   4.577   1.703
 4217SOL    HW143145   3.090   4.546   1.745
 4217SOL    HW243146   3.172   4.563   1.604
 4218SOL     OW43147   5.038   4.577   1.703
 4218SOL    HW143148   4.952   4.546   1.745
 4218SOL    HW243149   5.034   4.563   1.604
 4219SOL     OW43150   1.653   2.968  11.136
 4219SOL    HW143151   1.739   2.970  11.084
 4219SOL    HW243152   1.667   3.015  11.224
 4220SOL     OW43153   1.653   4.830  11.136
 4220SOL    HW143154   1.739   4.832  11.084
 4220SOL    HW243155   1.667   4.877  11.224
 4221SOL     OW43156   3.515   2.968  11.136
 4221SOL    HW143157   3.601   2.970  11.084
 4221SOL    HW243158   3.529   3.015  11.224
 4222SOL     OW43159   3.515   4.830  11.136
 4222SOL    HW143160   3.601   4.832  11.084
 4222SOL    HW243161   3.529   4.877  11.224
 4223SOL     OW43162   5.377   1.106  11.136
 4223SOL    HW143163   5.463   1.108  11.084
 4223SOL    HW243164   5.391   1.153  11.224
 4224SOL     OW43165   5.377   2.968  11.136
 4224SOL    HW143166   5.463   2.970  11.084
 4224SOL    HW243167   5.391   3.015  11.224
 4225SOL     OW43168   0.084   5.750   1.712
 4225SOL    HW143169   0.067   5.833   1.658
 4225SOL    HW243170   0.174   5.713   1.690
 4226SOL     OW43171   1.946   0.164   1.712
 4226SOL    HW143172   1.929   0.247   1.658
 4226SOL    HW243173   2.036   0.127   1.690
 4227SOL     OW43174   1.946   2.026   1.712
 4227SOL    HW143175   1.929   2.109   1.658
 4227SOL    HW243176   2.036   1.989   1.690
 4228SOL     OW43177   1.946   3.888   1.712
 4228SOL    HW143178   1.929   3.971   1.658
 4228SOL    HW243179   2.036   3.851   1.690
 4229SOL     OW43180   1.053   2.561  11.133
 4229SOL    HW143181   1.079   2.557  11.229
 4229SOL    HW243182   0.968   2.510  11.119
 4230SOL     OW43183   2.915   2.561  11.133
 4230SOL    HW143184   2.941   2.557  11.229
 4230SOL    HW243185   2.830   2.510  11.119
 4231SOL     OW43186   2.915   4.423  11.133
 4231SOL    HW143187   2.941   4.419  11.229
 4231SOL    HW243188   2.830   4.372  11.119
 4232SOL     OW43189   4.777   2.561  11.133
 4232SOL    HW143190   4.803   2.557  11.229
 4232SOL    HW243191   4.692   2.510  11.119
 4233SOL     OW43192   4.777   4.423  11.133
 4233SOL    HW143193   4.803   4.419  11.229
 4233SOL    HW243194   4.692   4.372  11.119
 4234SOL     OW43195   4.777   6.285  11.133
 4234SOL    HW143196   4.803   6.281  11.229
 4234SOL    HW243197   4.692   6.234  11.119
 4235SOL     OW43198   3.274   1.967  11.130
 4235SOL    HW143199   3.250   1.930  11.040
 4235SOL    HW243200   3.373   1.983  11.134
 4236SOL     OW43201   5.136   1.967  11.130
 4236SOL    HW143202   5.112   1.930  11.040
 4236SOL    HW243203   5.235   1.983  11.134
 4237SOL     OW43204   2.338   3.603   1.717
 4237SOL    HW143205   2.371   3.642   1.803
 4237SOL    HW243206   2.414   3.596   1.652
 4238SOL     OW43207   2.338   5.465   1.717
 4238SOL    HW143208   2.371   5.504   1.803
 4238SOL    HW243209   2.414   5.458   1.652
 4239SOL     OW43210   4.200   5.465   1.717
 4239SOL    HW143211   4.233   5.504   1.803
 4239SOL    HW243212   4.276   5.458   1.652
 4240SOL     OW43213   6.062   1.741   1.717
 4240SOL    HW143214   6.095   1.780   1.803
 4240SOL    HW243215   6.138   1.734   1.652
 4241SOL     OW43216   0.827   2.432   1.719
 4241SOL    HW143217   0.834   2.343   1.673
 4241SOL    HW243218   0.733   2.466   1.711
 4242SOL     OW43219   0.827   4.294   1.719
 4242SOL    HW143220   0.834   4.205   1.673
 4242SOL    HW243221   0.733   4.328   1.711
 4243SOL     OW43222   2.689   4.294   1.719
 4243SOL    HW143223   2.696   4.205   1.673
 4243SOL    HW243224   2.595   4.328   1.711
 4244SOL     OW43225   4.551   0.570   1.719
 4244SOL    HW143226   4.558   0.481   1.673
 4244SOL    HW243227   4.457   0.604   1.711
 4245SOL     OW43228   4.551   2.432   1.719
 4245SOL    HW143229   4.558   2.343   1.673
 4245SOL    HW243230   4.457   2.466   1.711
 4246SOL     OW43231   2.401   3.978   1.722
 4246SOL    HW143232   2.428   3.919   1.647
 4246SOL    HW243233   2.401   4.073   1.691
 4247SOL     OW43234   4.263   0.254   1.722
 4247SOL    HW143235   4.290   0.195   1.647
 4247SOL    HW243236   4.263   0.349   1.691
 4248SOL     OW43237   2.749   5.368   1.731
 4248SOL    HW143238   2.672   5.333   1.677
 4248SOL    HW243239   2.717   5.439   1.793
 4249SOL     OW43240   4.611   5.368   1.731
 4249SOL    HW143241   4.534   5.333   1.677
 4249SOL    HW243242   4.579   5.439   1.793
 4250SOL     OW43243   1.854   1.765   1.753
 4250SOL    HW143244   1.908   1.736   1.833
 4250SOL    HW243245   1.884   1.855   1.724
 4251SOL     OW43246   1.854   3.627   1.753
 4251SOL    HW143247   1.908   3.598   1.833
 4251SOL    HW243248   1.884   3.717   1.724
 4252SOL     OW43249   1.854   5.489   1.753
 4252SOL    HW143250   1.908   5.460   1.833
 4252SOL    HW243251   1.884   5.579   1.724
 4253SOL     OW43252   1.264   1.346  11.092
 4253SOL    HW143253   1.314   1.423  11.132
 4253SOL    HW243254   1.169   1.348  11.124
 4254SOL     OW43255   1.264   3.208  11.092
 4254SOL    HW143256   1.314   3.285  11.132
 4254SOL    HW243257   1.169   3.210  11.124
 4255SOL     OW43258   1.264   5.070  11.092
 4255SOL    HW143259   1.314   5.147  11.132
 4255SOL    HW243260   1.169   5.072  11.124
 4256SOL     OW43261   3.126   1.346  11.092
 4256SOL    HW143262   3.176   1.423  11.132
 4256SOL    HW243263   3.031   1.348  11.124
 4257SOL     OW43264   0.717   4.772   1.762
 4257SOL    HW143265   0.703   4.779   1.861
 4257SOL    HW243266   0.801   4.721   1.744
 4258SOL     OW43267   2.579   1.048   1.762
 4258SOL    HW143268   2.565   1.055   1.861
 4258SOL    HW243269   2.663   0.997   1.744
 4259SOL     OW43270   2.579   2.910   1.762
 4259SOL    HW143271   2.565   2.917   1.861
 4259SOL    HW243272   2.663   2.859   1.744
 4260SOL     OW43273   4.441   2.910   1.762
 4260SOL    HW143274   4.427   2.917   1.861
 4260SOL    HW243275   4.525   2.859   1.744
 4261SOL     OW43276   4.441   0.184   1.762
 4261SOL    HW143277   4.427   0.191   1.861
 4261SOL    HW243278   4.525   0.133   1.744
 4262SOL     OW43279   3.731   4.555  11.081
 4262SOL    HW143280   3.773   4.491  11.145
 4262SOL    HW243281   3.693   4.504  11.003
 4263SOL     OW43282   5.593   0.831  11.081
 4263SOL    HW143283   5.635   0.767  11.145
 4263SOL    HW243284   5.555   0.780  11.003
 4264SOL     OW43285   1.634   0.365  11.078
 4264SOL    HW143286   1.636   0.289  11.142
 4264SOL    HW243287   1.586   0.442  11.118
 4265SOL     OW43288   1.634   5.951  11.078
 4265SOL    HW143289   1.636   5.875  11.142
 4265SOL    HW243290   1.586   6.028  11.118
 4266SOL     OW43291   3.496   5.951  11.078
 4266SOL    HW143292   3.498   5.875  11.142
 4266SOL    HW243293   3.448   6.028  11.118
 4267SOL     OW43294   5.358   5.951  11.078
 4267SOL    HW143295   5.360   5.875  11.142
 4267SOL    HW243296   5.310   6.028  11.118
 4268SOL     OW43297   3.496   2.227   1.768
 4268SOL    HW143298   3.498   2.151   1.832
 4268SOL    HW243299   3.448   2.304   1.808
 4269SOL     OW43300   5.358   5.951   1.768
 4269SOL    HW143301   5.360   5.875   1.832
 4269SOL    HW243302   5.310   6.028   1.808
 4270SOL     OW43303   1.869   0.831   1.771
 4270SOL    HW143304   1.911   0.767   1.835
 4270SOL    HW243305   1.831   0.780   1.693
 4271SOL     OW43306   1.869   6.417   1.771
 4271SOL    HW143307   1.911   6.353   1.835
 4271SOL    HW243308   1.831   6.366   1.693
 4272SOL     OW43309   3.731   2.693   1.771
 4272SOL    HW143310   3.773   2.629   1.835
 4272SOL    HW243311   3.693   2.642   1.693
 4273SOL     OW43312   3.731   6.417   1.771
 4273SOL    HW143313   3.773   6.353   1.835
 4273SOL    HW243314   3.693   6.366   1.693
 4274SOL     OW43315   5.593   0.831   1.771
 4274SOL    HW143316   5.635   0.767   1.835
 4274SOL    HW243317   5.555   0.780   1.693
 4275SOL     OW43318   0.717   1.048  11.072
 4275SOL    HW143319   0.703   1.055  11.171
 4275SOL    HW243320   0.801   0.997  11.054
 4276SOL     OW43321   2.579   0.184  11.072
 4276SOL    HW143322   2.565   0.191  11.171
 4276SOL    HW243323   2.663   0.133  11.054
 4277SOL     OW43324   4.441   0.184  11.072
 4277SOL    HW143325   4.427   0.191  11.171
 4277SOL    HW243326   4.525   0.133  11.054
 4278SOL     OW43327   1.264   1.346   1.782
 4278SOL    HW143328   1.314   1.423   1.822
 4278SOL    HW243329   1.169   1.348   1.814
 4279SOL     OW43330   3.126   3.208   1.782
 4279SOL    HW143331   3.176   3.285   1.822
 4279SOL    HW243332   3.031   3.210   1.814
 4280SOL     OW43333   1.854   3.627  11.063
 4280SOL    HW143334   1.908   3.598  11.143
 4280SOL    HW243335   1.884   3.717  11.034
 4281SOL     OW43336   1.854   5.489  11.063
 4281SOL    HW143337   1.908   5.460  11.143
 4281SOL    HW243338   1.884   5.579  11.034
 4282SOL     OW43339   3.716   1.765  11.063
 4282SOL    HW143340   3.770   1.736  11.143
 4282SOL    HW243341   3.746   1.855  11.034
 4283SOL     OW43342   5.578   3.627  11.063
 4283SOL    HW143343   5.632   3.598  11.143
 4283SOL    HW243344   5.608   3.717  11.034
 4284SOL     OW43345   0.887   3.506  11.041
 4284SOL    HW143346   0.810   3.471  10.987
 4284SOL    HW243347   0.855   3.577  11.103
 4285SOL     OW43348   4.611   3.506  11.041
 4285SOL    HW143349   4.534   3.471  10.987
 4285SOL    HW243350   4.579   3.577  11.103
 4286SOL     OW43351   4.611   5.368  11.041
 4286SOL    HW143352   4.534   5.333  10.987
 4286SOL    HW243353   4.579   5.439  11.103
 4287SOL     OW43354   4.263   0.254  11.032
 4287SOL    HW143355   4.290   0.195  10.957
 4287SOL    HW243356   4.263   0.349  11.001
 4288SOL     OW43357   6.125   0.254  11.032
 4288SOL    HW143358   6.152   0.195  10.957
 4288SOL    HW243359   6.125   0.349  11.001
 4289SOL     OW43360   0.827   4.294  11.029
 4289SOL    HW143361   0.834   4.205  10.983
 4289SOL    HW243362   0.733   4.328  11.021
 4290SOL     OW43363   0.827   6.156  11.029
 4290SOL    HW143364   0.834   6.067  10.983
 4290SOL    HW243365   0.733   6.190  11.021
 4291SOL     OW43366   6.413   0.570  11.029
 4291SOL    HW143367   6.420   0.481  10.983
 4291SOL    HW243368   6.319   0.604  11.021
 4292SOL     OW43369   6.413   4.294  11.029
 4292SOL    HW143370   6.420   4.205  10.983
 4292SOL    HW243371   6.319   4.328  11.021
 4293SOL     OW43372   6.413   6.156  11.029
 4293SOL    HW143373   6.420   6.067  10.983
 4293SOL    HW243374   6.319   6.190  11.021
 4294SOL     OW43375   2.338   1.741  11.027
 4294SOL    HW143376   2.371   1.780  11.113
 4294SOL    HW243377   2.414   1.734  10.962
 4295SOL     OW43378   4.200   1.741  11.027
 4295SOL    HW143379   4.233   1.780  11.113
 4295SOL    HW243380   4.276   1.734  10.962
 4296SOL     OW43381   1.412   3.829   1.820
 4296SOL    HW143382   1.388   3.792   1.730
 4296SOL    HW243383   1.511   3.845   1.824
 4297SOL     OW43384   1.412   5.691   1.820
 4297SOL    HW143385   1.388   5.654   1.730
 4297SOL    HW243386   1.511   5.707   1.824
 4298SOL     OW43387   5.136   0.105   1.820
 4298SOL    HW143388   5.112   0.068   1.730
 4298SOL    HW243389   5.235   0.121   1.824
 4299SOL     OW43390   1.053   6.285   1.823
 4299SOL    HW143391   1.079   6.281   1.919
 4299SOL    HW243392   0.968   6.234   1.809
 4300SOL     OW43393   2.915   0.699   1.823
 4300SOL    HW143394   2.941   0.695   1.919
 4300SOL    HW243395   2.830   0.648   1.809
 4301SOL     OW43396   2.915   2.561   1.823
 4301SOL    HW143397   2.941   2.557   1.919
 4301SOL    HW243398   2.830   2.510   1.809
 4302SOL     OW43399   2.915   4.423   1.823
 4302SOL    HW143400   2.941   4.419   1.919
 4302SOL    HW243401   2.830   4.372   1.809
 4303SOL     OW43402   0.084   0.164  11.022
 4303SOL    HW143403   0.067   0.247  10.968
 4303SOL    HW243404   0.174   0.127  11.000
 4304SOL     OW43405   0.084   2.026  11.022
 4304SOL    HW143406   0.067   2.109  10.968
 4304SOL    HW243407   0.174   1.989  11.000
 4305SOL     OW43408   3.808   0.164  11.022
 4305SOL    HW143409   3.791   0.247  10.968
 4305SOL    HW243410   3.898   0.127  11.000
 4306SOL     OW43411   3.808   2.026  11.022
 4306SOL    HW143412   3.791   2.109  10.968
 4306SOL    HW243413   3.898   1.989  11.000
 4307SOL     OW43414   1.653   4.830   1.826
 4307SOL    HW143415   1.739   4.832   1.774
 4307SOL    HW243416   1.667   4.877   1.914
 4308SOL     OW43417   3.515   4.830   1.826
 4308SOL    HW143418   3.601   4.832   1.774
 4308SOL    HW243419   3.529   4.877   1.914
 4309SOL     OW43420   5.377   1.106   1.826
 4309SOL    HW143421   5.463   1.108   1.774
 4309SOL    HW243422   5.391   1.153   1.914
 4310SOL     OW43423   3.176   0.853  11.013
 4310SOL    HW143424   3.090   0.822  11.055
 4310SOL    HW243425   3.172   0.839  10.914
 4311SOL     OW43426   3.176   2.715  11.013
 4311SOL    HW143427   3.090   2.684  11.055
 4311SOL    HW243428   3.172   2.701  10.914
 4312SOL     OW43429   5.038   2.715  11.013
 4312SOL    HW143430   4.952   2.684  11.055
 4312SOL    HW243431   5.034   2.701  10.914
 4313SOL     OW43432   1.588   3.522  11.011
 4313SOL    HW143433   1.677   3.568  11.014
 4313SOL    HW243434   1.567   3.498  10.916
 4314SOL     OW43435   1.588   5.384  11.011
 4314SOL    HW143436   1.677   5.430  11.014
 4314SOL    HW243437   1.567   5.360  10.916
 4315SOL     OW43438   0.782   5.052  11.005
 4315SOL    HW143439   0.736   4.965  11.022
 4315SOL    HW243440   0.873   5.049  11.046
 4316SOL     OW43441   4.506   3.190  11.005
 4316SOL    HW143442   4.460   3.103  11.022
 4316SOL    HW243443   4.597   3.187  11.046
 4317SOL     OW43444   3.775   4.799  11.004
 4317SOL    HW143445   3.874   4.788  10.995
 4317SOL    HW243446   3.735   4.713  11.036
 4318SOL     OW43447   5.637   2.937  11.004
 4318SOL    HW143448   5.736   2.926  10.995
 4318SOL    HW243449   5.597   2.851  11.036
 4319SOL     OW43450   3.099   2.185   1.843
 4319SOL    HW143451   3.164   2.111   1.832
 4319SOL    HW243452   3.119   2.235   1.927
 4320SOL     OW43453   4.961   2.185   1.843
 4320SOL    HW143454   5.026   2.111   1.832
 4320SOL    HW243455   4.981   2.235   1.927
 4321SOL     OW43456   4.652   0.908  10.995
 4321SOL    HW143457   4.715   0.946  10.927
 4321SOL    HW243458   4.692   0.825  11.034
 4322SOL     OW43459   4.652   2.770  10.995
 4322SOL    HW143460   4.715   2.808  10.927
 4322SOL    HW243461   4.692   2.687  11.034
 4323SOL     OW43462   4.652   4.632  10.995
 4323SOL    HW143463   4.715   4.670  10.927
 4323SOL    HW243464   4.692   4.549  11.034
 4324SOL     OW43465   4.652   0.044  10.995
 4324SOL    HW143466   4.715   0.082  10.927
 4324SOL    HW243467   4.692   6.411  11.034
 4325SOL     OW43468   0.267   5.070  10.994
 4325SOL    HW143469   0.171   5.071  10.967
 4325SOL    HW243470   0.279   5.123  11.078
 4326SOL     OW43471   2.129   5.070  10.994
 4326SOL    HW143472   2.033   5.071  10.967
 4326SOL    HW243473   2.141   5.123  11.078
 4327SOL     OW43474   3.991   1.346  10.994
 4327SOL    HW143475   3.895   1.347  10.967
 4327SOL    HW243476   4.003   1.399  11.078
 4328SOL     OW43477   5.853   5.070  10.994
 4328SOL    HW143478   5.757   5.071  10.967
 4328SOL    HW243479   5.865   5.123  11.078
 4329SOL     OW43480   3.456   4.361   1.866
 4329SOL    HW143481   3.425   4.422   1.939
 4329SOL    HW243482   3.506   4.413   1.797
 4330SOL     OW43483   5.318   0.637   1.866
 4330SOL    HW143484   5.287   0.698   1.939
 4330SOL    HW243485   5.368   0.689   1.797
 4331SOL     OW43486   5.318   4.361   1.866
 4331SOL    HW143487   5.287   4.422   1.939
 4331SOL    HW243488   5.368   4.413   1.797
 4332SOL     OW43489   3.083   2.385  10.979
 4332SOL    HW143490   3.096   2.301  11.033
 4332SOL    HW243491   3.054   2.459  11.039
 4333SOL     OW43492   3.083   6.109  10.979
 4333SOL    HW143493   3.096   6.025  11.033
 4333SOL    HW243494   3.054   6.183  11.039
 4334SOL     OW43495   4.945   2.385  10.979
 4334SOL    HW143496   4.958   2.301  11.033
 4334SOL    HW243497   4.916   2.459  11.039
 4335SOL     OW43498   4.945   6.109  10.979
 4335SOL    HW143499   4.958   6.025  11.033
 4335SOL    HW243500   4.916   6.183  11.039
 4336SOL     OW43501   1.400   1.571   1.871
 4336SOL    HW143502   1.467   1.583   1.797
 4336SOL    HW243503   1.360   1.660   1.894
 4337SOL     OW43504   2.882   3.316   1.871
 4337SOL    HW143505   2.836   3.388   1.819
 4337SOL    HW243506   2.878   3.336   1.969
 4338SOL     OW43507   0.610   4.451  10.974
 4338SOL    HW143508   0.634   4.520  10.906
 4338SOL    HW243509   0.532   4.484  11.028
 4339SOL     OW43510   6.196   0.727  10.974
 4339SOL    HW143511   6.220   0.796  10.906
 4339SOL    HW243512   6.118   0.760  11.028
 4340SOL     OW43513   0.394   0.698   1.874
 4340SOL    HW143514   0.439   0.608   1.871
 4340SOL    HW243515   0.300   0.687   1.907
 4341SOL     OW43516   0.394   2.560   1.874
 4341SOL    HW143517   0.439   2.470   1.871
 4341SOL    HW243518   0.300   2.549   1.907
 4342SOL     OW43519   0.394   6.284   1.874
 4342SOL    HW143520   0.439   6.194   1.871
 4342SOL    HW243521   0.300   6.273   1.907
 4343SOL     OW43522   2.256   0.698   1.874
 4343SOL    HW143523   2.301   0.608   1.871
 4343SOL    HW243524   2.162   0.687   1.907
 4344SOL     OW43525   2.809   2.096   1.874
 4344SOL    HW143526   2.761   2.137   1.796
 4344SOL    HW243527   2.908   2.094   1.855
 4345SOL     OW43528   4.118   0.698   1.874
 4345SOL    HW143529   4.163   0.608   1.871
 4345SOL    HW243530   4.024   0.687   1.907
 4346SOL     OW43531   4.118   6.284   1.874
 4346SOL    HW143532   4.163   6.194   1.871
 4346SOL    HW243533   4.024   6.273   1.907
 4347SOL     OW43534   5.980   0.698   1.874
 4347SOL    HW143535   6.025   0.608   1.871
 4347SOL    HW243536   5.886   0.687   1.907
 4348SOL     OW43537   0.243   3.573   1.877
 4348SOL    HW143538   0.277   3.650   1.931
 4348SOL    HW243539   0.287   3.573   1.787
 4349SOL     OW43540   2.105   3.573   1.877
 4349SOL    HW143541   2.139   3.650   1.931
 4349SOL    HW243542   2.149   3.573   1.787
 4350SOL     OW43543   2.105   5.435   1.877
 4350SOL    HW143544   2.139   5.512   1.931
 4350SOL    HW243545   2.149   5.435   1.787
 4351SOL     OW43546   0.379   2.960   1.895
 4351SOL    HW143547   0.372   3.043   1.839
 4351SOL    HW243548   0.383   2.880   1.835
 4352SOL     OW43549   2.241   2.960   1.895
 4352SOL    HW143550   2.234   3.043   1.839
 4352SOL    HW243551   2.245   2.880   1.835
 4353SOL     OW43552   2.241   4.822   1.895
 4353SOL    HW143553   2.234   4.905   1.839
 4353SOL    HW243554   2.245   4.742   1.835
 4354SOL     OW43555   5.965   4.822   1.895
 4354SOL    HW143556   5.958   4.905   1.839
 4354SOL    HW243557   5.969   4.742   1.835
 4355SOL     OW43558   2.683   5.588   1.896
 4355SOL    HW143559   2.723   5.679   1.887
 4355SOL    HW243560   2.583   5.596   1.902
 4356SOL     OW43561   4.545   5.588   1.896
 4356SOL    HW143562   4.585   5.679   1.887
 4356SOL    HW243563   4.445   5.596   1.902
 4357SOL     OW43564   2.195   0.941  10.946
 4357SOL    HW143565   2.277   0.980  10.904
 4357SOL    HW243566   2.168   0.859  10.897
 4358SOL     OW43567   2.195   2.803  10.946
 4358SOL    HW143568   2.277   2.842  10.904
 4358SOL    HW243569   2.168   2.721  10.897
 4359SOL     OW43570   4.057   4.665  10.946
 4359SOL    HW143571   4.139   4.704  10.904
 4359SOL    HW243572   4.030   4.583  10.897
 4360SOL     OW43573   4.847   3.636  10.941
 4360SOL    HW143574   4.787   3.574  10.991
 4360SOL    HW243575   4.878   3.592  10.856
 4361SOL     OW43576   4.847   5.498  10.941
 4361SOL    HW143577   4.787   5.436  10.991
 4361SOL    HW243578   4.878   5.454  10.856
 4362SOL     OW43579   2.413   3.786   1.906
 4362SOL    HW143580   2.332   3.787   1.964
 4362SOL    HW243581   2.416   3.869   1.851
 4363SOL     OW43582   2.413   5.648   1.906
 4363SOL    HW143583   2.332   5.649   1.964
 4363SOL    HW243584   2.416   5.731   1.851
 4364SOL     OW43585   4.275   3.786   1.906
 4364SOL    HW143586   4.194   3.787   1.964
 4364SOL    HW243587   4.278   3.869   1.851
 4365SOL     OW43588   4.275   5.648   1.906
 4365SOL    HW143589   4.194   5.649   1.964
 4365SOL    HW243590   4.278   5.731   1.851
 4366SOL     OW43591   0.440   2.284   1.914
 4366SOL    HW143592   0.470   2.212   1.852
 4366SOL    HW243593   0.401   2.244   1.997
 4367SOL     OW43594   2.302   0.422   1.914
 4367SOL    HW143595   2.332   0.350   1.852
 4367SOL    HW243596   2.263   0.382   1.997
 4368SOL     OW43597   1.738   3.857   1.917
 4368SOL    HW143598   1.811   3.840   1.850
 4368SOL    HW243599   1.707   3.770   1.955
 4369SOL     OW43600   3.600   0.133   1.917
 4369SOL    HW143601   3.673   0.116   1.850
 4369SOL    HW243602   3.569   0.046   1.955
 4370SOL     OW43603   0.242   1.432   1.932
 4370SOL    HW143604   0.216   1.528   1.932
 4370SOL    HW243605   0.171   1.378   1.977
 4371SOL     OW43606   2.104   3.294   1.932
 4371SOL    HW143607   2.078   3.390   1.932
 4371SOL    HW243608   2.033   3.240   1.977
 4372SOL     OW43609   1.374   4.866   1.939
 4372SOL    HW143610   1.457   4.837   1.891
 4372SOL    HW243611   1.325   4.933   1.883
 4373SOL     OW43612   3.236   4.866   1.939
 4373SOL    HW143613   3.319   4.837   1.891
 4373SOL    HW243614   3.187   4.933   1.883
 4374SOL     OW43615   1.882   5.048  10.904
 4374SOL    HW143616   1.789   5.069  10.873
 4374SOL    HW243617   1.892   4.949  10.917
 4375SOL     OW43618   5.606   1.324  10.904
 4375SOL    HW143619   5.513   1.345  10.873
 4375SOL    HW243620   5.616   1.225  10.917
 4376SOL     OW43621   0.877   4.070  10.899
 4376SOL    HW143622   0.936   4.133  10.850
 4376SOL    HW243623   0.896   3.976  10.870
 4377SOL     OW43624   4.601   2.208  10.899
 4377SOL    HW143625   4.660   2.271  10.850
 4377SOL    HW243626   4.620   2.114  10.870
 4378SOL     OW43627   5.261   2.859  10.894
 4378SOL    HW143628   5.198   2.783  10.907
 4378SOL    HW243629   5.309   2.877  10.980
 4379SOL     OW43630   0.134   4.365   1.957
 4379SOL    HW143631   0.089   4.277   1.974
 4379SOL    HW243632   0.133   4.419   2.041
 4380SOL     OW43633   1.996   0.641   1.957
 4380SOL    HW143634   1.951   0.553   1.974
 4380SOL    HW243635   1.995   0.695   2.041
 4381SOL     OW43636   1.996   2.503   1.957
 4381SOL    HW143637   1.951   2.415   1.974
 4381SOL    HW243638   1.995   2.557   2.041
 4382SOL     OW43639   1.996   6.227   1.957
 4382SOL    HW143640   1.951   6.139   1.974
 4382SOL    HW243641   1.995   6.281   2.041
 4383SOL     OW43642   3.858   6.227   1.957
 4383SOL    HW143643   3.813   6.139   1.974
 4383SOL    HW243644   3.857   6.281   2.041
 4384SOL     OW43645   5.403   5.436   1.966
 4384SOL    HW143646   5.362   5.413   1.878
 4384SOL    HW243647   5.385   5.362   2.031
 4385SOL     OW43648   0.500   1.383  10.878
 4385SOL    HW143649   0.413   1.368  10.925
 4385SOL    HW243650   0.483   1.409  10.783
 4386SOL     OW43651   0.500   5.107  10.878
 4386SOL    HW143652   0.413   5.092  10.925
 4386SOL    HW243653   0.483   5.133  10.783
 4387SOL     OW43654   4.224   1.383  10.878
 4387SOL    HW143655   4.137   1.368  10.925
 4387SOL    HW243656   4.207   1.409  10.783
 4388SOL     OW43657   3.226   1.912  10.872
 4388SOL    HW143658   3.261   1.871  10.788
 4388SOL    HW243659   3.136   1.874  10.892
 4389SOL     OW43660   5.088   3.774  10.872
 4389SOL    HW143661   5.123   3.733  10.788
 4389SOL    HW243662   4.998   3.736  10.892
 4390SOL     OW43663   5.007   1.795   1.985
 4390SOL    HW143664   5.051   1.859   1.921
 4390SOL    HW243665   4.957   1.847   2.055
 4391SOL     OW43666   5.007   5.519   1.985
 4391SOL    HW143667   5.051   5.583   1.921
 4391SOL    HW243668   4.957   5.571   2.055
 4392SOL     OW43669   4.408   1.614  10.858
 4392SOL    HW143670   4.417   1.624  10.759
 4392SOL    HW243671   4.368   1.525  10.879
 4393SOL     OW43672   4.408   5.338  10.858
 4393SOL    HW143673   4.417   5.348  10.759
 4393SOL    HW243674   4.368   5.249  10.879
 4394SOL     OW43675   6.270   1.614  10.858
 4394SOL    HW143676   6.279   1.624  10.759
 4394SOL    HW243677   6.230   1.525  10.879
 4395SOL     OW43678   6.270   5.338  10.858
 4395SOL    HW143679   6.279   5.348  10.759
 4395SOL    HW243680   6.230   5.249  10.879
 4396SOL     OW43681   1.701   0.920   2.006
 4396SOL    HW143682   1.796   0.891   2.014
 4396SOL    HW243683   1.693   0.985   1.931
 4397SOL     OW43684   1.701   4.644   2.006
 4397SOL    HW143685   1.796   4.615   2.014
 4397SOL    HW243686   1.693   4.709   1.931
 4398SOL     OW43687   3.563   4.644   2.006
 4398SOL    HW143688   3.658   4.615   2.014
 4398SOL    HW243689   3.555   4.709   1.931
 4399SOL     OW43690   5.425   0.920   2.006
 4399SOL    HW143691   5.520   0.891   2.014
 4399SOL    HW243692   5.417   0.985   1.931
 4400SOL     OW43693   0.051   0.084  10.837
 4400SOL    HW143694   0.102   0.085  10.751
 4400SOL    HW243695   0.107   0.042  10.908
 4401SOL     OW43696   1.552   0.272  10.829
 4401SOL    HW143697   1.491   0.197  10.852
 4401SOL    HW243698   1.574   0.324  10.912
 4402SOL     OW43699   1.552   5.858  10.829
 4402SOL    HW143700   1.491   5.783  10.852
 4402SOL    HW243701   1.574   5.910  10.912
 4403SOL     OW43702   3.414   2.134  10.829
 4403SOL    HW143703   3.353   2.059  10.852
 4403SOL    HW243704   3.436   2.186  10.912
 4404SOL     OW43705   2.480   4.686  10.827
 4404SOL    HW143706   2.487   4.770  10.773
 4404SOL    HW243707   2.526   4.699  10.915
 4405SOL     OW43708   1.195   1.333  10.823
 4405SOL    HW143709   1.096   1.322  10.825
 4405SOL    HW243710   1.229   1.348  10.916
 4406SOL     OW43711   0.039   3.456  10.821
 4406SOL    HW143712   0.020   3.360  10.842
 4406SOL    HW243713   0.006   3.514  10.896
 4407SOL     OW43714   0.626   1.982  10.821
 4407SOL    HW143715   0.724   1.960  10.828
 4407SOL    HW243716   0.595   1.965  10.728
 4408SOL     OW43717   0.039   5.318  10.821
 4408SOL    HW143718   0.020   5.222  10.842
 4408SOL    HW243719   0.006   5.376  10.896
 4409SOL     OW43720   0.626   5.706  10.821
 4409SOL    HW143721   0.724   5.684  10.828
 4409SOL    HW243722   0.595   5.689  10.728
 4410SOL     OW43723   1.901   3.456  10.821
 4410SOL    HW143724   1.882   3.360  10.842
 4410SOL    HW243725   1.868   3.514  10.896
 4411SOL     OW43726   1.901   5.318  10.821
 4411SOL    HW143727   1.882   5.222  10.842
 4411SOL    HW243728   1.868   5.376  10.896
 4412SOL     OW43729   4.350   0.120  10.821
 4412SOL    HW143730   4.448   0.098  10.828
 4412SOL    HW243731   4.319   0.103  10.728
 4413SOL     OW43732   6.212   3.844  10.821
 4413SOL    HW143733   6.310   3.822  10.828
 4413SOL    HW243734   6.181   3.827  10.728
 4414SOL     OW43735   0.242   0.626  10.817
 4414SOL    HW143736   0.149   0.624  10.854
 4414SOL    HW243737   0.243   0.587  10.725
 4415SOL     OW43738   0.242   2.488  10.817
 4415SOL    HW143739   0.149   2.486  10.854
 4415SOL    HW243740   0.243   2.449  10.725
 4416SOL     OW43741   2.104   4.350  10.817
 4416SOL    HW143742   2.011   4.348  10.854
 4416SOL    HW243743   2.105   4.311  10.725
 4417SOL     OW43744   3.966   4.350  10.817
 4417SOL    HW143745   3.873   4.348  10.854
 4417SOL    HW243746   3.967   4.311  10.725
 4418SOL     OW43747   5.828   2.488  10.817
 4418SOL    HW143748   5.735   2.486  10.854
 4418SOL    HW243749   5.829   2.449  10.725
 4419SOL     OW43750   0.878   0.452   2.036
 4419SOL    HW143751   0.846   0.524   1.974
 4419SOL    HW243752   0.902   0.371   1.983
 4420SOL     OW43753   2.740   4.176   2.036
 4420SOL    HW143754   2.708   4.248   1.974
 4420SOL    HW243755   2.764   4.095   1.983
 4421SOL     OW43756   0.031   2.228   2.041
 4421SOL    HW143757   6.399   2.271   2.080
 4421SOL    HW243758   0.003   2.155   1.978
 4422SOL     OW43759   5.617   2.228   2.041
 4422SOL    HW143760   5.535   2.271   2.080
 4422SOL    HW243761   5.589   2.155   1.978
 4423SOL     OW43762   0.606   2.605   2.046
 4423SOL    HW143763   0.656   2.690   2.027
 4423SOL    HW243764   0.518   2.607   1.998
 4424SOL     OW43765   0.606   6.329   2.046
 4424SOL    HW143766   0.656   6.414   2.027
 4424SOL    HW243767   0.518   6.331   1.998
 4425SOL     OW43768   2.468   6.329   2.046
 4425SOL    HW143769   2.518   6.414   2.027
 4425SOL    HW243770   2.380   6.331   1.998
 4426SOL     OW43771   4.330   0.743   2.046
 4426SOL    HW143772   4.380   0.828   2.027
 4426SOL    HW243773   4.242   0.745   1.998
 4427SOL     OW43774   4.330   2.605   2.046
 4427SOL    HW143775   4.380   2.690   2.027
 4427SOL    HW243776   4.242   2.607   1.998
 4428SOL     OW43777   4.330   4.467   2.046
 4428SOL    HW143778   4.380   4.552   2.027
 4428SOL    HW243779   4.242   4.469   1.998
 4429SOL     OW43780   4.330   6.329   2.046
 4429SOL    HW143781   4.380   6.414   2.027
 4429SOL    HW243782   4.242   6.331   1.998
 4430SOL     OW43783   6.192   0.743   2.046
 4430SOL    HW143784   6.242   0.828   2.027
 4430SOL    HW243785   6.104   0.745   1.998
 4431SOL     OW43786   6.192   6.329   2.046
 4431SOL    HW143787   6.242   6.414   2.027
 4431SOL    HW243788   6.104   6.331   1.998
 4432SOL     OW43789   1.953   3.100   2.047
 4432SOL    HW143790   1.952   3.053   2.135
 4432SOL    HW243791   2.035   3.072   1.996
 4433SOL     OW43792   3.815   3.100   2.047
 4433SOL    HW143793   3.814   3.053   2.135
 4433SOL    HW243794   3.897   3.072   1.996
 4434SOL     OW43795   5.677   3.100   2.047
 4434SOL    HW143796   5.676   3.053   2.135
 4434SOL    HW243797   5.759   3.072   1.996
 4435SOL     OW43798   3.538   5.002   2.051
 4435SOL    HW143799   3.637   5.010   2.065
 4435SOL    HW243800   3.493   5.086   2.082
 4436SOL     OW43801   2.957   0.982  10.791
 4436SOL    HW143802   2.934   1.035  10.709
 4436SOL    HW243803   3.038   0.926  10.772
 4437SOL     OW43804   4.819   0.982  10.791
 4437SOL    HW143805   4.796   1.035  10.709
 4437SOL    HW243806   4.900   0.926  10.772
 4438SOL     OW43807   4.819   2.844  10.791
 4438SOL    HW143808   4.796   2.897  10.709
 4438SOL    HW243809   4.900   2.788  10.772
 4439SOL     OW43810   0.697   4.734   2.059
 4439SOL    HW143811   0.766   4.718   2.129
 4439SOL    HW243812   0.624   4.791   2.097
 4440SOL     OW43813   2.559   1.010   2.059
 4440SOL    HW143814   2.628   0.994   2.129
 4440SOL    HW243815   2.486   1.067   2.097
 4441SOL     OW43816   2.559   2.872   2.059
 4441SOL    HW143817   2.628   2.856   2.129
 4441SOL    HW243818   2.486   2.929   2.097
 4442SOL     OW43819   2.559   0.146   2.059
 4442SOL    HW143820   2.628   0.130   2.129
 4442SOL    HW243821   2.486   0.203   2.097
 4443SOL     OW43822   4.421   2.872   2.059
 4443SOL    HW143823   4.490   2.856   2.129
 4443SOL    HW243824   4.348   2.929   2.097
 4444SOL     OW43825   6.283   2.872   2.059
 4444SOL    HW143826   6.352   2.856   2.129
 4444SOL    HW243827   6.210   2.929   2.097
 4445SOL     OW43828   6.283   4.734   2.059
 4445SOL    HW143829   6.352   4.718   2.129
 4445SOL    HW243830   6.210   4.791   2.097
 4446SOL     OW43831   1.644   3.237  10.785
 4446SOL    HW143832   1.612   3.331  10.775
 4446SOL    HW243833   1.568   3.174  10.773
 4447SOL     OW43834   1.644   5.099  10.785
 4447SOL    HW143835   1.612   5.193  10.775
 4447SOL    HW243836   1.568   5.036  10.773
 4448SOL     OW43837   5.368   1.375  10.785
 4448SOL    HW143838   5.336   1.469  10.775
 4448SOL    HW243839   5.292   1.312  10.773
 4449SOL     OW43840   3.264   6.159  10.782
 4449SOL    HW143841   3.210   6.138  10.863
 4449SOL    HW243842   3.355   6.118  10.791
 4450SOL     OW43843   5.126   0.573  10.782
 4450SOL    HW143844   5.072   0.552  10.863
 4450SOL    HW243845   5.217   0.532  10.791
 4451SOL     OW43846   1.292   4.649   2.066
 4451SOL    HW143847   1.352   4.568   2.068
 4451SOL    HW243848   1.332   4.718   2.006
 4452SOL     OW43849   3.154   4.649   2.066
 4452SOL    HW143850   3.214   4.568   2.068
 4452SOL    HW243851   3.194   4.718   2.006
 4453SOL     OW43852   5.016   0.925   2.066
 4453SOL    HW143853   5.076   0.844   2.068
 4453SOL    HW243854   5.056   0.994   2.006
 4454SOL     OW43855   5.016   4.649   2.066
 4454SOL    HW143856   5.076   4.568   2.068
 4454SOL    HW243857   5.056   4.718   2.006
 4455SOL     OW43858   2.686   5.308   2.081
 4455SOL    HW143859   2.718   5.318   1.987
 4455SOL    HW243860   2.607   5.246   2.083
 4456SOL     OW43861   4.548   3.446   2.081
 4456SOL    HW143862   4.580   3.456   1.987
 4456SOL    HW243863   4.469   3.384   2.083
 4457SOL     OW43864   4.548   5.308   2.081
 4457SOL    HW143865   4.580   5.318   1.987
 4457SOL    HW243866   4.469   5.246   2.083
 4458SOL     OW43867   3.174   0.451   2.085
 4458SOL    HW143868   3.115   0.531   2.089
 4458SOL    HW243869   3.189   0.416   2.178
 4459SOL     OW43870   5.036   2.313   2.085
 4459SOL    HW143871   4.977   2.393   2.089
 4459SOL    HW243872   5.051   2.278   2.178
 4460SOL     OW43873   1.051   2.958   2.090
 4460SOL    HW143874   0.981   2.911   2.144
 4460SOL    HW243875   1.110   2.890   2.047
 4461SOL     OW43876   1.051   4.820   2.090
 4461SOL    HW143877   0.981   4.773   2.144
 4461SOL    HW243878   1.110   4.752   2.047
 4462SOL     OW43879   2.913   2.958   2.090
 4462SOL    HW143880   2.843   2.911   2.144
 4462SOL    HW243881   2.972   2.890   2.047
 4463SOL     OW43882   4.775   2.958   2.090
 4463SOL    HW143883   4.705   2.911   2.144
 4463SOL    HW243884   4.834   2.890   2.047
 4464SOL     OW43885   1.567   1.509   2.097
 4464SOL    HW143886   1.510   1.493   2.178
 4464SOL    HW243887   1.508   1.519   2.017
 4465SOL     OW43888   3.429   1.509   2.097
 4465SOL    HW143889   3.372   1.493   2.178
 4465SOL    HW243890   3.370   1.519   2.017
 4466SOL     OW43891   5.291   3.371   2.097
 4466SOL    HW143892   5.234   3.355   2.178
 4466SOL    HW243893   5.232   3.381   2.017
 4467SOL     OW43894   3.378   3.467  10.748
 4467SOL    HW143895   3.286   3.504  10.755
 4467SOL    HW243896   3.416   3.487  10.658
 4468SOL     OW43897   1.315   4.560  10.746
 4468SOL    HW143898   1.349   4.467  10.761
 4468SOL    HW243899   1.333   4.587  10.651
 4469SOL     OW43900   3.177   0.836  10.746
 4469SOL    HW143901   3.211   0.743  10.761
 4469SOL    HW243902   3.195   0.863  10.651
 4470SOL     OW43903   3.177   2.698  10.746
 4470SOL    HW143904   3.211   2.605  10.761
 4470SOL    HW243905   3.195   2.725  10.651
 4471SOL     OW43906   3.308   1.186  10.745
 4471SOL    HW143907   3.340   1.110  10.802
 4471SOL    HW243908   3.216   1.213  10.775
 4472SOL     OW43909   0.087   0.343  10.737
 4472SOL    HW143910   6.445   0.315  10.708
 4472SOL    HW243911   0.118   0.420  10.681
 4473SOL     OW43912   0.087   5.929  10.737
 4473SOL    HW143913   6.445   5.901  10.708
 4473SOL    HW243914   0.118   6.006  10.681
 4474SOL     OW43915   1.949   0.343  10.737
 4474SOL    HW143916   1.857   0.315  10.708
 4474SOL    HW243917   1.980   0.420  10.681
 4475SOL     OW43918   1.949   2.205  10.737
 4475SOL    HW143919   1.857   2.177  10.708
 4475SOL    HW243920   1.980   2.282  10.681
 4476SOL     OW43921   3.811   5.929  10.737
 4476SOL    HW143922   3.719   5.901  10.708
 4476SOL    HW243923   3.842   6.006  10.681
 4477SOL     OW43924   1.206   1.610  10.735
 4477SOL    HW143925   1.212   1.517  10.772
 4477SOL    HW243926   1.147   1.610  10.655
 4478SOL     OW43927   4.930   3.472  10.735
 4478SOL    HW143928   4.936   3.379  10.772
 4478SOL    HW243929   4.871   3.472  10.655
 4479SOL     OW43930   1.147   0.701   2.111
 4479SOL    HW143931   1.204   0.779   2.086
 4479SOL    HW243932   1.087   0.727   2.187
 4480SOL     OW43933   3.009   0.701   2.111
 4480SOL    HW143934   3.066   0.779   2.086
 4480SOL    HW243935   2.949   0.727   2.187
 4481SOL     OW43936   3.009   4.425   2.111
 4481SOL    HW143937   3.066   4.503   2.086
 4481SOL    HW243938   2.949   4.451   2.187
 4482SOL     OW43939   4.871   0.701   2.111
 4482SOL    HW143940   4.928   0.779   2.086
 4482SOL    HW243941   4.811   0.727   2.187
 4483SOL     OW43942   5.861   0.324   2.114
 4483SOL    HW143943   5.782   0.375   2.080
 4483SOL    HW243944   5.852   0.309   2.212
 4484SOL     OW43945   4.349   3.225   2.120
 4484SOL    HW143946   4.300   3.138   2.129
 4484SOL    HW243947   4.326   3.268   2.033
 4485SOL     OW43948   6.211   3.225   2.120
 4485SOL    HW143949   6.162   3.138   2.129
 4485SOL    HW243950   6.188   3.268   2.033
 4486SOL     OW43951   1.470   4.457   2.122
 4486SOL    HW143952   1.465   4.392   2.197
 4486SOL    HW243953   1.550   4.516   2.135
 4487SOL     OW43954   3.332   4.457   2.122
 4487SOL    HW143955   3.327   4.392   2.197
 4487SOL    HW243956   3.412   4.516   2.135
 4488SOL     OW43957   5.194   0.733   2.122
 4488SOL    HW143958   5.189   0.668   2.197
 4488SOL    HW243959   5.274   0.792   2.135
 4489SOL     OW43960   5.194   4.457   2.122
 4489SOL    HW143961   5.189   4.392   2.197
 4489SOL    HW243962   5.274   4.516   2.135
 4490SOL     OW43963   1.044   2.409  10.720
 4490SOL    HW143964   1.003   2.491  10.681
 4490SOL    HW243965   1.108   2.435  10.793
 4491SOL     OW43966   2.733   1.372  10.720
 4491SOL    HW143967   2.687   1.387  10.808
 4491SOL    HW243968   2.777   1.457  10.690
 4492SOL     OW43969   2.906   2.409  10.720
 4492SOL    HW143970   2.865   2.491  10.681
 4492SOL    HW243971   2.970   2.435  10.793
 4493SOL     OW43972   4.595   3.234  10.720
 4493SOL    HW143973   4.549   3.249  10.808
 4493SOL    HW243974   4.639   3.319  10.690
 4494SOL     OW43975   4.595   5.096  10.720
 4494SOL    HW143976   4.549   5.111  10.808
 4494SOL    HW243977   4.639   5.181  10.690
 4495SOL     OW43978   3.477   2.307   2.131
 4495SOL    HW143979   3.403   2.353   2.081
 4495SOL    HW243980   3.528   2.375   2.184
 4496SOL     OW43981   0.471   3.012   2.135
 4496SOL    HW143982   0.400   2.985   2.200
 4496SOL    HW243983   0.445   2.984   2.042
 4497SOL     OW43984   6.057   1.150   2.135
 4497SOL    HW143985   5.986   1.123   2.200
 4497SOL    HW243986   6.031   1.122   2.042
 4498SOL     OW43987   6.057   3.012   2.135
 4498SOL    HW143988   5.986   2.985   2.200
 4498SOL    HW243989   6.031   2.984   2.042
 4499SOL     OW43990   1.029   3.761   2.147
 4499SOL    HW143991   0.957   3.766   2.078
 4499SOL    HW243992   1.005   3.692   2.216
 4500SOL     OW43993   2.891   1.899   2.147
 4500SOL    HW143994   2.819   1.904   2.078
 4500SOL    HW243995   2.867   1.830   2.216
 4501SOL     OW43996   4.753   5.623   2.147
 4501SOL    HW143997   4.681   5.628   2.078
 4501SOL    HW243998   4.729   5.554   2.216
 4502SOL     OW43999   1.740   2.795  10.696
 4502SOL    HW144000   1.694   2.788  10.607
 4502SOL    HW244001   1.678   2.839  10.762
 4503SOL     OW44002   1.740   0.069  10.696
 4503SOL    HW144003   1.694   0.062  10.607
 4503SOL    HW244004   1.678   0.113  10.762
 4504SOL     OW44005   5.464   0.933  10.696
 4504SOL    HW144006   5.418   0.926  10.607
 4504SOL    HW244007   5.402   0.977  10.762
 4505SOL     OW44008   5.464   2.795  10.696
 4505SOL    HW144009   5.418   2.788  10.607
 4505SOL    HW244010   5.402   2.839  10.762
 4506SOL     OW44011   0.142   1.792  10.693
 4506SOL    HW144012   0.101   1.718  10.746
 4506SOL    HW244013   0.206   1.843  10.751
 4507SOL     OW44014   0.142   3.654  10.693
 4507SOL    HW144015   0.101   3.580  10.746
 4507SOL    HW244016   0.206   3.705  10.751
 4508SOL     OW44017   2.004   5.516  10.693
 4508SOL    HW144018   1.963   5.442  10.746
 4508SOL    HW244019   2.068   5.567  10.751
 4509SOL     OW44020   3.866   1.792  10.693
 4509SOL    HW144021   3.825   1.718  10.746
 4509SOL    HW244022   3.930   1.843  10.751
 4510SOL     OW44023   5.728   3.654  10.693
 4510SOL    HW144024   5.687   3.580  10.746
 4510SOL    HW244025   5.792   3.705  10.751
 4511SOL     OW44026   0.233   3.174  10.686
 4511SOL    HW144027   0.168   3.101  10.665
 4511SOL    HW244028   0.237   3.188  10.784
 4512SOL     OW44029   2.095   5.036  10.686
 4512SOL    HW144030   2.030   4.963  10.665
 4512SOL    HW244031   2.099   5.050  10.784
 4513SOL     OW44032   3.957   3.174  10.686
 4513SOL    HW144033   3.892   3.101  10.665
 4513SOL    HW244034   3.961   3.188  10.784
 4514SOL     OW44035   5.819   3.174  10.686
 4514SOL    HW144036   5.754   3.101  10.665
 4514SOL    HW244037   5.823   3.188  10.784
 4515SOL     OW44038   5.819   5.036  10.686
 4515SOL    HW144039   5.754   4.963  10.665
 4515SOL    HW244040   5.823   5.050  10.784
 4516SOL     OW44041   1.731   0.583  10.673
 4516SOL    HW144042   1.705   0.672  10.637
 4516SOL    HW244043   1.729   0.515  10.600
 4517SOL     OW44044   5.455   2.445  10.673
 4517SOL    HW144045   5.429   2.534  10.637
 4517SOL    HW244046   5.453   2.377  10.600
 4518SOL     OW44047   5.455   4.307  10.673
 4518SOL    HW144048   5.429   4.396  10.637
 4518SOL    HW244049   5.453   4.239  10.600
 4519SOL     OW44050   2.724   0.796  10.665
 4519SOL    HW144051   2.720   0.872  10.730
 4519SOL    HW244052   2.746   0.832  10.574
 4520SOL     OW44053   4.586   4.520  10.665
 4520SOL    HW144054   4.582   4.596  10.730
 4520SOL    HW244055   4.608   4.556  10.574
 4521SOL     OW44056   0.088   4.533   2.183
 4521SOL    HW144057   0.187   4.521   2.192
 4521SOL    HW244058   0.064   4.628   2.204
 4522SOL     OW44059   1.950   0.809   2.183
 4522SOL    HW144060   2.049   0.797   2.192
 4522SOL    HW244061   1.926   0.904   2.204
 4523SOL     OW44062   1.239   1.568   2.187
 4523SOL    HW144063   1.260   1.642   2.122
 4523SOL    HW244064   1.307   1.568   2.260
 4524SOL     OW44065   1.239   5.292   2.187
 4524SOL    HW144066   1.260   5.366   2.122
 4524SOL    HW244067   1.307   5.292   2.260
 4525SOL     OW44068   4.963   3.430   2.187
 4525SOL    HW144069   4.984   3.504   2.122
 4525SOL    HW244070   5.031   3.430   2.260
 4526SOL     OW44071   0.698   3.021  10.645
 4526SOL    HW144072   0.758   3.100  10.659
 4526SOL    HW244073   0.612   3.052  10.604
 4527SOL     OW44074   0.698   4.883  10.645
 4527SOL    HW144075   0.758   4.962  10.659
 4527SOL    HW244076   0.612   4.914  10.604
 4528SOL     OW44077   0.329   5.835  10.643
 4528SOL    HW144078   0.400   5.906  10.649
 4528SOL    HW244079   0.241   5.874  10.671
 4529SOL     OW44080   4.053   0.249  10.643
 4529SOL    HW144081   4.124   0.320  10.649
 4529SOL    HW244082   3.965   0.288  10.671
 4530SOL     OW44083   1.080   1.331   2.243
 4530SOL    HW144084   1.087   1.247   2.188
 4530SOL    HW244085   1.142   1.400   2.207
 4531SOL     OW44086   4.804   5.055   2.243
 4531SOL    HW144087   4.811   4.971   2.188
 4531SOL    HW244088   4.866   5.124   2.207
 4532SOL     OW44089   3.735   3.429   2.245
 4532SOL    HW144090   3.664   3.417   2.175
 4532SOL    HW244091   3.736   3.350   2.305
 4533SOL     OW44092   3.735   5.291   2.245
 4533SOL    HW144093   3.664   5.279   2.175
 4533SOL    HW244094   3.736   5.212   2.305
 4534SOL     OW44095   2.225   3.661   2.247
 4534SOL    HW144096   2.275   3.575   2.253
 4534SOL    HW244097   2.290   3.738   2.244
 4535SOL     OW44098   0.871   2.816   2.255
 4535SOL    HW144099   0.925   2.747   2.303
 4535SOL    HW244100   0.839   2.885   2.321
 4536SOL     OW44101   0.871   4.678   2.255
 4536SOL    HW144102   0.925   4.609   2.303
 4536SOL    HW244103   0.839   4.747   2.321
 4537SOL     OW44104   2.733   0.954   2.255
 4537SOL    HW144105   2.787   0.885   2.303
 4537SOL    HW244106   2.701   1.023   2.321
 4538SOL     OW44107   2.733   2.816   2.255
 4538SOL    HW144108   2.787   2.747   2.303
 4538SOL    HW244109   2.701   2.885   2.321
 4539SOL     OW44110   0.578   2.397   2.259
 4539SOL    HW144111   0.590   2.463   2.185
 4539SOL    HW244112   0.624   2.431   2.342
 4540SOL     OW44113   0.578   6.121   2.259
 4540SOL    HW144114   0.590   6.187   2.185
 4540SOL    HW244115   0.624   6.155   2.342
 4541SOL     OW44116   4.302   2.397   2.259
 4541SOL    HW144117   4.314   2.463   2.185
 4541SOL    HW244118   4.348   2.431   2.342
 4542SOL     OW44119   4.302   6.121   2.259
 4542SOL    HW144120   4.314   6.187   2.185
 4542SOL    HW244121   4.348   6.155   2.342
 4543SOL     OW44122   0.264   5.286  10.586
 4543SOL    HW144123   0.234   5.343  10.662
 4543SOL    HW244124   0.257   5.189  10.612
 4544SOL     OW44125   3.988   5.286  10.586
 4544SOL    HW144126   3.958   5.343  10.662
 4544SOL    HW244127   3.981   5.189  10.612
 4545SOL     OW44128   1.441   1.171   2.261
 4545SOL    HW144129   1.386   1.087   2.254
 4545SOL    HW244130   1.467   1.200   2.169
 4546SOL     OW44131   1.441   4.895   2.261
 4546SOL    HW144132   1.386   4.811   2.254
 4546SOL    HW244133   1.467   4.924   2.169
 4547SOL     OW44134   3.303   4.895   2.261
 4547SOL    HW144135   3.248   4.811   2.254
 4547SOL    HW244136   3.329   4.924   2.169
 4548SOL     OW44137   0.516   3.772  10.582
 4548SOL    HW144138   0.474   3.715  10.512
 4548SOL    HW244139   0.450   3.841  10.614
 4549SOL     OW44140   0.516   5.634  10.582
 4549SOL    HW144141   0.474   5.577  10.512
 4549SOL    HW244142   0.450   5.703  10.614
 4550SOL     OW44143   2.378   3.772  10.582
 4550SOL    HW144144   2.336   3.715  10.512
 4550SOL    HW244145   2.312   3.841  10.614
 4551SOL     OW44146   4.240   3.772  10.582
 4551SOL    HW144147   4.198   3.715  10.512
 4551SOL    HW244148   4.174   3.841  10.614
 4552SOL     OW44149   6.102   3.772  10.582
 4552SOL    HW144150   6.060   3.715  10.512
 4552SOL    HW244151   6.036   3.841  10.614
 4553SOL     OW44152   1.807   1.064   2.267
 4553SOL    HW144153   1.745   1.049   2.191
 4553SOL    HW244154   1.755   1.075   2.352
 4554SOL     OW44155   3.669   1.064   2.267
 4554SOL    HW144156   3.607   1.049   2.191
 4554SOL    HW244157   3.617   1.075   2.352
 4555SOL     OW44158   3.669   2.926   2.267
 4555SOL    HW144159   3.607   2.911   2.191
 4555SOL    HW244160   3.617   2.937   2.352
 4556SOL     OW44161   5.531   1.064   2.267
 4556SOL    HW144162   5.469   1.049   2.191
 4556SOL    HW244163   5.479   1.075   2.352
 4557SOL     OW44164   1.559   0.220  10.571
 4557SOL    HW144165   1.554   0.257  10.663
 4557SOL    HW244166   1.487   0.151  10.559
 4558SOL     OW44167   1.559   3.944  10.571
 4558SOL    HW144168   1.554   3.981  10.663
 4558SOL    HW244169   1.487   3.875  10.559
 4559SOL     OW44170   1.605   5.805   2.276
 4559SOL    HW144171   1.521   5.804   2.330
 4559SOL    HW244172   1.607   5.888   2.220
 4560SOL     OW44173   2.335   4.988  10.569
 4560SOL    HW144174   2.285   4.989  10.483
 4560SOL    HW244175   2.272   4.970  10.645
 4561SOL     OW44176   4.197   1.264  10.569
 4561SOL    HW144177   4.147   1.265  10.483
 4561SOL    HW244178   4.134   1.246  10.645
 4562SOL     OW44179   6.059   3.126  10.569
 4562SOL    HW144180   6.009   3.127  10.483
 4562SOL    HW244181   5.996   3.108  10.645
 4563SOL     OW44182   0.117   0.147  10.568
 4563SOL    HW144183   0.040   0.114  10.622
 4563SOL    HW244184   0.202   0.117  10.610
 4564SOL     OW44185   1.979   4.735  10.568
 4564SOL    HW144186   1.902   4.702  10.622
 4564SOL    HW244187   2.064   4.705  10.610
 4565SOL     OW44188   1.979   0.147  10.568
 4565SOL    HW144189   1.902   0.114  10.622
 4565SOL    HW244190   2.064   0.117  10.610
 4566SOL     OW44191   0.562   0.194   2.279
 4566SOL    HW144192   0.557   0.189   2.379
 4566SOL    HW244193   0.564   0.290   2.250
 4567SOL     OW44194   0.562   2.056   2.279
 4567SOL    HW144195   0.557   2.051   2.379
 4567SOL    HW244196   0.564   2.152   2.250
 4568SOL     OW44197   2.424   5.780   2.279
 4568SOL    HW144198   2.419   5.775   2.379
 4568SOL    HW244199   2.426   5.876   2.250
 4569SOL     OW44200   2.114   1.089   2.280
 4569SOL    HW144201   2.128   1.005   2.332
 4569SOL    HW244202   2.059   1.153   2.335
 4570SOL     OW44203   5.838   2.951   2.280
 4570SOL    HW144204   5.852   2.867   2.332
 4570SOL    HW244205   5.783   3.015   2.335
 4571SOL     OW44206   0.201   4.242  10.564
 4571SOL    HW144207   0.260   4.202  10.494
 4571SOL    HW244208   0.143   4.313  10.523
 4572SOL     OW44209   2.063   4.242  10.564
 4572SOL    HW144210   2.122   4.202  10.494
 4572SOL    HW244211   2.005   4.313  10.523
 4573SOL     OW44212   3.925   2.380  10.564
 4573SOL    HW144213   3.984   2.340  10.494
 4573SOL    HW244214   3.867   2.451  10.523
 4574SOL     OW44215   2.854   1.114  10.561
 4574SOL    HW144216   2.755   1.120  10.571
 4574SOL    HW244217   2.877   1.034  10.505
 4575SOL     OW44218   2.854   4.838  10.561
 4575SOL    HW144219   2.755   4.844  10.571
 4575SOL    HW244220   2.877   4.758  10.505
 4576SOL     OW44221   4.716   2.976  10.561
 4576SOL    HW144222   4.617   2.982  10.571
 4576SOL    HW244223   4.739   2.896  10.505
 4577SOL     OW44224   0.700   1.660  10.558
 4577SOL    HW144225   0.644   1.741  10.567
 4577SOL    HW244226   0.752   1.664  10.472
 4578SOL     OW44227   2.562   5.384  10.558
 4578SOL    HW144228   2.506   5.465  10.567
 4578SOL    HW244229   2.614   5.388  10.472
 4579SOL     OW44230   4.424   5.384  10.558
 4579SOL    HW144231   4.368   5.465  10.567
 4579SOL    HW244232   4.476   5.388  10.472
 4580SOL     OW44233   6.286   3.522  10.558
 4580SOL    HW144234   6.230   3.603  10.567
 4580SOL    HW244235   6.338   3.526  10.472
 4581SOL     OW44236   0.934   0.501   2.293
 4581SOL    HW144237   0.909   0.492   2.197
 4581SOL    HW244238   0.982   0.419   2.324
 4582SOL     OW44239   0.934   6.087   2.293
 4582SOL    HW144240   0.909   6.078   2.197
 4582SOL    HW244241   0.982   6.005   2.324
 4583SOL     OW44242   0.070   2.363   2.293
 4583SOL    HW144243   0.045   2.354   2.197
 4583SOL    HW244244   0.118   2.281   2.324
 4584SOL     OW44245   0.728   0.563  10.550
 4584SOL    HW144246   0.747   0.628  10.624
 4584SOL    HW244247   0.788   0.483  10.559
 4585SOL     OW44248   0.728   6.149  10.550
 4585SOL    HW144249   0.747   6.214  10.624
 4585SOL    HW244250   0.788   6.069  10.559
 4586SOL     OW44251   2.590   0.563  10.550
 4586SOL    HW144252   2.609   0.628  10.624
 4586SOL    HW244253   2.650   0.483  10.559
 4587SOL     OW44254   2.590   4.287  10.550
 4587SOL    HW144255   2.609   4.352  10.624
 4587SOL    HW244256   2.650   4.207  10.559
 4588SOL     OW44257   6.314   0.563  10.550
 4588SOL    HW144258   6.333   0.628  10.624
 4588SOL    HW244259   6.374   0.483  10.559
 4589SOL     OW44260   6.314   4.287  10.550
 4589SOL    HW144261   6.333   4.352  10.624
 4589SOL    HW244262   6.374   4.207  10.559
 4590SOL     OW44263   2.814   1.696   2.298
 4590SOL    HW144264   2.894   1.639   2.319
 4590SOL    HW244265   2.765   1.656   2.221
 4591SOL     OW44266   2.814   5.420   2.298
 4591SOL    HW144267   2.894   5.363   2.319
 4591SOL    HW244268   2.765   5.380   2.221
 4592SOL     OW44269   4.676   3.558   2.298
 4592SOL    HW144270   4.756   3.501   2.319
 4592SOL    HW244271   4.627   3.518   2.221
 4593SOL     OW44272   4.676   5.420   2.298
 4593SOL    HW144273   4.756   5.363   2.319
 4593SOL    HW244274   4.627   5.380   2.221
 4594SOL     OW44275   0.992   1.571  10.542
 4594SOL    HW144276   0.972   1.615  10.454
 4594SOL    HW244277   1.031   1.480  10.526
 4595SOL     OW44278   4.716   1.571  10.542
 4595SOL    HW144279   4.696   1.615  10.454
 4595SOL    HW244280   4.755   1.480  10.526
 4596SOL     OW44281   4.716   3.433  10.542
 4596SOL    HW144282   4.696   3.477  10.454
 4596SOL    HW244283   4.755   3.342  10.526
 4597SOL     OW44284   6.102   3.428   2.304
 4597SOL    HW144285   6.168   3.502   2.313
 4597SOL    HW244286   6.146   3.349   2.262
 4598SOL     OW44287   4.863   1.339  10.532
 4598SOL    HW144288   4.910   1.339  10.620
 4598SOL    HW244289   4.815   1.252  10.521
 4599SOL     OW44290   4.539   3.262   2.318
 4599SOL    HW144291   4.629   3.276   2.276
 4599SOL    HW244292   4.468   3.264   2.247
 4600SOL     OW44293   4.539   5.124   2.318
 4600SOL    HW144294   4.629   5.138   2.276
 4600SOL    HW244295   4.468   5.126   2.247
 4601SOL     OW44296   1.962   3.661   2.321
 4601SOL    HW144297   1.920   3.575   2.294
 4601SOL    HW244298   2.056   3.664   2.287
 4602SOL     OW44299   5.686   3.661   2.321
 4602SOL    HW144300   5.644   3.575   2.294
 4602SOL    HW244301   5.780   3.664   2.287
 4603SOL     OW44302   3.012   2.240  10.520
 4603SOL    HW144303   2.967   2.303  10.584
 4603SOL    HW244304   3.105   2.271  10.503
 4604SOL     OW44305   3.012   5.964  10.520
 4604SOL    HW144306   2.967   6.027  10.584
 4604SOL    HW244307   3.105   5.995  10.503
 4605SOL     OW44308   1.406   6.053  10.516
 4605SOL    HW144309   1.386   6.096  10.604
 4605SOL    HW244310   1.484   5.991  10.525
 4606SOL     OW44311   3.268   4.191  10.516
 4606SOL    HW144312   3.248   4.234  10.604
 4606SOL    HW244313   3.346   4.129  10.525
 4607SOL     OW44314   3.268   6.053  10.516
 4607SOL    HW144315   3.248   6.096  10.604
 4607SOL    HW244316   3.346   5.991  10.525
 4608SOL     OW44317   1.599   2.639  10.512
 4608SOL    HW144318   1.507   2.677  10.507
 4608SOL    HW244319   1.659   2.686  10.447
 4609SOL     OW44320   3.461   2.639  10.512
 4609SOL    HW144321   3.369   2.677  10.507
 4609SOL    HW244322   3.521   2.686  10.447
 4610SOL     OW44323   5.323   4.501  10.512
 4610SOL    HW144324   5.231   4.539  10.507
 4610SOL    HW244325   5.383   4.548  10.447
 4611SOL     OW44326   5.323   6.363  10.512
 4611SOL    HW144327   5.231   6.401  10.507
 4611SOL    HW244328   5.383   6.410  10.447
 4612SOL     OW44329   1.293   4.067   2.338
 4612SOL    HW144330   1.207   4.017   2.325
 4612SOL    HW244331   1.355   4.013   2.394
 4613SOL     OW44332   5.017   4.067   2.338
 4613SOL    HW144333   4.931   4.017   2.325
 4613SOL    HW244334   5.079   4.013   2.394
 4614SOL     OW44335   5.017   5.929   2.338
 4614SOL    HW144336   4.931   5.879   2.325
 4614SOL    HW244337   5.079   5.875   2.394
 4615SOL     OW44338   0.331   4.532   2.343
 4615SOL    HW144339   0.424   4.568   2.348
 4615SOL    HW244340   0.325   4.447   2.395
 4616SOL     OW44341   0.331   6.394   2.343
 4616SOL    HW144342   0.424   6.430   2.348
 4616SOL    HW244343   0.325   6.309   2.395
 4617SOL     OW44344   2.193   4.532   2.343
 4617SOL    HW144345   2.286   4.568   2.348
 4617SOL    HW244346   2.187   4.447   2.395
 4618SOL     OW44347   5.917   2.670   2.343
 4618SOL    HW144348   6.010   2.706   2.348
 4618SOL    HW244349   5.911   2.585   2.395
 4619SOL     OW44350   4.397   1.788   2.347
 4619SOL    HW144351   4.351   1.876   2.334
 4619SOL    HW244352   4.496   1.800   2.340
 4620SOL     OW44353   4.397   3.650   2.347
 4620SOL    HW144354   4.351   3.738   2.334
 4620SOL    HW244355   4.496   3.662   2.340
 4621SOL     OW44356   4.397   5.512   2.347
 4621SOL    HW144357   4.351   5.600   2.334
 4621SOL    HW244358   4.496   5.524   2.340
 4622SOL     OW44359   1.462   1.218  10.475
 4622SOL    HW144360   1.453   1.208  10.574
 4622SOL    HW244361   1.558   1.211  10.449
 4623SOL     OW44362   1.462   4.942  10.475
 4623SOL    HW144363   1.453   4.932  10.574
 4623SOL    HW244364   1.558   4.935  10.449
 4624SOL     OW44365   3.324   1.218  10.475
 4624SOL    HW144366   3.315   1.208  10.574
 4624SOL    HW244367   3.420   1.211  10.449
 4625SOL     OW44368   0.684   3.251  10.466
 4625SOL    HW144369   0.606   3.201  10.504
 4625SOL    HW244370   0.681   3.346  10.497
 4626SOL     OW44371   4.408   5.113  10.466
 4626SOL    HW144372   4.330   5.063  10.504
 4626SOL    HW244373   4.405   5.208  10.497
 4627SOL     OW44374   0.351   0.507   2.400
 4627SOL    HW144375   0.299   0.424   2.383
 4627SOL    HW244376   0.428   0.512   2.336
 4628SOL     OW44377   0.351   2.369   2.400
 4628SOL    HW144378   0.299   2.286   2.383
 4628SOL    HW244379   0.428   2.374   2.336
 4629SOL     OW44380   4.075   2.369   2.400
 4629SOL    HW144381   4.023   2.286   2.383
 4629SOL    HW244382   4.152   2.374   2.336
   6.44980   6.44980  12.86200
